                         Program Version 4.2.0 -  RELEASE  -
|  1> # ORCA input file
|  2> # SCF done       -184.132779985822          0.000784458199
|  3> ! CAM-B3LYP def2-SVP def2/J RIJCOSX Grid4 TightSCF
|  4> %maxcore 5000
|  5> %tddft
|  6>     Mode sTDDFT
|  7>     Ethresh 5.0
|  8>     maxcore 5000
|  9> end
| 10>
| 11> %pal
| 12>   nprocs 6
| 13>   end
| 14> * xyz 0 1
| 15>    C       -1.86693        -3.30524         9.01662
| 16>    C       -2.01715        -3.83172        10.26921
| 17>    F       -1.48831        -3.20739        11.32899
| 18>    C       -2.72706        -5.03407        10.46160
| 19>    F       -2.85790        -5.52565        11.70019
| 20>    C       -3.27633        -5.69458         9.39805
| 21>    C       -3.13623        -5.17888         8.09507
| 22>    C       -2.42020        -3.96214         7.89962
| 23>    C       -2.26507        -3.42440         6.60057
| 24>    C       -2.80384        -4.08657         5.52981
| 25>    C       -3.51130        -5.30567         5.73516
| 26>    C       -3.68490        -5.84611         6.97681
| 27>    C       -3.96093        -5.81881         4.43266
| 28>    O       -4.60732        -6.83634         4.23303
| 29>    C       -3.47579        -4.87653         3.42426
| 30>    C       -2.79638        -3.78679         4.09853
| 31>    C       -2.25371        -2.66450         3.52855
| 32>    C       -2.26040        -2.35381         2.15222
| 33>    N       -2.22532        -2.02477         1.05231
| 34>    C       -1.61250        -1.63968         4.25709
| 35>    N       -1.08052        -0.77227         4.78816
| 36>    C       -3.60631        -5.04349         2.06702
| 37>    C       -4.20383        -6.08182         1.33607
| 38>    C       -4.14923        -6.05958        -0.06747
| 39>    C       -4.72423        -7.12560        -0.71922
| 40>    C       -5.30638        -8.08248         0.11726
| 41>   Se       -5.12893        -7.62123         1.92764
| 42>    C       -5.92836        -9.27954        -0.31765
| 43>    C       -6.53185       -10.15243         0.61984
| 44>    C       -7.15735       -11.38659         0.23314
| 45>    N       -7.74269       -12.14800         1.16171
| 46>    C       -7.72099       -11.78614         2.42456
| 47>    C       -7.07064       -10.57238         2.81242
| 48>    N       -6.51258        -9.80055         1.90941
| 49>    C       -7.03487       -10.18446         4.17651
| 50>    N       -7.02563        -9.91598         5.28916
| 51>    C       -8.37809       -12.62562         3.35940
| 52>    N       -8.92706       -13.30953         4.09573
| 53>    C       -7.18136       -11.84950        -1.10449
| 54>    C       -6.59508       -10.97494        -2.04915
| 55>    C       -5.99107        -9.71389        -1.66571
| 56>    N       -5.51212        -9.06651        -2.72840
| 57>    S       -5.78362        -9.92723        -4.05199
| 58>    N       -6.52221       -11.17252        -3.36534
| 59>    C       -7.73632       -13.11643        -1.40984
| 60>    C       -7.76853       -13.74674        -2.65197
| 61>    C       -8.35929       -14.99926        -2.66610
| 62>    C       -8.81457       -15.46722        -1.43516
| 63>   Se       -8.50664       -14.18582        -0.08547
| 64>    C       -9.53767       -16.66755        -1.27182
| 65>    C       -9.94599       -17.26943        -0.11792
| 66>    C      -11.11728       -18.18973        -0.14993
| 67>    O      -11.59106       -18.72579        -1.12392
| 68>    C      -11.60433       -18.23301         1.24454
| 69>    C      -12.74056       -18.80382         1.74096
| 70>    C      -13.03177       -18.66617         3.11691
| 71>    C      -12.14251       -17.92928         3.95327
| 72>    C      -12.45275       -17.78069         5.32000
| 73>    C      -13.58836       -18.34181         5.83337
| 74>    C      -14.46402       -19.07451         5.00668
| 75>    C      -14.19280       -19.23414         3.67679
| 76>    F      -15.57031       -19.61309         5.53679
| 77>    F      -13.88258       -18.20056         7.13196
| 78>    C      -10.96545       -17.35997         3.41469
| 79>    C      -10.69844       -17.52051         2.08220
| 80>    C       -9.57113       -17.07791         1.26704
| 81>    C       -8.30810       -16.83042         1.74063
| 82>    C       -7.18976       -16.68340         0.89417
| 83>    N       -6.25595       -16.58983         0.23169
| 84>    C       -7.97416       -16.80943         3.11080
| 85>    N       -7.64965       -16.78977         4.21093
| 86>    H       -1.32107        -2.38369         8.88726
| 87>    H       -3.81650        -6.61394         9.56121
| 88>    H       -1.71757        -2.50268         6.48883
| 89>    H       -4.22888        -6.76997         7.10155
| 90>    H       -3.16235        -4.27761         1.44028
| 91>    H       -3.66939        -5.24943        -0.59323
| 92>    H       -4.73544        -7.22898        -1.79023
| 93>    H       -7.35668       -13.27316        -3.52624
| 94>    H       -8.44247       -15.59089        -3.56303
| 95>    H       -9.91801       -17.12087        -2.18369
| 96>    H      -13.41069       -19.34890         1.09376
| 97>    H      -11.79151       -17.22498         5.96622
| 98>    H      -14.87383       -19.79627         3.05711
| 99>    H      -10.31273       -16.79433         4.06095
|100> *
|101>
|102>                          ****END OF INPUT****

CARTESIAN COORDINATES (ANGSTROEM)
---------------------------------
  C     -1.866930   -3.305240    9.016620
  C     -2.017150   -3.831720   10.269210
  F     -1.488310   -3.207390   11.328990
  C     -2.727060   -5.034070   10.461600
  F     -2.857900   -5.525650   11.700190
  C     -3.276330   -5.694580    9.398050
  C     -3.136230   -5.178880    8.095070
  C     -2.420200   -3.962140    7.899620
  C     -2.265070   -3.424400    6.600570
  C     -2.803840   -4.086570    5.529810
  C     -3.511300   -5.305670    5.735160
  C     -3.684900   -5.846110    6.976810
  C     -3.960930   -5.818810    4.432660
  O     -4.607320   -6.836340    4.233030
  C     -3.475790   -4.876530    3.424260
  C     -2.796380   -3.786790    4.098530
  C     -2.253710   -2.664500    3.528550
  C     -2.260400   -2.353810    2.152220
  N     -2.225320   -2.024770    1.052310
  C     -1.612500   -1.639680    4.257090
  N     -1.080520   -0.772270    4.788160
  C     -3.606310   -5.043490    2.067020
  C     -4.203830   -6.081820    1.336070
  C     -4.149230   -6.059580   -0.067470
  C     -4.724230   -7.125600   -0.719220
  C     -5.306380   -8.082480    0.117260
  Se    -5.128930   -7.621230    1.927640
  C     -5.928360   -9.279540   -0.317650
  C     -6.531850  -10.152430    0.619840
  C     -7.157350  -11.386590    0.233140
  N     -7.742690  -12.148000    1.161710
  C     -7.720990  -11.786140    2.424560
  C     -7.070640  -10.572380    2.812420
  N     -6.512580   -9.800550    1.909410
  C     -7.034870  -10.184460    4.176510
  N     -7.025630   -9.915980    5.289160
  C     -8.378090  -12.625620    3.359400
  N     -8.927060  -13.309530    4.095730
  C     -7.181360  -11.849500   -1.104490
  C     -6.595080  -10.974940   -2.049150
  C     -5.991070   -9.713890   -1.665710
  N     -5.512120   -9.066510   -2.728400
  S     -5.783620   -9.927230   -4.051990
  N     -6.522210  -11.172520   -3.365340
  C     -7.736320  -13.116430   -1.409840
  C     -7.768530  -13.746740   -2.651970
  C     -8.359290  -14.999260   -2.666100
  C     -8.814570  -15.467220   -1.435160
  Se    -8.506640  -14.185820   -0.085470
  C     -9.537670  -16.667550   -1.271820
  C     -9.945990  -17.269430   -0.117920
  C    -11.117280  -18.189730   -0.149930
  O    -11.591060  -18.725790   -1.123920
  C    -11.604330  -18.233010    1.244540
  C    -12.740560  -18.803820    1.740960
  C    -13.031770  -18.666170    3.116910
  C    -12.142510  -17.929280    3.953270
  C    -12.452750  -17.780690    5.320000
  C    -13.588360  -18.341810    5.833370
  C    -14.464020  -19.074510    5.006680
  C    -14.192800  -19.234140    3.676790
  F    -15.570310  -19.613090    5.536790
  F    -13.882580  -18.200560    7.131960
  C    -10.965450  -17.359970    3.414690
  C    -10.698440  -17.520510    2.082200
  C     -9.571130  -17.077910    1.267040
  C     -8.308100  -16.830420    1.740630
  C     -7.189760  -16.683400    0.894170
  N     -6.255950  -16.589830    0.231690
  C     -7.974160  -16.809430    3.110800
  N     -7.649650  -16.789770    4.210930
  H     -1.321070   -2.383690    8.887260
  H     -3.816500   -6.613940    9.561210
  H     -1.717570   -2.502680    6.488830
  H     -4.228880   -6.769970    7.101550
  H     -3.162350   -4.277610    1.440280
  H     -3.669390   -5.249430   -0.593230
  H     -4.735440   -7.228980   -1.790230
  H     -7.356680  -13.273160   -3.526240
  H     -8.442470  -15.590890   -3.563030
  H     -9.918010  -17.120870   -2.183690
  H    -13.410690  -19.348900    1.093760
  H    -11.791510  -17.224980    5.966220
  H    -14.873830  -19.796270    3.057110
  H    -10.312730  -16.794330    4.060950

 Total Charge           Charge          ....    0
 Multiplicity           Mult            ....    1
 Number of Electrons    NEL             ....  532
 Basis Dimension        Dim             .... 1104

ORBITAL ENERGIES
----------------

  NO   OCC          E(Eh)            E(eV)
   0   2.0000    -453.939500    -12352.3218
   1   2.0000    -453.934336    -12352.1812
   2   2.0000     -89.065026     -2423.5826
   3   2.0000     -58.153383     -1582.4340
   4   2.0000     -58.147500     -1582.2739
   5   2.0000     -52.223472     -1421.0729
   6   2.0000     -52.222281     -1421.0405
   7   2.0000     -52.221590     -1421.0217
   8   2.0000     -52.217582     -1420.9126
   9   2.0000     -52.216277     -1420.8771
  10   2.0000     -52.215661     -1420.8604
  11   2.0000     -24.798660      -674.8059
  12   2.0000     -24.798130      -674.7914
  13   2.0000     -24.797577      -674.7764
  14   2.0000     -24.796530      -674.7479
  15   2.0000     -19.227641      -523.2107
  16   2.0000     -19.217663      -522.9392
  17   2.0000     -14.489449      -394.2779
  18   2.0000     -14.486101      -394.1868
  19   2.0000     -14.473168      -393.8349
  20   2.0000     -14.472590      -393.8192
  21   2.0000     -14.448610      -393.1667
  22   2.0000     -14.445359      -393.0782
  23   2.0000     -14.421110      -392.4184
  24   2.0000     -14.417960      -392.3326
  25   2.0000     -14.417300      -392.3147
  26   2.0000     -14.417194      -392.3118
  27   2.0000     -10.406293      -283.1696
  28   2.0000     -10.405766      -283.1553
  29   2.0000     -10.382125      -282.5120
  30   2.0000     -10.381650      -282.4991
  31   2.0000     -10.380611      -282.4708
  32   2.0000     -10.380008      -282.4544
  33   2.0000     -10.374296      -282.2990
  34   2.0000     -10.369763      -282.1756
  35   2.0000     -10.368043      -282.1288
  36   2.0000     -10.367344      -282.1098
  37   2.0000     -10.364567      -282.0342
  38   2.0000     -10.364325      -282.0276
  39   2.0000     -10.347897      -281.5806
  40   2.0000     -10.346285      -281.5367
  41   2.0000     -10.345449      -281.5140
  42   2.0000     -10.344864      -281.4981
  43   2.0000     -10.341690      -281.4117
  44   2.0000     -10.340329      -281.3746
  45   2.0000     -10.338057      -281.3128
  46   2.0000     -10.337377      -281.2943
  47   2.0000     -10.329009      -281.0666
  48   2.0000     -10.325835      -280.9803
  49   2.0000     -10.323845      -280.9261
  50   2.0000     -10.322638      -280.8933
  51   2.0000     -10.320951      -280.8474
  52   2.0000     -10.318978      -280.7937
  53   2.0000     -10.318927      -280.7923
  54   2.0000     -10.318754      -280.7876
  55   2.0000     -10.313202      -280.6365
  56   2.0000     -10.312557      -280.6190
  57   2.0000     -10.311745      -280.5969
  58   2.0000     -10.311480      -280.5896
  59   2.0000     -10.310370      -280.5594
  60   2.0000     -10.310099      -280.5521
  61   2.0000     -10.309495      -280.5356
  62   2.0000     -10.308322      -280.5037
  63   2.0000     -10.304498      -280.3996
  64   2.0000     -10.303987      -280.3858
  65   2.0000     -10.303268      -280.3662
  66   2.0000     -10.302710      -280.3510
  67   2.0000     -10.302277      -280.3392
  68   2.0000     -10.302181      -280.3366
  69   2.0000     -10.301681      -280.3230
  70   2.0000     -10.301222      -280.3105
  71   2.0000     -10.300639      -280.2946
  72   2.0000     -10.299298      -280.2582
  73   2.0000     -10.297734      -280.2156
  74   2.0000     -10.295787      -280.1626
  75   2.0000     -10.294886      -280.1381
  76   2.0000     -10.294719      -280.1336
  77   2.0000     -10.294667      -280.1321
  78   2.0000     -10.287168      -279.9281
  79   2.0000      -8.156235      -221.9424
  80   2.0000      -7.927547      -215.7195
  81   2.0000      -7.921706      -215.5606
  82   2.0000      -6.127348      -166.7336
  83   2.0000      -6.119342      -166.5158
  84   2.0000      -6.119154      -166.5107
  85   2.0000      -5.876710      -159.9134
  86   2.0000      -5.872024      -159.7859
  87   2.0000      -5.870641      -159.7483
  88   2.0000      -5.867331      -159.6582
  89   2.0000      -5.865955      -159.6208
  90   2.0000      -5.861533      -159.5004
  91   2.0000      -2.231243       -60.7152
  92   2.0000      -2.230556       -60.6965
  93   2.0000      -2.226018       -60.5730
  94   2.0000      -2.224974       -60.5446
  95   2.0000      -2.224468       -60.5309
  96   2.0000      -2.222268       -60.4710
  97   2.0000      -2.221962       -60.4627
  98   2.0000      -2.220066       -60.4111
  99   2.0000      -2.216293       -60.3084
 100   2.0000      -2.216105       -60.3033
 101   2.0000      -1.321598       -35.9625
 102   2.0000      -1.320115       -35.9221
 103   2.0000      -1.306713       -35.5575
 104   2.0000      -1.305233       -35.5172
 105   2.0000      -1.162303       -31.6279
 106   2.0000      -1.146578       -31.2000
 107   2.0000      -1.140904       -31.0456
 108   2.0000      -1.133331       -30.8395
 109   2.0000      -1.074215       -29.2309
 110   2.0000      -1.031742       -28.0751
 111   2.0000      -1.023310       -27.8457
 112   2.0000      -1.021946       -27.8086
 113   2.0000      -1.021721       -27.8024
 114   2.0000      -1.016492       -27.6601
 115   2.0000      -1.007139       -27.4056
 116   2.0000      -1.004448       -27.3324
 117   2.0000      -1.003041       -27.2941
 118   2.0000      -0.997989       -27.1567
 119   2.0000      -0.995402       -27.0863
 120   2.0000      -0.984662       -26.7940
 121   2.0000      -0.983532       -26.7633
 122   2.0000      -0.975810       -26.5531
 123   2.0000      -0.968325       -26.3495
 124   2.0000      -0.934880       -25.4394
 125   2.0000      -0.932917       -25.3860
 126   2.0000      -0.928888       -25.2763
 127   2.0000      -0.921386       -25.0722
 128   2.0000      -0.908145       -24.7119
 129   2.0000      -0.902692       -24.5635
 130   2.0000      -0.894116       -24.3301
 131   2.0000      -0.892797       -24.2942
 132   2.0000      -0.884895       -24.0792
 133   2.0000      -0.877616       -23.8811
 134   2.0000      -0.858003       -23.3474
 135   2.0000      -0.842489       -22.9253
 136   2.0000      -0.841809       -22.9068
 137   2.0000      -0.840513       -22.8715
 138   2.0000      -0.836182       -22.7537
 139   2.0000      -0.829109       -22.5612
 140   2.0000      -0.823662       -22.4130
 141   2.0000      -0.817376       -22.2419
 142   2.0000      -0.797102       -21.6903
 143   2.0000      -0.778369       -21.1805
 144   2.0000      -0.771477       -20.9929
 145   2.0000      -0.766881       -20.8679
 146   2.0000      -0.762058       -20.7367
 147   2.0000      -0.748328       -20.3630
 148   2.0000      -0.737631       -20.0719
 149   2.0000      -0.730919       -19.8893
 150   2.0000      -0.724265       -19.7083
 151   2.0000      -0.721236       -19.6258
 152   2.0000      -0.718177       -19.5426
 153   2.0000      -0.716044       -19.4846
 154   2.0000      -0.708990       -19.2926
 155   2.0000      -0.695265       -18.9191
 156   2.0000      -0.687735       -18.7142
 157   2.0000      -0.685217       -18.6457
 158   2.0000      -0.678607       -18.4658
 159   2.0000      -0.674563       -18.3558
 160   2.0000      -0.662769       -18.0349
 161   2.0000      -0.658043       -17.9063
 162   2.0000      -0.653491       -17.7824
 163   2.0000      -0.649397       -17.6710
 164   2.0000      -0.643904       -17.5215
 165   2.0000      -0.642466       -17.4824
 166   2.0000      -0.641350       -17.4520
 167   2.0000      -0.638693       -17.3797
 168   2.0000      -0.634148       -17.2560
 169   2.0000      -0.628363       -17.0986
 170   2.0000      -0.617116       -16.7926
 171   2.0000      -0.615215       -16.7409
 172   2.0000      -0.609617       -16.5885
 173   2.0000      -0.606715       -16.5095
 174   2.0000      -0.602176       -16.3860
 175   2.0000      -0.595101       -16.1935
 176   2.0000      -0.590666       -16.0728
 177   2.0000      -0.585993       -15.9457
 178   2.0000      -0.584737       -15.9115
 179   2.0000      -0.584649       -15.9091
 180   2.0000      -0.582040       -15.8381
 181   2.0000      -0.577515       -15.7150
 182   2.0000      -0.577053       -15.7024
 183   2.0000      -0.563813       -15.3421
 184   2.0000      -0.560503       -15.2521
 185   2.0000      -0.554304       -15.0834
 186   2.0000      -0.553529       -15.0623
 187   2.0000      -0.551480       -15.0065
 188   2.0000      -0.547534       -14.8992
 189   2.0000      -0.546273       -14.8648
 190   2.0000      -0.544438       -14.8149
 191   2.0000      -0.539158       -14.6712
 192   2.0000      -0.537717       -14.6320
 193   2.0000      -0.534686       -14.5496
 194   2.0000      -0.532600       -14.4928
 195   2.0000      -0.531196       -14.4546
 196   2.0000      -0.528569       -14.3831
 197   2.0000      -0.528346       -14.3770
 198   2.0000      -0.519822       -14.1451
 199   2.0000      -0.516869       -14.0647
 200   2.0000      -0.515705       -14.0330
 201   2.0000      -0.511189       -13.9102
 202   2.0000      -0.508761       -13.8441
 203   2.0000      -0.506762       -13.7897
 204   2.0000      -0.506333       -13.7780
 205   2.0000      -0.502923       -13.6852
 206   2.0000      -0.502242       -13.6667
 207   2.0000      -0.501393       -13.6436
 208   2.0000      -0.496941       -13.5225
 209   2.0000      -0.495038       -13.4707
 210   2.0000      -0.491675       -13.3792
 211   2.0000      -0.490269       -13.3409
 212   2.0000      -0.487839       -13.2748
 213   2.0000      -0.487054       -13.2534
 214   2.0000      -0.481679       -13.1072
 215   2.0000      -0.473092       -12.8735
 216   2.0000      -0.472005       -12.8439
 217   2.0000      -0.471121       -12.8199
 218   2.0000      -0.469793       -12.7837
 219   2.0000      -0.468870       -12.7586
 220   2.0000      -0.465375       -12.6635
 221   2.0000      -0.464458       -12.6386
 222   2.0000      -0.462651       -12.5894
 223   2.0000      -0.459924       -12.5152
 224   2.0000      -0.455372       -12.3913
 225   2.0000      -0.454376       -12.3642
 226   2.0000      -0.452708       -12.3188
 227   2.0000      -0.450710       -12.2644
 228   2.0000      -0.448358       -12.2004
 229   2.0000      -0.446752       -12.1567
 230   2.0000      -0.446407       -12.1473
 231   2.0000      -0.445596       -12.1253
 232   2.0000      -0.443616       -12.0714
 233   2.0000      -0.439612       -11.9625
 234   2.0000      -0.438132       -11.9222
 235   2.0000      -0.435637       -11.8543
 236   2.0000      -0.434351       -11.8193
 237   2.0000      -0.430512       -11.7148
 238   2.0000      -0.428902       -11.6710
 239   2.0000      -0.428508       -11.6603
 240   2.0000      -0.425779       -11.5860
 241   2.0000      -0.424440       -11.5496
 242   2.0000      -0.415059       -11.2943
 243   2.0000      -0.413617       -11.2551
 244   2.0000      -0.411878       -11.2078
 245   2.0000      -0.406291       -11.0557
 246   2.0000      -0.399786       -10.8787
 247   2.0000      -0.396658       -10.7936
 248   2.0000      -0.389068       -10.5871
 249   2.0000      -0.386308       -10.5120
 250   2.0000      -0.379633       -10.3303
 251   2.0000      -0.372694       -10.1415
 252   2.0000      -0.368766       -10.0346
 253   2.0000      -0.364192        -9.9102
 254   2.0000      -0.358846        -9.7647
 255   2.0000      -0.342300        -9.3145
 256   2.0000      -0.338522        -9.2116
 257   2.0000      -0.333091        -9.0639
 258   2.0000      -0.324049        -8.8178
 259   2.0000      -0.319917        -8.7054
 260   2.0000      -0.316948        -8.6246
 261   2.0000      -0.316381        -8.6092
 262   2.0000      -0.306326        -8.3355
 263   2.0000      -0.301327        -8.1995
 264   2.0000      -0.294425        -8.0117
 265   2.0000      -0.257934        -7.0188
 266   0.0000      -0.152422        -4.1476
 267   0.0000      -0.096440        -2.6243
 268   0.0000      -0.093326        -2.5395
 269   0.0000      -0.070131        -1.9084
 270   0.0000      -0.063511        -1.7282

MULLIKEN ATOMIC CHARGES
-----------------------
   0 C :   -0.106914
   1 C :    0.242005
   2 F :   -0.169759
   3 C :    0.238073
   4 F :   -0.170628
   5 C :   -0.102273
   6 C :    0.112516
   7 C :    0.112747
   8 C :   -0.083695
   9 C :    0.047417
  10 C :   -0.003883
  11 C :   -0.078253
  12 C :    0.177865
  13 O :   -0.191584
  14 C :   -0.087628
  15 C :    0.334586
  16 C :   -0.354816
  17 C :   -0.188774
  18 N :    0.145572
  19 C :   -0.185222
  20 N :    0.152986
  21 C :   -0.025047
  22 C :   -0.091673
  23 C :    0.018755
  24 C :    0.012454
  25 C :   -0.231297
  26 Se:    0.370939
  27 C :    0.197293
  28 C :   -0.044229
  29 C :   -0.034067
  30 N :   -0.032028
  31 C :   -0.084844
  32 C :   -0.079085
  33 N :    0.000161
  34 C :   -0.235698
  35 N :    0.251462
  36 C :   -0.244157
  37 N :    0.261490
  38 C :    0.209354
  39 C :   -0.009807
  40 C :    0.006413
  41 N :   -0.287371
  42 S :    0.570174
  43 N :   -0.284861
  44 C :   -0.198417
  45 C :    0.019252
  46 C :    0.039164
  47 C :   -0.101368
  48 Se:    0.283289
  49 C :    0.050023
  50 C :   -0.129085
  51 C :    0.143201
  52 O :   -0.139306
  53 C :    0.013669
  54 C :   -0.085365
  55 C :    0.114521
  56 C :    0.109926
  57 C :   -0.107564
  58 C :    0.244169
  59 C :    0.239612
  60 C :   -0.106785
  61 F :   -0.172536
  62 F :   -0.170719
  63 C :   -0.076965
  64 C :    0.031845
  65 C :    0.239886
  66 C :   -0.313301
  67 C :   -0.208706
  68 N :    0.173089
  69 C :   -0.179657
  70 N :    0.169307
  71 H :    0.006785
  72 H :    0.003466
  73 H :   -0.006543
  74 H :   -0.002280
  75 H :    0.013777
  76 H :    0.007145
  77 H :    0.005240
  78 H :    0.005794
  79 H :   -0.001578
  80 H :    0.022424
  81 H :   -0.008403
  82 H :    0.009222
  83 H :    0.000064
  84 H :    0.009038
Sum of atomic charges:   -0.0000000

LOEWDIN ATOMIC CHARGES
----------------------
   0 C :   -0.029487
   1 C :    0.067210
   2 F :   -0.047859
   3 C :    0.067779
   4 F :   -0.048031
   5 C :   -0.031509
   6 C :   -0.008851
   7 C :   -0.006205
   8 C :    0.017982
   9 C :   -0.022145
  10 C :   -0.052202
  11 C :    0.033321
  12 C :    0.090656
  13 O :   -0.154754
  14 C :   -0.100907
  15 C :    0.076004
  16 C :   -0.139369
  17 C :   -0.020835
  18 N :   -0.052417
  19 C :   -0.017690
  20 N :   -0.052470
  21 C :    0.060830
  22 C :   -0.165129
  23 C :   -0.015818
  24 C :   -0.038326
  25 C :   -0.146896
  26 Se:    0.478796
  27 C :   -0.029845
  28 C :   -0.006038
  29 C :   -0.007335
  30 N :    0.001792
  31 C :   -0.013422
  32 C :   -0.012560
  33 N :    0.004935
  34 C :   -0.036900
  35 N :    0.009864
  36 C :   -0.037907
  37 N :    0.006264
  38 C :   -0.026651
  39 C :   -0.035186
  40 C :   -0.032945
  41 N :   -0.270859
  42 S :    0.693500
  43 N :   -0.272063
  44 C :   -0.135710
  45 C :   -0.026158
  46 C :   -0.016672
  47 C :   -0.157796
  48 Se:    0.457214
  49 C :    0.052543
  50 C :   -0.088444
  51 C :    0.083170
  52 O :   -0.141197
  53 C :   -0.054141
  54 C :    0.030020
  55 C :   -0.009464
  56 C :   -0.005063
  57 C :   -0.028632
  58 C :    0.067148
  59 C :    0.066981
  60 C :   -0.033555
  61 F :   -0.049748
  62 F :   -0.048313
  63 C :    0.017445
  64 C :   -0.019672
  65 C :    0.059875
  66 C :   -0.138344
  67 C :   -0.036611
  68 N :   -0.045168
  69 C :   -0.022344
  70 N :   -0.040908
  71 H :    0.047643
  72 H :    0.046322
  73 H :    0.040069
  74 H :    0.043373
  75 H :    0.048874
  76 H :    0.036532
  77 H :    0.029503
  78 H :    0.032513
  79 H :    0.035011
  80 H :    0.049850
  81 H :    0.040646
  82 H :    0.048740
  83 H :    0.044721
  84 H :    0.043426

  Mayer bond orders larger than 0.100000
B(  0-C ,  1-C ) :   1.4389 B(  0-C ,  5-C ) :   0.1083 B(  0-C ,  7-C ) :   1.1909
B(  0-C , 71-H ) :   1.0064 B(  1-C ,  2-F ) :   1.1363 B(  1-C ,  3-C ) :   1.1929
B(  3-C ,  4-F ) :   1.1337 B(  3-C ,  5-C ) :   1.4399 B(  5-C ,  6-C ) :   1.1949
B(  5-C , 72-H ) :   1.0070 B(  6-C ,  7-C ) :   1.2558 B(  6-C , 11-C ) :   1.1841
B(  7-C ,  8-C ) :   1.2136 B(  8-C ,  9-C ) :   1.4563 B(  8-C , 73-H ) :   0.9891
B(  9-C , 10-C ) :   1.2180 B(  9-C , 15-C ) :   0.9817 B( 10-C , 11-C ) :   1.4710
B( 10-C , 12-C ) :   0.9615 B( 11-C , 74-H ) :   1.0173 B( 12-C , 13-O ) :   2.0884
B( 12-C , 14-C ) :   0.9898 B( 13-O , 26-Se) :   0.1226 B( 14-C , 15-C ) :   1.0742
B( 14-C , 21-C ) :   1.4870 B( 15-C , 16-C ) :   1.6215 B( 16-C , 17-C ) :   1.1462
B( 16-C , 19-C ) :   1.1498 B( 17-C , 18-N ) :   2.9602 B( 19-C , 20-N ) :   2.9620
B( 21-C , 22-C ) :   1.2558 B( 21-C , 75-H ) :   0.9436 B( 22-C , 23-C ) :   1.3321
B( 22-C , 26-Se) :   1.0472 B( 23-C , 24-C ) :   1.3402 B( 23-C , 76-H ) :   1.0032
B( 24-C , 25-C ) :   1.3806 B( 24-C , 77-H ) :   0.9860 B( 25-C , 26-Se) :   1.0573
B( 25-C , 27-C ) :   1.2244 B( 27-C , 28-C ) :   1.2498 B( 27-C , 38-C ) :   0.1242
B( 27-C , 40-C ) :   1.1706 B( 28-C , 29-C ) :   1.1204 B( 28-C , 33-N ) :   1.4022
B( 29-C , 30-N ) :   1.3847 B( 29-C , 38-C ) :   1.2459 B( 30-N , 31-C ) :   1.6697
B( 30-N , 48-Se) :   0.1128 B( 31-C , 32-C ) :   1.2167 B( 31-C , 36-C ) :   1.1716
B( 32-C , 33-N ) :   1.6933 B( 32-C , 34-C ) :   1.1682 B( 34-C , 35-N ) :   3.0291
B( 36-C , 37-N ) :   3.0310 B( 38-C , 39-C ) :   1.1725 B( 38-C , 44-C ) :   1.2248
B( 39-C , 40-C ) :   1.0939 B( 39-C , 43-N ) :   1.5173 B( 40-C , 41-N ) :   1.5104
B( 41-N , 42-S ) :   1.2860 B( 41-N , 43-N ) :   0.1485 B( 42-S , 43-N ) :   1.2855
B( 44-C , 45-C ) :   1.4189 B( 44-C , 48-Se) :   1.0958 B( 45-C , 46-C ) :   1.3052
B( 45-C , 78-H ) :   0.9839 B( 46-C , 47-C ) :   1.4073 B( 46-C , 79-H ) :   1.0012
B( 47-C , 48-Se) :   1.0415 B( 47-C , 49-C ) :   1.1658 B( 49-C , 50-C ) :   1.6224
B( 49-C , 80-H ) :   0.9501 B( 50-C , 51-C ) :   0.9424 B( 50-C , 65-C ) :   1.0334
B( 51-C , 52-O ) :   2.2700 B( 51-C , 53-C ) :   0.9203 B( 53-C , 54-C ) :   1.4736
B( 53-C , 64-C ) :   1.2190 B( 54-C , 55-C ) :   1.1956 B( 54-C , 81-H ) :   1.0168
B( 55-C , 56-C ) :   1.2560 B( 55-C , 60-C ) :   1.1925 B( 56-C , 57-C ) :   1.1923
B( 56-C , 63-C ) :   1.2113 B( 57-C , 58-C ) :   1.4400 B( 57-C , 60-C ) :   0.1089
B( 57-C , 82-H ) :   1.0078 B( 58-C , 59-C ) :   1.1907 B( 58-C , 62-F ) :   1.1340
B( 59-C , 60-C ) :   1.4429 B( 59-C , 61-F ) :   1.1326 B( 60-C , 83-H ) :   1.0072
B( 63-C , 64-C ) :   1.4624 B( 63-C , 84-H ) :   0.9965 B( 64-C , 65-C ) :   0.9993
B( 65-C , 66-C ) :   1.6553 B( 66-C , 67-C ) :   1.1486 B( 66-C , 69-C ) :   1.1397
B( 67-C , 68-N ) :   3.0129 B( 69-C , 70-N ) :   2.9948

-----------------------------------------------------------------------------
         ABSORPTION SPECTRUM VIA TRANSITION ELECTRIC DIPOLE MOMENTS
-----------------------------------------------------------------------------
State   Energy  Wavelength   fosc         T2         TX        TY        TZ
        (cm-1)    (nm)                  (au**2)     (au)      (au)      (au)
-----------------------------------------------------------------------------
   0    7604.8   1315.0   0.486304885  21.05213   2.04156   3.96526   1.07745
   1   16397.9    609.8   0.041405863   0.83128   0.15472  -0.30179   0.84633
   2   17862.5    559.8   0.115386175   2.12661   0.66600   1.15330   0.59410
   3   18479.1    541.2   0.017369782   0.30945   0.23858   0.49854  -0.06313
   4   19627.2    509.5   0.222537924   3.73268  -0.87695  -1.64620   0.50367
   5   20066.7    498.3   0.153459413   2.51764  -0.43504  -1.52256   0.10095
   6   20476.2    488.4   0.458533991   7.37221   1.26372   1.88126   1.49536
   7   21319.9    469.0   0.001489071   0.02299  -0.09463   0.10950   0.04526
   8   21685.2    461.1   0.018626854   0.28278  -0.11926  -0.24290   0.45778
   9   23346.6    428.3   0.009026349   0.12728  -0.09986   0.27208   0.20804
  10   24539.6    407.5   0.046557461   0.62459  -0.00400  -0.10742  -0.78297
  11   24579.5    406.8   0.053586137   0.71772  -0.06442   0.04008  -0.84378
  12   24735.5    404.3   0.119841457   1.59501   0.72651   0.87597   0.54761
  13   25256.2    395.9   0.002857828   0.03725   0.17448   0.05127   0.06464
  14   25660.7    389.7   0.009104735   0.11681  -0.16570  -0.05510   0.29380
  15   26351.1    379.5   0.024978856   0.31207  -0.36225  -0.42178  -0.05424
  16   27188.2    367.8   0.051220142   0.62021   0.26680   0.05440   0.73896
  17   28159.8    355.1   0.024473249   0.28611  -0.47663  -0.21836  -0.10608
  18   28433.4    351.7   0.064860139   0.75097   0.08203  -0.40820  -0.76001
  19   28691.9    348.5   0.033504464   0.38443  -0.19397  -0.48877  -0.32850
  20   29247.4    341.9   0.019843972   0.22337  -0.42164   0.01355  -0.21308
  21   29494.5    339.0   0.187470695   2.09251   1.21813   0.76811  -0.13666
  22   30378.2    329.2   0.006788294   0.07357   0.20096   0.17471   0.05156
  23   30482.6    328.1   0.054243112   0.58583  -0.51485  -0.34841   0.44651
  24   30682.2    325.9   0.108725729   1.16660  -0.14235  -0.13363  -1.06230
  25   30852.8    324.1   0.935297040   9.98000   0.71369   0.63913  -3.01034
  26   30926.3    323.3   0.067428817   0.71778   0.42090   0.26246   0.68683
  27   31562.5    316.8   0.015289222   0.15947   0.30016   0.11725   0.23586
  28   31627.7    316.2   0.062933929   0.65508   0.27235   0.17082  -0.74278
  29   31858.3    313.9   0.201386986   2.08106  -0.30979  -0.24855   1.38683
  30   32083.4    311.7   0.022534674   0.23123   0.15912  -0.01301   0.45359
  31   33089.0    302.2   0.068713906   0.68365  -0.44289  -0.56381  -0.41184
  32   33590.0    297.7   0.004546722   0.04456  -0.07260   0.11514   0.16135
  33   33793.2    295.9   0.007423796   0.07232   0.06887   0.05282  -0.25454
  34   33856.0    295.4   0.048732767   0.47387   0.63129   0.25768   0.09457
  35   34125.0    293.0   0.235464300   2.27158  -1.29889  -0.60082   0.47275
  36   34474.8    290.1   0.083321638   0.79567   0.28388  -0.11658  -0.83755
  37   34558.2    289.4   0.055516790   0.52887   0.45550   0.56690   0.00326
  38   34885.9    286.6   0.496645195   4.68675  -0.68858  -1.45445   1.44817
  39   35004.5    285.7   0.539423758   5.07320   0.67078   0.65978  -2.04645
  40   35246.1    283.7   0.164299880   1.53462  -1.07078  -0.34935   0.51575
  41   35369.8    282.7   0.133856860   1.24590  -1.06146   0.34255  -0.04322
  42   35627.8    280.7   0.019319074   0.17851  -0.38156  -0.17671   0.04118
  43   35883.9    278.7   0.095754368   0.87849   0.10877  -0.00439   0.93093
  44   36236.6    276.0   0.068150549   0.61915   0.30107   0.40797   0.60172
  45   36608.9    273.2   0.112075110   1.00786  -0.69468  -0.25972   0.67663
  46   36674.9    272.7   0.025482231   0.22874   0.41669   0.23451   0.01065
  47   37108.1    269.5   0.052057358   0.46184   0.31956   0.16510   0.57659
  48   37314.2    268.0   0.004342563   0.03831   0.07678  -0.17554  -0.04004
  49   37688.1    265.3   0.020817749   0.18185   0.31821   0.28177   0.03451
  50   37833.6    264.3   0.053175654   0.46271  -0.14635  -0.24377  -0.61796
  51   37905.4    263.8   0.006585729   0.05720   0.08302   0.13449  -0.17949
  52   38195.0    261.8   0.066537473   0.57350   0.41699   0.62851  -0.06779
  53   38435.6    260.2   0.015459654   0.13242  -0.25797  -0.23077  -0.11231
  54   38526.8    259.6   0.004384666   0.03747  -0.10594  -0.07742  -0.14230
  55   38835.4    257.5   0.138040100   1.17018   0.49172   0.16585  -0.94915
  56   39020.6    256.3   0.052592000   0.44371   0.41564   0.43261  -0.28949
  57   39211.2    255.0   0.031652491   0.26575   0.06734   0.08976   0.50315
  58   39364.7    254.0   0.045266837   0.37857   0.13933   0.29242   0.52311
  59   39680.2    252.0   0.093868748   0.77879   0.08722  -0.23343   0.84658
  60   39844.7    251.0   0.102530269   0.84714   0.01482   0.18149   0.90221
  61   39956.3    250.3   0.340798508   2.80794  -0.48745  -0.36426  -1.56130
  62   39978.4    250.1   0.075482529   0.62158   0.37971   0.65265   0.22682
  63   40232.1    248.6   0.042562185   0.34828   0.07861   0.14325   0.56708

FINAL SINGLE POINT ENERGY     -8284.164893690904

DIPOLE MOMENT
-------------
                                X             Y             Z
Electronic contribution:     -3.55459      -1.70673     -13.17548
Nuclear contribution   :      2.37940       1.36288      10.47497
                        -----------------------------------------
Total Dipole Moment    :     -1.17519      -0.34384      -2.70052
                        -----------------------------------------
Magnitude (a.u.)       :      2.96515
Magnitude (Debye)      :      7.53681

Rotational constants in cm-1:     0.001245     0.000353     0.000283
Rotational constants in MHz :    37.330294    10.579581     8.497609

                             ****ORCA TERMINATED NORMALLY****
TOTAL RUN TIME: 0 days 0 hours 20 minutes 31 seconds 684 msec
