                         Program Version 4.2.0 -  RELEASE  -
|  1> # ORCA input file
|  2> # SCF done       -180.690145393576          0.000867699373
|  3> ! CAM-B3LYP def2-SVP def2/J RIJCOSX Grid4 TightSCF
|  4> %maxcore 5000
|  5> %tddft
|  6>     Mode sTDDFT
|  7>     Ethresh 5.0
|  8>     maxcore 5000
|  9> end
| 10>
| 11> %pal
| 12>   nprocs 6
| 13>   end
| 14> * xyz 0 1
| 15>    C       -6.86569         1.50860         6.84031
| 16>    C       -7.44231         1.57023         8.07770
| 17>    F       -7.69455         2.75697         8.64478
| 18>    C       -7.77871         0.39055         8.77233
| 19>    F       -8.34190         0.48184         9.98447
| 20>    C       -7.53544        -0.83499         8.21861
| 21>    C       -6.94351        -0.93133         6.94416
| 22>    C       -6.60002         0.26020         6.24185
| 23>    C       -6.00054         0.18908         4.96377
| 24>    C       -5.75326        -1.03675         4.40202
| 25>    C       -6.10872        -2.21780         5.10685
| 26>    C       -6.68503        -2.18295         6.34397
| 27>    C       -5.76461        -3.40138         4.29697
| 28>    O       -5.93775        -4.55380         4.63491
| 29>    C       -5.18807        -2.87599         3.03621
| 30>    C       -5.15548        -1.42189         3.12609
| 31>    C       -4.64501        -0.53758         2.21181
| 32>    C       -4.64496         0.86402         2.38547
| 33>    N       -4.60683         2.00905         2.45652
| 34>    C       -4.03240        -0.84894         0.97842
| 35>    N       -3.52148        -0.99152        -0.04055
| 36>    C       -4.76595        -3.57109         1.93457
| 37>    C       -4.72479        -4.94996         1.64590
| 38>    C       -5.07755        -6.07722         2.37154
| 39>    C       -4.86216        -7.24641         1.65366
| 40>    C       -4.33610        -7.04351         0.36126
| 41>    S       -4.10805        -5.37092         0.03985
| 42>    C       -4.12742        -8.22280        -0.35146
| 43>    C       -4.49479        -9.32259         0.39551
| 44>    S       -5.09910        -8.92660         1.98410
| 45>    C       -4.44796       -10.70200         0.02967
| 46>    N       -4.87221       -11.57098         0.93433
| 47>    N       -4.89592       -12.84766         0.73503
| 48>    C       -4.50131       -13.41400        -0.39548
| 49>    C       -4.01643       -12.59352        -1.45356
| 50>    C       -3.98611       -11.17797        -1.23071
| 51>    N       -3.51388       -10.51633        -2.28310
| 52>    S       -3.14464       -11.57495        -3.43617
| 53>    N       -3.56652       -12.91958        -2.66154
| 54>    C       -4.60218       -14.83569        -0.46649
| 55>    C       -4.30786       -15.67132        -1.52285
| 56>    C       -4.56439       -17.00129        -1.19317
| 57>    C       -5.04415       -17.17628         0.11817
| 58>    S       -5.19209       -15.67069         0.94900
| 59>    C       -5.28183       -18.50351         0.45630
| 60>    C       -5.00312       -19.36533        -0.59128
| 61>    S       -4.44976       -18.50624        -2.02033
| 62>    C       -5.18909       -20.76525        -0.66084
| 63>    C       -5.31326       -21.66071         0.35759
| 64>    C       -5.97080       -22.97199         0.09205
| 65>    O       -6.21155       -23.45462        -0.98901
| 66>    C       -6.31470       -23.50698         1.42544
| 67>    C       -7.05225       -24.61080         1.74329
| 68>    C       -7.28972       -24.90958         3.10391
| 69>    C       -6.75574       -24.05488         4.11189
| 70>    C       -7.00443       -24.35346         5.46660
| 71>    C       -7.74785       -25.44909         5.80510
| 72>    C       -8.27552       -26.29385         4.80760
| 73>    C       -8.05104       -26.03167         3.48512
| 74>    F       -9.00303       -27.35893         5.16845
| 75>    F       -7.98407       -25.73066         7.09258
| 76>    C       -5.98762       -22.92378         3.75272
| 77>    C       -5.76754       -22.65645         2.42820
| 78>    C       -5.01558       -21.58953         1.77194
| 79>    C       -4.02706       -20.84510         2.36037
| 80>    C       -3.16003       -19.99384         1.64571
| 81>    N       -2.41199       -19.31904         1.09622
| 82>    C       -3.71007       -20.91069         3.73286
| 83>    N       -3.43091       -20.91842         4.84604
| 84>    H       -6.61364         2.42103         6.32273
| 85>    H       -7.79904        -1.72855         8.76248
| 86>    H       -5.75481         1.11081         4.46269
| 87>    H       -6.94050        -3.09893         6.85475
| 88>    H       -4.39826        -2.96889         1.11208
| 89>    H       -5.47083        -6.03091         3.37012
| 90>    H       -3.73606        -8.29372        -1.34927
| 91>    H       -3.93382       -15.31745        -2.46550
| 92>    H       -5.68363       -18.82201         1.40060
| 93>    H       -5.33212       -21.17826        -1.65479
| 94>    H       -7.45259       -25.24571         0.96772
| 95>    H       -6.60510       -23.71914         6.24251
| 96>    H       -8.46196       -26.68792         2.73402
| 97>    H       -5.60303       -22.28844         4.53467
| 98> *
| 99>
|100>                          ****END OF INPUT****

CARTESIAN COORDINATES (ANGSTROEM)
---------------------------------
  C     -6.865690    1.508600    6.840310
  C     -7.442310    1.570230    8.077700
  F     -7.694550    2.756970    8.644780
  C     -7.778710    0.390550    8.772330
  F     -8.341900    0.481840    9.984470
  C     -7.535440   -0.834990    8.218610
  C     -6.943510   -0.931330    6.944160
  C     -6.600020    0.260200    6.241850
  C     -6.000540    0.189080    4.963770
  C     -5.753260   -1.036750    4.402020
  C     -6.108720   -2.217800    5.106850
  C     -6.685030   -2.182950    6.343970
  C     -5.764610   -3.401380    4.296970
  O     -5.937750   -4.553800    4.634910
  C     -5.188070   -2.875990    3.036210
  C     -5.155480   -1.421890    3.126090
  C     -4.645010   -0.537580    2.211810
  C     -4.644960    0.864020    2.385470
  N     -4.606830    2.009050    2.456520
  C     -4.032400   -0.848940    0.978420
  N     -3.521480   -0.991520   -0.040550
  C     -4.765950   -3.571090    1.934570
  C     -4.724790   -4.949960    1.645900
  C     -5.077550   -6.077220    2.371540
  C     -4.862160   -7.246410    1.653660
  C     -4.336100   -7.043510    0.361260
  S     -4.108050   -5.370920    0.039850
  C     -4.127420   -8.222800   -0.351460
  C     -4.494790   -9.322590    0.395510
  S     -5.099100   -8.926600    1.984100
  C     -4.447960  -10.702000    0.029670
  N     -4.872210  -11.570980    0.934330
  N     -4.895920  -12.847660    0.735030
  C     -4.501310  -13.414000   -0.395480
  C     -4.016430  -12.593520   -1.453560
  C     -3.986110  -11.177970   -1.230710
  N     -3.513880  -10.516330   -2.283100
  S     -3.144640  -11.574950   -3.436170
  N     -3.566520  -12.919580   -2.661540
  C     -4.602180  -14.835690   -0.466490
  C     -4.307860  -15.671320   -1.522850
  C     -4.564390  -17.001290   -1.193170
  C     -5.044150  -17.176280    0.118170
  S     -5.192090  -15.670690    0.949000
  C     -5.281830  -18.503510    0.456300
  C     -5.003120  -19.365330   -0.591280
  S     -4.449760  -18.506240   -2.020330
  C     -5.189090  -20.765250   -0.660840
  C     -5.313260  -21.660710    0.357590
  C     -5.970800  -22.971990    0.092050
  O     -6.211550  -23.454620   -0.989010
  C     -6.314700  -23.506980    1.425440
  C     -7.052250  -24.610800    1.743290
  C     -7.289720  -24.909580    3.103910
  C     -6.755740  -24.054880    4.111890
  C     -7.004430  -24.353460    5.466600
  C     -7.747850  -25.449090    5.805100
  C     -8.275520  -26.293850    4.807600
  C     -8.051040  -26.031670    3.485120
  F     -9.003030  -27.358930    5.168450
  F     -7.984070  -25.730660    7.092580
  C     -5.987620  -22.923780    3.752720
  C     -5.767540  -22.656450    2.428200
  C     -5.015580  -21.589530    1.771940
  C     -4.027060  -20.845100    2.360370
  C     -3.160030  -19.993840    1.645710
  N     -2.411990  -19.319040    1.096220
  C     -3.710070  -20.910690    3.732860
  N     -3.430910  -20.918420    4.846040
  H     -6.613640    2.421030    6.322730
  H     -7.799040   -1.728550    8.762480
  H     -5.754810    1.110810    4.462690
  H     -6.940500   -3.098930    6.854750
  H     -4.398260   -2.968890    1.112080
  H     -5.470830   -6.030910    3.370120
  H     -3.736060   -8.293720   -1.349270
  H     -3.933820  -15.317450   -2.465500
  H     -5.683630  -18.822010    1.400600
  H     -5.332120  -21.178260   -1.654790
  H     -7.452590  -25.245710    0.967720
  H     -6.605100  -23.719140    6.242510
  H     -8.461960  -26.687920    2.734020
  H     -5.603030  -22.288440    4.534670

 Total Charge           Charge          ....    0
 Multiplicity           Mult            ....    1
 Number of Electrons    NEL             ....  502
 Basis Dimension        Dim             .... 1056

ORBITAL ENERGIES
----------------

  NO   OCC          E(Eh)            E(eV)
   0   2.0000     -89.061378     -2423.4833
   1   2.0000     -88.974442     -2421.1177
   2   2.0000     -88.972090     -2421.0537
   3   2.0000     -88.969604     -2420.9860
   4   2.0000     -88.969517     -2420.9836
   5   2.0000     -24.800567      -674.8577
   6   2.0000     -24.799827      -674.8376
   7   2.0000     -24.799083      -674.8174
   8   2.0000     -24.797949      -674.7865
   9   2.0000     -19.222971      -523.0836
  10   2.0000     -19.219796      -522.9972
  11   2.0000     -14.476635      -393.9293
  12   2.0000     -14.476417      -393.9233
  13   2.0000     -14.459944      -393.4751
  14   2.0000     -14.459142      -393.4533
  15   2.0000     -14.420575      -392.4038
  16   2.0000     -14.419721      -392.3806
  17   2.0000     -14.419066      -392.3627
  18   2.0000     -14.416233      -392.2857
  19   2.0000     -10.383875      -282.5596
  20   2.0000     -10.383451      -282.5481
  21   2.0000     -10.382286      -282.5164
  22   2.0000     -10.381415      -282.4927
  23   2.0000     -10.373900      -282.2882
  24   2.0000     -10.371465      -282.2219
  25   2.0000     -10.359437      -281.8946
  26   2.0000     -10.359130      -281.8863
  27   2.0000     -10.353675      -281.7378
  28   2.0000     -10.353108      -281.7224
  29   2.0000     -10.348675      -281.6018
  30   2.0000     -10.347301      -281.5644
  31   2.0000     -10.344787      -281.4960
  32   2.0000     -10.344184      -281.4796
  33   2.0000     -10.328133      -281.0428
  34   2.0000     -10.327745      -281.0322
  35   2.0000     -10.326697      -281.0037
  36   2.0000     -10.326294      -280.9927
  37   2.0000     -10.324720      -280.9499
  38   2.0000     -10.324310      -280.9388
  39   2.0000     -10.323044      -280.9043
  40   2.0000     -10.322452      -280.8882
  41   2.0000     -10.320779      -280.8427
  42   2.0000     -10.319827      -280.8168
  43   2.0000     -10.319545      -280.8091
  44   2.0000     -10.319325      -280.8031
  45   2.0000     -10.314990      -280.6851
  46   2.0000     -10.313635      -280.6483
  47   2.0000     -10.313273      -280.6384
  48   2.0000     -10.313193      -280.6363
  49   2.0000     -10.311609      -280.5931
  50   2.0000     -10.311290      -280.5845
  51   2.0000     -10.310953      -280.5753
  52   2.0000     -10.308220      -280.5009
  53   2.0000     -10.308046      -280.4962
  54   2.0000     -10.306095      -280.4431
  55   2.0000     -10.305750      -280.4337
  56   2.0000     -10.304683      -280.4047
  57   2.0000     -10.304010      -280.3864
  58   2.0000     -10.303626      -280.3759
  59   2.0000     -10.303191      -280.3641
  60   2.0000     -10.302991      -280.3586
  61   2.0000     -10.302887      -280.3558
  62   2.0000     -10.301916      -280.3294
  63   2.0000     -10.301765      -280.3253
  64   2.0000     -10.301355      -280.3141
  65   2.0000     -10.300993      -280.3043
  66   2.0000     -10.298240      -280.2294
  67   2.0000     -10.297388      -280.2062
  68   2.0000     -10.293820      -280.1091
  69   2.0000      -8.152986      -221.8540
  70   2.0000      -8.069940      -219.5942
  71   2.0000      -8.067449      -219.5264
  72   2.0000      -8.064330      -219.4416
  73   2.0000      -8.064150      -219.4367
  74   2.0000      -6.124190      -166.6477
  75   2.0000      -6.116192      -166.4301
  76   2.0000      -6.115589      -166.4136
  77   2.0000      -6.039370      -164.3396
  78   2.0000      -6.036841      -164.2708
  79   2.0000      -6.035438      -164.2326
  80   2.0000      -6.033888      -164.1904
  81   2.0000      -6.033715      -164.1857
  82   2.0000      -6.032925      -164.1642
  83   2.0000      -6.031517      -164.1259
  84   2.0000      -6.029774      -164.0785
  85   2.0000      -6.029559      -164.0726
  86   2.0000      -6.029101      -164.0602
  87   2.0000      -6.025853      -163.9718
  88   2.0000      -6.025733      -163.9685
  89   2.0000      -1.323357       -36.0104
  90   2.0000      -1.321497       -35.9598
  91   2.0000      -1.308487       -35.6058
  92   2.0000      -1.306603       -35.5545
  93   2.0000      -1.164915       -31.6990
  94   2.0000      -1.138491       -30.9799
  95   2.0000      -1.138087       -30.9689
  96   2.0000      -1.135717       -30.9044
  97   2.0000      -1.029508       -28.0143
  98   2.0000      -1.025541       -27.9064
  99   2.0000      -1.022557       -27.8252
 100   2.0000      -1.021269       -27.7901
 101   2.0000      -1.014298       -27.6004
 102   2.0000      -1.007440       -27.4138
 103   2.0000      -1.006214       -27.3805
 104   2.0000      -0.998225       -27.1631
 105   2.0000      -0.996434       -27.1143
 106   2.0000      -0.985696       -26.8222
 107   2.0000      -0.983688       -26.7675
 108   2.0000      -0.977989       -26.6124
 109   2.0000      -0.967176       -26.3182
 110   2.0000      -0.941435       -25.6178
 111   2.0000      -0.936386       -25.4804
 112   2.0000      -0.931818       -25.3560
 113   2.0000      -0.930113       -25.3097
 114   2.0000      -0.907049       -24.6820
 115   2.0000      -0.903651       -24.5896
 116   2.0000      -0.895756       -24.3748
 117   2.0000      -0.893239       -24.3063
 118   2.0000      -0.883537       -24.0423
 119   2.0000      -0.880486       -23.9593
 120   2.0000      -0.874205       -23.7883
 121   2.0000      -0.872690       -23.7471
 122   2.0000      -0.845417       -23.0050
 123   2.0000      -0.843690       -22.9580
 124   2.0000      -0.841382       -22.8952
 125   2.0000      -0.825481       -22.4625
 126   2.0000      -0.817720       -22.2513
 127   2.0000      -0.815083       -22.1795
 128   2.0000      -0.813751       -22.1433
 129   2.0000      -0.786911       -21.4129
 130   2.0000      -0.780855       -21.2481
 131   2.0000      -0.770030       -20.9536
 132   2.0000      -0.769856       -20.9488
 133   2.0000      -0.758713       -20.6456
 134   2.0000      -0.751633       -20.4530
 135   2.0000      -0.741008       -20.1639
 136   2.0000      -0.730261       -19.8714
 137   2.0000      -0.721591       -19.6355
 138   2.0000      -0.719347       -19.5744
 139   2.0000      -0.713079       -19.4039
 140   2.0000      -0.703206       -19.1352
 141   2.0000      -0.690008       -18.7761
 142   2.0000      -0.688442       -18.7335
 143   2.0000      -0.680428       -18.5154
 144   2.0000      -0.676298       -18.4030
 145   2.0000      -0.669816       -18.2266
 146   2.0000      -0.668322       -18.1860
 147   2.0000      -0.660006       -17.9597
 148   2.0000      -0.657424       -17.8894
 149   2.0000      -0.656014       -17.8511
 150   2.0000      -0.648522       -17.6472
 151   2.0000      -0.645312       -17.5598
 152   2.0000      -0.643157       -17.5012
 153   2.0000      -0.635873       -17.3030
 154   2.0000      -0.625820       -17.0294
 155   2.0000      -0.624119       -16.9831
 156   2.0000      -0.619350       -16.8534
 157   2.0000      -0.616791       -16.7837
 158   2.0000      -0.611973       -16.6526
 159   2.0000      -0.595424       -16.2023
 160   2.0000      -0.590928       -16.0800
 161   2.0000      -0.590395       -16.0655
 162   2.0000      -0.589499       -16.0411
 163   2.0000      -0.588559       -16.0155
 164   2.0000      -0.587779       -15.9943
 165   2.0000      -0.586011       -15.9462
 166   2.0000      -0.584882       -15.9155
 167   2.0000      -0.583105       -15.8671
 168   2.0000      -0.580830       -15.8052
 169   2.0000      -0.575222       -15.6526
 170   2.0000      -0.557454       -15.1691
 171   2.0000      -0.555129       -15.1058
 172   2.0000      -0.549341       -14.9483
 173   2.0000      -0.549052       -14.9405
 174   2.0000      -0.548076       -14.9139
 175   2.0000      -0.547642       -14.9021
 176   2.0000      -0.542269       -14.7559
 177   2.0000      -0.540864       -14.7177
 178   2.0000      -0.537013       -14.6129
 179   2.0000      -0.534379       -14.5412
 180   2.0000      -0.533345       -14.5131
 181   2.0000      -0.532462       -14.4890
 182   2.0000      -0.531692       -14.4681
 183   2.0000      -0.526953       -14.3391
 184   2.0000      -0.525381       -14.2964
 185   2.0000      -0.523063       -14.2333
 186   2.0000      -0.517819       -14.0906
 187   2.0000      -0.516837       -14.0639
 188   2.0000      -0.514488       -13.9999
 189   2.0000      -0.512075       -13.9343
 190   2.0000      -0.509738       -13.8707
 191   2.0000      -0.507239       -13.8027
 192   2.0000      -0.503823       -13.7097
 193   2.0000      -0.500158       -13.6100
 194   2.0000      -0.499057       -13.5800
 195   2.0000      -0.496184       -13.5019
 196   2.0000      -0.492228       -13.3942
 197   2.0000      -0.489061       -13.3080
 198   2.0000      -0.488302       -13.2874
 199   2.0000      -0.486875       -13.2485
 200   2.0000      -0.479254       -13.0412
 201   2.0000      -0.475979       -12.9520
 202   2.0000      -0.472680       -12.8623
 203   2.0000      -0.470348       -12.7988
 204   2.0000      -0.468649       -12.7526
 205   2.0000      -0.465617       -12.6701
 206   2.0000      -0.463699       -12.6179
 207   2.0000      -0.456021       -12.4090
 208   2.0000      -0.454087       -12.3563
 209   2.0000      -0.451988       -12.2992
 210   2.0000      -0.450081       -12.2473
 211   2.0000      -0.449542       -12.2326
 212   2.0000      -0.448403       -12.2017
 213   2.0000      -0.448107       -12.1936
 214   2.0000      -0.446341       -12.1456
 215   2.0000      -0.445512       -12.1230
 216   2.0000      -0.444711       -12.1012
 217   2.0000      -0.438473       -11.9315
 218   2.0000      -0.432660       -11.7733
 219   2.0000      -0.432163       -11.7598
 220   2.0000      -0.430851       -11.7240
 221   2.0000      -0.427959       -11.6454
 222   2.0000      -0.427884       -11.6433
 223   2.0000      -0.425399       -11.5757
 224   2.0000      -0.424370       -11.5477
 225   2.0000      -0.423389       -11.5210
 226   2.0000      -0.413217       -11.2442
 227   2.0000      -0.408355       -11.1119
 228   2.0000      -0.405032       -11.0215
 229   2.0000      -0.404776       -11.0145
 230   2.0000      -0.403181       -10.9711
 231   2.0000      -0.399523       -10.8716
 232   2.0000      -0.390674       -10.6308
 233   2.0000      -0.388682       -10.5766
 234   2.0000      -0.386587       -10.5196
 235   2.0000      -0.378329       -10.2948
 236   2.0000      -0.374105       -10.1799
 237   2.0000      -0.370072       -10.0702
 238   2.0000      -0.355261        -9.6671
 239   2.0000      -0.343826        -9.3560
 240   2.0000      -0.341758        -9.2997
 241   2.0000      -0.332467        -9.0469
 242   2.0000      -0.320492        -8.7210
 243   2.0000      -0.319946        -8.7062
 244   2.0000      -0.318985        -8.6800
 245   2.0000      -0.308134        -8.3847
 246   2.0000      -0.305996        -8.3266
 247   2.0000      -0.304245        -8.2789
 248   2.0000      -0.302464        -8.2305
 249   2.0000      -0.286365        -7.7924
 250   2.0000      -0.263903        -7.1812
 251   0.0000      -0.120327        -3.2743
 252   0.0000      -0.097902        -2.6641
 253   0.0000      -0.087675        -2.3858
 254   0.0000      -0.062247        -1.6938
 255   0.0000      -0.061582        -1.6757

MULLIKEN ATOMIC CHARGES
-----------------------
   0 C :   -0.111355
   1 C :    0.243833
   2 F :   -0.170853
   3 C :    0.240558
   4 F :   -0.170750
   5 C :   -0.106172
   6 C :    0.119164
   7 C :    0.115675
   8 C :   -0.083836
   9 C :    0.045402
  10 C :    0.003742
  11 C :   -0.085610
  12 C :    0.161534
  13 O :   -0.156451
  14 C :   -0.089441
  15 C :    0.328261
  16 C :   -0.360723
  17 C :   -0.182683
  18 N :    0.143642
  19 C :   -0.182964
  20 N :    0.150118
  21 C :    0.053063
  22 C :   -0.121403
  23 C :   -0.000790
  24 C :   -0.019894
  25 C :    0.002494
  26 S :    0.156188
  27 C :   -0.043401
  28 C :   -0.126027
  29 S :    0.209192
  30 C :    0.025083
  31 N :   -0.054053
  32 N :   -0.057560
  33 C :    0.026560
  34 C :    0.030703
  35 C :    0.035109
  36 N :   -0.262033
  37 S :    0.555037
  38 N :   -0.258774
  39 C :   -0.127709
  40 C :   -0.041198
  41 C :    0.002000
  42 C :   -0.019928
  43 S :    0.207464
  44 C :    0.017157
  45 C :   -0.127804
  46 S :    0.169657
  47 C :    0.093046
  48 C :   -0.139739
  49 C :    0.139424
  50 O :   -0.139766
  51 C :    0.014470
  52 C :   -0.080645
  53 C :    0.110302
  54 C :    0.109639
  55 C :   -0.104992
  56 C :    0.241021
  57 C :    0.238097
  58 C :   -0.101726
  59 F :   -0.171095
  60 F :   -0.170269
  61 C :   -0.079462
  62 C :    0.034525
  63 C :    0.263167
  64 C :   -0.332843
  65 C :   -0.202633
  66 N :    0.177767
  67 C :   -0.175057
  68 N :    0.156472
  69 H :    0.007896
  70 H :   -0.001326
  71 H :   -0.006924
  72 H :   -0.011503
  73 H :    0.002814
  74 H :    0.019016
  75 H :    0.000848
  76 H :    0.001600
  77 H :    0.005398
  78 H :    0.027006
  79 H :   -0.008182
  80 H :    0.006305
  81 H :    0.000803
  82 H :   -0.003680
Sum of atomic charges:   -0.0000000

LOEWDIN ATOMIC CHARGES
----------------------
   0 C :   -0.028962
   1 C :    0.066582
   2 F :   -0.048635
   3 C :    0.067766
   4 F :   -0.048981
   5 C :   -0.033339
   6 C :   -0.008446
   7 C :   -0.006496
   8 C :    0.018036
   9 C :   -0.023676
  10 C :   -0.051935
  11 C :    0.029648
  12 C :    0.088557
  13 O :   -0.142224
  14 C :   -0.097336
  15 C :    0.076966
  16 C :   -0.141066
  17 C :   -0.016339
  18 N :   -0.054713
  19 C :   -0.024641
  20 N :   -0.049463
  21 C :    0.050345
  22 C :   -0.169079
  23 C :   -0.014135
  24 C :   -0.198911
  25 C :   -0.184939
  26 S :    0.441125
  27 C :   -0.049900
  28 C :   -0.159814
  29 S :    0.473209
  30 C :   -0.025823
  31 N :   -0.052434
  32 N :   -0.055961
  33 C :   -0.022053
  34 C :   -0.053039
  35 C :   -0.052459
  36 N :   -0.267242
  37 S :    0.681037
  38 N :   -0.266237
  39 C :   -0.163866
  40 C :   -0.044537
  41 C :   -0.185181
  42 C :   -0.190837
  43 S :    0.472984
  44 C :   -0.025608
  45 C :   -0.171752
  46 S :    0.448002
  47 C :    0.051287
  48 C :   -0.091725
  49 C :    0.083058
  50 O :   -0.140494
  51 C :   -0.054256
  52 C :    0.031121
  53 C :   -0.009376
  54 C :   -0.005707
  55 C :   -0.030093
  56 C :    0.067383
  57 C :    0.067218
  58 C :   -0.032592
  59 F :   -0.048688
  60 F :   -0.047900
  61 C :    0.014144
  62 C :   -0.020810
  63 C :    0.063628
  64 C :   -0.137918
  65 C :   -0.020309
  66 N :   -0.037504
  67 C :   -0.020405
  68 N :   -0.049507
  69 H :    0.047924
  70 H :    0.044745
  71 H :    0.039906
  72 H :    0.039836
  73 H :    0.043167
  74 H :    0.037953
  75 H :    0.036416
  76 H :    0.036693
  77 H :    0.037595
  78 H :    0.047656
  79 H :    0.041020
  80 H :    0.047448
  81 H :    0.045189
  82 H :    0.039699

  Mayer bond orders larger than 0.100000
B(  0-C ,  1-C ) :   1.4402 B(  0-C ,  5-C ) :   0.1092 B(  0-C ,  7-C ) :   1.1857
B(  0-C , 69-H ) :   1.0076 B(  1-C ,  2-F ) :   1.1346 B(  1-C ,  3-C ) :   1.1913
B(  3-C ,  4-F ) :   1.1351 B(  3-C ,  5-C ) :   1.4426 B(  5-C ,  6-C ) :   1.1895
B(  5-C , 70-H ) :   1.0079 B(  6-C ,  7-C ) :   1.2587 B(  6-C , 11-C ) :   1.1854
B(  7-C ,  8-C ) :   1.2177 B(  8-C ,  9-C ) :   1.4449 B(  8-C , 71-H ) :   0.9895
B(  9-C , 10-C ) :   1.2259 B(  9-C , 15-C ) :   0.9760 B( 10-C , 11-C ) :   1.4665
B( 10-C , 12-C ) :   0.9517 B( 11-C , 72-H ) :   1.0174 B( 12-C , 13-O ) :   2.1663
B( 12-C , 14-C ) :   0.9374 B( 14-C , 15-C ) :   1.0868 B( 14-C , 21-C ) :   1.5829
B( 15-C , 16-C ) :   1.6165 B( 16-C , 17-C ) :   1.1513 B( 16-C , 19-C ) :   1.1367
B( 17-C , 18-N ) :   2.9572 B( 19-C , 20-N ) :   2.9570 B( 21-C , 22-C ) :   1.2361
B( 21-C , 73-H ) :   0.9040 B( 22-C , 23-C ) :   1.4463 B( 22-C , 26-S ) :   1.0780
B( 23-C , 24-C ) :   1.2747 B( 23-C , 74-H ) :   0.9784 B( 24-C , 25-C ) :   1.3718
B( 24-C , 29-S ) :   1.0541 B( 25-C , 26-S ) :   1.0955 B( 25-C , 27-C ) :   1.2354
B( 27-C , 28-C ) :   1.5299 B( 27-C , 75-H ) :   0.9906 B( 28-C , 29-S ) :   1.1006
B( 28-C , 30-C ) :   1.1624 B( 30-C , 31-N ) :   1.7039 B( 30-C , 33-C ) :   0.1185
B( 30-C , 35-C ) :   1.1226 B( 31-N , 32-N ) :   1.2407 B( 32-N , 33-C ) :   1.7018
B( 33-C , 34-C ) :   1.1223 B( 33-C , 39-C ) :   1.1664 B( 34-C , 35-C ) :   1.1917
B( 34-C , 38-N ) :   1.5459 B( 35-C , 36-N ) :   1.5434 B( 36-N , 37-S ) :   1.2766
B( 36-N , 38-N ) :   0.1435 B( 37-S , 38-N ) :   1.2773 B( 39-C , 40-C ) :   1.5323
B( 39-C , 43-S ) :   1.0957 B( 40-C , 41-C ) :   1.2381 B( 40-C , 76-H ) :   0.9890
B( 41-C , 42-C ) :   1.3931 B( 41-C , 46-S ) :   1.0883 B( 42-C , 43-S ) :   1.0576
B( 42-C , 44-C ) :   1.3188 B( 44-C , 45-C ) :   1.4560 B( 44-C , 77-H ) :   0.9900
B( 45-C , 46-S ) :   1.0918 B( 45-C , 47-C ) :   1.1372 B( 47-C , 48-C ) :   1.6650
B( 47-C , 78-H ) :   0.9309 B( 48-C , 49-C ) :   0.9415 B( 48-C , 63-C ) :   1.0411
B( 49-C , 50-O ) :   2.2736 B( 49-C , 51-C ) :   0.9154 B( 51-C , 52-C ) :   1.4753
B( 51-C , 62-C ) :   1.2211 B( 52-C , 53-C ) :   1.1945 B( 52-C , 79-H ) :   1.0157
B( 53-C , 54-C ) :   1.2563 B( 53-C , 58-C ) :   1.1936 B( 54-C , 55-C ) :   1.1901
B( 54-C , 61-C ) :   1.2160 B( 55-C , 56-C ) :   1.4420 B( 55-C , 58-C ) :   0.1084
B( 55-C , 80-H ) :   1.0066 B( 56-C , 57-C ) :   1.1917 B( 56-C , 60-F ) :   1.1350
B( 57-C , 58-C ) :   1.4438 B( 57-C , 59-F ) :   1.1338 B( 58-C , 81-H ) :   1.0064
B( 61-C , 62-C ) :   1.4585 B( 61-C , 82-H ) :   0.9937 B( 62-C , 63-C ) :   0.9949
B( 63-C , 64-C ) :   1.6536 B( 64-C , 65-C ) :   1.1611 B( 64-C , 67-C ) :   1.1309
B( 65-C , 66-N ) :   3.0106 B( 67-C , 68-N ) :   2.9869

-----------------------------------------------------------------------------
         ABSORPTION SPECTRUM VIA TRANSITION ELECTRIC DIPOLE MOMENTS
-----------------------------------------------------------------------------
State   Energy  Wavelength   fosc         T2         TX        TY        TZ
        (cm-1)    (nm)                  (au**2)     (au)      (au)      (au)
-----------------------------------------------------------------------------
   0   15922.6    628.0   2.018242426  41.72864  -0.03579   6.44054   0.49678
   1   19728.1    506.9   0.000210607   0.00351   0.00395  -0.05830   0.01001
   2   21073.4    474.5   0.297283625   4.64420  -0.22373   0.34105   2.11609
   3   22937.0    436.0   0.198718663   2.85218  -0.31661   1.64610   0.20569
   4   23858.7    419.1   0.176543280   2.43602  -0.13458   1.45839   0.53946
   5   24458.0    408.9   0.000152394   0.00205  -0.02938  -0.00111  -0.03445
   6   24931.4    401.1   0.088241112   1.16520  -0.25957  -0.39179   0.97177
   7   26661.0    375.1   0.042127724   0.52020  -0.35154  -0.61548  -0.13343
   8   26866.9    372.2   0.128717588   1.57724  -0.68415   0.22878   1.02803
   9   28300.9    353.3   0.000599922   0.00698  -0.00143  -0.04521  -0.07023
  10   28387.6    352.3   0.011151244   0.12932   0.05195  -0.28649   0.21106
  11   28584.0    349.8   0.066852573   0.76996   0.21319  -0.52176  -0.67252
  12   28681.5    348.7   0.019836321   0.22769  -0.26860  -0.34081   0.19845
  13   29245.7    341.9   0.185473673   2.08783   0.19716   1.26600   0.66799
  14   29465.5    339.4   0.083331121   0.93104   0.50160   0.11162  -0.81669
  15   29699.1    336.7   0.087741224   0.97260  -0.25897   0.25496   0.91681
  16   29860.4    334.9   0.297083747   3.27536   0.99998   1.27535  -0.80554
  17   30777.5    324.9   0.052399055   0.56049   0.10272  -0.74157   0.00178
  18   31738.5    315.1   0.011626393   0.12060   0.14220   0.16633   0.26964
  19   32321.1    309.4   0.129996082   1.32410   0.05846   1.14812   0.04989
  20   32754.0    305.3   0.006370453   0.06403  -0.21722  -0.10916  -0.07021
  21   33355.7    299.8   0.736039577   7.26452  -1.42030  -0.07283   2.28954
  22   33521.9    298.3   0.399449171   3.92291  -0.94344  -1.73964  -0.08048
  23   33884.5    295.1   0.075356573   0.73214   0.50840   0.67487  -0.13500
  24   33939.1    294.6   0.021013713   0.20383  -0.27741  -0.30437   0.18504
  25   34306.7    291.5   0.000079114   0.00076  -0.00160   0.00878   0.02607
  26   34525.9    289.6   0.069684281   0.66446   0.39543   0.49313  -0.51469
  27   34817.2    287.2   0.079313183   0.74994  -0.04171  -0.86479  -0.01861
  28   35263.0    283.6   0.152941495   1.42785  -0.00803   1.19470  -0.02156
  29   36229.4    276.0   0.109164039   0.99196  -0.45617  -0.26573   0.84455
  30   36489.7    274.0   0.005400655   0.04872   0.04346   0.08061   0.20084
  31   36853.1    271.3   0.046743171   0.41756  -0.36958  -0.44843   0.28264
  32   37055.6    269.9   0.082592789   0.73378   0.44647   0.47287   0.55753
  33   37097.1    269.6   0.089520261   0.79443  -0.63579  -0.59796   0.18067
  34   37303.2    268.1   0.081467646   0.71898   0.36902   0.53063  -0.54885
  35   37427.4    267.2   0.259684432   2.28419   0.88405   0.76124  -0.96081
  36   37610.3    265.9   0.044098201   0.38600  -0.01828  -0.45968  -0.41757
  37   38825.5    257.6   0.023253820   0.19718  -0.14763  -0.24421  -0.34021
  38   38896.1    257.1   0.004158046   0.03519  -0.01649   0.15154  -0.10935
  39   38940.4    256.8   0.024300321   0.20544   0.10372  -0.44073   0.02098
  40   39018.1    256.3   0.003103113   0.02618   0.01901   0.06606  -0.14648
  41   39217.6    255.0   0.051870490   0.43543  -0.14033  -0.64388   0.03400
  42   39501.6    253.2   0.058718340   0.48937   0.37383   0.59110  -0.01479
  43   39536.5    252.9   0.014340255   0.11941   0.15194  -0.04367   0.30727
  44   39788.0    251.3   0.049864708   0.41259   0.21376   0.29595  -0.52850
  45   39865.6    250.8   0.003206552   0.02648  -0.04704  -0.13670   0.07469
  46   40078.5    249.5   0.020664085   0.16974   0.02325   0.40747   0.05630
  47   40186.4    248.8   0.120408034   0.98640  -0.09252   0.66296   0.73370

FINAL SINGLE POINT ENERGY     -4888.253494262856

DIPOLE MOMENT
-------------
                                X             Y             Z
Electronic contribution:     -4.10133       0.31077       9.31648
Nuclear contribution   :      2.88422      -1.87902     -10.69144
                        -----------------------------------------
Total Dipole Moment    :     -1.21711      -1.56825      -1.37496
                        -----------------------------------------
Magnitude (a.u.)       :      2.41481
Magnitude (Debye)      :      6.13795

Rotational constants in cm-1:     0.001461     0.000194     0.000174
Rotational constants in MHz :    43.797131     5.825227     5.206017

                             ****ORCA TERMINATED NORMALLY****
TOTAL RUN TIME: 0 days 0 hours 7 minutes 20 seconds 653 msec
