                         Program Version 4.2.0 -  RELEASE  -
|  1> # ORCA input file
|  2> # SCF done       -207.096698381211          0.000938079633
|  3> ! CAM-B3LYP def2-SVP def2/J RIJCOSX Grid4 TightSCF
|  4> %maxcore 5000
|  5> %tddft
|  6>     Mode sTDDFT
|  7>     Ethresh 5.0
|  8>     maxcore 5000
|  9> end
| 10>
| 11> %pal
| 12>   nprocs 6
| 13>   end
| 14> * xyz 0 1
| 15>    C       -7.59997        -1.18378        -7.14519
| 16>    C       -6.75615        -1.06158        -8.21355
| 17>    F       -7.06317        -0.23712        -9.22300
| 18>    C       -5.55624        -1.79892        -8.26799
| 19>    F       -4.74816        -1.65944        -9.32715
| 20>    C       -5.21710        -2.64934        -7.25301
| 21>    C       -6.06615        -2.79746        -6.13930
| 22>    C       -7.27903        -2.05156        -6.08221
| 23>    C       -8.14801        -2.18393        -4.97441
| 24>    C       -7.81612        -3.03873        -3.95684
| 25>    C       -6.60540        -3.78382        -4.02650
| 26>    C       -5.74382        -3.67392        -5.07935
| 27>    C       -6.49746        -4.63860        -2.83242
| 28>    O       -5.57166        -5.38152        -2.55629
| 29>    C       -7.72384        -4.41786        -2.05839
| 30>    C       -8.50475        -3.38560        -2.71506
| 31>    C       -9.65735        -2.80031        -2.26082
| 32>    C      -10.30271        -3.09511        -1.04116
| 33>    N      -10.88283        -3.27283        -0.06588
| 34>    C      -10.35257        -1.78663        -2.95432
| 35>    N      -10.96131        -0.96004        -3.46790
| 36>    C       -8.09702        -5.13103        -0.94868
| 37>    C       -7.42813        -6.16714        -0.27778
| 38>    C       -8.00817        -6.85182         0.78881
| 39>    C       -7.20533        -7.85323         1.30398
| 40>   Cl       -7.68585        -8.86561         2.60437
| 41>    C       -5.96853        -7.96018         0.66237
| 42>    S       -5.83362        -6.79139        -0.61384
| 43>    C       -4.94149        -8.89427         0.93919
| 44>    C       -3.68490        -8.99026         0.35422
| 45>   Cl       -3.13073        -7.91253        -0.85322
| 46>    C       -2.90978       -10.05063         0.83347
| 47>    C       -3.56029       -10.79883         1.78685
| 48>    S       -5.14277       -10.16363         2.11540
| 49>    C       -3.07036       -11.96807         2.44161
| 50>    C       -3.75932       -12.87523         3.21240
| 51>    C       -5.24068       -12.80019         3.43674
| 52>    O       -6.03187       -13.34891         2.73100
| 53>    O       -5.62363       -12.06223         4.49297
| 54>    C       -2.95029       -13.96522         3.65001
| 55>    C       -1.65348       -13.83581         3.21441
| 56>    S       -1.39816       -12.43590         2.27257
| 57>    C       -3.42746       -15.07848         4.43069
| 58>    C       -2.84154       -16.31352         4.56068
| 59>    C       -3.58191       -17.18123         5.37167
| 60>   Cl       -3.09497       -18.79319         5.68467
| 61>    C       -4.74531       -16.62773         5.88360
| 62>    S       -4.90249       -14.98566         5.33680
| 63>    C       -5.73184       -17.24174         6.69421
| 64>    C       -6.92082       -16.69610         7.16571
| 65>   Cl       -7.39848       -15.08298         6.84131
| 66>    C       -7.68827       -17.57705         7.92657
| 67>    C       -7.12959       -18.83497         8.03003
| 68>    S       -5.58915       -18.88894         7.21455
| 69>    C       -7.65190       -19.92499         8.76713
| 70>    C       -7.33191       -21.24437         8.69066
| 71>    C       -7.62888       -22.13951         9.84382
| 72>    O       -8.35970       -21.90271        10.77652
| 73>    C       -6.78730       -23.33474         9.62701
| 74>    C       -6.58980       -24.40515        10.45094
| 75>    C       -5.71031       -25.43298        10.04292
| 76>    C       -5.04497       -25.32784         8.78662
| 77>    C       -4.16408       -26.35403         8.38979
| 78>    C       -3.95638       -27.43501         9.19956
| 79>    C       -4.61645       -27.53913        10.44063
| 80>    C       -5.47517       -26.55989        10.85468
| 81>    F       -4.39294       -28.60985        11.21419
| 82>    F       -3.11966       -28.40960         8.82020
| 83>    C       -5.27451       -24.21122         7.95082
| 84>    C       -6.13870       -23.23270         8.36270
| 85>    C       -6.60168       -22.01466         7.70430
| 86>    C       -6.59600       -21.79708         6.35255
| 87>    C       -7.33588       -20.76646         5.73472
| 88>    N       -7.97170       -19.97539         5.19936
| 89>    C       -5.93016       -22.62762         5.42905
| 90>    N       -5.38794       -23.26497         4.64352
| 91>    H       -8.51430        -0.61176        -7.11933
| 92>    H       -4.29575        -3.20754        -7.30993
| 93>    H       -9.05868        -1.60755        -4.96467
| 94>    H       -4.83209        -4.25106        -5.10500
| 95>    H       -9.06554        -4.90367        -0.51982
| 96>    H       -8.98946        -6.62441         1.16442
| 97>    H       -1.91818       -10.26597         0.47989
| 98>    H       -4.88184       -11.67460         4.97628
| 99>    H       -0.83342       -14.49590         3.41156
|100>    H       -1.92987       -16.60527         4.07452
|101>    H       -8.63788       -17.31449         8.35517
|102>    H       -8.34842       -19.66262         9.55805
|103>    H       -7.09830       -24.46789        11.40092
|104>    H       -3.65420       -26.29204         7.44112
|105>    H       -5.97263       -26.65432        11.80720
|106>    H       -4.75443       -24.15112         7.00797
|107> *
|108>
|109>                          ****END OF INPUT****

CARTESIAN COORDINATES (ANGSTROEM)
---------------------------------
  C     -7.599970   -1.183780   -7.145190
  C     -6.756150   -1.061580   -8.213550
  F     -7.063170   -0.237120   -9.223000
  C     -5.556240   -1.798920   -8.267990
  F     -4.748160   -1.659440   -9.327150
  C     -5.217100   -2.649340   -7.253010
  C     -6.066150   -2.797460   -6.139300
  C     -7.279030   -2.051560   -6.082210
  C     -8.148010   -2.183930   -4.974410
  C     -7.816120   -3.038730   -3.956840
  C     -6.605400   -3.783820   -4.026500
  C     -5.743820   -3.673920   -5.079350
  C     -6.497460   -4.638600   -2.832420
  O     -5.571660   -5.381520   -2.556290
  C     -7.723840   -4.417860   -2.058390
  C     -8.504750   -3.385600   -2.715060
  C     -9.657350   -2.800310   -2.260820
  C    -10.302710   -3.095110   -1.041160
  N    -10.882830   -3.272830   -0.065880
  C    -10.352570   -1.786630   -2.954320
  N    -10.961310   -0.960040   -3.467900
  C     -8.097020   -5.131030   -0.948680
  C     -7.428130   -6.167140   -0.277780
  C     -8.008170   -6.851820    0.788810
  C     -7.205330   -7.853230    1.303980
  Cl    -7.685850   -8.865610    2.604370
  C     -5.968530   -7.960180    0.662370
  S     -5.833620   -6.791390   -0.613840
  C     -4.941490   -8.894270    0.939190
  C     -3.684900   -8.990260    0.354220
  Cl    -3.130730   -7.912530   -0.853220
  C     -2.909780  -10.050630    0.833470
  C     -3.560290  -10.798830    1.786850
  S     -5.142770  -10.163630    2.115400
  C     -3.070360  -11.968070    2.441610
  C     -3.759320  -12.875230    3.212400
  C     -5.240680  -12.800190    3.436740
  O     -6.031870  -13.348910    2.731000
  O     -5.623630  -12.062230    4.492970
  C     -2.950290  -13.965220    3.650010
  C     -1.653480  -13.835810    3.214410
  S     -1.398160  -12.435900    2.272570
  C     -3.427460  -15.078480    4.430690
  C     -2.841540  -16.313520    4.560680
  C     -3.581910  -17.181230    5.371670
  Cl    -3.094970  -18.793190    5.684670
  C     -4.745310  -16.627730    5.883600
  S     -4.902490  -14.985660    5.336800
  C     -5.731840  -17.241740    6.694210
  C     -6.920820  -16.696100    7.165710
  Cl    -7.398480  -15.082980    6.841310
  C     -7.688270  -17.577050    7.926570
  C     -7.129590  -18.834970    8.030030
  S     -5.589150  -18.888940    7.214550
  C     -7.651900  -19.924990    8.767130
  C     -7.331910  -21.244370    8.690660
  C     -7.628880  -22.139510    9.843820
  O     -8.359700  -21.902710   10.776520
  C     -6.787300  -23.334740    9.627010
  C     -6.589800  -24.405150   10.450940
  C     -5.710310  -25.432980   10.042920
  C     -5.044970  -25.327840    8.786620
  C     -4.164080  -26.354030    8.389790
  C     -3.956380  -27.435010    9.199560
  C     -4.616450  -27.539130   10.440630
  C     -5.475170  -26.559890   10.854680
  F     -4.392940  -28.609850   11.214190
  F     -3.119660  -28.409600    8.820200
  C     -5.274510  -24.211220    7.950820
  C     -6.138700  -23.232700    8.362700
  C     -6.601680  -22.014660    7.704300
  C     -6.596000  -21.797080    6.352550
  C     -7.335880  -20.766460    5.734720
  N     -7.971700  -19.975390    5.199360
  C     -5.930160  -22.627620    5.429050
  N     -5.387940  -23.264970    4.643520
  H     -8.514300   -0.611760   -7.119330
  H     -4.295750   -3.207540   -7.309930
  H     -9.058680   -1.607550   -4.964670
  H     -4.832090   -4.251060   -5.105000
  H     -9.065540   -4.903670   -0.519820
  H     -8.989460   -6.624410    1.164420
  H     -1.918180  -10.265970    0.479890
  H     -4.881840  -11.674600    4.976280
  H     -0.833420  -14.495900    3.411560
  H     -1.929870  -16.605270    4.074520
  H     -8.637880  -17.314490    8.355170
  H     -8.348420  -19.662620    9.558050
  H     -7.098300  -24.467890   11.400920
  H     -3.654200  -26.292040    7.441120
  H     -5.972630  -26.654320   11.807200
  H     -4.754430  -24.151120    7.007970

 Total Charge           Charge          ....    0
 Multiplicity           Mult            ....    1
 Number of Electrons    NEL             ....  590
 Basis Dimension        Dim             .... 1180

ORBITAL ENERGIES
----------------

  NO   OCC          E(Eh)            E(eV)
   0   2.0000    -101.609505     -2764.9352
   1   2.0000    -101.607446     -2764.8792
   2   2.0000    -101.604798     -2764.8071
   3   2.0000    -101.604676     -2764.8038
   4   2.0000     -88.986236     -2421.4386
   5   2.0000     -88.980196     -2421.2742
   6   2.0000     -88.977739     -2421.2074
   7   2.0000     -88.976979     -2421.1867
   8   2.0000     -88.974137     -2421.1094
   9   2.0000     -24.800177      -674.8471
  10   2.0000     -24.799195      -674.8204
  11   2.0000     -24.798907      -674.8126
  12   2.0000     -24.798525      -674.8022
  13   2.0000     -19.276367      -524.5366
  14   2.0000     -19.226457      -523.1785
  15   2.0000     -19.217107      -522.9241
  16   2.0000     -19.216293      -522.9019
  17   2.0000     -14.420198      -392.3935
  18   2.0000     -14.418049      -392.3351
  19   2.0000     -14.417243      -392.3131
  20   2.0000     -14.413456      -392.2101
  21   2.0000     -10.421054      -283.5713
  22   2.0000     -10.383533      -282.5503
  23   2.0000     -10.382670      -282.5268
  24   2.0000     -10.382112      -282.5116
  25   2.0000     -10.381719      -282.5009
  26   2.0000     -10.374512      -282.3048
  27   2.0000     -10.368985      -282.1544
  28   2.0000     -10.347673      -281.5745
  29   2.0000     -10.345721      -281.5214
  30   2.0000     -10.345705      -281.5210
  31   2.0000     -10.345465      -281.5144
  32   2.0000     -10.344877      -281.4984
  33   2.0000     -10.343771      -281.4683
  34   2.0000     -10.341977      -281.4195
  35   2.0000     -10.341233      -281.3992
  36   2.0000     -10.339274      -281.3459
  37   2.0000     -10.338624      -281.3283
  38   2.0000     -10.332108      -281.1509
  39   2.0000     -10.331855      -281.1441
  40   2.0000     -10.331821      -281.1431
  41   2.0000     -10.330563      -281.1089
  42   2.0000     -10.329227      -281.0725
  43   2.0000     -10.325682      -280.9761
  44   2.0000     -10.325208      -280.9632
  45   2.0000     -10.322861      -280.8993
  46   2.0000     -10.322019      -280.8764
  47   2.0000     -10.320863      -280.8450
  48   2.0000     -10.320319      -280.8302
  49   2.0000     -10.320277      -280.8290
  50   2.0000     -10.320175      -280.8263
  51   2.0000     -10.318364      -280.7769
  52   2.0000     -10.315355      -280.6951
  53   2.0000     -10.312761      -280.6245
  54   2.0000     -10.312407      -280.6149
  55   2.0000     -10.312317      -280.6124
  56   2.0000     -10.311659      -280.5945
  57   2.0000     -10.311205      -280.5822
  58   2.0000     -10.309862      -280.5456
  59   2.0000     -10.309382      -280.5325
  60   2.0000     -10.305490      -280.4266
  61   2.0000     -10.304665      -280.4042
  62   2.0000     -10.304563      -280.4014
  63   2.0000     -10.304530      -280.4005
  64   2.0000     -10.303827      -280.3814
  65   2.0000     -10.303289      -280.3668
  66   2.0000     -10.303288      -280.3667
  67   2.0000     -10.302220      -280.3377
  68   2.0000     -10.302214      -280.3375
  69   2.0000     -10.301929      -280.3297
  70   2.0000     -10.301296      -280.3125
  71   2.0000     -10.301080      -280.3066
  72   2.0000     -10.300398      -280.2881
  73   2.0000     -10.296840      -280.1913
  74   2.0000     -10.296266      -280.1756
  75   2.0000     -10.295202      -280.1467
  76   2.0000      -9.564206      -260.2553
  77   2.0000      -9.562154      -260.1994
  78   2.0000      -9.559460      -260.1261
  79   2.0000      -9.559368      -260.1236
  80   2.0000      -8.082009      -219.9227
  81   2.0000      -8.074449      -219.7169
  82   2.0000      -8.072230      -219.6566
  83   2.0000      -8.071452      -219.6354
  84   2.0000      -8.066888      -219.5112
  85   2.0000      -7.334277      -199.5758
  86   2.0000      -7.332317      -199.5225
  87   2.0000      -7.329597      -199.4485
  88   2.0000      -7.329520      -199.4464
  89   2.0000      -7.324323      -199.3049
  90   2.0000      -7.324215      -199.3020
  91   2.0000      -7.322297      -199.2498
  92   2.0000      -7.322016      -199.2422
  93   2.0000      -7.319516      -199.1742
  94   2.0000      -7.319454      -199.1725
  95   2.0000      -7.319415      -199.1714
  96   2.0000      -7.319351      -199.1697
  97   2.0000      -6.051348      -164.6656
  98   2.0000      -6.046952      -164.5459
  99   2.0000      -6.044207      -164.4712
 100   2.0000      -6.044004      -164.4657
 101   2.0000      -6.041701      -164.4030
 102   2.0000      -6.040983      -164.3835
 103   2.0000      -6.039573      -164.3451
 104   2.0000      -6.037329      -164.2841
 105   2.0000      -6.036622      -164.2648
 106   2.0000      -6.036509      -164.2618
 107   2.0000      -6.036221      -164.2539
 108   2.0000      -6.034096      -164.1961
 109   2.0000      -6.033183      -164.1712
 110   2.0000      -6.031736      -164.1319
 111   2.0000      -6.028765      -164.0510
 112   2.0000      -1.322777       -35.9946
 113   2.0000      -1.321707       -35.9655
 114   2.0000      -1.307886       -35.5894
 115   2.0000      -1.306841       -35.5610
 116   2.0000      -1.199902       -32.6510
 117   2.0000      -1.142086       -31.0777
 118   2.0000      -1.132902       -30.8278
 119   2.0000      -1.115438       -30.3526
 120   2.0000      -1.037684       -28.2368
 121   2.0000      -1.035937       -28.1893
 122   2.0000      -1.023178       -27.8421
 123   2.0000      -1.022353       -27.8196
 124   2.0000      -1.019556       -27.7435
 125   2.0000      -1.011755       -27.5313
 126   2.0000      -1.007343       -27.4112
 127   2.0000      -1.005788       -27.3689
 128   2.0000      -1.004626       -27.3373
 129   2.0000      -0.997232       -27.1361
 130   2.0000      -0.994221       -27.0541
 131   2.0000      -0.984669       -26.7942
 132   2.0000      -0.982799       -26.7433
 133   2.0000      -0.971149       -26.4263
 134   2.0000      -0.967279       -26.3210
 135   2.0000      -0.960345       -26.1323
 136   2.0000      -0.957454       -26.0537
 137   2.0000      -0.934147       -25.4194
 138   2.0000      -0.932550       -25.3760
 139   2.0000      -0.913455       -24.8564
 140   2.0000      -0.910486       -24.7756
 141   2.0000      -0.901598       -24.5337
 142   2.0000      -0.896544       -24.3962
 143   2.0000      -0.893985       -24.3266
 144   2.0000      -0.891719       -24.2649
 145   2.0000      -0.881958       -23.9993
 146   2.0000      -0.878496       -23.9051
 147   2.0000      -0.867827       -23.6148
 148   2.0000      -0.856319       -23.3016
 149   2.0000      -0.843275       -22.9467
 150   2.0000      -0.841630       -22.9019
 151   2.0000      -0.838242       -22.8097
 152   2.0000      -0.837225       -22.7820
 153   2.0000      -0.827402       -22.5148
 154   2.0000      -0.826918       -22.5016
 155   2.0000      -0.818828       -22.2814
 156   2.0000      -0.808686       -22.0055
 157   2.0000      -0.787664       -21.4334
 158   2.0000      -0.775754       -21.1094
 159   2.0000      -0.771433       -20.9918
 160   2.0000      -0.766480       -20.8570
 161   2.0000      -0.750427       -20.4202
 162   2.0000      -0.741421       -20.1751
 163   2.0000      -0.736212       -20.0333
 164   2.0000      -0.724790       -19.7225
 165   2.0000      -0.721077       -19.6215
 166   2.0000      -0.718796       -19.5594
 167   2.0000      -0.715194       -19.4614
 168   2.0000      -0.712278       -19.3821
 169   2.0000      -0.709534       -19.3074
 170   2.0000      -0.692627       -18.8473
 171   2.0000      -0.689527       -18.7630
 172   2.0000      -0.685721       -18.6594
 173   2.0000      -0.682612       -18.5748
 174   2.0000      -0.678251       -18.4562
 175   2.0000      -0.670461       -18.2442
 176   2.0000      -0.661038       -17.9878
 177   2.0000      -0.657468       -17.8906
 178   2.0000      -0.653328       -17.7779
 179   2.0000      -0.646322       -17.5873
 180   2.0000      -0.644076       -17.5262
 181   2.0000      -0.642305       -17.4780
 182   2.0000      -0.640284       -17.4230
 183   2.0000      -0.630696       -17.1621
 184   2.0000      -0.627794       -17.0831
 185   2.0000      -0.623724       -16.9724
 186   2.0000      -0.621491       -16.9116
 187   2.0000      -0.614689       -16.7265
 188   2.0000      -0.614084       -16.7101
 189   2.0000      -0.600526       -16.3412
 190   2.0000      -0.597565       -16.2606
 191   2.0000      -0.592702       -16.1282
 192   2.0000      -0.587927       -15.9983
 193   2.0000      -0.587236       -15.9795
 194   2.0000      -0.586168       -15.9504
 195   2.0000      -0.581696       -15.8287
 196   2.0000      -0.579788       -15.7768
 197   2.0000      -0.576289       -15.6816
 198   2.0000      -0.566533       -15.4161
 199   2.0000      -0.560207       -15.2440
 200   2.0000      -0.557888       -15.1809
 201   2.0000      -0.555561       -15.1176
 202   2.0000      -0.554950       -15.1010
 203   2.0000      -0.553587       -15.0639
 204   2.0000      -0.548800       -14.9336
 205   2.0000      -0.547798       -14.9063
 206   2.0000      -0.547400       -14.8955
 207   2.0000      -0.545753       -14.8507
 208   2.0000      -0.545461       -14.8427
 209   2.0000      -0.540313       -14.7027
 210   2.0000      -0.538879       -14.6637
 211   2.0000      -0.536986       -14.6121
 212   2.0000      -0.534402       -14.5418
 213   2.0000      -0.533885       -14.5277
 214   2.0000      -0.533153       -14.5078
 215   2.0000      -0.532441       -14.4885
 216   2.0000      -0.530922       -14.4471
 217   2.0000      -0.528561       -14.3829
 218   2.0000      -0.524803       -14.2806
 219   2.0000      -0.520966       -14.1762
 220   2.0000      -0.519164       -14.1272
 221   2.0000      -0.517432       -14.0800
 222   2.0000      -0.516082       -14.0433
 223   2.0000      -0.514875       -14.0104
 224   2.0000      -0.509479       -13.8636
 225   2.0000      -0.508031       -13.8242
 226   2.0000      -0.506950       -13.7948
 227   2.0000      -0.504342       -13.7238
 228   2.0000      -0.502585       -13.6760
 229   2.0000      -0.500899       -13.6301
 230   2.0000      -0.498773       -13.5723
 231   2.0000      -0.496674       -13.5152
 232   2.0000      -0.493970       -13.4416
 233   2.0000      -0.492560       -13.4033
 234   2.0000      -0.489854       -13.3296
 235   2.0000      -0.486425       -13.2363
 236   2.0000      -0.484597       -13.1866
 237   2.0000      -0.479699       -13.0533
 238   2.0000      -0.474919       -12.9232
 239   2.0000      -0.472741       -12.8639
 240   2.0000      -0.472639       -12.8611
 241   2.0000      -0.466707       -12.6997
 242   2.0000      -0.465859       -12.6767
 243   2.0000      -0.462910       -12.5964
 244   2.0000      -0.461373       -12.5546
 245   2.0000      -0.456543       -12.4232
 246   2.0000      -0.452989       -12.3265
 247   2.0000      -0.452782       -12.3208
 248   2.0000      -0.450340       -12.2544
 249   2.0000      -0.449011       -12.2182
 250   2.0000      -0.446993       -12.1633
 251   2.0000      -0.446320       -12.1450
 252   2.0000      -0.445416       -12.1204
 253   2.0000      -0.444530       -12.0963
 254   2.0000      -0.442949       -12.0532
 255   2.0000      -0.441652       -12.0180
 256   2.0000      -0.438641       -11.9360
 257   2.0000      -0.437428       -11.9030
 258   2.0000      -0.434615       -11.8265
 259   2.0000      -0.429822       -11.6960
 260   2.0000      -0.427948       -11.6451
 261   2.0000      -0.427849       -11.6424
 262   2.0000      -0.426235       -11.5984
 263   2.0000      -0.425426       -11.5764
 264   2.0000      -0.420872       -11.4525
 265   2.0000      -0.411524       -11.1981
 266   2.0000      -0.409983       -11.1562
 267   2.0000      -0.408827       -11.1248
 268   2.0000      -0.407965       -11.1013
 269   2.0000      -0.402236       -10.9454
 270   2.0000      -0.393204       -10.6996
 271   2.0000      -0.391491       -10.6530
 272   2.0000      -0.390223       -10.6185
 273   2.0000      -0.389074       -10.5872
 274   2.0000      -0.384207       -10.4548
 275   2.0000      -0.379056       -10.3146
 276   2.0000      -0.378781       -10.3071
 277   2.0000      -0.374736       -10.1971
 278   2.0000      -0.369951       -10.0669
 279   2.0000      -0.358467        -9.7544
 280   2.0000      -0.350523        -9.5382
 281   2.0000      -0.340358        -9.2616
 282   2.0000      -0.337039        -9.1713
 283   2.0000      -0.336560        -9.1583
 284   2.0000      -0.333414        -9.0727
 285   2.0000      -0.326691        -8.8897
 286   2.0000      -0.324856        -8.8398
 287   2.0000      -0.323453        -8.8016
 288   2.0000      -0.319094        -8.6830
 289   2.0000      -0.317932        -8.6514
 290   2.0000      -0.313416        -8.5285
 291   2.0000      -0.302006        -8.2180
 292   2.0000      -0.300256        -8.1704
 293   2.0000      -0.269030        -7.3207
 294   2.0000      -0.258439        -7.0325
 295   0.0000      -0.102596        -2.7918
 296   0.0000      -0.100015        -2.7215
 297   0.0000      -0.065801        -1.7905
 298   0.0000      -0.059906        -1.6301
 299   0.0000      -0.053901        -1.4667

MULLIKEN ATOMIC CHARGES
-----------------------
   0 C :   -0.107246
   1 C :    0.241289
   2 F :   -0.170339
   3 C :    0.239190
   4 F :   -0.171474
   5 C :   -0.105045
   6 C :    0.116313
   7 C :    0.114064
   8 C :   -0.084390
   9 C :    0.047424
  10 C :    0.000643
  11 C :   -0.081704
  12 C :    0.170732
  13 O :   -0.180785
  14 C :   -0.102134
  15 C :    0.328069
  16 C :   -0.349158
  17 C :   -0.194786
  18 N :    0.150355
  19 C :   -0.180547
  20 N :    0.147435
  21 C :   -0.001150
  22 C :   -0.045243
  23 C :    0.008492
  24 C :    0.085118
  25 Cl:   -0.050769
  26 C :   -0.074364
  27 S :    0.211115
  28 C :   -0.082760
  29 C :    0.080720
  30 Cl:   -0.043667
  31 C :   -0.021042
  32 C :   -0.042938
  33 S :    0.134590
  34 C :   -0.064777
  35 C :   -0.112785
  36 C :    0.129718
  37 O :   -0.131087
  38 O :   -0.164935
  39 C :    0.175912
  40 C :   -0.129672
  41 S :    0.159809
  42 C :   -0.070020
  43 C :   -0.003779
  44 C :    0.071229
  45 Cl:   -0.054833
  46 C :   -0.070642
  47 S :    0.135167
  48 C :   -0.071908
  49 C :    0.069295
  50 Cl:   -0.049545
  51 C :    0.052484
  52 C :   -0.084510
  53 S :    0.165691
  54 C :    0.063152
  55 C :   -0.135362
  56 C :    0.139811
  57 O :   -0.140500
  58 C :    0.012101
  59 C :   -0.081233
  60 C :    0.111906
  61 C :    0.112385
  62 C :   -0.105590
  63 C :    0.240227
  64 C :    0.238937
  65 C :   -0.103112
  66 F :   -0.171847
  67 F :   -0.171303
  68 C :   -0.080333
  69 C :    0.040683
  70 C :    0.246317
  71 C :   -0.316356
  72 C :   -0.210021
  73 N :    0.180023
  74 C :   -0.170434
  75 N :    0.152746
  76 H :    0.008384
  77 H :   -0.001401
  78 H :   -0.006191
  79 H :   -0.010981
  80 H :    0.010836
  81 H :    0.004117
  82 H :   -0.008949
  83 H :    0.189432
  84 H :    0.031009
  85 H :   -0.020376
  86 H :   -0.003487
  87 H :    0.027989
  88 H :   -0.008983
  89 H :    0.005391
  90 H :   -0.001019
  91 H :   -0.004791
Sum of atomic charges:   -0.0000000

LOEWDIN ATOMIC CHARGES
----------------------
   0 C :   -0.028751
   1 C :    0.066642
   2 F :   -0.048157
   3 C :    0.067800
   4 F :   -0.048860
   5 C :   -0.033287
   6 C :   -0.008918
   7 C :   -0.006438
   8 C :    0.018343
   9 C :   -0.021966
  10 C :   -0.051577
  11 C :    0.029708
  12 C :    0.085044
  13 O :   -0.166413
  14 C :   -0.108771
  15 C :    0.076755
  16 C :   -0.141063
  17 C :   -0.021932
  18 N :   -0.051566
  19 C :   -0.017281
  20 N :   -0.053710
  21 C :    0.061504
  22 C :   -0.190767
  23 C :   -0.027107
  24 C :   -0.178915
  25 Cl:    0.165795
  26 C :   -0.193808
  27 S :    0.523516
  28 C :   -0.213707
  29 C :   -0.158335
  30 Cl:    0.176041
  31 C :   -0.072922
  32 C :   -0.184819
  33 S :    0.477919
  34 C :   -0.173823
  35 C :   -0.112091
  36 C :    0.032307
  37 O :   -0.118952
  38 O :   -0.030513
  39 C :   -0.067240
  40 C :   -0.172464
  41 S :    0.472422
  42 C :   -0.162782
  43 C :   -0.068160
  44 C :   -0.159838
  45 Cl:    0.167695
  46 C :   -0.215331
  47 S :    0.481647
  48 C :   -0.180590
  49 C :   -0.174563
  50 Cl:    0.170439
  51 C :   -0.023217
  52 C :   -0.187352
  53 S :    0.483154
  54 C :    0.055388
  55 C :   -0.098106
  56 C :    0.083201
  57 O :   -0.141749
  58 C :   -0.053782
  59 C :    0.030545
  60 C :   -0.009671
  61 C :   -0.005524
  62 C :   -0.030554
  63 C :    0.066859
  64 C :    0.066634
  65 C :   -0.032611
  66 F :   -0.049421
  67 F :   -0.048847
  68 C :    0.012958
  69 C :   -0.018933
  70 C :    0.059142
  71 C :   -0.138337
  72 C :   -0.037748
  73 N :   -0.042228
  74 C :   -0.018649
  75 N :   -0.050738
  76 H :    0.048086
  77 H :    0.044616
  78 H :    0.040223
  79 H :    0.040031
  80 H :    0.051574
  81 H :    0.041990
  82 H :    0.031055
  83 H :    0.096733
  84 H :    0.028496
  85 H :    0.033081
  86 H :    0.040759
  87 H :    0.052694
  88 H :    0.040758
  89 H :    0.047101
  90 H :    0.044816
  91 H :    0.039412

  Mayer bond orders larger than 0.100000
B(  0-C ,  1-C ) :   1.4392 B(  0-C ,  5-C ) :   0.1083 B(  0-C ,  7-C ) :   1.1895
B(  0-C , 76-H ) :   1.0067 B(  1-C ,  2-F ) :   1.1359 B(  1-C ,  3-C ) :   1.1930
B(  3-C ,  4-F ) :   1.1332 B(  3-C ,  5-C ) :   1.4426 B(  5-C ,  6-C ) :   1.1925
B(  5-C , 77-H ) :   1.0068 B(  6-C ,  7-C ) :   1.2577 B(  6-C , 11-C ) :   1.1870
B(  7-C ,  8-C ) :   1.2135 B(  8-C ,  9-C ) :   1.4545 B(  8-C , 78-H ) :   0.9897
B(  9-C , 10-C ) :   1.2221 B(  9-C , 15-C ) :   0.9819 B( 10-C , 11-C ) :   1.4709
B( 10-C , 12-C ) :   0.9573 B( 11-C , 79-H ) :   1.0162 B( 12-C , 13-O ) :   2.1270
B( 12-C , 14-C ) :   0.9789 B( 14-C , 15-C ) :   1.0772 B( 14-C , 21-C ) :   1.4980
B( 15-C , 16-C ) :   1.6299 B( 16-C , 17-C ) :   1.1424 B( 16-C , 19-C ) :   1.1466
B( 17-C , 18-N ) :   2.9664 B( 19-C , 20-N ) :   2.9612 B( 21-C , 22-C ) :   1.2626
B( 21-C , 80-H ) :   0.9404 B( 22-C , 23-C ) :   1.3401 B( 22-C , 27-S ) :   1.0764
B( 23-C , 24-C ) :   1.3364 B( 23-C , 81-H ) :   1.0137 B( 24-C , 25-Cl) :   1.0391
B( 24-C , 26-C ) :   1.3716 B( 26-C , 27-S ) :   1.1251 B( 26-C , 28-C ) :   1.2027
B( 28-C , 29-C ) :   1.4538 B( 28-C , 33-S ) :   1.1169 B( 29-C , 30-Cl) :   1.0533
B( 29-C , 31-C ) :   1.2783 B( 31-C , 32-C ) :   1.4654 B( 31-C , 82-H ) :   1.0032
B( 32-C , 33-S ) :   1.1273 B( 32-C , 34-C ) :   1.1197 B( 34-C , 35-C ) :   1.5597
B( 34-C , 41-S ) :   1.1556 B( 35-C , 36-C ) :   0.8754 B( 35-C , 39-C ) :   1.2641
B( 36-C , 37-O ) :   2.2341 B( 36-C , 38-O ) :   1.1725 B( 38-O , 83-H ) :   0.9476
B( 39-C , 40-C ) :   1.5391 B( 39-C , 42-C ) :   1.0367 B( 40-C , 41-S ) :   1.1618
B( 40-C , 84-H ) :   0.9627 B( 42-C , 43-C ) :   1.5006 B( 42-C , 46-C ) :   0.1056
B( 42-C , 47-S ) :   1.1316 B( 43-C , 44-C ) :   1.2630 B( 43-C , 85-H ) :   1.0072
B( 44-C , 45-Cl) :   1.0362 B( 44-C , 46-C ) :   1.4657 B( 46-C , 47-S ) :   1.1263
B( 46-C , 48-C ) :   1.1809 B( 48-C , 49-C ) :   1.4368 B( 48-C , 53-S ) :   1.1571
B( 49-C , 50-Cl) :   1.0364 B( 49-C , 51-C ) :   1.2897 B( 51-C , 52-C ) :   1.4197
B( 51-C , 86-H ) :   1.0091 B( 52-C , 53-S ) :   1.0877 B( 52-C , 54-C ) :   1.1348
B( 54-C , 55-C ) :   1.6456 B( 54-C , 87-H ) :   0.9477 B( 55-C , 56-C ) :   0.9400
B( 55-C , 70-C ) :   1.0303 B( 56-C , 57-O ) :   2.2741 B( 56-C , 58-C ) :   0.9176
B( 58-C , 59-C ) :   1.4754 B( 58-C , 69-C ) :   1.2228 B( 59-C , 60-C ) :   1.1957
B( 59-C , 88-H ) :   1.0155 B( 60-C , 61-C ) :   1.2576 B( 60-C , 65-C ) :   1.1922
B( 61-C , 62-C ) :   1.1892 B( 61-C , 68-C ) :   1.2144 B( 62-C , 63-C ) :   1.4417
B( 62-C , 65-C ) :   0.1089 B( 62-C , 89-H ) :   1.0067 B( 63-C , 64-C ) :   1.1926
B( 63-C , 67-F ) :   1.1345 B( 64-C , 65-C ) :   1.4444 B( 64-C , 66-F ) :   1.1330
B( 65-C , 90-H ) :   1.0067 B( 68-C , 69-C ) :   1.4578 B( 68-C , 91-H ) :   0.9939
B( 69-C , 70-C ) :   1.0024 B( 70-C , 71-C ) :   1.6644 B( 71-C , 72-C ) :   1.1489
B( 71-C , 74-C ) :   1.1352 B( 72-C , 73-N ) :   3.0300 B( 74-C , 75-N ) :   2.9870

-----------------------------------------------------------------------------
         ABSORPTION SPECTRUM VIA TRANSITION ELECTRIC DIPOLE MOMENTS
-----------------------------------------------------------------------------
State   Energy  Wavelength   fosc         T2         TX        TY        TZ
        (cm-1)    (nm)                  (au**2)     (au)      (au)      (au)
-----------------------------------------------------------------------------
   0   18666.2    535.7   1.607968774  28.35948  -0.15339   4.78989  -2.32226
   1   19714.9    507.2   0.658022720  10.98809  -2.38696   1.61044  -1.64225
   2   26089.9    383.3   0.003225168   0.04070  -0.10571   0.08787   0.14765
   3   26493.9    377.4   0.023210741   0.28842   0.02435  -0.19692   0.49904
   4   26785.5    373.3   0.009937068   0.12213  -0.26093  -0.09284   0.21314
   5   26991.3    370.5   0.039684959   0.48404  -0.63022   0.28766  -0.06415
   6   27820.2    359.5   0.062173244   0.73573  -0.07657  -0.40142   0.75414
   7   28100.7    355.9   0.184865775   2.16578  -0.34768  -0.71503   1.23840
   8   28519.3    350.6   0.109005893   1.25831  -0.13250  -0.95358   0.57571
   9   28903.5    346.0   0.357051989   4.06684  -0.56009  -1.26999   1.46297
  10   29387.9    340.3   0.057879836   0.64839   0.52967  -0.04516  -0.60481
  11   29902.3    334.4   0.214251852   2.35882  -0.38044   1.28621  -0.74817
  12   30287.4    330.2   0.156248428   1.69836  -0.99473   0.83974  -0.06080
  13   30622.7    326.6   0.029668448   0.31895   0.56448  -0.01766   0.00161
  14   31653.6    315.9   0.030649459   0.31877  -0.24195  -0.44197   0.25475
  15   32198.8    310.6   0.121496913   1.24223  -0.23719  -1.08876   0.02371
  16   32476.2    307.9   0.117882205   1.19497   0.17827  -0.99077   0.42610
  17   32982.7    303.2   0.389892066   3.89165  -1.30731  -0.27321   1.45187
  18   33366.1    299.7   0.033866257   0.33415   0.31440   0.05940  -0.48143
  19   33582.9    297.8   0.012118448   0.11880   0.22619   0.09523  -0.24201
  20   34078.1    293.4   0.885947216   8.55871  -1.26650  -0.88876   2.48290
  21   34113.4    293.1   0.256105892   2.47156   1.04380  -1.13050   0.32250
  22   34816.1    287.2   0.093903936   0.88793   0.75887  -0.25249  -0.49829
  23   34928.9    286.3   0.176072786   1.65952  -0.96661   0.29232   0.79984
  24   35107.8    284.8   0.427661313   4.01025  -0.83338   1.58659  -0.89357
  25   35657.0    280.4   0.094738436   0.87470  -0.83307   0.30333   0.29778
  26   36494.2    274.0   0.010926518   0.09857  -0.13135  -0.13854   0.24924
  27   37012.0    270.2   0.002540095   0.02259   0.05067  -0.11529  -0.08206
  28   37266.0    268.3   0.003336308   0.02947   0.09715  -0.01021   0.14118
  29   37372.3    267.6   0.007458528   0.06570  -0.16845   0.19176  -0.02354
  30   38273.5    261.3   0.022074931   0.18988   0.26623   0.06477  -0.33883
  31   38580.9    259.2   0.236121599   2.01483  -1.06952   0.85674  -0.37009
  32   38625.9    258.9   0.007666229   0.06534  -0.11597   0.09374  -0.20762
  33   38826.5    257.6   0.013242155   0.11228   0.08486   0.04780   0.32062
  34   39011.4    256.3   0.124139510   1.04760  -0.45194  -0.15231   0.90562
  35   39056.8    256.0   0.065947156   0.55587  -0.60939   0.18295   0.38864
  36   39617.3    252.4   0.078937990   0.65596  -0.42470  -0.05498   0.68744
  37   39683.7    252.0   0.010515166   0.08723  -0.18259  -0.01467   0.23169
  38   39968.8    250.2   0.013609883   0.11210  -0.06644   0.18520  -0.27090

FINAL SINGLE POINT ENERGY     -6851.568651531137

DIPOLE MOMENT
-------------
                                X             Y             Z
Electronic contribution:      9.84291      -0.45964      -4.11765
Nuclear contribution   :     -6.19482       0.41872       5.37093
                        -----------------------------------------
Total Dipole Moment    :      3.64809      -0.04092       1.25328
                        -----------------------------------------
Magnitude (a.u.)       :      3.85758
Magnitude (Debye)      :      9.80520

Rotational constants in cm-1:     0.002178     0.000149     0.000145
Rotational constants in MHz :    65.303439     4.481125     4.357187

                             ****ORCA TERMINATED NORMALLY****
TOTAL RUN TIME: 0 days 0 hours 9 minutes 19 seconds 714 msec
