                         Program Version 4.2.0 -  RELEASE  -
|  1> # ORCA input file
|  2> # SCF done       -196.825555329234          0.000695253622
|  3> ! CAM-B3LYP def2-SVP def2/J RIJCOSX Grid4 TightSCF
|  4> %maxcore 5000
|  5> %tddft
|  6>     Mode sTDDFT
|  7>     Ethresh 5.0
|  8>     maxcore 5000
|  9> end
| 10>
| 11> %pal
| 12>   nprocs 6
| 13>   end
| 14> * xyz 0 1
| 15>    C      -15.15184        -2.42357         9.74739
| 16>    C      -14.78330        -1.15587        10.10137
| 17>    F      -15.59653        -0.40370        10.85367
| 18>    C      -13.54759        -0.62397         9.68106
| 19>    F      -13.21235         0.62139        10.04302
| 20>    C      -12.69754        -1.36747         8.91114
| 21>    C      -13.04994        -2.67613         8.52837
| 22>    C      -14.29832        -3.21598         8.95374
| 23>    C      -14.67443        -4.52719         8.58102
| 24>    C      -13.83017        -5.27465         7.80272
| 25>    C      -12.58831        -4.72407         7.37987
| 26>    C      -12.19441        -3.46428         7.72721
| 27>    C      -11.88040        -5.71150         6.54750
| 28>    O      -10.78367        -5.56933         6.03894
| 29>    C      -12.76501        -6.88182         6.45845
| 30>    C      -13.94734        -6.62783         7.26210
| 31>    C      -14.99125        -7.48290         7.50233
| 32>    C      -15.11319        -8.79973         7.01036
| 33>    N      -15.29162        -9.87833         6.65798
| 34>    C      -16.10752        -7.15948         8.30331
| 35>    N      -17.04162        -6.96320         8.94096
| 36>    C      -12.53432        -8.00283         5.70350
| 37>    C      -11.45604        -8.33354         4.86622
| 38>    C      -11.45364        -9.51433         4.11630
| 39>    C      -10.32333        -9.64012         3.33290
| 40>    C       -9.42533        -8.56045         3.48085
| 41>    S      -10.00495        -7.37730         4.59438
| 42>    C       -8.29731        -8.67035         2.67812
| 43>    C       -8.32966        -9.82261         1.90659
| 44>    S       -9.75753       -10.80364         2.17930
| 45>    C       -7.39312       -10.22983         0.94009
| 46>    C       -7.50888       -11.35213         0.11089
| 47>    C       -6.43912       -11.47269        -0.84057
| 48>    N       -6.42039       -12.47865        -1.71849
| 49>    C       -7.41035       -13.34247        -1.66019
| 50>    C       -7.38266       -14.45315        -2.64730
| 51>    O       -6.52323       -14.54617        -3.49724
| 52>    C       -8.47931       -15.42817        -2.51895
| 53>    C       -9.46375       -15.32188        -1.62075
| 54>    C       -9.57325       -14.21704        -0.65055
| 55>    O      -10.49585       -14.12777         0.12980
| 56>    C       -8.46901       -13.22478        -0.70442
| 57>    N       -8.50594       -12.23466         0.16000
| 58>    C       -5.49273       -10.44420        -0.72410
| 59>    S       -5.94600        -9.35742         0.55310
| 60>    C       -4.34902       -10.24764        -1.52255
| 61>    C       -3.98370       -10.99971        -2.62854
| 62>    C       -2.82539       -10.50366        -3.21448
| 63>    C       -2.28199        -9.37893        -2.56538
| 64>    S       -3.23448        -8.92822        -1.19789
| 65>    C       -1.14670        -8.86724        -3.17691
| 66>    C       -0.78107        -9.60153        -4.29580
| 67>    S       -1.89527       -10.92986        -4.59946
| 68>    C        0.26248        -9.24387        -5.17869
| 69>    C        0.79479        -9.92352        -6.23049
| 70>    C        1.48156        -9.16058        -7.31094
| 71>    O        1.88093        -8.02162        -7.25289
| 72>    C        1.49467       -10.07436        -8.47165
| 73>    C        1.87699        -9.82122        -9.75740
| 74>    C        1.76283       -10.84738       -10.72191
| 75>    C        1.25075       -12.12006       -10.33415
| 76>    C        1.13034       -13.13426       -11.30533
| 77>    C        1.50300       -12.89759       -12.59876
| 78>    C        2.01108       -11.63942       -12.98047
| 79>    C        2.13922       -10.63508       -12.06256
| 80>    F        2.36704       -11.43526       -14.25567
| 81>    F        1.38758       -13.86254       -13.52002
| 82>    C        0.87327       -12.35712        -8.99226
| 83>    C        0.99849       -11.34958        -8.07452
| 84>    C        0.72436       -11.30927        -6.64078
| 85>    C        0.70290       -12.39245        -5.80332
| 86>    C        0.75146       -12.26786        -4.39872
| 87>    N        0.84913       -12.18688        -3.25811
| 88>    C        0.74725       -13.72687        -6.25480
| 89>    N        0.77141       -14.82505        -6.58668
| 90>    H      -16.10106        -2.81513        10.07836
| 91>    H      -11.75545        -0.94626         8.59694
| 92>    H      -15.62598        -4.90332         8.91958
| 93>    H      -11.24532        -3.07444         7.39214
| 94>    H      -13.30341        -8.76584         5.71693
| 95>    H      -12.25825       -10.22624         4.15335
| 96>    H       -7.49457        -7.95682         2.63451
| 97>    H       -8.44201       -16.25228        -3.21859
| 98>    H      -10.25510       -16.05721        -1.56441
| 99>    H       -4.55110       -11.84861        -2.96356
|100>    H       -0.59430        -8.01297        -2.83110
|101>    H        0.62344        -8.22513        -5.06737
|102>    H        2.25814        -8.85069       -10.03631
|103>    H        0.74655       -14.10404       -11.02967
|104>    H        2.52929        -9.67757       -12.37036
|105>    H        0.48157       -13.32554        -8.72390
|106> *
|107>
|108>                          ****END OF INPUT****

CARTESIAN COORDINATES (ANGSTROEM)
---------------------------------
  C    -15.151840   -2.423570    9.747390
  C    -14.783300   -1.155870   10.101370
  F    -15.596530   -0.403700   10.853670
  C    -13.547590   -0.623970    9.681060
  F    -13.212350    0.621390   10.043020
  C    -12.697540   -1.367470    8.911140
  C    -13.049940   -2.676130    8.528370
  C    -14.298320   -3.215980    8.953740
  C    -14.674430   -4.527190    8.581020
  C    -13.830170   -5.274650    7.802720
  C    -12.588310   -4.724070    7.379870
  C    -12.194410   -3.464280    7.727210
  C    -11.880400   -5.711500    6.547500
  O    -10.783670   -5.569330    6.038940
  C    -12.765010   -6.881820    6.458450
  C    -13.947340   -6.627830    7.262100
  C    -14.991250   -7.482900    7.502330
  C    -15.113190   -8.799730    7.010360
  N    -15.291620   -9.878330    6.657980
  C    -16.107520   -7.159480    8.303310
  N    -17.041620   -6.963200    8.940960
  C    -12.534320   -8.002830    5.703500
  C    -11.456040   -8.333540    4.866220
  C    -11.453640   -9.514330    4.116300
  C    -10.323330   -9.640120    3.332900
  C     -9.425330   -8.560450    3.480850
  S    -10.004950   -7.377300    4.594380
  C     -8.297310   -8.670350    2.678120
  C     -8.329660   -9.822610    1.906590
  S     -9.757530  -10.803640    2.179300
  C     -7.393120  -10.229830    0.940090
  C     -7.508880  -11.352130    0.110890
  C     -6.439120  -11.472690   -0.840570
  N     -6.420390  -12.478650   -1.718490
  C     -7.410350  -13.342470   -1.660190
  C     -7.382660  -14.453150   -2.647300
  O     -6.523230  -14.546170   -3.497240
  C     -8.479310  -15.428170   -2.518950
  C     -9.463750  -15.321880   -1.620750
  C     -9.573250  -14.217040   -0.650550
  O    -10.495850  -14.127770    0.129800
  C     -8.469010  -13.224780   -0.704420
  N     -8.505940  -12.234660    0.160000
  C     -5.492730  -10.444200   -0.724100
  S     -5.946000   -9.357420    0.553100
  C     -4.349020  -10.247640   -1.522550
  C     -3.983700  -10.999710   -2.628540
  C     -2.825390  -10.503660   -3.214480
  C     -2.281990   -9.378930   -2.565380
  S     -3.234480   -8.928220   -1.197890
  C     -1.146700   -8.867240   -3.176910
  C     -0.781070   -9.601530   -4.295800
  S     -1.895270  -10.929860   -4.599460
  C      0.262480   -9.243870   -5.178690
  C      0.794790   -9.923520   -6.230490
  C      1.481560   -9.160580   -7.310940
  O      1.880930   -8.021620   -7.252890
  C      1.494670  -10.074360   -8.471650
  C      1.876990   -9.821220   -9.757400
  C      1.762830  -10.847380  -10.721910
  C      1.250750  -12.120060  -10.334150
  C      1.130340  -13.134260  -11.305330
  C      1.503000  -12.897590  -12.598760
  C      2.011080  -11.639420  -12.980470
  C      2.139220  -10.635080  -12.062560
  F      2.367040  -11.435260  -14.255670
  F      1.387580  -13.862540  -13.520020
  C      0.873270  -12.357120   -8.992260
  C      0.998490  -11.349580   -8.074520
  C      0.724360  -11.309270   -6.640780
  C      0.702900  -12.392450   -5.803320
  C      0.751460  -12.267860   -4.398720
  N      0.849130  -12.186880   -3.258110
  C      0.747250  -13.726870   -6.254800
  N      0.771410  -14.825050   -6.586680
  H    -16.101060   -2.815130   10.078360
  H    -11.755450   -0.946260    8.596940
  H    -15.625980   -4.903320    8.919580
  H    -11.245320   -3.074440    7.392140
  H    -13.303410   -8.765840    5.716930
  H    -12.258250  -10.226240    4.153350
  H     -7.494570   -7.956820    2.634510
  H     -8.442010  -16.252280   -3.218590
  H    -10.255100  -16.057210   -1.564410
  H     -4.551100  -11.848610   -2.963560
  H     -0.594300   -8.012970   -2.831100
  H      0.623440   -8.225130   -5.067370
  H      2.258140   -8.850690  -10.036310
  H      0.746550  -14.104040  -11.029670
  H      2.529290   -9.677570  -12.370360
  H      0.481570  -13.325540   -8.723900

 Total Charge           Charge          ....    0
 Multiplicity           Mult            ....    1
 Number of Electrons    NEL             ....  542
 Basis Dimension        Dim             .... 1150

ORBITAL ENERGIES
----------------

  NO   OCC          E(Eh)            E(eV)
   0   2.0000     -89.010879     -2422.1092
   1   2.0000     -88.981339     -2421.3053
   2   2.0000     -88.976655     -2421.1779
   3   2.0000     -88.969536     -2420.9842
   4   2.0000     -88.966794     -2420.9095
   5   2.0000     -24.799233      -674.8214
   6   2.0000     -24.799052      -674.8165
   7   2.0000     -24.798497      -674.8014
   8   2.0000     -24.798081      -674.7901
   9   2.0000     -19.236879      -523.4621
  10   2.0000     -19.235871      -523.4347
  11   2.0000     -19.223536      -523.0990
  12   2.0000     -19.217880      -522.9451
  13   2.0000     -14.461648      -393.5215
  14   2.0000     -14.460512      -393.4905
  15   2.0000     -14.418745      -392.3540
  16   2.0000     -14.418563      -392.3490
  17   2.0000     -14.415421      -392.2636
  18   2.0000     -14.414704      -392.2440
  19   2.0000     -10.385631      -282.6074
  20   2.0000     -10.385376      -282.6004
  21   2.0000     -10.382217      -282.5145
  22   2.0000     -10.382206      -282.5142
  23   2.0000     -10.381812      -282.5035
  24   2.0000     -10.381457      -282.4938
  25   2.0000     -10.372115      -282.2396
  26   2.0000     -10.369964      -282.1811
  27   2.0000     -10.353319      -281.7281
  28   2.0000     -10.352410      -281.7034
  29   2.0000     -10.347929      -281.5815
  30   2.0000     -10.346959      -281.5551
  31   2.0000     -10.346242      -281.5356
  32   2.0000     -10.345260      -281.5088
  33   2.0000     -10.344808      -281.4965
  34   2.0000     -10.344497      -281.4881
  35   2.0000     -10.343518      -281.4614
  36   2.0000     -10.342752      -281.4406
  37   2.0000     -10.339334      -281.3476
  38   2.0000     -10.336896      -281.2812
  39   2.0000     -10.328374      -281.0493
  40   2.0000     -10.326306      -280.9931
  41   2.0000     -10.325792      -280.9791
  42   2.0000     -10.324539      -280.9450
  43   2.0000     -10.322719      -280.8955
  44   2.0000     -10.322714      -280.8953
  45   2.0000     -10.321670      -280.8669
  46   2.0000     -10.320687      -280.8402
  47   2.0000     -10.318708      -280.7863
  48   2.0000     -10.317551      -280.7548
  49   2.0000     -10.316846      -280.7356
  50   2.0000     -10.316596      -280.7289
  51   2.0000     -10.313146      -280.6350
  52   2.0000     -10.311982      -280.6033
  53   2.0000     -10.311977      -280.6032
  54   2.0000     -10.311505      -280.5903
  55   2.0000     -10.311325      -280.5854
  56   2.0000     -10.311006      -280.5767
  57   2.0000     -10.309848      -280.5452
  58   2.0000     -10.309200      -280.5276
  59   2.0000     -10.308219      -280.5009
  60   2.0000     -10.305986      -280.4401
  61   2.0000     -10.304386      -280.3966
  62   2.0000     -10.303828      -280.3814
  63   2.0000     -10.303726      -280.3787
  64   2.0000     -10.303067      -280.3607
  65   2.0000     -10.302925      -280.3568
  66   2.0000     -10.302212      -280.3374
  67   2.0000     -10.302035      -280.3326
  68   2.0000     -10.301316      -280.3131
  69   2.0000     -10.301246      -280.3112
  70   2.0000     -10.301081      -280.3067
  71   2.0000     -10.300950      -280.3031
  72   2.0000     -10.300089      -280.2797
  73   2.0000     -10.295788      -280.1626
  74   2.0000     -10.294307      -280.1223
  75   2.0000      -8.105341      -220.5575
  76   2.0000      -8.076824      -219.7816
  77   2.0000      -8.071467      -219.6358
  78   2.0000      -8.063745      -219.4257
  79   2.0000      -8.060123      -219.3271
  80   2.0000      -6.074367      -165.2919
  81   2.0000      -6.070245      -165.1798
  82   2.0000      -6.068101      -165.1214
  83   2.0000      -6.046436      -164.5319
  84   2.0000      -6.042412      -164.4224
  85   2.0000      -6.041011      -164.3843
  86   2.0000      -6.038157      -164.3066
  87   2.0000      -6.036958      -164.2740
  88   2.0000      -6.033449      -164.1785
  89   2.0000      -6.032986      -164.1659
  90   2.0000      -6.029801      -164.0792
  91   2.0000      -6.029203      -164.0630
  92   2.0000      -6.025321      -163.9573
  93   2.0000      -6.025041      -163.9497
  94   2.0000      -6.021732      -163.8597
  95   2.0000      -1.321847       -35.9693
  96   2.0000      -1.321759       -35.9669
  97   2.0000      -1.306986       -35.5649
  98   2.0000      -1.306862       -35.5615
  99   2.0000      -1.153972       -31.4012
 100   2.0000      -1.149222       -31.2719
 101   2.0000      -1.139634       -31.0110
 102   2.0000      -1.133831       -30.8531
 103   2.0000      -1.112740       -30.2792
 104   2.0000      -1.040956       -28.3258
 105   2.0000      -1.033246       -28.1161
 106   2.0000      -1.024362       -27.8743
 107   2.0000      -1.021452       -27.7951
 108   2.0000      -1.020584       -27.7715
 109   2.0000      -1.011721       -27.5303
 110   2.0000      -1.005866       -27.3710
 111   2.0000      -1.005082       -27.3497
 112   2.0000      -0.995688       -27.0941
 113   2.0000      -0.995260       -27.0824
 114   2.0000      -0.983745       -26.7691
 115   2.0000      -0.983042       -26.7499
 116   2.0000      -0.970612       -26.4117
 117   2.0000      -0.960340       -26.1322
 118   2.0000      -0.948193       -25.8017
 119   2.0000      -0.933049       -25.3895
 120   2.0000      -0.931776       -25.3549
 121   2.0000      -0.909406       -24.7462
 122   2.0000      -0.905420       -24.6377
 123   2.0000      -0.895940       -24.3798
 124   2.0000      -0.894126       -24.3304
 125   2.0000      -0.891577       -24.2611
 126   2.0000      -0.887752       -24.1570
 127   2.0000      -0.882758       -24.0211
 128   2.0000      -0.880367       -23.9560
 129   2.0000      -0.873401       -23.7665
 130   2.0000      -0.865296       -23.5459
 131   2.0000      -0.842072       -22.9139
 132   2.0000      -0.841724       -22.9045
 133   2.0000      -0.833625       -22.6841
 134   2.0000      -0.824588       -22.4382
 135   2.0000      -0.821623       -22.3575
 136   2.0000      -0.814949       -22.1759
 137   2.0000      -0.806136       -21.9361
 138   2.0000      -0.800511       -21.7830
 139   2.0000      -0.798034       -21.7156
 140   2.0000      -0.775828       -21.1114
 141   2.0000      -0.769707       -20.9448
 142   2.0000      -0.767502       -20.8848
 143   2.0000      -0.754729       -20.5372
 144   2.0000      -0.752188       -20.4681
 145   2.0000      -0.734067       -19.9750
 146   2.0000      -0.728408       -19.8210
 147   2.0000      -0.719379       -19.5753
 148   2.0000      -0.716602       -19.4997
 149   2.0000      -0.706893       -19.2355
 150   2.0000      -0.699280       -19.0284
 151   2.0000      -0.691235       -18.8095
 152   2.0000      -0.686779       -18.6882
 153   2.0000      -0.686724       -18.6867
 154   2.0000      -0.678823       -18.4717
 155   2.0000      -0.673699       -18.3323
 156   2.0000      -0.672470       -18.2989
 157   2.0000      -0.666527       -18.1371
 158   2.0000      -0.659107       -17.9352
 159   2.0000      -0.657509       -17.8917
 160   2.0000      -0.656702       -17.8698
 161   2.0000      -0.648719       -17.6525
 162   2.0000      -0.644029       -17.5249
 163   2.0000      -0.642963       -17.4959
 164   2.0000      -0.636556       -17.3216
 165   2.0000      -0.630613       -17.1599
 166   2.0000      -0.625490       -17.0205
 167   2.0000      -0.618389       -16.8272
 168   2.0000      -0.616217       -16.7681
 169   2.0000      -0.613368       -16.6906
 170   2.0000      -0.606742       -16.5103
 171   2.0000      -0.594042       -16.1647
 172   2.0000      -0.591990       -16.1089
 173   2.0000      -0.590402       -16.0656
 174   2.0000      -0.587780       -15.9943
 175   2.0000      -0.586411       -15.9571
 176   2.0000      -0.586259       -15.9529
 177   2.0000      -0.586233       -15.9522
 178   2.0000      -0.579598       -15.7717
 179   2.0000      -0.577649       -15.7186
 180   2.0000      -0.577191       -15.7062
 181   2.0000      -0.574620       -15.6362
 182   2.0000      -0.568798       -15.4778
 183   2.0000      -0.562425       -15.3044
 184   2.0000      -0.555687       -15.1210
 185   2.0000      -0.555268       -15.1096
 186   2.0000      -0.549812       -14.9611
 187   2.0000      -0.547889       -14.9088
 188   2.0000      -0.547818       -14.9069
 189   2.0000      -0.547802       -14.9064
 190   2.0000      -0.543128       -14.7793
 191   2.0000      -0.539032       -14.6678
 192   2.0000      -0.536612       -14.6020
 193   2.0000      -0.535834       -14.5808
 194   2.0000      -0.534969       -14.5573
 195   2.0000      -0.534085       -14.5332
 196   2.0000      -0.530691       -14.4408
 197   2.0000      -0.529931       -14.4202
 198   2.0000      -0.528625       -14.3846
 199   2.0000      -0.525733       -14.3059
 200   2.0000      -0.521718       -14.1967
 201   2.0000      -0.518559       -14.1107
 202   2.0000      -0.516607       -14.0576
 203   2.0000      -0.516246       -14.0478
 204   2.0000      -0.514393       -13.9974
 205   2.0000      -0.509338       -13.8598
 206   2.0000      -0.507898       -13.8206
 207   2.0000      -0.504861       -13.7380
 208   2.0000      -0.502404       -13.6711
 209   2.0000      -0.501615       -13.6497
 210   2.0000      -0.499944       -13.6042
 211   2.0000      -0.499489       -13.5918
 212   2.0000      -0.494450       -13.4547
 213   2.0000      -0.491756       -13.3814
 214   2.0000      -0.489433       -13.3181
 215   2.0000      -0.488250       -13.2859
 216   2.0000      -0.486911       -13.2495
 217   2.0000      -0.486634       -13.2420
 218   2.0000      -0.477541       -12.9945
 219   2.0000      -0.474268       -12.9055
 220   2.0000      -0.471672       -12.8349
 221   2.0000      -0.470683       -12.8079
 222   2.0000      -0.467693       -12.7266
 223   2.0000      -0.465565       -12.6687
 224   2.0000      -0.464686       -12.6448
 225   2.0000      -0.463061       -12.6005
 226   2.0000      -0.453730       -12.3466
 227   2.0000      -0.452272       -12.3069
 228   2.0000      -0.451171       -12.2770
 229   2.0000      -0.448452       -12.2030
 230   2.0000      -0.447478       -12.1765
 231   2.0000      -0.446335       -12.1454
 232   2.0000      -0.445004       -12.1092
 233   2.0000      -0.444786       -12.1032
 234   2.0000      -0.442676       -12.0458
 235   2.0000      -0.438589       -11.9346
 236   2.0000      -0.432966       -11.7816
 237   2.0000      -0.432294       -11.7633
 238   2.0000      -0.431509       -11.7420
 239   2.0000      -0.428502       -11.6601
 240   2.0000      -0.427943       -11.6449
 241   2.0000      -0.424627       -11.5547
 242   2.0000      -0.423038       -11.5114
 243   2.0000      -0.417617       -11.3639
 244   2.0000      -0.412686       -11.2298
 245   2.0000      -0.408838       -11.1250
 246   2.0000      -0.401942       -10.9374
 247   2.0000      -0.401487       -10.9250
 248   2.0000      -0.395803       -10.7704
 249   2.0000      -0.388269       -10.5653
 250   2.0000      -0.386143       -10.5075
 251   2.0000      -0.382442       -10.4068
 252   2.0000      -0.381700       -10.3866
 253   2.0000      -0.374875       -10.2009
 254   2.0000      -0.373275       -10.1573
 255   2.0000      -0.367781       -10.0078
 256   2.0000      -0.360065        -9.7979
 257   2.0000      -0.356286        -9.6950
 258   2.0000      -0.353559        -9.6208
 259   2.0000      -0.345793        -9.4095
 260   2.0000      -0.339490        -9.2380
 261   2.0000      -0.337203        -9.1758
 262   2.0000      -0.322831        -8.7847
 263   2.0000      -0.319573        -8.6960
 264   2.0000      -0.317824        -8.6484
 265   2.0000      -0.312682        -8.5085
 266   2.0000      -0.306488        -8.3400
 267   2.0000      -0.302495        -8.2313
 268   2.0000      -0.300755        -8.1840
 269   2.0000      -0.284550        -7.7430
 270   2.0000      -0.247570        -6.7367
 271   0.0000      -0.124392        -3.3849
 272   0.0000      -0.102670        -2.7938
 273   0.0000      -0.090085        -2.4513
 274   0.0000      -0.087368        -2.3774
 275   0.0000      -0.062165        -1.6916

MULLIKEN ATOMIC CHARGES
-----------------------
   0 C :   -0.107568
   1 C :    0.241663
   2 F :   -0.171124
   3 C :    0.239460
   4 F :   -0.171117
   5 C :   -0.105893
   6 C :    0.116345
   7 C :    0.114552
   8 C :   -0.085452
   9 C :    0.048741
  10 C :   -0.001761
  11 C :   -0.083046
  12 C :    0.167373
  13 O :   -0.176117
  14 C :   -0.094850
  15 C :    0.333859
  16 C :   -0.359528
  17 C :   -0.189615
  18 N :    0.148107
  19 C :   -0.181654
  20 N :    0.144403
  21 C :   -0.021542
  22 C :   -0.061444
  23 C :   -0.050513
  24 C :    0.023302
  25 C :    0.022023
  26 S :    0.198607
  27 C :   -0.083281
  28 C :   -0.068882
  29 S :    0.203305
  30 C :   -0.109903
  31 C :    0.014283
  32 C :    0.029285
  33 N :    0.067086
  34 C :   -0.115897
  35 C :    0.141279
  36 O :   -0.104517
  37 C :   -0.012793
  38 C :   -0.017527
  39 C :    0.139511
  40 O :   -0.098597
  41 C :   -0.118002
  42 N :    0.052853
  43 C :   -0.106422
  44 S :    0.220864
  45 C :   -0.096646
  46 C :   -0.041630
  47 C :    0.006705
  48 C :    0.008625
  49 S :    0.141664
  50 C :   -0.001145
  51 C :   -0.083466
  52 S :    0.173542
  53 C :    0.047614
  54 C :   -0.138132
  55 C :    0.143498
  56 O :   -0.141338
  57 C :    0.012049
  58 C :   -0.083097
  59 C :    0.112492
  60 C :    0.111572
  61 C :   -0.105020
  62 C :    0.241531
  63 C :    0.237373
  64 C :   -0.102372
  65 F :   -0.172094
  66 F :   -0.170993
  67 C :   -0.078513
  68 C :    0.038710
  69 C :    0.242770
  70 C :   -0.307655
  71 C :   -0.211082
  72 N :    0.174531
  73 C :   -0.173281
  74 N :    0.154851
  75 H :    0.007190
  76 H :   -0.001828
  77 H :   -0.007003
  78 H :   -0.011999
  79 H :    0.011637
  80 H :    0.013858
  81 H :   -0.006844
  82 H :    0.022033
  83 H :    0.022522
  84 H :    0.018339
  85 H :    0.002510
  86 H :    0.024780
  87 H :   -0.008955
  88 H :    0.004920
  89 H :   -0.000186
  90 H :   -0.001893
Sum of atomic charges:    0.0000000

LOEWDIN ATOMIC CHARGES
----------------------
   0 C :   -0.028843
   1 C :    0.066245
   2 F :   -0.048489
   3 C :    0.067178
   4 F :   -0.049165
   5 C :   -0.033604
   6 C :   -0.009186
   7 C :   -0.006735
   8 C :    0.017675
   9 C :   -0.021918
  10 C :   -0.051674
  11 C :    0.029169
  12 C :    0.083424
  13 O :   -0.164751
  14 C :   -0.110346
  15 C :    0.076698
  16 C :   -0.143179
  17 C :   -0.021715
  18 N :   -0.053402
  19 C :   -0.017242
  20 N :   -0.055650
  21 C :    0.057843
  22 C :   -0.175302
  23 C :   -0.021947
  24 C :   -0.205096
  25 C :   -0.187167
  26 S :    0.486758
  27 C :   -0.070366
  28 C :   -0.161277
  29 S :    0.471884
  30 C :   -0.189680
  31 C :   -0.048605
  32 C :   -0.040948
  33 N :    0.009751
  34 C :   -0.038837
  35 C :    0.056631
  36 O :   -0.099817
  37 C :   -0.011821
  38 C :   -0.010350
  39 C :    0.055686
  40 O :   -0.095397
  41 C :   -0.037026
  42 N :   -0.003016
  43 C :   -0.186240
  44 S :    0.515776
  45 C :   -0.168423
  46 C :   -0.040685
  47 C :   -0.175695
  48 C :   -0.196787
  49 S :    0.415436
  50 C :   -0.020751
  51 C :   -0.168483
  52 S :    0.466706
  53 C :    0.050427
  54 C :   -0.097653
  55 C :    0.083435
  56 O :   -0.142858
  57 C :   -0.053811
  58 C :    0.030580
  59 C :   -0.009783
  60 C :   -0.005434
  61 C :   -0.030280
  62 C :    0.067115
  63 C :    0.066610
  64 C :   -0.032783
  65 F :   -0.049397
  66 F :   -0.048454
  67 C :    0.013700
  68 C :   -0.018775
  69 C :    0.059337
  70 C :   -0.138445
  71 C :   -0.038246
  72 N :   -0.044727
  73 C :   -0.019123
  74 N :   -0.048426
  75 H :    0.047765
  76 H :    0.044349
  77 H :    0.039979
  78 H :    0.039686
  79 H :    0.051465
  80 H :    0.043072
  81 H :    0.030740
  82 H :    0.047404
  83 H :    0.047483
  84 H :    0.041918
  85 H :    0.041117
  86 H :    0.052253
  87 H :    0.040672
  88 H :    0.047056
  89 H :    0.044833
  90 H :    0.039953

  Mayer bond orders larger than 0.100000
B(  0-C ,  1-C ) :   1.4392 B(  0-C ,  5-C ) :   0.1086 B(  0-C ,  7-C ) :   1.1882
B(  0-C , 75-H ) :   1.0072 B(  1-C ,  2-F ) :   1.1344 B(  1-C ,  3-C ) :   1.1922
B(  3-C ,  4-F ) :   1.1337 B(  3-C ,  5-C ) :   1.4416 B(  5-C ,  6-C ) :   1.1923
B(  5-C , 76-H ) :   1.0075 B(  6-C ,  7-C ) :   1.2597 B(  6-C , 11-C ) :   1.1843
B(  7-C ,  8-C ) :   1.2142 B(  8-C ,  9-C ) :   1.4510 B(  8-C , 77-H ) :   0.9899
B(  9-C , 10-C ) :   1.2234 B(  9-C , 15-C ) :   0.9812 B( 10-C , 11-C ) :   1.4696
B( 10-C , 12-C ) :   0.9543 B( 11-C , 78-H ) :   1.0173 B( 12-C , 13-O ) :   2.1402
B( 12-C , 14-C ) :   0.9723 B( 14-C , 15-C ) :   1.0855 B( 14-C , 21-C ) :   1.4860
B( 15-C , 16-C ) :   1.6173 B( 16-C , 17-C ) :   1.1457 B( 16-C , 19-C ) :   1.1499
B( 17-C , 18-N ) :   2.9595 B( 19-C , 20-N ) :   2.9577 B( 21-C , 22-C ) :   1.2800
B( 21-C , 79-H ) :   0.9385 B( 22-C , 23-C ) :   1.3613 B( 22-C , 26-S ) :   1.0761
B( 23-C , 24-C ) :   1.3209 B( 23-C , 80-H ) :   1.0130 B( 24-C , 25-C ) :   1.3245
B( 24-C , 29-S ) :   1.0229 B( 25-C , 26-S ) :   1.0515 B( 25-C , 27-C ) :   1.2914
B( 27-C , 28-C ) :   1.4288 B( 27-C , 81-H ) :   1.0027 B( 28-C , 29-S ) :   1.1203
B( 28-C , 30-C ) :   1.2403 B( 30-C , 31-C ) :   1.3130 B( 30-C , 43-C ) :   0.1312
B( 30-C , 44-S ) :   1.1603 B( 31-C , 32-C ) :   1.1922 B( 31-C , 42-N ) :   1.4240
B( 32-C , 33-N ) :   1.4388 B( 32-C , 43-C ) :   1.3589 B( 33-N , 34-C ) :   1.7143
B( 34-C , 35-C ) :   0.8933 B( 34-C , 41-C ) :   1.0976 B( 35-C , 36-O ) :   2.2322
B( 35-C , 37-C ) :   1.0285 B( 37-C , 38-C ) :   1.6803 B( 37-C , 82-H ) :   0.9984
B( 38-C , 39-C ) :   1.0219 B( 38-C , 83-H ) :   0.9978 B( 39-C , 40-O ) :   2.2545
B( 39-C , 41-C ) :   0.8906 B( 41-C , 42-N ) :   1.7070 B( 43-C , 44-S ) :   1.1633
B( 43-C , 45-C ) :   1.2023 B( 45-C , 46-C ) :   1.4983 B( 45-C , 49-S ) :   1.0820
B( 46-C , 47-C ) :   1.2491 B( 46-C , 84-H ) :   0.9925 B( 47-C , 48-C ) :   1.3681
B( 47-C , 52-S ) :   1.0978 B( 48-C , 49-S ) :   1.0592 B( 48-C , 50-C ) :   1.2892
B( 50-C , 51-C ) :   1.4301 B( 50-C , 85-H ) :   1.0077 B( 51-C , 52-S ) :   1.0879
B( 51-C , 53-C ) :   1.1738 B( 53-C , 54-C ) :   1.6269 B( 53-C , 86-H ) :   0.9441
B( 54-C , 55-C ) :   0.9424 B( 54-C , 69-C ) :   1.0353 B( 55-C , 56-O ) :   2.2686
B( 55-C , 57-C ) :   0.9189 B( 57-C , 58-C ) :   1.4757 B( 57-C , 68-C ) :   1.2222
B( 58-C , 59-C ) :   1.1960 B( 58-C , 87-H ) :   1.0160 B( 59-C , 60-C ) :   1.2576
B( 59-C , 64-C ) :   1.1929 B( 60-C , 61-C ) :   1.1922 B( 60-C , 67-C ) :   1.2108
B( 61-C , 62-C ) :   1.4410 B( 61-C , 64-C ) :   0.1085 B( 61-C , 88-H ) :   1.0065
B( 62-C , 63-C ) :   1.1919 B( 62-C , 66-F ) :   1.1341 B( 63-C , 64-C ) :   1.4443
B( 63-C , 65-F ) :   1.1328 B( 64-C , 89-H ) :   1.0064 B( 67-C , 68-C ) :   1.4636
B( 67-C , 90-H ) :   0.9945 B( 68-C , 69-C ) :   0.9982 B( 69-C , 70-C ) :   1.6623
B( 70-C , 71-C ) :   1.1473 B( 70-C , 73-C ) :   1.1346 B( 71-C , 72-N ) :   3.0297
B( 73-C , 74-N ) :   2.9907

-----------------------------------------------------------------------------
         ABSORPTION SPECTRUM VIA TRANSITION ELECTRIC DIPOLE MOMENTS
-----------------------------------------------------------------------------
State   Energy  Wavelength   fosc         T2         TX        TY        TZ
        (cm-1)    (nm)                  (au**2)     (au)      (au)      (au)
-----------------------------------------------------------------------------
   0   11872.9    842.3   1.473664823  40.86179  -4.45496   1.44066   4.35197
   1   17089.3    585.2   0.160648977   3.09478   0.59585   1.58154   0.48834
   2   19607.6    510.0   0.861804792  14.46972   2.45996  -1.28387  -2.60192
   3   20858.0    479.4   0.131440705   2.07459   0.72425  -0.94006  -0.81630
   4   21353.0    468.3   0.070658074   1.08938  -0.92267  -0.25586   0.41544
   5   23294.5    429.3   0.005591572   0.07902   0.16851   0.22418   0.01935
   6   24530.5    407.7   0.003756695   0.05042  -0.12989  -0.00216  -0.18314
   7   24761.1    403.9   0.012333390   0.16398  -0.01198  -0.21588  -0.34239
   8   25777.5    387.9   0.001190569   0.01521   0.09663  -0.07626   0.00714
   9   25806.8    387.5   0.021606642   0.27563   0.38917  -0.32329   0.14021
  10   26226.0    381.3   0.018495598   0.23217  -0.02474  -0.07312  -0.47562
  11   26456.9    378.0   0.000929989   0.01157  -0.06583   0.06434  -0.05567
  12   26589.2    376.1   0.004798189   0.05941   0.22963   0.02739  -0.07699
  13   27377.9    365.3   0.232655148   2.79762   0.16543  -1.43342  -0.84591
  14   27759.5    360.2   0.005169038   0.06130  -0.04470   0.16491   0.17919
  15   27842.1    359.2   0.118293697   1.39873  -0.74922  -0.27420   0.87305
  16   28147.0    355.3   0.251392488   2.94033  -0.90930  -1.13306   0.91086
  17   28846.3    346.7   0.047404180   0.54101   0.20842  -0.48884  -0.50853
  18   29056.7    344.2   0.165935306   1.88004   0.90328  -0.21846  -1.00817
  19   29288.1    341.4   0.051019235   0.57348  -0.18240  -0.08567   0.72998
  20   29565.6    338.2   0.014601707   0.16259   0.14417   0.13319  -0.35223
  21   29862.5    334.9   0.075535731   0.83273  -0.21026   0.55748   0.69118
  22   30224.7    330.9   0.060608137   0.66015  -0.17491   0.54815   0.57366
  23   30320.6    329.8   0.061153856   0.66399   0.10170   0.70803   0.39030
  24   30645.8    326.3   0.001337200   0.01436   0.09315  -0.00172  -0.07540
  25   30939.5    323.2   0.001610618   0.01714   0.13034   0.01137  -0.00452
  26   32020.7    312.3   0.126158521   1.29706   0.99438   0.27807  -0.48057
  27   32572.8    307.0   0.091222114   0.92198   0.08960  -0.56684   0.76983
  28   32710.4    305.7   0.006220584   0.06261  -0.10663  -0.13393   0.18248
  29   32949.6    303.5   0.574638528   5.74143   0.22828   2.01025   1.28382
  30   33165.1    301.5   0.223825118   2.22179   0.34668   0.51850  -1.35380
  31   33233.4    300.9   0.074074375   0.73378  -0.27326  -0.50095   0.63887
  32   33579.2    297.8   0.095208178   0.93342  -0.40610  -0.86953  -0.11143
  33   33751.0    296.3   0.000282064   0.00275  -0.02331  -0.04697  -0.00118
  34   33947.1    294.6   0.014644997   0.14202  -0.07389   0.09968  -0.35585
  35   34045.6    293.7   0.011922650   0.11529  -0.03774   0.33323  -0.05314
  36   34145.4    292.9   0.009361600   0.09026  -0.07257  -0.17537  -0.23289
  37   34630.7    288.8   0.000257519   0.00245  -0.01080  -0.02527  -0.04114
  38   34878.1    286.7   0.317567848   2.99750  -0.46790  -1.22755  -1.12769
  39   35815.0    279.2   0.069976630   0.64323  -0.27546  -0.39233   0.64298
  40   35888.0    278.6   0.125704509   1.15313   0.71048   0.80411  -0.04182
  41   36308.4    275.4   0.191907753   1.74005  -0.31684  -0.87713   0.93290
  42   36402.9    274.7   0.089538584   0.80975  -0.23442  -0.06369   0.86645
  43   36567.9    273.5   0.005204074   0.04685   0.08305   0.07934  -0.18346
  44   36616.4    273.1   0.216828530   1.94947   0.05582  -0.91213  -1.05564
  45   36783.4    271.9   0.025537673   0.22856   0.03847   0.03457   0.47528
  46   36892.5    271.1   0.061040014   0.54469   0.05116   0.22205  -0.70197
  47   36921.7    270.8   0.180889634   1.61290   0.68921   1.03528   0.25704
  48   37199.6    268.8   0.020632297   0.18259  -0.31439   0.04480   0.28591
  49   37500.9    266.7   0.058569047   0.51416   0.26673   0.53676  -0.39358
  50   37773.6    264.7   0.012200685   0.10633   0.19108  -0.13070   0.22965
  51   37853.3    264.2   0.037655115   0.32749   0.41062  -0.18454  -0.35331
  52   37980.9    263.3   0.042007836   0.36412  -0.15118   0.06385   0.58068
  53   38469.8    259.9   0.063087597   0.53988   0.13219   0.70424   0.16264
  54   38584.8    259.2   0.040912796   0.34908   0.46246   0.34916  -0.11530
  55   38726.0    258.2   0.014346549   0.12196   0.24320   0.18120   0.17315
  56   38773.7    257.9   0.027531735   0.23376   0.21157   0.30137  -0.31333
  57   39078.1    255.9   0.133897154   1.12801   0.24942   1.00322   0.24362
  58   39325.9    254.3   0.021523807   0.18018   0.19156   0.36133   0.11372
  59   39472.7    253.3   0.201475130   1.68035   1.08792   0.69197  -0.13399
  60   39572.8    252.7   0.035316910   0.29381   0.41282  -0.28604  -0.20387
  61   39659.9    252.1   0.077383262   0.64235  -0.15263   0.37661   0.69081
  62   40040.1    249.7   0.003462382   0.02847   0.11592  -0.11224  -0.04934
  63   40327.6    248.0   0.030374553   0.24796  -0.26982   0.32839   0.25946

FINAL SINGLE POINT ENERGY     -5158.733768144127

DIPOLE MOMENT
-------------
                                X             Y             Z
Electronic contribution:      2.13427       9.31151      -1.34123
Nuclear contribution   :     -1.41973      -7.77425       0.02543
                        -----------------------------------------
Total Dipole Moment    :      0.71454       1.53725      -1.31581
                        -----------------------------------------
Magnitude (a.u.)       :      2.14594
Magnitude (Debye)      :      5.45455

Rotational constants in cm-1:     0.001703     0.000176     0.000164
Rotational constants in MHz :    51.051554     5.266432     4.904644

                             ****ORCA TERMINATED NORMALLY****
TOTAL RUN TIME: 0 days 0 hours 8 minutes 47 seconds 853 msec
