                         Program Version 4.2.0 -  RELEASE  -
|  1> # ORCA input file
|  2> # SCF done       -210.083090082100          0.000405535204
|  3> ! CAM-B3LYP def2-SVP def2/J RIJCOSX Grid4 TightSCF
|  4> %maxcore 5000
|  5> %tddft
|  6>     Mode sTDDFT
|  7>     Ethresh 5.0
|  8>     maxcore 5000
|  9> end
| 10>
| 11> %pal
| 12>   nprocs 6
| 13>   end
| 14> * xyz 0 1
| 15>    C      -11.79511         0.81037        -1.89928
| 16>    C      -12.72020         0.90674        -2.90088
| 17>    F      -13.33212         2.07248        -3.14185
| 18>    C      -13.04226        -0.21541        -3.69126
| 19>    F      -13.95252        -0.09142        -4.66526
| 20>    C      -12.43422        -1.41907        -3.46850
| 21>    C      -11.47733        -1.55012        -2.44335
| 22>    C      -11.15026        -0.41653        -1.64362
| 23>    C      -10.19300        -0.52365        -0.60846
| 24>    C       -9.58184        -1.72815        -0.37753
| 25>    C       -9.91861        -2.85418        -1.18016
| 26>    C      -10.83626        -2.78222        -2.18866
| 27>    C       -9.14103        -4.01744        -0.72800
| 28>    O       -9.17510        -5.13873        -1.20321
| 29>    C       -8.32824        -3.55525         0.40477
| 30>    C       -8.57514        -2.13630         0.60092
| 31>    C       -7.97770        -1.30582         1.51035
| 32>    C       -6.97928        -1.67412         2.43866
| 33>    N       -6.16237        -1.88395         3.21712
| 34>    C       -8.27425         0.06911         1.63565
| 35>    N       -8.47063         1.18913         1.79078
| 36>    C       -7.51255        -4.35194         1.16131
| 37>    C       -7.24563        -5.72837         1.04275
| 38>    C       -6.40858        -6.38745         1.95209
| 39>    F       -5.82748        -5.74714         2.96619
| 40>    C       -6.25726        -7.74298         1.70246
| 41>    C       -6.98596        -8.14175         0.56871
| 42>    S       -7.85540        -6.84779        -0.16722
| 43>    C       -6.84223        -9.51249         0.32794
| 44>    C       -6.01650       -10.13513         1.27471
| 45>    S       -5.39113        -9.04393         2.47609
| 46>    C       -5.89043       -11.50779         1.04147
| 47>    F       -5.16442       -12.33163         1.80119
| 48>    C       -6.60085       -11.93691        -0.06565
| 49>    S       -7.44455       -10.62445        -0.84657
| 50>    C       -6.72734       -13.24667        -0.59120
| 51>    N       -7.40803       -13.49951        -1.67197
| 52>    C       -7.39951       -14.80290        -1.93959
| 53>    C       -6.69037       -15.62114        -1.03926
| 54>    S       -5.99406       -14.66038         0.20192
| 55>    N       -6.70013       -16.92754        -1.29709
| 56>    C       -7.38904       -17.17865        -2.37265
| 57>    S       -8.09906       -15.75991        -3.17955
| 58>    C       -7.60038       -18.48952        -2.86817
| 59>    C       -8.28998       -18.87461        -4.00324
| 60>    F       -8.85073       -18.00223        -4.84391
| 61>    C       -8.33881       -20.26171        -4.17301
| 62>    C       -7.67297       -20.94269        -3.14488
| 63>    S       -6.98449       -19.86398        -1.98585
| 64>    C       -7.75345       -22.33029        -3.30785
| 65>    C       -8.47997       -22.67989        -4.45423
| 66>    S       -9.06080       -21.31169        -5.35438
| 67>    C       -8.61877       -24.06178        -4.58994
| 68>    F       -9.22743       -24.64015        -5.62941
| 69>    C       -8.01046       -24.78719        -3.57636
| 70>    S       -7.21085       -23.71387        -2.44313
| 71>    C       -7.92432       -26.18818        -3.38671
| 72>    C       -8.71842       -27.18801        -3.85460
| 73>    C       -8.17839       -28.58210        -3.83614
| 74>    O       -7.18739       -28.95932        -3.25806
| 75>    C       -9.08077       -29.35968        -4.70532
| 76>    C       -8.97068       -30.65824        -5.11298
| 77>    C       -9.95176       -31.19121        -5.97850
| 78>    C      -11.02555       -30.36102        -6.41427
| 79>    C      -11.99593       -30.89646        -7.28499
| 80>    C      -11.90768       -32.19588        -7.69905
| 81>    C      -10.84709       -33.01699        -7.26489
| 82>    C       -9.88859       -32.52632        -6.42319
| 83>    F      -10.78635       -34.28652        -7.68670
| 84>    F      -12.83149       -32.70371        -8.52410
| 85>    C      -11.11656       -29.02202        -5.97032
| 86>    C      -10.16283       -28.53157        -5.11915
| 87>    C      -10.02579       -27.22705        -4.47547
| 88>    C      -11.04759       -26.33249        -4.29751
| 89>    C      -10.95673       -25.19645        -3.47170
| 90>    N      -10.90879       -24.26813        -2.79805
| 91>    C      -12.33313       -26.48268        -4.85956
| 92>    N      -13.39206       -26.55116        -5.29562
| 93>    H      -11.56055         1.67935        -1.30452
| 94>    H      -12.69129        -2.26867        -4.08150
| 95>    H       -9.97116         0.35341        -0.02278
| 96>    H      -11.06958        -3.65389        -2.78089
| 97>    H       -6.99056        -3.88965         1.99189
| 98>    H       -7.06093       -26.52480        -2.81957
| 99>    H       -8.14644       -31.27018        -4.77965
|100>    H      -12.81609       -30.28296        -7.62378
|101>    H       -9.08315       -33.16723        -6.10044
|102>    H      -11.93379       -28.41340        -6.32280
|103> *
|104>
|105>                          ****END OF INPUT****

CARTESIAN COORDINATES (ANGSTROEM)
---------------------------------
  C    -11.795110    0.810370   -1.899280
  C    -12.720200    0.906740   -2.900880
  F    -13.332120    2.072480   -3.141850
  C    -13.042260   -0.215410   -3.691260
  F    -13.952520   -0.091420   -4.665260
  C    -12.434220   -1.419070   -3.468500
  C    -11.477330   -1.550120   -2.443350
  C    -11.150260   -0.416530   -1.643620
  C    -10.193000   -0.523650   -0.608460
  C     -9.581840   -1.728150   -0.377530
  C     -9.918610   -2.854180   -1.180160
  C    -10.836260   -2.782220   -2.188660
  C     -9.141030   -4.017440   -0.728000
  O     -9.175100   -5.138730   -1.203210
  C     -8.328240   -3.555250    0.404770
  C     -8.575140   -2.136300    0.600920
  C     -7.977700   -1.305820    1.510350
  C     -6.979280   -1.674120    2.438660
  N     -6.162370   -1.883950    3.217120
  C     -8.274250    0.069110    1.635650
  N     -8.470630    1.189130    1.790780
  C     -7.512550   -4.351940    1.161310
  C     -7.245630   -5.728370    1.042750
  C     -6.408580   -6.387450    1.952090
  F     -5.827480   -5.747140    2.966190
  C     -6.257260   -7.742980    1.702460
  C     -6.985960   -8.141750    0.568710
  S     -7.855400   -6.847790   -0.167220
  C     -6.842230   -9.512490    0.327940
  C     -6.016500  -10.135130    1.274710
  S     -5.391130   -9.043930    2.476090
  C     -5.890430  -11.507790    1.041470
  F     -5.164420  -12.331630    1.801190
  C     -6.600850  -11.936910   -0.065650
  S     -7.444550  -10.624450   -0.846570
  C     -6.727340  -13.246670   -0.591200
  N     -7.408030  -13.499510   -1.671970
  C     -7.399510  -14.802900   -1.939590
  C     -6.690370  -15.621140   -1.039260
  S     -5.994060  -14.660380    0.201920
  N     -6.700130  -16.927540   -1.297090
  C     -7.389040  -17.178650   -2.372650
  S     -8.099060  -15.759910   -3.179550
  C     -7.600380  -18.489520   -2.868170
  C     -8.289980  -18.874610   -4.003240
  F     -8.850730  -18.002230   -4.843910
  C     -8.338810  -20.261710   -4.173010
  C     -7.672970  -20.942690   -3.144880
  S     -6.984490  -19.863980   -1.985850
  C     -7.753450  -22.330290   -3.307850
  C     -8.479970  -22.679890   -4.454230
  S     -9.060800  -21.311690   -5.354380
  C     -8.618770  -24.061780   -4.589940
  F     -9.227430  -24.640150   -5.629410
  C     -8.010460  -24.787190   -3.576360
  S     -7.210850  -23.713870   -2.443130
  C     -7.924320  -26.188180   -3.386710
  C     -8.718420  -27.188010   -3.854600
  C     -8.178390  -28.582100   -3.836140
  O     -7.187390  -28.959320   -3.258060
  C     -9.080770  -29.359680   -4.705320
  C     -8.970680  -30.658240   -5.112980
  C     -9.951760  -31.191210   -5.978500
  C    -11.025550  -30.361020   -6.414270
  C    -11.995930  -30.896460   -7.284990
  C    -11.907680  -32.195880   -7.699050
  C    -10.847090  -33.016990   -7.264890
  C     -9.888590  -32.526320   -6.423190
  F    -10.786350  -34.286520   -7.686700
  F    -12.831490  -32.703710   -8.524100
  C    -11.116560  -29.022020   -5.970320
  C    -10.162830  -28.531570   -5.119150
  C    -10.025790  -27.227050   -4.475470
  C    -11.047590  -26.332490   -4.297510
  C    -10.956730  -25.196450   -3.471700
  N    -10.908790  -24.268130   -2.798050
  C    -12.333130  -26.482680   -4.859560
  N    -13.392060  -26.551160   -5.295620
  H    -11.560550    1.679350   -1.304520
  H    -12.691290   -2.268670   -4.081500
  H     -9.971160    0.353410   -0.022780
  H    -11.069580   -3.653890   -2.780890
  H     -6.990560   -3.889650    1.991890
  H     -7.060930  -26.524800   -2.819570
  H     -8.146440  -31.270180   -4.779650
  H    -12.816090  -30.282960   -7.623780
  H     -9.083150  -33.167230   -6.100440
  H    -11.933790  -28.413400   -6.322800

 Total Charge           Charge          ....    0
 Multiplicity           Mult            ....    1
 Number of Electrons    NEL             ....  592
 Basis Dimension        Dim             .... 1174

ORBITAL ENERGIES
----------------

  NO   OCC          E(Eh)            E(eV)
   0   2.0000     -88.988581     -2421.5024
   1   2.0000     -88.988262     -2421.4937
   2   2.0000     -88.988021     -2421.4871
   3   2.0000     -88.986813     -2421.4543
   4   2.0000     -88.986111     -2421.4352
   5   2.0000     -88.981868     -2421.3197
   6   2.0000     -88.981382     -2421.3065
   7   2.0000     -88.980930     -2421.2942
   8   2.0000     -24.825869      -675.5462
   9   2.0000     -24.820925      -675.4117
  10   2.0000     -24.819792      -675.3809
  11   2.0000     -24.818971      -675.3585
  12   2.0000     -24.801213      -674.8753
  13   2.0000     -24.800471      -674.8551
  14   2.0000     -24.800288      -674.8501
  15   2.0000     -24.799983      -674.8418
  16   2.0000     -19.229674      -523.2660
  17   2.0000     -19.222098      -523.0599
  18   2.0000     -14.435373      -392.8065
  19   2.0000     -14.435224      -392.8024
  20   2.0000     -14.422516      -392.4566
  21   2.0000     -14.420873      -392.4119
  22   2.0000     -14.420057      -392.3897
  23   2.0000     -14.418255      -392.3407
  24   2.0000     -10.399603      -282.9876
  25   2.0000     -10.398104      -282.9468
  26   2.0000     -10.393540      -282.8226
  27   2.0000     -10.393120      -282.8112
  28   2.0000     -10.384619      -282.5798
  29   2.0000     -10.383842      -282.5587
  30   2.0000     -10.383749      -282.5562
  31   2.0000     -10.383398      -282.5466
  32   2.0000     -10.377338      -282.3817
  33   2.0000     -10.372756      -282.2571
  34   2.0000     -10.365706      -282.0652
  35   2.0000     -10.365482      -282.0591
  36   2.0000     -10.349178      -281.6155
  37   2.0000     -10.346784      -281.5503
  38   2.0000     -10.346182      -281.5339
  39   2.0000     -10.346073      -281.5310
  40   2.0000     -10.341620      -281.4098
  41   2.0000     -10.340465      -281.3784
  42   2.0000     -10.339702      -281.3576
  43   2.0000     -10.336897      -281.2813
  44   2.0000     -10.335502      -281.2433
  45   2.0000     -10.334870      -281.2261
  46   2.0000     -10.334515      -281.2165
  47   2.0000     -10.334057      -281.2040
  48   2.0000     -10.334049      -281.2038
  49   2.0000     -10.333961      -281.2014
  50   2.0000     -10.332893      -281.1723
  51   2.0000     -10.332319      -281.1567
  52   2.0000     -10.332241      -281.1546
  53   2.0000     -10.331516      -281.1348
  54   2.0000     -10.330753      -281.1141
  55   2.0000     -10.329219      -281.0723
  56   2.0000     -10.323252      -280.9100
  57   2.0000     -10.323192      -280.9083
  58   2.0000     -10.322226      -280.8820
  59   2.0000     -10.321255      -280.8556
  60   2.0000     -10.314035      -280.6592
  61   2.0000     -10.313751      -280.6514
  62   2.0000     -10.313533      -280.6455
  63   2.0000     -10.313072      -280.6329
  64   2.0000     -10.311416      -280.5879
  65   2.0000     -10.311256      -280.5835
  66   2.0000     -10.307193      -280.4730
  67   2.0000     -10.307122      -280.4710
  68   2.0000     -10.306510      -280.4544
  69   2.0000     -10.305708      -280.4326
  70   2.0000     -10.305010      -280.4136
  71   2.0000     -10.304655      -280.4039
  72   2.0000     -10.304342      -280.3954
  73   2.0000     -10.303681      -280.3774
  74   2.0000     -10.303252      -280.3658
  75   2.0000     -10.302644      -280.3492
  76   2.0000     -10.297751      -280.2161
  77   2.0000     -10.297348      -280.2051
  78   2.0000      -8.083712      -219.9690
  79   2.0000      -8.082796      -219.9441
  80   2.0000      -8.082581      -219.9382
  81   2.0000      -8.081395      -219.9060
  82   2.0000      -8.080574      -219.8836
  83   2.0000      -8.077480      -219.7994
  84   2.0000      -8.076606      -219.7756
  85   2.0000      -8.074054      -219.7062
  86   2.0000      -6.053374      -164.7207
  87   2.0000      -6.052742      -164.7035
  88   2.0000      -6.052343      -164.6926
  89   2.0000      -6.051094      -164.6586
  90   2.0000      -6.050560      -164.6441
  91   2.0000      -6.049363      -164.6115
  92   2.0000      -6.048673      -164.5928
  93   2.0000      -6.048236      -164.5809
  94   2.0000      -6.046987      -164.5469
  95   2.0000      -6.046732      -164.5399
  96   2.0000      -6.046515      -164.5340
  97   2.0000      -6.045856      -164.5161
  98   2.0000      -6.044899      -164.4901
  99   2.0000      -6.043934      -164.4638
 100   2.0000      -6.043696      -164.4573
 101   2.0000      -6.043535      -164.4529
 102   2.0000      -6.042896      -164.4356
 103   2.0000      -6.042611      -164.4278
 104   2.0000      -6.042014      -164.4116
 105   2.0000      -6.041222      -164.3900
 106   2.0000      -6.039418      -164.3409
 107   2.0000      -6.039143      -164.3334
 108   2.0000      -6.038257      -164.3093
 109   2.0000      -6.035295      -164.2287
 110   2.0000      -1.339379       -36.4464
 111   2.0000      -1.335558       -36.3424
 112   2.0000      -1.334343       -36.3093
 113   2.0000      -1.334282       -36.3077
 114   2.0000      -1.324034       -36.0288
 115   2.0000      -1.323416       -36.0120
 116   2.0000      -1.309124       -35.6231
 117   2.0000      -1.308546       -35.6074
 118   2.0000      -1.145870       -31.1807
 119   2.0000      -1.138081       -30.9688
 120   2.0000      -1.107640       -30.1404
 121   2.0000      -1.069273       -29.0964
 122   2.0000      -1.048255       -28.5245
 123   2.0000      -1.044347       -28.4181
 124   2.0000      -1.025135       -27.8953
 125   2.0000      -1.023886       -27.8613
 126   2.0000      -1.008876       -27.4529
 127   2.0000      -1.008294       -27.4371
 128   2.0000      -1.007796       -27.4235
 129   2.0000      -1.004231       -27.3265
 130   2.0000      -0.999728       -27.2040
 131   2.0000      -0.997805       -27.1516
 132   2.0000      -0.985538       -26.8178
 133   2.0000      -0.985137       -26.8069
 134   2.0000      -0.959245       -26.1024
 135   2.0000      -0.956414       -26.0254
 136   2.0000      -0.934987       -25.4423
 137   2.0000      -0.934789       -25.4369
 138   2.0000      -0.928208       -25.2578
 139   2.0000      -0.911161       -24.7939
 140   2.0000      -0.910423       -24.7739
 141   2.0000      -0.897101       -24.4113
 142   2.0000      -0.896804       -24.4033
 143   2.0000      -0.896425       -24.3930
 144   2.0000      -0.891724       -24.2651
 145   2.0000      -0.890277       -24.2257
 146   2.0000      -0.884435       -24.0667
 147   2.0000      -0.876836       -23.8599
 148   2.0000      -0.859084       -23.3769
 149   2.0000      -0.857201       -23.3256
 150   2.0000      -0.852689       -23.2028
 151   2.0000      -0.844286       -22.9742
 152   2.0000      -0.843781       -22.9604
 153   2.0000      -0.835338       -22.7307
 154   2.0000      -0.824829       -22.4447
 155   2.0000      -0.821579       -22.3563
 156   2.0000      -0.808379       -21.9971
 157   2.0000      -0.800818       -21.7914
 158   2.0000      -0.781717       -21.2716
 159   2.0000      -0.773022       -21.0350
 160   2.0000      -0.771281       -20.9876
 161   2.0000      -0.764716       -20.8090
 162   2.0000      -0.746820       -20.3220
 163   2.0000      -0.738992       -20.1090
 164   2.0000      -0.728741       -19.8300
 165   2.0000      -0.722710       -19.6659
 166   2.0000      -0.721534       -19.6339
 167   2.0000      -0.718559       -19.5530
 168   2.0000      -0.703854       -19.1529
 169   2.0000      -0.700978       -19.0746
 170   2.0000      -0.694970       -18.9111
 171   2.0000      -0.692783       -18.8516
 172   2.0000      -0.691718       -18.8226
 173   2.0000      -0.690139       -18.7796
 174   2.0000      -0.685704       -18.6589
 175   2.0000      -0.681537       -18.5456
 176   2.0000      -0.676379       -18.4052
 177   2.0000      -0.667799       -18.1717
 178   2.0000      -0.663661       -18.0591
 179   2.0000      -0.658618       -17.9219
 180   2.0000      -0.655228       -17.8297
 181   2.0000      -0.651935       -17.7401
 182   2.0000      -0.646791       -17.6001
 183   2.0000      -0.646054       -17.5800
 184   2.0000      -0.642525       -17.4840
 185   2.0000      -0.641027       -17.4432
 186   2.0000      -0.628080       -17.0909
 187   2.0000      -0.623089       -16.9551
 188   2.0000      -0.620121       -16.8744
 189   2.0000      -0.616300       -16.7704
 190   2.0000      -0.612259       -16.6604
 191   2.0000      -0.602704       -16.4004
 192   2.0000      -0.599362       -16.3095
 193   2.0000      -0.598232       -16.2787
 194   2.0000      -0.593988       -16.1632
 195   2.0000      -0.592995       -16.1362
 196   2.0000      -0.591759       -16.1026
 197   2.0000      -0.588437       -16.0122
 198   2.0000      -0.588151       -16.0044
 199   2.0000      -0.588014       -16.0007
 200   2.0000      -0.587757       -15.9937
 201   2.0000      -0.584934       -15.9169
 202   2.0000      -0.580899       -15.8071
 203   2.0000      -0.575375       -15.6567
 204   2.0000      -0.570603       -15.5269
 205   2.0000      -0.567461       -15.4414
 206   2.0000      -0.564112       -15.3503
 207   2.0000      -0.558925       -15.2091
 208   2.0000      -0.557337       -15.1659
 209   2.0000      -0.556528       -15.1439
 210   2.0000      -0.555011       -15.1026
 211   2.0000      -0.549987       -14.9659
 212   2.0000      -0.549824       -14.9615
 213   2.0000      -0.549400       -14.9499
 214   2.0000      -0.548839       -14.9347
 215   2.0000      -0.546373       -14.8676
 216   2.0000      -0.545378       -14.8405
 217   2.0000      -0.539024       -14.6676
 218   2.0000      -0.536559       -14.6005
 219   2.0000      -0.534879       -14.5548
 220   2.0000      -0.533242       -14.5103
 221   2.0000      -0.528553       -14.3827
 222   2.0000      -0.526169       -14.3178
 223   2.0000      -0.525408       -14.2971
 224   2.0000      -0.524898       -14.2832
 225   2.0000      -0.521807       -14.1991
 226   2.0000      -0.518669       -14.1137
 227   2.0000      -0.515705       -14.0330
 228   2.0000      -0.512887       -13.9564
 229   2.0000      -0.510495       -13.8913
 230   2.0000      -0.508504       -13.8371
 231   2.0000      -0.506257       -13.7760
 232   2.0000      -0.505868       -13.7654
 233   2.0000      -0.502896       -13.6845
 234   2.0000      -0.501659       -13.6508
 235   2.0000      -0.498542       -13.5660
 236   2.0000      -0.498497       -13.5648
 237   2.0000      -0.496420       -13.5083
 238   2.0000      -0.493250       -13.4220
 239   2.0000      -0.489320       -13.3151
 240   2.0000      -0.486503       -13.2384
 241   2.0000      -0.481949       -13.1145
 242   2.0000      -0.478945       -13.0328
 243   2.0000      -0.475343       -12.9347
 244   2.0000      -0.473981       -12.8977
 245   2.0000      -0.471919       -12.8416
 246   2.0000      -0.468864       -12.7584
 247   2.0000      -0.466785       -12.7019
 248   2.0000      -0.465384       -12.6637
 249   2.0000      -0.465004       -12.6534
 250   2.0000      -0.456160       -12.4127
 251   2.0000      -0.452770       -12.3205
 252   2.0000      -0.449920       -12.2429
 253   2.0000      -0.449788       -12.2394
 254   2.0000      -0.448352       -12.2003
 255   2.0000      -0.446733       -12.1562
 256   2.0000      -0.443857       -12.0780
 257   2.0000      -0.440737       -11.9931
 258   2.0000      -0.439965       -11.9720
 259   2.0000      -0.438944       -11.9443
 260   2.0000      -0.436396       -11.8749
 261   2.0000      -0.434021       -11.8103
 262   2.0000      -0.433407       -11.7936
 263   2.0000      -0.431513       -11.7421
 264   2.0000      -0.431386       -11.7386
 265   2.0000      -0.430994       -11.7279
 266   2.0000      -0.427998       -11.6464
 267   2.0000      -0.424081       -11.5398
 268   2.0000      -0.418311       -11.3828
 269   2.0000      -0.416039       -11.3210
 270   2.0000      -0.410658       -11.1746
 271   2.0000      -0.406298       -11.0559
 272   2.0000      -0.406229       -11.0540
 273   2.0000      -0.404696       -11.0123
 274   2.0000      -0.392517       -10.6809
 275   2.0000      -0.390509       -10.6263
 276   2.0000      -0.390079       -10.6146
 277   2.0000      -0.382850       -10.4179
 278   2.0000      -0.372630       -10.1398
 279   2.0000      -0.363232        -9.8841
 280   2.0000      -0.360541        -9.8108
 281   2.0000      -0.350647        -9.5416
 282   2.0000      -0.348645        -9.4871
 283   2.0000      -0.345172        -9.3926
 284   2.0000      -0.343949        -9.3593
 285   2.0000      -0.338260        -9.2045
 286   2.0000      -0.338068        -9.1993
 287   2.0000      -0.322390        -8.7727
 288   2.0000      -0.320216        -8.7135
 289   2.0000      -0.312194        -8.4952
 290   2.0000      -0.306560        -8.3419
 291   2.0000      -0.303832        -8.2677
 292   2.0000      -0.302283        -8.2255
 293   2.0000      -0.301101        -8.1934
 294   2.0000      -0.282361        -7.6834
 295   2.0000      -0.256180        -6.9710
 296   0.0000      -0.107428        -2.9233
 297   0.0000      -0.099734        -2.7139
 298   0.0000      -0.071833        -1.9547
 299   0.0000      -0.066131        -1.7995
 300   0.0000      -0.059555        -1.6206

MULLIKEN ATOMIC CHARGES
-----------------------
   0 C :   -0.105558
   1 C :    0.242514
   2 F :   -0.169006
   3 C :    0.237955
   4 F :   -0.170719
   5 C :   -0.104330
   6 C :    0.114681
   7 C :    0.111602
   8 C :   -0.082597
   9 C :    0.048199
  10 C :   -0.004408
  11 C :   -0.077594
  12 C :    0.176303
  13 O :   -0.185131
  14 C :   -0.092960
  15 C :    0.332135
  16 C :   -0.348479
  17 C :   -0.198600
  18 N :    0.156614
  19 C :   -0.183736
  20 N :    0.150806
  21 C :   -0.028225
  22 C :   -0.147258
  23 C :    0.197560
  24 F :   -0.154001
  25 C :   -0.050019
  26 C :   -0.057422
  27 S :    0.229730
  28 C :   -0.093681
  29 C :   -0.069245
  30 S :    0.215352
  31 C :    0.190624
  32 F :   -0.166079
  33 C :   -0.134524
  34 S :    0.246993
  35 C :   -0.098172
  36 N :   -0.047023
  37 C :   -0.062198
  38 C :   -0.063443
  39 S :    0.159927
  40 N :   -0.045218
  41 C :   -0.103592
  42 S :    0.156635
  43 C :   -0.129370
  44 C :    0.190330
  45 F :   -0.165492
  46 C :   -0.069284
  47 C :   -0.089564
  48 S :    0.243793
  49 C :   -0.056390
  50 C :   -0.081759
  51 S :    0.222649
  52 C :    0.223423
  53 F :   -0.157102
  54 C :   -0.183511
  55 S :    0.202431
  56 C :    0.076362
  57 C :   -0.128796
  58 C :    0.133762
  59 O :   -0.138540
  60 C :    0.014432
  61 C :   -0.081451
  62 C :    0.113006
  63 C :    0.113538
  64 C :   -0.108362
  65 C :    0.243538
  66 C :    0.238590
  67 C :   -0.104359
  68 F :   -0.170984
  69 F :   -0.170070
  70 C :   -0.082037
  71 C :    0.036662
  72 C :    0.280652
  73 C :   -0.325430
  74 C :   -0.204000
  75 N :    0.166244
  76 C :   -0.173425
  77 N :    0.154713
  78 H :    0.008621
  79 H :   -0.000586
  80 H :   -0.005901
  81 H :   -0.009968
  82 H :    0.024934
  83 H :    0.028439
  84 H :   -0.008162
  85 H :    0.006937
  86 H :   -0.000223
  87 H :   -0.002707
Sum of atomic charges:    0.0000000

LOEWDIN ATOMIC CHARGES
----------------------
   0 C :   -0.028825
   1 C :    0.066997
   2 F :   -0.047286
   3 C :    0.067862
   4 F :   -0.048055
   5 C :   -0.033010
   6 C :   -0.009124
   7 C :   -0.005894
   8 C :    0.018304
   9 C :   -0.021461
  10 C :   -0.052964
  11 C :    0.031244
  12 C :    0.087170
  13 O :   -0.168150
  14 C :   -0.108235
  15 C :    0.075194
  16 C :   -0.138118
  17 C :   -0.024632
  18 N :   -0.044117
  19 C :   -0.017129
  20 N :   -0.052546
  21 C :    0.061342
  22 C :   -0.215309
  23 C :    0.071334
  24 F :   -0.031942
  25 C :   -0.222579
  26 C :   -0.197347
  27 S :    0.506434
  28 C :   -0.212126
  29 C :   -0.205521
  30 S :    0.436240
  31 C :    0.035846
  32 F :   -0.046094
  33 C :   -0.221196
  34 S :    0.488261
  35 C :   -0.136967
  36 N :   -0.106890
  37 C :   -0.213485
  38 C :   -0.212205
  39 S :    0.431788
  40 N :   -0.107482
  41 C :   -0.134470
  42 S :    0.431468
  43 C :   -0.224505
  44 C :    0.038060
  45 F :   -0.044986
  46 C :   -0.208382
  47 C :   -0.207458
  48 S :    0.483779
  49 C :   -0.190776
  50 C :   -0.210982
  51 S :    0.449441
  52 C :    0.062736
  53 F :   -0.030081
  54 C :   -0.209614
  55 S :    0.464889
  56 C :    0.043620
  57 C :   -0.086579
  58 C :    0.084173
  59 O :   -0.138519
  60 C :   -0.056021
  61 C :    0.032256
  62 C :   -0.010006
  63 C :   -0.004765
  64 C :   -0.030335
  65 C :    0.067581
  66 C :    0.066793
  67 C :   -0.032513
  68 F :   -0.048760
  69 F :   -0.047743
  70 C :    0.013636
  71 C :   -0.018657
  72 C :    0.064887
  73 C :   -0.133310
  74 C :   -0.018679
  75 N :   -0.046365
  76 C :   -0.018440
  77 N :   -0.048724
  78 H :    0.048226
  79 H :    0.044920
  80 H :    0.040358
  81 H :    0.040500
  82 H :    0.051902
  83 H :    0.048610
  84 H :    0.041002
  85 H :    0.047569
  86 H :    0.045022
  87 H :    0.039912

  Mayer bond orders larger than 0.100000
B(  0-C ,  1-C ) :   1.4397 B(  0-C ,  5-C ) :   0.1083 B(  0-C ,  7-C ) :   1.1898
B(  0-C , 78-H ) :   1.0063 B(  1-C ,  2-F ) :   1.1373 B(  1-C ,  3-C ) :   1.1917
B(  3-C ,  4-F ) :   1.1342 B(  3-C ,  5-C ) :   1.4429 B(  5-C ,  6-C ) :   1.1918
B(  5-C , 79-H ) :   1.0067 B(  6-C ,  7-C ) :   1.2559 B(  6-C , 11-C ) :   1.1885
B(  7-C ,  8-C ) :   1.2149 B(  8-C ,  9-C ) :   1.4530 B(  8-C , 80-H ) :   0.9887
B(  9-C , 10-C ) :   1.2216 B(  9-C , 15-C ) :   0.9817 B( 10-C , 11-C ) :   1.4680
B( 10-C , 12-C ) :   0.9595 B( 11-C , 81-H ) :   1.0163 B( 12-C , 13-O ) :   2.1142
B( 12-C , 14-C ) :   0.9828 B( 14-C , 15-C ) :   1.0743 B( 14-C , 21-C ) :   1.4962
B( 15-C , 16-C ) :   1.6326 B( 16-C , 17-C ) :   1.1409 B( 16-C , 19-C ) :   1.1470
B( 17-C , 18-N ) :   2.9622 B( 19-C , 20-N ) :   2.9607 B( 21-C , 22-C ) :   1.2603
B( 21-C , 82-H ) :   0.9343 B( 22-C , 23-C ) :   1.3711 B( 22-C , 27-S ) :   1.0499
B( 23-C , 24-F ) :   1.1731 B( 23-C , 25-C ) :   1.3397 B( 25-C , 26-C ) :   1.4166
B( 25-C , 30-S ) :   1.0113 B( 26-C , 27-S ) :   1.0561 B( 26-C , 28-C ) :   1.3335
B( 28-C , 29-C ) :   1.4776 B( 28-C , 33-C ) :   0.1050 B( 28-C , 34-S ) :   1.0665
B( 29-C , 30-S ) :   1.0306 B( 29-C , 31-C ) :   1.2816 B( 31-C , 32-F ) :   1.1785
B( 31-C , 33-C ) :   1.4731 B( 33-C , 34-S ) :   1.0938 B( 33-C , 35-C ) :   1.1496
B( 35-C , 36-N ) :   1.7148 B( 35-C , 39-S ) :   1.0992 B( 36-N , 37-C ) :   1.4104
B( 36-N , 39-S ) :   0.1021 B( 37-C , 38-C ) :   1.2996 B( 37-C , 42-S ) :   1.0886
B( 38-C , 39-S ) :   1.0903 B( 38-C , 40-N ) :   1.4079 B( 40-N , 41-C ) :   1.7184
B( 40-N , 42-S ) :   0.1016 B( 41-C , 42-S ) :   1.0998 B( 41-C , 43-C ) :   1.1508
B( 43-C , 44-C ) :   1.4783 B( 43-C , 47-C ) :   0.1035 B( 43-C , 48-S ) :   1.0857
B( 44-C , 45-F ) :   1.1761 B( 44-C , 46-C ) :   1.2790 B( 46-C , 47-C ) :   1.4867
B( 46-C , 51-S ) :   1.0362 B( 47-C , 48-S ) :   1.0679 B( 47-C , 49-C ) :   1.3275
B( 49-C , 50-C ) :   1.4761 B( 49-C , 55-S ) :   1.0869 B( 50-C , 51-S ) :   1.0314
B( 50-C , 52-C ) :   1.3008 B( 52-C , 53-F ) :   1.1691 B( 52-C , 54-C ) :   1.4325
B( 54-C , 55-S ) :   1.0687 B( 54-C , 56-C ) :   1.1292 B( 56-C , 57-C ) :   1.6797
B( 56-C , 83-H ) :   0.9229 B( 57-C , 58-C ) :   0.9373 B( 57-C , 72-C ) :   1.0428
B( 58-C , 59-O ) :   2.2709 B( 58-C , 60-C ) :   0.9202 B( 60-C , 61-C ) :   1.4716
B( 60-C , 71-C ) :   1.2217 B( 61-C , 62-C ) :   1.1946 B( 61-C , 84-H ) :   1.0165
B( 62-C , 63-C ) :   1.2569 B( 62-C , 67-C ) :   1.1911 B( 63-C , 64-C ) :   1.1899
B( 63-C , 70-C ) :   1.2148 B( 64-C , 65-C ) :   1.4402 B( 64-C , 67-C ) :   0.1089
B( 64-C , 85-H ) :   1.0071 B( 65-C , 66-C ) :   1.1921 B( 65-C , 69-F ) :   1.1355
B( 66-C , 67-C ) :   1.4442 B( 66-C , 68-F ) :   1.1339 B( 67-C , 86-H ) :   1.0069
B( 70-C , 71-C ) :   1.4567 B( 70-C , 87-H ) :   0.9931 B( 71-C , 72-C ) :   0.9958
B( 72-C , 73-C ) :   1.6488 B( 73-C , 74-C ) :   1.1721 B( 73-C , 76-C ) :   1.1314
B( 74-C , 75-N ) :   2.9984 B( 76-C , 77-N ) :   2.9855

-----------------------------------------------------------------------------
         ABSORPTION SPECTRUM VIA TRANSITION ELECTRIC DIPOLE MOMENTS
-----------------------------------------------------------------------------
State   Energy  Wavelength   fosc         T2         TX        TY        TZ
        (cm-1)    (nm)                  (au**2)     (au)      (au)      (au)
-----------------------------------------------------------------------------
   0   18416.5    543.0   3.163364657  56.54793  -0.05844  -7.42673  -1.17822
   1   21074.6    474.5   0.224093289   3.50062  -1.74285  -0.33122  -0.59445
   2   26033.7    384.1   0.121469730   1.53606   0.34945   0.67011   0.98229
   3   26469.0    377.8   0.026140782   0.32513   0.20064   0.25202   0.47049
   4   26753.0    373.8   0.040706787   0.50092  -0.45220   0.54219   0.04969
   5   27125.6    368.7   0.056678966   0.68789   0.63161  -0.53418   0.06007
   6   27460.2    364.2   0.060417951   0.72433   0.18177  -0.63943  -0.53143
   7   28072.0    356.2   0.029586522   0.34697  -0.09691   0.18564  -0.55056
   8   28521.9    350.6   0.263039287   3.03611  -1.12770  -0.18520  -1.31534
   9   29018.7    344.6   0.006287067   0.07133   0.10325   0.24621   0.00675
  10   29243.2    342.0   0.277829597   3.12773  -0.08413  -1.76602  -0.04261
  11   29552.5    338.4   0.314999399   3.50906   0.15176   1.75974   0.62397
  12   29898.2    334.5   0.080033725   0.88126   0.55517  -0.45238   0.60696
  13   30300.5    330.0   0.056969247   0.61897  -0.52643   0.40576  -0.42095
  14   30710.1    325.6   0.025972089   0.27842   0.00692   0.46841   0.24283
  15   32996.6    303.1   0.033126639   0.33051   0.26502   0.15594   0.48575
  16   33440.4    299.0   0.016233382   0.15981  -0.20968   0.12407  -0.31695
  17   34029.2    293.9   0.335010583   3.24102   1.03949  -0.08682   1.46729
  18   34091.9    293.3   0.307021722   2.96479   1.08744  -1.33013   0.11411
  19   34409.6    290.6   0.536191950   5.12999  -1.57300   0.23072  -1.61320
  20   34600.2    289.0   0.402446585   3.82918   0.15503  -1.80755  -0.73341
  21   34714.0    288.1   0.015864965   0.15046  -0.23115   0.24751  -0.18912
  22   34831.8    287.1   0.023005556   0.21744   0.02231  -0.41624  -0.20901
  23   35366.7    282.8   0.317195084   2.95262  -0.29481  -1.44528  -0.88140
  24   35672.7    280.3   0.028375331   0.26187  -0.43439  -0.02599  -0.26925
  25   36135.7    276.7   0.050201657   0.45736  -0.02858  -0.62913  -0.24645
  26   36259.1    275.8   0.027348806   0.24831   0.10593  -0.47726  -0.09648
  27   36727.0    272.3   0.042043545   0.37687   0.27790   0.24206   0.49096
  28   37027.1    270.1   0.097210962   0.86431  -0.29853  -0.65460  -0.58880
  29   37200.3    268.8   0.131056728   1.15981   0.40451  -0.86449   0.49885
  30   37277.9    268.3   0.054382892   0.48027  -0.36134   0.13231  -0.57637
  31   37560.1    266.2   0.019739438   0.17301   0.06912  -0.29984   0.27988
  32   37802.1    264.5   0.019217032   0.16736  -0.04888  -0.24014  -0.32757
  33   38229.7    261.6   0.006194782   0.05335  -0.20364  -0.05624  -0.09334
  34   38513.3    259.7   0.097704721   0.83518  -0.07241  -0.89965  -0.14343
  35   38908.8    257.0   0.117205974   0.99169   0.63814  -0.59899   0.47506
  36   39103.2    255.7   0.107031293   0.90110   0.65032   0.28682   0.62922
  37   39239.4    254.8   0.081311312   0.68219  -0.02306   0.64956   0.50964
  38   39531.1    253.0   0.096335800   0.80228  -0.60264   0.64839  -0.13673
  39   39893.9    250.7   0.036488753   0.30111   0.32993  -0.20782   0.38610
  40   40267.5    248.3   0.024635469   0.20141  -0.16052   0.32483  -0.26482

FINAL SINGLE POINT ENERGY     -6521.930659319429

DIPOLE MOMENT
-------------
                                X             Y             Z
Electronic contribution:      4.69723      -0.61402      -1.55083
Nuclear contribution   :     -4.04468      -1.14432       0.12448
                        -----------------------------------------
Total Dipole Moment    :      0.65255      -1.75834      -1.42635
                        -----------------------------------------
Magnitude (a.u.)       :      2.35628
Magnitude (Debye)      :      5.98919

Rotational constants in cm-1:     0.001680     0.000117     0.000110
Rotational constants in MHz :    50.380082     3.495693     3.293322

                             ****ORCA TERMINATED NORMALLY****
TOTAL RUN TIME: 0 days 0 hours 8 minutes 15 seconds 39 msec
