                         Program Version 4.2.0 -  RELEASE  -
|  1> # ORCA input file
|  2> # SCF done       -189.706239457298          0.000719512528
|  3> ! CAM-B3LYP def2-SVP def2/J RIJCOSX Grid4 TightSCF
|  4> %maxcore 5000
|  5> %tddft
|  6>     Mode sTDDFT
|  7>     Ethresh 5.0
|  8>     maxcore 5000
|  9> end
| 10>
| 11> %pal
| 12>   nprocs 6
| 13>   end
| 14> * xyz 0 1
| 15>    C        4.92623        -5.97040         2.12568
| 16>    C        5.76069        -7.02347         2.37611
| 17>    F        7.03709        -6.80437         2.72229
| 18>    C        5.29350        -8.34840         2.27331
| 19>    F        6.13417        -9.36290         2.52361
| 20>    C        3.99762        -8.60236         1.92081
| 21>    C        3.11420        -7.53872         1.65400
| 22>    C        3.58498        -6.19842         1.75851
| 23>    C        2.71704        -5.11375         1.49244
| 24>    C        1.42074        -5.36254         1.12779
| 25>    C        0.96160        -6.70448         1.02135
| 26>    C        1.77211        -7.77136         1.27785
| 27>    C       -0.45213        -6.69957         0.59300
| 28>    O       -1.15039        -7.68183         0.42029
| 29>    C       -0.81443        -5.28954         0.41391
| 30>    C        0.31560        -4.46716         0.78493
| 31>    C        0.36901        -3.09644         0.84346
| 32>    C       -0.68919        -2.20880         0.55735
| 33>    N       -1.48533        -1.40502         0.35558
| 34>    C        1.51476        -2.36914         1.22657
| 35>    N        2.41082        -1.71647         1.52691
| 36>    C       -2.01031        -4.82341        -0.08416
| 37>    C       -3.15332        -5.51808        -0.47768
| 38>    C       -4.27090        -4.82877        -1.02087
| 39>    O       -4.20668        -3.49702        -1.16466
| 40>    C       -5.33870        -2.83520        -1.68610
| 41>    C       -5.32144        -5.66947        -1.34898
| 42>    C       -5.04994        -7.00408        -1.05990
| 43>    S       -3.47130        -7.23404        -0.38507
| 44>    C       -5.92749        -8.09966        -1.27886
| 45>    C       -5.55797        -9.40604        -0.87754
| 46>    C       -6.40658       -10.53807        -1.07172
| 47>    N       -5.98386       -11.75029        -0.67797
| 48>    C       -4.81184       -11.88023        -0.12155
| 49>    C       -3.97685       -10.75942         0.06940
| 50>    N       -4.35736        -9.57089        -0.29984
| 51>    C       -7.70244       -10.43323        -1.64457
| 52>    C       -8.04510        -9.14730        -2.11990
| 53>    C       -7.17974        -7.99808        -1.92533
| 54>    N       -7.70198        -6.89767        -2.47168
| 55>    S       -9.09926        -7.26846        -3.17184
| 56>    N       -9.12982        -8.82618        -2.82318
| 57>    C       -8.53252       -11.58227        -1.68229
| 58>    C       -9.93132       -11.68860        -1.81224
| 59>    O      -10.69678       -10.59195        -1.89142
| 60>    C      -12.09379       -10.76817        -1.97259
| 61>    C      -10.37939       -13.01173        -1.77658
| 62>    C       -9.36672       -13.93287        -1.57462
| 63>    S       -7.81742       -13.14077        -1.44578
| 64>    C       -9.51125       -15.33521        -1.50011
| 65>    C       -8.64726       -16.24138        -0.95826
| 66>    C       -8.69846       -17.66370        -1.38272
| 67>    O       -9.59274       -18.21441        -1.98291
| 68>    C       -7.39766       -18.23373        -0.96865
| 69>    C       -6.88687       -19.47505        -1.21584
| 70>    C       -5.59555       -19.79489        -0.73856
| 71>    C       -4.85413       -18.81586        -0.01521
| 72>    C       -3.56504       -19.14032         0.45305
| 73>    C       -3.03823       -20.37921         0.21844
| 74>    C       -3.77300       -21.34747        -0.49474
| 75>    C       -5.02474       -21.06266        -0.96391
| 76>    F       -3.23153       -22.55419        -0.71051
| 77>    F       -1.81312       -20.68546         0.66608
| 78>    C       -5.41237       -17.54122         0.23334
| 79>    C       -6.66786       -17.25655        -0.23202
| 80>    C       -7.50651       -16.07115        -0.08421
| 81>    C       -7.37087       -15.12193         0.89556
| 82>    C       -8.39049       -14.20138         1.21706
| 83>    N       -9.22808       -13.49094         1.55088
| 84>    C       -6.22836       -14.98632         1.70422
| 85>    N       -5.29235       -14.80385         2.34477
| 86>    H        5.29983        -4.96181         2.20951
| 87>    H        3.65540        -9.62266         1.84618
| 88>    H        3.10631        -4.11256         1.57941
| 89>    H        1.39637        -8.77947         1.19072
| 90>    H       -2.10285        -3.75220        -0.22067
| 91>    H       -5.07748        -1.77895        -1.70236
| 92>    H       -6.21411        -2.98851        -1.04884
| 93>    H       -5.56360        -3.17661        -2.70061
| 94>    H       -6.25661        -5.36409        -1.77907
| 95>    H       -4.52317       -12.87289         0.19306
| 96>    H       -3.00332       -10.83734         0.53017
| 97>    H      -12.48222       -11.28207        -1.08806
| 98>    H      -12.37361       -11.32384        -2.87243
| 99>    H      -12.51212        -9.76473        -2.02339
|100>    H      -11.41178       -13.30441        -1.83738
|101>    H      -10.37202       -15.75949        -2.00843
|102>    H       -7.45948       -20.20481        -1.76769
|103>    H       -2.99072       -18.41208         1.00417
|104>    H       -5.57405       -21.81496        -1.50803
|105>    H       -4.83064       -16.81645         0.78044
|106> *
|107>
|108>                          ****END OF INPUT****

CARTESIAN COORDINATES (ANGSTROEM)
---------------------------------
  C      4.926230   -5.970400    2.125680
  C      5.760690   -7.023470    2.376110
  F      7.037090   -6.804370    2.722290
  C      5.293500   -8.348400    2.273310
  F      6.134170   -9.362900    2.523610
  C      3.997620   -8.602360    1.920810
  C      3.114200   -7.538720    1.654000
  C      3.584980   -6.198420    1.758510
  C      2.717040   -5.113750    1.492440
  C      1.420740   -5.362540    1.127790
  C      0.961600   -6.704480    1.021350
  C      1.772110   -7.771360    1.277850
  C     -0.452130   -6.699570    0.593000
  O     -1.150390   -7.681830    0.420290
  C     -0.814430   -5.289540    0.413910
  C      0.315600   -4.467160    0.784930
  C      0.369010   -3.096440    0.843460
  C     -0.689190   -2.208800    0.557350
  N     -1.485330   -1.405020    0.355580
  C      1.514760   -2.369140    1.226570
  N      2.410820   -1.716470    1.526910
  C     -2.010310   -4.823410   -0.084160
  C     -3.153320   -5.518080   -0.477680
  C     -4.270900   -4.828770   -1.020870
  O     -4.206680   -3.497020   -1.164660
  C     -5.338700   -2.835200   -1.686100
  C     -5.321440   -5.669470   -1.348980
  C     -5.049940   -7.004080   -1.059900
  S     -3.471300   -7.234040   -0.385070
  C     -5.927490   -8.099660   -1.278860
  C     -5.557970   -9.406040   -0.877540
  C     -6.406580  -10.538070   -1.071720
  N     -5.983860  -11.750290   -0.677970
  C     -4.811840  -11.880230   -0.121550
  C     -3.976850  -10.759420    0.069400
  N     -4.357360   -9.570890   -0.299840
  C     -7.702440  -10.433230   -1.644570
  C     -8.045100   -9.147300   -2.119900
  C     -7.179740   -7.998080   -1.925330
  N     -7.701980   -6.897670   -2.471680
  S     -9.099260   -7.268460   -3.171840
  N     -9.129820   -8.826180   -2.823180
  C     -8.532520  -11.582270   -1.682290
  C     -9.931320  -11.688600   -1.812240
  O    -10.696780  -10.591950   -1.891420
  C    -12.093790  -10.768170   -1.972590
  C    -10.379390  -13.011730   -1.776580
  C     -9.366720  -13.932870   -1.574620
  S     -7.817420  -13.140770   -1.445780
  C     -9.511250  -15.335210   -1.500110
  C     -8.647260  -16.241380   -0.958260
  C     -8.698460  -17.663700   -1.382720
  O     -9.592740  -18.214410   -1.982910
  C     -7.397660  -18.233730   -0.968650
  C     -6.886870  -19.475050   -1.215840
  C     -5.595550  -19.794890   -0.738560
  C     -4.854130  -18.815860   -0.015210
  C     -3.565040  -19.140320    0.453050
  C     -3.038230  -20.379210    0.218440
  C     -3.773000  -21.347470   -0.494740
  C     -5.024740  -21.062660   -0.963910
  F     -3.231530  -22.554190   -0.710510
  F     -1.813120  -20.685460    0.666080
  C     -5.412370  -17.541220    0.233340
  C     -6.667860  -17.256550   -0.232020
  C     -7.506510  -16.071150   -0.084210
  C     -7.370870  -15.121930    0.895560
  C     -8.390490  -14.201380    1.217060
  N     -9.228080  -13.490940    1.550880
  C     -6.228360  -14.986320    1.704220
  N     -5.292350  -14.803850    2.344770
  H      5.299830   -4.961810    2.209510
  H      3.655400   -9.622660    1.846180
  H      3.106310   -4.112560    1.579410
  H      1.396370   -8.779470    1.190720
  H     -2.102850   -3.752200   -0.220670
  H     -5.077480   -1.778950   -1.702360
  H     -6.214110   -2.988510   -1.048840
  H     -5.563600   -3.176610   -2.700610
  H     -6.256610   -5.364090   -1.779070
  H     -4.523170  -12.872890    0.193060
  H     -3.003320  -10.837340    0.530170
  H    -12.482220  -11.282070   -1.088060
  H    -12.373610  -11.323840   -2.872430
  H    -12.512120   -9.764730   -2.023390
  H    -11.411780  -13.304410   -1.837380
  H    -10.372020  -15.759490   -2.008430
  H     -7.459480  -20.204810   -1.767690
  H     -2.990720  -18.412080    1.004170
  H     -5.574050  -21.814960   -1.508030
  H     -4.830640  -16.816450    0.780440

 Total Charge           Charge          ....    0
 Multiplicity           Mult            ....    1
 Number of Electrons    NEL             ....  504
 Basis Dimension        Dim             .... 1106

ORBITAL ENERGIES
----------------

  NO   OCC          E(Eh)            E(eV)
   0   2.0000     -89.043390     -2422.9938
   1   2.0000     -88.968647     -2420.9600
   2   2.0000     -88.949416     -2420.4367
   3   2.0000     -24.801309      -674.8779
   4   2.0000     -24.800931      -674.8676
   5   2.0000     -24.790323      -674.5790
   6   2.0000     -24.788771      -674.5368
   7   2.0000     -19.261925      -524.1436
   8   2.0000     -19.260022      -524.0918
   9   2.0000     -19.218880      -522.9723
  10   2.0000     -19.205668      -522.6128
  11   2.0000     -14.450530      -393.2189
  12   2.0000     -14.449716      -393.1968
  13   2.0000     -14.449437      -393.1892
  14   2.0000     -14.442783      -393.0081
  15   2.0000     -14.425109      -392.5272
  16   2.0000     -14.416268      -392.2866
  17   2.0000     -14.401320      -391.8799
  18   2.0000     -14.400282      -391.8516
  19   2.0000     -10.384717      -282.5825
  20   2.0000     -10.384370      -282.5731
  21   2.0000     -10.372163      -282.2409
  22   2.0000     -10.371180      -282.2142
  23   2.0000     -10.370828      -282.2046
  24   2.0000     -10.357624      -281.8453
  25   2.0000     -10.354917      -281.7716
  26   2.0000     -10.346993      -281.5560
  27   2.0000     -10.346400      -281.5399
  28   2.0000     -10.346026      -281.5297
  29   2.0000     -10.342985      -281.4469
  30   2.0000     -10.342746      -281.4404
  31   2.0000     -10.341638      -281.4103
  32   2.0000     -10.340160      -281.3701
  33   2.0000     -10.339892      -281.3628
  34   2.0000     -10.338654      -281.3291
  35   2.0000     -10.336818      -281.2791
  36   2.0000     -10.328192      -281.0444
  37   2.0000     -10.327731      -281.0318
  38   2.0000     -10.326387      -280.9953
  39   2.0000     -10.326032      -280.9856
  40   2.0000     -10.324515      -280.9443
  41   2.0000     -10.324454      -280.9427
  42   2.0000     -10.320683      -280.8401
  43   2.0000     -10.318836      -280.7898
  44   2.0000     -10.314620      -280.6751
  45   2.0000     -10.314546      -280.6731
  46   2.0000     -10.314014      -280.6586
  47   2.0000     -10.313268      -280.6383
  48   2.0000     -10.312231      -280.6101
  49   2.0000     -10.312012      -280.6041
  50   2.0000     -10.306611      -280.4571
  51   2.0000     -10.306393      -280.4512
  52   2.0000     -10.304709      -280.4054
  53   2.0000     -10.304611      -280.4027
  54   2.0000     -10.304484      -280.3993
  55   2.0000     -10.304154      -280.3903
  56   2.0000     -10.304144      -280.3900
  57   2.0000     -10.302350      -280.3412
  58   2.0000     -10.299939      -280.2756
  59   2.0000     -10.299371      -280.2601
  60   2.0000     -10.297859      -280.2190
  61   2.0000     -10.295433      -280.1530
  62   2.0000     -10.294559      -280.1292
  63   2.0000     -10.292180      -280.0645
  64   2.0000     -10.291078      -280.0345
  65   2.0000     -10.290977      -280.0317
  66   2.0000     -10.290145      -280.0091
  67   2.0000     -10.289844      -280.0009
  68   2.0000     -10.280989      -279.7599
  69   2.0000     -10.278608      -279.6951
  70   2.0000     -10.271520      -279.5023
  71   2.0000      -8.134838      -221.3602
  72   2.0000      -8.061369      -219.3610
  73   2.0000      -8.041521      -218.8209
  74   2.0000      -6.105887      -166.1496
  75   2.0000      -6.098008      -165.9352
  76   2.0000      -6.097783      -165.9291
  77   2.0000      -6.031093      -164.1144
  78   2.0000      -6.026339      -163.9850
  79   2.0000      -6.023306      -163.9025
  80   2.0000      -6.011038      -163.5687
  81   2.0000      -6.006450      -163.4438
  82   2.0000      -6.003401      -163.3608
  83   2.0000      -1.323891       -36.0249
  84   2.0000      -1.312123       -35.7047
  85   2.0000      -1.309074       -35.6217
  86   2.0000      -1.297289       -35.3010
  87   2.0000      -1.172277       -31.8993
  88   2.0000      -1.166382       -31.7389
  89   2.0000      -1.140495       -31.0345
  90   2.0000      -1.134025       -30.8584
  91   2.0000      -1.121156       -30.5082
  92   2.0000      -1.106367       -30.1058
  93   2.0000      -1.033586       -28.1253
  94   2.0000      -1.025484       -27.9048
  95   2.0000      -1.008762       -27.4498
  96   2.0000      -1.005600       -27.3638
  97   2.0000      -1.002827       -27.2883
  98   2.0000      -0.996306       -27.1109
  99   2.0000      -0.994638       -27.0655
 100   2.0000      -0.992164       -26.9982
 101   2.0000      -0.985436       -26.8151
 102   2.0000      -0.980702       -26.6863
 103   2.0000      -0.979531       -26.6544
 104   2.0000      -0.969154       -26.3720
 105   2.0000      -0.962936       -26.2028
 106   2.0000      -0.935881       -25.4666
 107   2.0000      -0.919927       -25.0325
 108   2.0000      -0.912746       -24.8371
 109   2.0000      -0.901016       -24.5179
 110   2.0000      -0.896277       -24.3889
 111   2.0000      -0.890043       -24.2193
 112   2.0000      -0.886097       -24.1119
 113   2.0000      -0.883417       -24.0390
 114   2.0000      -0.878481       -23.9047
 115   2.0000      -0.867701       -23.6113
 116   2.0000      -0.849681       -23.1210
 117   2.0000      -0.846594       -23.0370
 118   2.0000      -0.844334       -22.9755
 119   2.0000      -0.833946       -22.6928
 120   2.0000      -0.829592       -22.5744
 121   2.0000      -0.822014       -22.3681
 122   2.0000      -0.809840       -22.0369
 123   2.0000      -0.806705       -21.9516
 124   2.0000      -0.790795       -21.5186
 125   2.0000      -0.779364       -21.2076
 126   2.0000      -0.770894       -20.9771
 127   2.0000      -0.767452       -20.8834
 128   2.0000      -0.758506       -20.6400
 129   2.0000      -0.754845       -20.5404
 130   2.0000      -0.744072       -20.2472
 131   2.0000      -0.733495       -19.9594
 132   2.0000      -0.722418       -19.6580
 133   2.0000      -0.719925       -19.5902
 134   2.0000      -0.715147       -19.4601
 135   2.0000      -0.706721       -19.2308
 136   2.0000      -0.701932       -19.1005
 137   2.0000      -0.691342       -18.8124
 138   2.0000      -0.687382       -18.7046
 139   2.0000      -0.678135       -18.4530
 140   2.0000      -0.677732       -18.4420
 141   2.0000      -0.668819       -18.1995
 142   2.0000      -0.659934       -17.9577
 143   2.0000      -0.658117       -17.9083
 144   2.0000      -0.650838       -17.7102
 145   2.0000      -0.648530       -17.6474
 146   2.0000      -0.645166       -17.5558
 147   2.0000      -0.644218       -17.5301
 148   2.0000      -0.636535       -17.3210
 149   2.0000      -0.631990       -17.1973
 150   2.0000      -0.627275       -17.0690
 151   2.0000      -0.623731       -16.9726
 152   2.0000      -0.621989       -16.9252
 153   2.0000      -0.619962       -16.8700
 154   2.0000      -0.612676       -16.6718
 155   2.0000      -0.604995       -16.4627
 156   2.0000      -0.597722       -16.2648
 157   2.0000      -0.594335       -16.1727
 158   2.0000      -0.588554       -16.0154
 159   2.0000      -0.588046       -16.0015
 160   2.0000      -0.580267       -15.7899
 161   2.0000      -0.576802       -15.6956
 162   2.0000      -0.576433       -15.6855
 163   2.0000      -0.576171       -15.6784
 164   2.0000      -0.571619       -15.5545
 165   2.0000      -0.568581       -15.4719
 166   2.0000      -0.567714       -15.4483
 167   2.0000      -0.563762       -15.3407
 168   2.0000      -0.562864       -15.3163
 169   2.0000      -0.559393       -15.2219
 170   2.0000      -0.556301       -15.1377
 171   2.0000      -0.550111       -14.9693
 172   2.0000      -0.548380       -14.9222
 173   2.0000      -0.547479       -14.8977
 174   2.0000      -0.543224       -14.7819
 175   2.0000      -0.543100       -14.7785
 176   2.0000      -0.541659       -14.7393
 177   2.0000      -0.538713       -14.6591
 178   2.0000      -0.538057       -14.6413
 179   2.0000      -0.533901       -14.5282
 180   2.0000      -0.528802       -14.3894
 181   2.0000      -0.526592       -14.3293
 182   2.0000      -0.525867       -14.3096
 183   2.0000      -0.521225       -14.1833
 184   2.0000      -0.519542       -14.1375
 185   2.0000      -0.518660       -14.1135
 186   2.0000      -0.517014       -14.0687
 187   2.0000      -0.512772       -13.9532
 188   2.0000      -0.509327       -13.8595
 189   2.0000      -0.508443       -13.8354
 190   2.0000      -0.506417       -13.7803
 191   2.0000      -0.502615       -13.6768
 192   2.0000      -0.500806       -13.6276
 193   2.0000      -0.498094       -13.5538
 194   2.0000      -0.493191       -13.4204
 195   2.0000      -0.489836       -13.3291
 196   2.0000      -0.488276       -13.2867
 197   2.0000      -0.485270       -13.2049
 198   2.0000      -0.483901       -13.1676
 199   2.0000      -0.482736       -13.1359
 200   2.0000      -0.478786       -13.0284
 201   2.0000      -0.473898       -12.8954
 202   2.0000      -0.470394       -12.8001
 203   2.0000      -0.469726       -12.7819
 204   2.0000      -0.466474       -12.6934
 205   2.0000      -0.459028       -12.4908
 206   2.0000      -0.458825       -12.4853
 207   2.0000      -0.455238       -12.3877
 208   2.0000      -0.454480       -12.3670
 209   2.0000      -0.454065       -12.3557
 210   2.0000      -0.451237       -12.2788
 211   2.0000      -0.447238       -12.1700
 212   2.0000      -0.443991       -12.0816
 213   2.0000      -0.439084       -11.9481
 214   2.0000      -0.437622       -11.9083
 215   2.0000      -0.436271       -11.8715
 216   2.0000      -0.434727       -11.8295
 217   2.0000      -0.432330       -11.7643
 218   2.0000      -0.430786       -11.7223
 219   2.0000      -0.430505       -11.7146
 220   2.0000      -0.428251       -11.6533
 221   2.0000      -0.424301       -11.5458
 222   2.0000      -0.421816       -11.4782
 223   2.0000      -0.418770       -11.3953
 224   2.0000      -0.416874       -11.3437
 225   2.0000      -0.413316       -11.2469
 226   2.0000      -0.410599       -11.1730
 227   2.0000      -0.409868       -11.1531
 228   2.0000      -0.405271       -11.0280
 229   2.0000      -0.404089       -10.9958
 230   2.0000      -0.395365       -10.7584
 231   2.0000      -0.393989       -10.7210
 232   2.0000      -0.391500       -10.6533
 233   2.0000      -0.385682       -10.4949
 234   2.0000      -0.376462       -10.2441
 235   2.0000      -0.372673       -10.1409
 236   2.0000      -0.369083       -10.0432
 237   2.0000      -0.358856        -9.7650
 238   2.0000      -0.351763        -9.5720
 239   2.0000      -0.349658        -9.5147
 240   2.0000      -0.341316        -9.2877
 241   2.0000      -0.333267        -9.0687
 242   2.0000      -0.324983        -8.8432
 243   2.0000      -0.320125        -8.7110
 244   2.0000      -0.314945        -8.5701
 245   2.0000      -0.309540        -8.4230
 246   2.0000      -0.307876        -8.3777
 247   2.0000      -0.305930        -8.3248
 248   2.0000      -0.300744        -8.1837
 249   2.0000      -0.290627        -7.9084
 250   2.0000      -0.275188        -7.4882
 251   2.0000      -0.239308        -6.5119
 252   0.0000      -0.127211        -3.4616
 253   0.0000      -0.090705        -2.4682
 254   0.0000      -0.071000        -1.9320
 255   0.0000      -0.060241        -1.6392
 256   0.0000      -0.046600        -1.2681

MULLIKEN ATOMIC CHARGES
-----------------------
   0 C :   -0.112837
   1 C :    0.241971
   2 F :   -0.174374
   3 C :    0.238693
   4 F :   -0.175548
   5 C :   -0.111764
   6 C :    0.121754
   7 C :    0.115872
   8 C :   -0.092179
   9 C :    0.050450
  10 C :    0.002449
  11 C :   -0.093888
  12 C :    0.158912
  13 O :   -0.179059
  14 C :   -0.100081
  15 C :    0.333709
  16 C :   -0.363941
  17 C :   -0.195846
  18 N :    0.144115
  19 C :   -0.186967
  20 N :    0.135909
  21 C :   -0.039385
  22 C :   -0.115790
  23 C :    0.288168
  24 O :   -0.287245
  25 C :    0.177066
  26 C :   -0.123249
  27 C :   -0.117917
  28 S :    0.210795
  29 C :    0.168801
  30 C :   -0.048670
  31 C :   -0.031547
  32 N :   -0.083974
  33 C :    0.049850
  34 C :    0.052369
  35 N :   -0.053845
  36 C :    0.171076
  37 C :   -0.025252
  38 C :   -0.006402
  39 N :   -0.300940
  40 S :    0.532882
  41 N :   -0.251476
  42 C :   -0.223221
  43 C :    0.259918
  44 O :   -0.274095
  45 C :    0.175046
  46 C :   -0.069453
  47 C :   -0.057410
  48 S :    0.189191
  49 C :    0.064792
  50 C :   -0.137888
  51 C :    0.141727
  52 O :   -0.141760
  53 C :    0.009463
  54 C :   -0.084995
  55 C :    0.114540
  56 C :    0.116733
  57 C :   -0.108581
  58 C :    0.242294
  59 C :    0.238795
  60 C :   -0.105517
  61 F :   -0.171270
  62 F :   -0.170511
  63 C :   -0.089946
  64 C :    0.047392
  65 C :    0.251636
  66 C :   -0.316791
  67 C :   -0.201250
  68 N :    0.165447
  69 C :   -0.156099
  70 N :    0.128129
  71 H :    0.005025
  72 H :   -0.006018
  73 H :   -0.009021
  74 H :   -0.020334
  75 H :    0.022967
  76 H :    0.054709
  77 H :    0.028200
  78 H :    0.027147
  79 H :   -0.014679
  80 H :    0.023374
  81 H :    0.032225
  82 H :    0.034579
  83 H :    0.026764
  84 H :    0.039015
  85 H :   -0.016652
  86 H :    0.024547
  87 H :   -0.007755
  88 H :    0.004411
  89 H :    0.001201
  90 H :   -0.008681
Sum of atomic charges:   -0.0000000

LOEWDIN ATOMIC CHARGES
----------------------
   0 C :   -0.029919
   1 C :    0.063553
   2 F :   -0.052229
   3 C :    0.064671
   4 F :   -0.053236
   5 C :   -0.035916
   6 C :   -0.010337
   7 C :   -0.008165
   8 C :    0.013950
   9 C :   -0.019966
  10 C :   -0.048799
  11 C :    0.021938
  12 C :    0.079489
  13 O :   -0.172964
  14 C :   -0.121524
  15 C :    0.075828
  16 C :   -0.152532
  17 C :   -0.023625
  18 N :   -0.059366
  19 C :   -0.017315
  20 N :   -0.067464
  21 C :    0.061907
  22 C :   -0.225581
  23 C :    0.053946
  24 O :   -0.075058
  25 C :    0.084421
  26 C :   -0.101270
  27 C :   -0.138449
  28 S :    0.539494
  29 C :   -0.050459
  30 C :   -0.006001
  31 C :   -0.015397
  32 N :   -0.047763
  33 C :    0.027033
  34 C :    0.034742
  35 N :   -0.034460
  36 C :   -0.026464
  37 C :   -0.046059
  38 C :   -0.033881
  39 N :   -0.292494
  40 S :    0.666526
  41 N :   -0.260141
  42 C :   -0.178225
  43 C :    0.038613
  44 O :   -0.068623
  45 C :    0.081421
  46 C :   -0.064844
  47 C :   -0.179494
  48 S :    0.527579
  49 C :    0.057228
  50 C :   -0.096550
  51 C :    0.081856
  52 O :   -0.143554
  53 C :   -0.052801
  54 C :    0.030302
  55 C :   -0.009308
  56 C :   -0.005771
  57 C :   -0.031421
  58 C :    0.067375
  59 C :    0.067258
  60 C :   -0.032449
  61 F :   -0.049255
  62 F :   -0.048840
  63 C :    0.010541
  64 C :   -0.018921
  65 C :    0.063297
  66 C :   -0.145691
  67 C :   -0.035419
  68 N :   -0.049408
  69 C :   -0.014429
  70 N :   -0.064406
  71 H :    0.046903
  72 H :    0.042530
  73 H :    0.039145
  74 H :    0.036151
  75 H :    0.049167
  76 H :    0.035953
  77 H :    0.019359
  78 H :    0.018748
  79 H :    0.025178
  80 H :    0.030436
  81 H :    0.036667
  82 H :    0.020490
  83 H :    0.017694
  84 H :    0.030383
  85 H :    0.032830
  86 H :    0.051099
  87 H :    0.040988
  88 H :    0.046452
  89 H :    0.045256
  90 H :    0.037843

  Mayer bond orders larger than 0.100000
B(  0-C ,  1-C ) :   1.4374 B(  0-C ,  5-C ) :   0.1096 B(  0-C ,  7-C ) :   1.1877
B(  0-C , 71-H ) :   1.0083 B(  1-C ,  2-F ) :   1.1315 B(  1-C ,  3-C ) :   1.1954
B(  3-C ,  4-F ) :   1.1298 B(  3-C ,  5-C ) :   1.4399 B(  5-C ,  6-C ) :   1.1912
B(  5-C , 72-H ) :   1.0083 B(  6-C ,  7-C ) :   1.2634 B(  6-C , 11-C ) :   1.1798
B(  7-C ,  8-C ) :   1.2069 B(  8-C ,  9-C ) :   1.4561 B(  8-C , 73-H ) :   0.9908
B(  9-C , 10-C ) :   1.2260 B(  9-C , 15-C ) :   0.9721 B( 10-C , 11-C ) :   1.4739
B( 10-C , 12-C ) :   0.9434 B( 11-C , 74-H ) :   1.0172 B( 12-C , 13-O ) :   2.1533
B( 12-C , 14-C ) :   0.9827 B( 14-C , 15-C ) :   1.1082 B( 14-C , 21-C ) :   1.4224
B( 15-C , 16-C ) :   1.5988 B( 16-C , 17-C ) :   1.1459 B( 16-C , 19-C ) :   1.1530
B( 17-C , 18-N ) :   2.9656 B( 19-C , 20-N ) :   2.9555 B( 21-C , 22-C ) :   1.3425
B( 21-C , 75-H ) :   0.9315 B( 22-C , 23-C ) :   1.2889 B( 22-C , 28-S ) :   1.0163
B( 23-C , 24-O ) :   1.1980 B( 23-C , 26-C ) :   1.2549 B( 24-O , 25-C ) :   0.9447
B( 25-C , 76-H ) :   0.9785 B( 25-C , 77-H ) :   0.9707 B( 25-C , 78-H ) :   0.9710
B( 26-C , 27-C ) :   1.3499 B( 26-C , 79-H ) :   0.9923 B( 27-C , 28-S ) :   1.1344
B( 27-C , 29-C ) :   1.2040 B( 29-C , 30-C ) :   1.2634 B( 29-C , 36-C ) :   0.1291
B( 29-C , 38-C ) :   1.1985 B( 30-C , 31-C ) :   1.1548 B( 30-C , 35-N ) :   1.4159
B( 31-C , 32-N ) :   1.3833 B( 31-C , 36-C ) :   1.2656 B( 32-N , 33-C ) :   1.6453
B( 33-C , 34-C ) :   1.1965 B( 33-C , 80-H ) :   0.9674 B( 34-C , 35-N ) :   1.6680
B( 34-C , 81-H ) :   0.9758 B( 36-C , 37-C ) :   1.2024 B( 36-C , 42-C ) :   1.1701
B( 37-C , 38-C ) :   1.0910 B( 37-C , 41-N ) :   1.5245 B( 38-C , 39-N ) :   1.5095
B( 39-N , 40-S ) :   1.2614 B( 39-N , 41-N ) :   0.1544 B( 40-S , 41-N ) :   1.3064
B( 42-C , 43-C ) :   1.3657 B( 42-C , 48-S ) :   1.1462 B( 43-C , 44-O ) :   1.2196
B( 43-C , 46-C ) :   1.2412 B( 44-O , 45-C ) :   0.9512 B( 45-C , 82-H ) :   0.9699
B( 45-C , 83-H ) :   0.9698 B( 45-C , 84-H ) :   0.9788 B( 46-C , 47-C ) :   1.3745
B( 46-C , 85-H ) :   1.0067 B( 47-C , 48-S ) :   1.0798 B( 47-C , 49-C ) :   1.1508
B( 49-C , 50-C ) :   1.6258 B( 49-C , 86-H ) :   0.9493 B( 50-C , 51-C ) :   0.9452
B( 50-C , 65-C ) :   1.0378 B( 51-C , 52-O ) :   2.2749 B( 51-C , 53-C ) :   0.9162
B( 53-C , 54-C ) :   1.4775 B( 53-C , 64-C ) :   1.2197 B( 54-C , 55-C ) :   1.1946
B( 54-C , 87-H ) :   1.0154 B( 55-C , 56-C ) :   1.2560 B( 55-C , 60-C ) :   1.1938
B( 56-C , 57-C ) :   1.1904 B( 56-C , 63-C ) :   1.2117 B( 57-C , 58-C ) :   1.4425
B( 57-C , 60-C ) :   0.1086 B( 57-C , 88-H ) :   1.0061 B( 58-C , 59-C ) :   1.1908
B( 58-C , 62-F ) :   1.1349 B( 59-C , 60-C ) :   1.4444 B( 59-C , 61-F ) :   1.1339
B( 60-C , 89-H ) :   1.0064 B( 63-C , 64-C ) :   1.4578 B( 63-C , 90-H ) :   0.9935
B( 64-C , 65-C ) :   1.0088 B( 65-C , 66-C ) :   1.6492 B( 66-C , 67-C ) :   1.1441
B( 66-C , 69-C ) :   1.1477 B( 67-C , 68-N ) :   3.0212 B( 69-C , 70-N ) :   2.9256

-----------------------------------------------------------------------------
         ABSORPTION SPECTRUM VIA TRANSITION ELECTRIC DIPOLE MOMENTS
-----------------------------------------------------------------------------
State   Energy  Wavelength   fosc         T2         TX        TY        TZ
        (cm-1)    (nm)                  (au**2)     (au)      (au)      (au)
-----------------------------------------------------------------------------
   0    9389.2   1065.0   0.695832564  24.39774  -2.97315  -3.92466  -0.39392
   1   16550.0    604.2   0.126347301   2.51329   0.97032  -0.82907   0.94043
   2   17645.1    566.7   0.069142127   1.29001  -0.62361   0.79445  -0.51959
   3   19248.0    519.5   0.016888580   0.28886  -0.09908   0.52801  -0.01550
   4   20983.8    476.6   0.615960993   9.66375  -2.60622  -1.37346  -0.99247
   5   21844.2    457.8   0.045911134   0.69192  -0.78266   0.23448  -0.15615
   6   22829.6    438.0   0.029044569   0.41883  -0.58229   0.23724  -0.15326
   7   23940.7    417.7   0.012889736   0.17725  -0.04963  -0.05054  -0.41501
   8   24749.0    404.1   0.022799478   0.30328  -0.53124   0.08342  -0.11878
   9   25340.1    394.6   0.040873115   0.53101  -0.18278  -0.68512  -0.16797
  10   25600.7    390.6   0.048621767   0.62525   0.40903   0.60161   0.30986
  11   25805.4    387.5   0.024886363   0.31749  -0.49667   0.24454  -0.10489
  12   26138.8    382.6   0.175973659   2.21634   0.76607  -1.24874   0.26481
  13   26816.5    372.9   0.003363545   0.04129  -0.07670   0.12785  -0.13807
  14   27598.1    362.3   0.089907240   1.07248   0.33943  -0.97529   0.07798
  15   28008.3    357.0   0.019172626   0.22536   0.07960  -0.46542   0.04901
  16   28289.5    353.5   0.005455799   0.06349   0.24489  -0.05925   0.00291
  17   28531.0    350.5   0.052028874   0.60035  -0.30969   0.71023   0.00379
  18   29516.4    338.8   0.057989127   0.64678  -0.68217   0.00864  -0.42585
  19   29717.5    336.5   0.036711535   0.40669   0.42764  -0.41334   0.23015
  20   29929.7    334.1   0.132006864   1.45201   0.85656  -0.78285   0.32473
  21   30111.5    332.1   0.096831104   1.05866  -0.21485   0.99156  -0.17122
  22   30396.6    329.0   0.032396361   0.35087  -0.20532  -0.51440   0.21002
  23   31210.7    320.4   0.162711360   1.71629   0.96519  -0.78898   0.40276
  24   31492.4    317.5   0.150335032   1.57155  -0.46761   1.02833   0.54354
  25   32014.1    312.4   0.001602537   0.01648   0.00479  -0.04172  -0.12131
  26   32193.0    310.6   0.002349764   0.02403   0.09432   0.10225  -0.06839
  27   32266.2    309.9   0.185961481   1.89736   0.06726   1.36249   0.19096
  28   32528.5    307.4   0.245411927   2.48374  -1.34484   0.81879   0.06876
  29   32754.3    305.3   0.001215321   0.01222   0.03133  -0.07341   0.07645
  30   33116.0    302.0   0.062319075   0.61952   0.72973  -0.08110   0.28362
  31   33397.3    299.4   0.096037513   0.94668   0.29778  -0.91974  -0.10997
  32   33578.9    297.8   0.133664391   1.31046   1.07729  -0.05277   0.38357
  33   33721.2    296.5   0.055667602   0.54347   0.16889  -0.69181   0.19064
  34   34075.5    293.5   0.030143826   0.29123   0.42446   0.21414   0.25535
  35   34530.6    289.6   0.044244386   0.42182   0.00099  -0.59712  -0.25549
  36   34992.4    285.8   0.307446514   2.89248  -1.18025   1.19122  -0.28369
  37   35609.7    280.8   0.035648599   0.32957   0.32934  -0.47014  -0.00894
  38   36104.8    277.0   0.510471609   4.65460   0.84848  -1.93880   0.41922
  39   36221.1    276.1   0.566174756   5.14593   1.24209  -1.89077  -0.16776
  40   36347.3    275.1   0.105704328   0.95741   0.55632  -0.71861   0.36266
  41   36491.1    274.0   0.213458454   1.92576  -0.86577  -0.22393  -1.06115
  42   36755.0    272.1   0.103606415   0.92799  -0.33527   0.90233  -0.03726
  43   36776.3    271.9   0.006939939   0.06212  -0.02753   0.24379   0.04400
  44   37015.4    270.2   0.038252221   0.34021   0.43306  -0.38437   0.07021
  45   37612.3    265.9   0.152016353   1.33057   0.92302  -0.18551   0.66647
  46   37915.2    263.7   0.036497114   0.31690  -0.29290  -0.32509  -0.35416
  47   38082.1    262.6   0.058013670   0.50152  -0.58368  -0.36227  -0.17203
  48   38160.8    262.0   0.110741917   0.95537   0.86165  -0.39369   0.24071
  49   38448.2    260.1   0.106745203   0.91400  -0.65114   0.69328   0.09683
  50   39086.0    255.8   0.058680671   0.49425  -0.18294   0.67879   0.00562
  51   39177.0    255.3   0.016094457   0.13524   0.29713   0.21599   0.01751
  52   39271.6    254.6   0.025375873   0.21272  -0.27178   0.30225  -0.21797
  53   39785.8    251.3   0.002167091   0.01793  -0.09695  -0.08820  -0.02745
  54   39924.6    250.5   0.125111304   1.03165   0.97615   0.06295   0.27351
  55   40267.8    248.3   0.159520691   1.30417  -1.10724   0.07683  -0.26888

FINAL SINGLE POINT ENERGY     -4322.095119529467

DIPOLE MOMENT
-------------
                                X             Y             Z
Electronic contribution:     36.72606     -24.10900       9.43624
Nuclear contribution   :    -40.26206      21.84435     -11.87471
                        -----------------------------------------
Total Dipole Moment    :     -3.53600      -2.26466      -2.43847
                        -----------------------------------------
Magnitude (a.u.)       :      4.85572
Magnitude (Debye)      :     12.34227

Rotational constants in cm-1:     0.001008     0.000431     0.000309
Rotational constants in MHz :    30.216704    12.922293     9.249611

                             ****ORCA TERMINATED NORMALLY****
TOTAL RUN TIME: 0 days 0 hours 9 minutes 39 seconds 433 msec
