                         Program Version 4.2.0 -  RELEASE  -
|  1> # ORCA input file
|  2> # SCF done       -231.281044474737          0.000432636821
|  3> ! CAM-B3LYP def2-SVP def2/J RIJCOSX Grid4 TightSCF
|  4> %maxcore 5000
|  5> %tddft
|  6>     Mode sTDDFT
|  7>     Ethresh 5.0
|  8>     maxcore 5000
|  9> end
| 10>
| 11> %pal
| 12>   nprocs 6
| 13>   end
| 14> * xyz 0 1
| 15>    C       -3.72429        -5.17411        12.29811
| 16>    C       -3.67983        -6.01059        13.37817
| 17>    F       -3.49326        -5.51350        14.60674
| 18>    C       -3.82918        -7.40304        13.21468
| 19>    F       -3.78030        -8.19746        14.29098
| 20>    C       -4.02213        -7.93969        11.97247
| 21>    C       -4.07346        -7.10354        10.84019
| 22>    C       -3.92128        -5.69572        11.00367
| 23>    C       -3.96837        -4.83605         9.88215
| 24>    C       -4.16357        -5.36669         8.63391
| 25>    C       -4.31701        -6.77366         8.48283
| 26>    C       -4.27435        -7.63017         9.54546
| 27>    C       -4.52011        -7.08572         7.06064
| 28>    O       -4.68351        -8.19142         6.57751
| 29>    C       -4.48275        -5.80108         6.34695
| 30>    C       -4.25879        -4.74118         7.31608
| 31>    C       -4.15749        -3.39806         7.07158
| 32>    C       -4.24876        -2.77437         5.80784
| 33>    N       -4.31148        -2.18468         4.82503
| 34>    C       -3.94351        -2.42778         8.07511
| 35>    N       -3.77038        -1.59069         8.84075
| 36>    C       -4.63739        -5.65096         4.99610
| 37>    C       -4.88508        -6.62368         4.00942
| 38>    C       -5.03639        -6.26482         2.66287
| 39>    F       -4.93166        -5.00002         2.25539
| 40>    C       -5.30816        -7.33056         1.82084
| 41>    C       -5.36619        -8.54558         2.52953
| 42>    S       -5.07773        -8.35670         4.21986
| 43>    C       -5.65305        -9.61776         1.68117
| 44>    C       -5.81508        -9.20904         0.35198
| 45>    S       -5.60706        -7.49620         0.11218
| 46>    C       -6.12212       -10.26951        -0.50060
| 47>    F       -6.38042       -10.06712        -1.79076
| 48>    C       -6.19861       -11.49991         0.14782
| 49>    S       -5.92592       -11.31499         1.87226
| 50>    C       -6.47995       -12.79245        -0.38485
| 51>    C       -6.77486       -13.86148         0.49720
| 52>    C       -7.17317       -15.17133         0.04794
| 53>    N       -7.62122       -16.06421         0.94296
| 54>    C       -7.57359       -15.78554         2.21754
| 55>    C       -7.02293       -14.54079         2.67749
| 56>    N       -6.68252       -13.62321         1.80937
| 57>    C       -6.87400       -14.28635         4.06284
| 58>    N       -6.77421       -14.11982         5.19136
| 59>    C       -8.09214       -16.72105         3.14970
| 60>    N       -8.50638       -17.45212         3.92701
| 61>    C       -7.17406       -15.50522        -1.32096
| 62>    C       -6.84603       -14.46057        -2.20393
| 63>    C       -6.49045       -13.13113        -1.75562
| 64>    N       -6.16185       -12.35340        -2.78724
| 65>    S       -6.30769       -13.16763        -4.14969
| 66>    N       -6.78168       -14.56884        -3.53267
| 67>    C       -7.50462       -16.80618        -1.81836
| 68>    C       -7.34101       -18.04448        -1.22075
| 69>    F       -6.71002       -18.23948        -0.06285
| 70>    C       -7.81534       -19.10263        -2.00505
| 71>    C       -8.35035       -18.66159        -3.22286
| 72>    S       -8.21927       -16.95353        -3.40805
| 73>    C       -8.82806       -19.72393        -3.99310
| 74>    C       -8.65414       -20.95923        -3.35329
| 75>    S       -7.89047       -20.82670        -1.79630
| 76>    C       -9.15245       -22.01722        -4.11681
| 77>    F       -9.12392       -23.29076        -3.73265
| 78>    C       -9.67156       -21.62942        -5.34388
| 79>    S       -9.58693       -19.88533        -5.52861
| 80>    C      -10.30192       -22.49390        -6.27234
| 81>    C      -10.61140       -22.26714        -7.57504
| 82>    C      -11.68827       -23.06725        -8.22902
| 83>    O      -12.17063       -24.09800        -7.82744
| 84>    C      -12.07249       -22.28213        -9.42058
| 85>    C      -13.10072       -22.49665       -10.29284
| 86>    C      -13.30049       -21.58750       -11.35590
| 87>    C      -12.42963       -20.46704       -11.49309
| 88>    C      -12.64081       -19.56029       -12.55124
| 89>    C      -13.66598       -19.75744       -13.43313
| 90>    C      -14.52570       -20.86658       -13.29764
| 91>    C      -14.34755       -21.76333       -12.28168
| 92>    F      -15.52287       -21.03333       -14.17540
| 93>    F      -13.86483       -18.89505       -14.43742
| 94>    C      -11.36783       -20.27492       -10.58011
| 95>    C      -11.18955       -21.17293        -9.56233
| 96>    C      -10.17827       -21.25186        -8.51315
| 97>    C       -8.93174       -20.68816        -8.56664
| 98>    C       -7.88987       -21.03983        -7.68239
| 99>    N       -7.01106       -21.33819        -7.00758
|100>    C       -8.52895       -19.77515        -9.56241
|101>    N       -8.16572       -19.01530       -10.34170
|102>    H       -3.60817        -4.11115        12.44149
|103>    H       -4.13536        -9.00690        11.86333
|104>    H       -3.84905        -3.77709        10.04282
|105>    H       -4.39392        -8.69270         9.39822
|106>    H       -4.57517        -4.64609         4.59308
|107>    H      -10.65684       -23.43416        -5.85920
|108>    H      -13.75361       -23.34777       -10.17350
|109>    H      -11.98979       -18.70855       -12.67164
|110>    H      -15.01412       -22.60670       -12.19190
|111>    H      -10.72699       -19.41571       -10.69943
|112> *
|113>
|114>                          ****END OF INPUT****

CARTESIAN COORDINATES (ANGSTROEM)
---------------------------------
  C     -3.724290   -5.174110   12.298110
  C     -3.679830   -6.010590   13.378170
  F     -3.493260   -5.513500   14.606740
  C     -3.829180   -7.403040   13.214680
  F     -3.780300   -8.197460   14.290980
  C     -4.022130   -7.939690   11.972470
  C     -4.073460   -7.103540   10.840190
  C     -3.921280   -5.695720   11.003670
  C     -3.968370   -4.836050    9.882150
  C     -4.163570   -5.366690    8.633910
  C     -4.317010   -6.773660    8.482830
  C     -4.274350   -7.630170    9.545460
  C     -4.520110   -7.085720    7.060640
  O     -4.683510   -8.191420    6.577510
  C     -4.482750   -5.801080    6.346950
  C     -4.258790   -4.741180    7.316080
  C     -4.157490   -3.398060    7.071580
  C     -4.248760   -2.774370    5.807840
  N     -4.311480   -2.184680    4.825030
  C     -3.943510   -2.427780    8.075110
  N     -3.770380   -1.590690    8.840750
  C     -4.637390   -5.650960    4.996100
  C     -4.885080   -6.623680    4.009420
  C     -5.036390   -6.264820    2.662870
  F     -4.931660   -5.000020    2.255390
  C     -5.308160   -7.330560    1.820840
  C     -5.366190   -8.545580    2.529530
  S     -5.077730   -8.356700    4.219860
  C     -5.653050   -9.617760    1.681170
  C     -5.815080   -9.209040    0.351980
  S     -5.607060   -7.496200    0.112180
  C     -6.122120  -10.269510   -0.500600
  F     -6.380420  -10.067120   -1.790760
  C     -6.198610  -11.499910    0.147820
  S     -5.925920  -11.314990    1.872260
  C     -6.479950  -12.792450   -0.384850
  C     -6.774860  -13.861480    0.497200
  C     -7.173170  -15.171330    0.047940
  N     -7.621220  -16.064210    0.942960
  C     -7.573590  -15.785540    2.217540
  C     -7.022930  -14.540790    2.677490
  N     -6.682520  -13.623210    1.809370
  C     -6.874000  -14.286350    4.062840
  N     -6.774210  -14.119820    5.191360
  C     -8.092140  -16.721050    3.149700
  N     -8.506380  -17.452120    3.927010
  C     -7.174060  -15.505220   -1.320960
  C     -6.846030  -14.460570   -2.203930
  C     -6.490450  -13.131130   -1.755620
  N     -6.161850  -12.353400   -2.787240
  S     -6.307690  -13.167630   -4.149690
  N     -6.781680  -14.568840   -3.532670
  C     -7.504620  -16.806180   -1.818360
  C     -7.341010  -18.044480   -1.220750
  F     -6.710020  -18.239480   -0.062850
  C     -7.815340  -19.102630   -2.005050
  C     -8.350350  -18.661590   -3.222860
  S     -8.219270  -16.953530   -3.408050
  C     -8.828060  -19.723930   -3.993100
  C     -8.654140  -20.959230   -3.353290
  S     -7.890470  -20.826700   -1.796300
  C     -9.152450  -22.017220   -4.116810
  F     -9.123920  -23.290760   -3.732650
  C     -9.671560  -21.629420   -5.343880
  S     -9.586930  -19.885330   -5.528610
  C    -10.301920  -22.493900   -6.272340
  C    -10.611400  -22.267140   -7.575040
  C    -11.688270  -23.067250   -8.229020
  O    -12.170630  -24.098000   -7.827440
  C    -12.072490  -22.282130   -9.420580
  C    -13.100720  -22.496650  -10.292840
  C    -13.300490  -21.587500  -11.355900
  C    -12.429630  -20.467040  -11.493090
  C    -12.640810  -19.560290  -12.551240
  C    -13.665980  -19.757440  -13.433130
  C    -14.525700  -20.866580  -13.297640
  C    -14.347550  -21.763330  -12.281680
  F    -15.522870  -21.033330  -14.175400
  F    -13.864830  -18.895050  -14.437420
  C    -11.367830  -20.274920  -10.580110
  C    -11.189550  -21.172930   -9.562330
  C    -10.178270  -21.251860   -8.513150
  C     -8.931740  -20.688160   -8.566640
  C     -7.889870  -21.039830   -7.682390
  N     -7.011060  -21.338190   -7.007580
  C     -8.528950  -19.775150   -9.562410
  N     -8.165720  -19.015300  -10.341700
  H     -3.608170   -4.111150   12.441490
  H     -4.135360   -9.006900   11.863330
  H     -3.849050   -3.777090   10.042820
  H     -4.393920   -8.692700    9.398220
  H     -4.575170   -4.646090    4.593080
  H    -10.656840  -23.434160   -5.859200
  H    -13.753610  -23.347770  -10.173500
  H    -11.989790  -18.708550  -12.671640
  H    -15.014120  -22.606700  -12.191900
  H    -10.726990  -19.415710  -10.699430

 Total Charge           Charge          ....    0
 Multiplicity           Mult            ....    1
 Number of Electrons    NEL             ....  640
 Basis Dimension        Dim             .... 1296

ORBITAL ENERGIES
----------------

  NO   OCC          E(Eh)            E(eV)
   0   2.0000     -89.061812     -2423.4951
   1   2.0000     -88.990187     -2421.5461
   2   2.0000     -88.989452     -2421.5261
   3   2.0000     -88.987316     -2421.4680
   4   2.0000     -88.985309     -2421.4134
   5   2.0000     -88.983524     -2421.3648
   6   2.0000     -88.982076     -2421.3254
   7   2.0000     -24.822009      -675.4412
   8   2.0000     -24.819238      -675.3658
   9   2.0000     -24.811409      -675.1528
  10   2.0000     -24.810969      -675.1408
  11   2.0000     -24.802339      -674.9059
  12   2.0000     -24.802003      -674.8968
  13   2.0000     -24.800682      -674.8609
  14   2.0000     -24.799996      -674.8422
  15   2.0000     -19.230100      -523.2776
  16   2.0000     -19.221871      -523.0537
  17   2.0000     -14.481556      -394.0632
  18   2.0000     -14.474302      -393.8658
  19   2.0000     -14.467320      -393.6758
  20   2.0000     -14.466533      -393.6544
  21   2.0000     -14.443385      -393.0245
  22   2.0000     -14.439121      -392.9084
  23   2.0000     -14.424029      -392.4978
  24   2.0000     -14.421107      -392.4183
  25   2.0000     -14.420185      -392.3932
  26   2.0000     -14.418990      -392.3607
  27   2.0000     -10.402017      -283.0533
  28   2.0000     -10.399286      -282.9790
  29   2.0000     -10.398010      -282.9443
  30   2.0000     -10.397184      -282.9218
  31   2.0000     -10.395438      -282.8742
  32   2.0000     -10.394362      -282.8450
  33   2.0000     -10.385764      -282.6110
  34   2.0000     -10.385426      -282.6018
  35   2.0000     -10.384258      -282.5700
  36   2.0000     -10.383588      -282.5518
  37   2.0000     -10.377679      -282.3910
  38   2.0000     -10.373915      -282.2886
  39   2.0000     -10.365320      -282.0547
  40   2.0000     -10.365065      -282.0477
  41   2.0000     -10.362391      -281.9750
  42   2.0000     -10.360518      -281.9240
  43   2.0000     -10.352102      -281.6950
  44   2.0000     -10.349725      -281.6303
  45   2.0000     -10.347792      -281.5777
  46   2.0000     -10.347056      -281.5577
  47   2.0000     -10.345800      -281.5235
  48   2.0000     -10.344099      -281.4772
  49   2.0000     -10.340492      -281.3791
  50   2.0000     -10.338635      -281.3286
  51   2.0000     -10.338241      -281.3178
  52   2.0000     -10.336974      -281.2834
  53   2.0000     -10.336383      -281.2673
  54   2.0000     -10.334755      -281.2230
  55   2.0000     -10.334470      -281.2152
  56   2.0000     -10.334097      -281.2051
  57   2.0000     -10.333471      -281.1880
  58   2.0000     -10.332585      -281.1639
  59   2.0000     -10.332388      -281.1586
  60   2.0000     -10.332179      -281.1529
  61   2.0000     -10.331568      -281.1362
  62   2.0000     -10.330480      -281.1066
  63   2.0000     -10.330402      -281.1045
  64   2.0000     -10.327541      -281.0267
  65   2.0000     -10.326254      -280.9917
  66   2.0000     -10.323174      -280.9078
  67   2.0000     -10.322315      -280.8845
  68   2.0000     -10.321931      -280.8740
  69   2.0000     -10.315821      -280.7078
  70   2.0000     -10.315295      -280.6934
  71   2.0000     -10.314057      -280.6598
  72   2.0000     -10.313851      -280.6541
  73   2.0000     -10.313590      -280.6471
  74   2.0000     -10.311649      -280.5942
  75   2.0000     -10.308237      -280.5014
  76   2.0000     -10.308070      -280.4968
  77   2.0000     -10.306977      -280.4671
  78   2.0000     -10.306303      -280.4488
  79   2.0000     -10.306256      -280.4475
  80   2.0000     -10.305853      -280.4365
  81   2.0000     -10.305538      -280.4279
  82   2.0000     -10.305022      -280.4139
  83   2.0000     -10.303901      -280.3834
  84   2.0000     -10.303016      -280.3593
  85   2.0000     -10.299620      -280.2669
  86   2.0000     -10.297755      -280.2162
  87   2.0000      -8.152971      -221.8536
  88   2.0000      -8.084804      -219.9987
  89   2.0000      -8.083892      -219.9739
  90   2.0000      -8.081714      -219.9146
  91   2.0000      -8.079705      -219.8599
  92   2.0000      -8.076270      -219.7665
  93   2.0000      -8.074628      -219.7218
  94   2.0000      -6.123960      -166.6414
  95   2.0000      -6.116097      -166.4275
  96   2.0000      -6.116020      -166.4254
  97   2.0000      -6.054540      -164.7524
  98   2.0000      -6.053849      -164.7336
  99   2.0000      -6.051480      -164.6691
 100   2.0000      -6.050469      -164.6416
 101   2.0000      -6.049755      -164.6222
 102   2.0000      -6.049684      -164.6203
 103   2.0000      -6.047204      -164.5528
 104   2.0000      -6.046275      -164.5275
 105   2.0000      -6.045957      -164.5189
 106   2.0000      -6.045655      -164.5106
 107   2.0000      -6.044642      -164.4831
 108   2.0000      -6.044471      -164.4784
 109   2.0000      -6.042944      -164.4369
 110   2.0000      -6.041636      -164.4013
 111   2.0000      -6.040369      -164.3668
 112   2.0000      -6.039966      -164.3558
 113   2.0000      -6.037472      -164.2880
 114   2.0000      -6.035957      -164.2467
 115   2.0000      -1.337841       -36.4045
 116   2.0000      -1.334499       -36.3136
 117   2.0000      -1.328744       -36.1570
 118   2.0000      -1.327551       -36.1245
 119   2.0000      -1.325426       -36.0667
 120   2.0000      -1.323687       -36.0194
 121   2.0000      -1.310555       -35.6620
 122   2.0000      -1.308785       -35.6138
 123   2.0000      -1.160017       -31.5657
 124   2.0000      -1.146475       -31.1972
 125   2.0000      -1.139585       -31.0097
 126   2.0000      -1.138236       -30.9730
 127   2.0000      -1.066594       -29.0235
 128   2.0000      -1.050488       -28.5852
 129   2.0000      -1.043751       -28.4019
 130   2.0000      -1.028015       -27.9737
 131   2.0000      -1.026999       -27.9461
 132   2.0000      -1.024559       -27.8797
 133   2.0000      -1.019257       -27.7354
 134   2.0000      -1.014145       -27.5963
 135   2.0000      -1.010211       -27.4892
 136   2.0000      -1.009641       -27.4737
 137   2.0000      -1.008618       -27.4459
 138   2.0000      -1.003874       -27.3168
 139   2.0000      -0.999809       -27.2062
 140   2.0000      -0.998636       -27.1743
 141   2.0000      -0.991522       -26.9807
 142   2.0000      -0.986957       -26.8565
 143   2.0000      -0.985367       -26.8132
 144   2.0000      -0.959986       -26.1225
 145   2.0000      -0.953092       -25.9349
 146   2.0000      -0.936757       -25.4905
 147   2.0000      -0.934780       -25.4367
 148   2.0000      -0.924170       -25.1479
 149   2.0000      -0.914037       -24.8722
 150   2.0000      -0.912307       -24.8251
 151   2.0000      -0.909550       -24.7501
 152   2.0000      -0.898706       -24.4550
 153   2.0000      -0.896689       -24.4002
 154   2.0000      -0.891716       -24.2648
 155   2.0000      -0.889726       -24.2107
 156   2.0000      -0.878417       -23.9029
 157   2.0000      -0.868489       -23.6328
 158   2.0000      -0.858574       -23.3630
 159   2.0000      -0.855278       -23.2733
 160   2.0000      -0.851307       -23.1653
 161   2.0000      -0.845918       -23.0186
 162   2.0000      -0.844208       -22.9721
 163   2.0000      -0.833050       -22.6685
 164   2.0000      -0.830709       -22.6048
 165   2.0000      -0.823739       -22.4151
 166   2.0000      -0.817340       -22.2410
 167   2.0000      -0.811028       -22.0692
 168   2.0000      -0.800339       -21.7783
 169   2.0000      -0.785422       -21.3724
 170   2.0000      -0.773432       -21.0462
 171   2.0000      -0.772803       -21.0291
 172   2.0000      -0.768396       -20.9091
 173   2.0000      -0.752224       -20.4691
 174   2.0000      -0.750650       -20.4262
 175   2.0000      -0.737554       -20.0699
 176   2.0000      -0.731416       -19.9028
 177   2.0000      -0.724445       -19.7131
 178   2.0000      -0.723291       -19.6817
 179   2.0000      -0.719625       -19.5820
 180   2.0000      -0.714019       -19.4295
 181   2.0000      -0.708342       -19.2750
 182   2.0000      -0.698953       -19.0195
 183   2.0000      -0.695419       -18.9233
 184   2.0000      -0.692112       -18.8333
 185   2.0000      -0.691825       -18.8255
 186   2.0000      -0.690187       -18.7809
 187   2.0000      -0.684508       -18.6264
 188   2.0000      -0.682104       -18.5610
 189   2.0000      -0.680311       -18.5122
 190   2.0000      -0.671644       -18.2764
 191   2.0000      -0.663756       -18.0617
 192   2.0000      -0.662912       -18.0387
 193   2.0000      -0.658530       -17.9195
 194   2.0000      -0.653391       -17.7797
 195   2.0000      -0.649162       -17.6646
 196   2.0000      -0.648293       -17.6410
 197   2.0000      -0.646515       -17.5926
 198   2.0000      -0.643084       -17.4992
 199   2.0000      -0.642163       -17.4741
 200   2.0000      -0.633980       -17.2515
 201   2.0000      -0.624900       -17.0044
 202   2.0000      -0.622705       -16.9447
 203   2.0000      -0.618904       -16.8412
 204   2.0000      -0.612083       -16.6556
 205   2.0000      -0.609275       -16.5792
 206   2.0000      -0.602951       -16.4071
 207   2.0000      -0.598209       -16.2781
 208   2.0000      -0.596952       -16.2439
 209   2.0000      -0.595286       -16.1986
 210   2.0000      -0.594565       -16.1789
 211   2.0000      -0.592106       -16.1120
 212   2.0000      -0.590725       -16.0744
 213   2.0000      -0.589769       -16.0484
 214   2.0000      -0.588643       -16.0178
 215   2.0000      -0.588002       -16.0004
 216   2.0000      -0.584934       -15.9169
 217   2.0000      -0.584058       -15.8930
 218   2.0000      -0.583047       -15.8655
 219   2.0000      -0.579306       -15.7637
 220   2.0000      -0.573751       -15.6125
 221   2.0000      -0.567649       -15.4465
 222   2.0000      -0.566075       -15.4037
 223   2.0000      -0.562673       -15.3111
 224   2.0000      -0.561011       -15.2659
 225   2.0000      -0.558129       -15.1875
 226   2.0000      -0.556731       -15.1494
 227   2.0000      -0.552058       -15.0223
 228   2.0000      -0.551291       -15.0014
 229   2.0000      -0.549506       -14.9528
 230   2.0000      -0.548550       -14.9268
 231   2.0000      -0.546872       -14.8811
 232   2.0000      -0.543915       -14.8007
 233   2.0000      -0.539830       -14.6895
 234   2.0000      -0.534746       -14.5512
 235   2.0000      -0.534407       -14.5419
 236   2.0000      -0.531382       -14.4596
 237   2.0000      -0.528644       -14.3851
 238   2.0000      -0.528441       -14.3796
 239   2.0000      -0.525482       -14.2991
 240   2.0000      -0.523535       -14.2461
 241   2.0000      -0.522776       -14.2254
 242   2.0000      -0.520810       -14.1720
 243   2.0000      -0.518354       -14.1051
 244   2.0000      -0.516282       -14.0487
 245   2.0000      -0.512302       -13.9405
 246   2.0000      -0.509091       -13.8531
 247   2.0000      -0.507729       -13.8160
 248   2.0000      -0.506178       -13.7738
 249   2.0000      -0.504584       -13.7304
 250   2.0000      -0.503442       -13.6994
 251   2.0000      -0.501513       -13.6469
 252   2.0000      -0.499631       -13.5956
 253   2.0000      -0.497886       -13.5482
 254   2.0000      -0.494132       -13.4460
 255   2.0000      -0.493000       -13.4152
 256   2.0000      -0.491628       -13.3779
 257   2.0000      -0.488412       -13.2904
 258   2.0000      -0.484756       -13.1909
 259   2.0000      -0.479239       -13.0408
 260   2.0000      -0.477324       -12.9886
 261   2.0000      -0.475119       -12.9287
 262   2.0000      -0.472866       -12.8673
 263   2.0000      -0.472457       -12.8562
 264   2.0000      -0.469264       -12.7693
 265   2.0000      -0.467985       -12.7345
 266   2.0000      -0.467315       -12.7163
 267   2.0000      -0.466615       -12.6972
 268   2.0000      -0.463672       -12.6172
 269   2.0000      -0.462839       -12.5945
 270   2.0000      -0.459441       -12.5020
 271   2.0000      -0.455852       -12.4044
 272   2.0000      -0.455538       -12.3958
 273   2.0000      -0.453393       -12.3374
 274   2.0000      -0.452174       -12.3043
 275   2.0000      -0.451332       -12.2814
 276   2.0000      -0.450090       -12.2476
 277   2.0000      -0.449333       -12.2270
 278   2.0000      -0.447484       -12.1767
 279   2.0000      -0.443048       -12.0560
 280   2.0000      -0.440509       -11.9869
 281   2.0000      -0.438793       -11.9402
 282   2.0000      -0.437023       -11.8920
 283   2.0000      -0.434315       -11.8183
 284   2.0000      -0.433747       -11.8028
 285   2.0000      -0.433031       -11.7834
 286   2.0000      -0.432650       -11.7730
 287   2.0000      -0.431628       -11.7452
 288   2.0000      -0.428382       -11.6569
 289   2.0000      -0.425550       -11.5798
 290   2.0000      -0.424414       -11.5489
 291   2.0000      -0.421485       -11.4692
 292   2.0000      -0.418771       -11.3954
 293   2.0000      -0.414224       -11.2716
 294   2.0000      -0.411235       -11.1903
 295   2.0000      -0.406060       -11.0495
 296   2.0000      -0.405523       -11.0348
 297   2.0000      -0.403645       -10.9837
 298   2.0000      -0.392340       -10.6761
 299   2.0000      -0.391914       -10.6645
 300   2.0000      -0.389775       -10.6063
 301   2.0000      -0.380590       -10.3564
 302   2.0000      -0.375596       -10.2205
 303   2.0000      -0.364844        -9.9279
 304   2.0000      -0.363353        -9.8873
 305   2.0000      -0.360872        -9.8198
 306   2.0000      -0.350003        -9.5241
 307   2.0000      -0.347119        -9.4456
 308   2.0000      -0.344754        -9.3812
 309   2.0000      -0.344176        -9.3655
 310   2.0000      -0.339301        -9.2328
 311   2.0000      -0.322649        -8.7797
 312   2.0000      -0.322267        -8.7693
 313   2.0000      -0.314729        -8.5642
 314   2.0000      -0.306946        -8.3524
 315   2.0000      -0.304595        -8.2885
 316   2.0000      -0.302339        -8.2271
 317   2.0000      -0.301132        -8.1942
 318   2.0000      -0.285671        -7.7735
 319   2.0000      -0.259246        -7.0545
 320   0.0000      -0.141421        -3.8483
 321   0.0000      -0.103923        -2.8279
 322   0.0000      -0.099862        -2.7174
 323   0.0000      -0.068925        -1.8755
 324   0.0000      -0.066440        -1.8079

MULLIKEN ATOMIC CHARGES
-----------------------
   0 C :   -0.108855
   1 C :    0.243227
   2 F :   -0.169218
   3 C :    0.238454
   4 F :   -0.170007
   5 C :   -0.105100
   6 C :    0.115017
   7 C :    0.113952
   8 C :   -0.085113
   9 C :    0.050148
  10 C :   -0.006551
  11 C :   -0.078179
  12 C :    0.175498
  13 O :   -0.180668
  14 C :   -0.089789
  15 C :    0.334564
  16 C :   -0.350496
  17 C :   -0.196023
  18 N :    0.156291
  19 C :   -0.183454
  20 N :    0.151794
  21 C :   -0.030508
  22 C :   -0.146760
  23 C :    0.197848
  24 F :   -0.154013
  25 C :   -0.046058
  26 C :   -0.069499
  27 S :    0.237586
  28 C :   -0.043422
  29 C :   -0.075275
  30 S :    0.212666
  31 C :    0.204246
  32 F :   -0.147063
  33 C :   -0.250578
  34 S :    0.204999
  35 C :    0.199863
  36 C :   -0.052296
  37 C :   -0.078692
  38 N :    0.070768
  39 C :   -0.148067
  40 C :   -0.081814
  41 N :   -0.017729
  42 C :   -0.231243
  43 N :    0.248426
  44 C :   -0.204231
  45 N :    0.239920
  46 C :    0.156128
  47 C :   -0.018316
  48 C :   -0.026212
  49 N :   -0.266295
  50 S :    0.568325
  51 N :   -0.298956
  52 C :   -0.254739
  53 C :    0.231307
  54 F :   -0.157247
  55 C :   -0.080930
  56 C :   -0.064437
  57 S :    0.223753
  58 C :   -0.070469
  59 C :   -0.062036
  60 S :    0.227458
  61 C :    0.244198
  62 F :   -0.152794
  63 C :   -0.192238
  64 S :    0.191129
  65 C :    0.050993
  66 C :   -0.129871
  67 C :    0.142160
  68 O :   -0.134274
  69 C :    0.011891
  70 C :   -0.081977
  71 C :    0.112163
  72 C :    0.111113
  73 C :   -0.105997
  74 C :    0.241352
  75 C :    0.237795
  76 C :   -0.101894
  77 F :   -0.170841
  78 F :   -0.170199
  79 C :   -0.080021
  80 C :    0.039605
  81 C :    0.242470
  82 C :   -0.315282
  83 C :   -0.206196
  84 N :    0.174599
  85 C :   -0.172666
  86 N :    0.152038
  87 H :    0.010277
  88 H :    0.002037
  89 H :   -0.005926
  90 H :   -0.005786
  91 H :    0.023656
  92 H :    0.037423
  93 H :   -0.006364
  94 H :    0.005650
  95 H :    0.002302
  96 H :   -0.002426
Sum of atomic charges:   -0.0000000

LOEWDIN ATOMIC CHARGES
----------------------
   0 C :   -0.029268
   1 C :    0.067350
   2 F :   -0.047092
   3 C :    0.068048
   4 F :   -0.047454
   5 C :   -0.032342
   6 C :   -0.008860
   7 C :   -0.005739
   8 C :    0.018293
   9 C :   -0.021843
  10 C :   -0.053555
  11 C :    0.032672
  12 C :    0.087056
  13 O :   -0.164533
  14 C :   -0.104442
  15 C :    0.074976
  16 C :   -0.136989
  17 C :   -0.024446
  18 N :   -0.043534
  19 C :   -0.017021
  20 N :   -0.051666
  21 C :    0.059857
  22 C :   -0.211866
  23 C :    0.068308
  24 F :   -0.032458
  25 C :   -0.217877
  26 C :   -0.199328
  27 S :    0.511713
  28 C :   -0.211081
  29 C :   -0.210438
  30 S :    0.432503
  31 C :    0.054874
  32 F :   -0.027865
  33 C :   -0.195963
  34 S :    0.484829
  35 C :   -0.025801
  36 C :   -0.013910
  37 C :   -0.006425
  38 N :    0.012158
  39 C :   -0.023868
  40 C :   -0.018242
  41 N :   -0.018692
  42 C :   -0.039627
  43 N :    0.005081
  44 C :   -0.035976
  45 N :    0.001322
  46 C :   -0.042320
  47 C :   -0.045324
  48 C :   -0.044559
  49 N :   -0.269009
  50 S :    0.699103
  51 N :   -0.299891
  52 C :   -0.191409
  53 C :    0.050538
  54 F :   -0.037075
  55 C :   -0.207016
  56 C :   -0.209854
  57 S :    0.483141
  58 C :   -0.187023
  59 C :   -0.215769
  60 S :    0.451205
  61 C :    0.075915
  62 F :   -0.032288
  63 C :   -0.212027
  64 S :    0.471107
  65 C :    0.055019
  66 C :   -0.096392
  67 C :    0.083349
  68 O :   -0.136841
  69 C :   -0.054161
  70 C :    0.031699
  71 C :   -0.009237
  72 C :   -0.005533
  73 C :   -0.030670
  74 C :    0.067497
  75 C :    0.067216
  76 C :   -0.032333
  77 F :   -0.048037
  78 F :   -0.047609
  79 C :    0.013489
  80 C :   -0.020188
  81 C :    0.059105
  82 C :   -0.139980
  83 C :   -0.037012
  84 N :   -0.046037
  85 C :   -0.019094
  86 N :   -0.049598
  87 H :    0.048372
  88 H :    0.045738
  89 H :    0.040287
  90 H :    0.041823
  91 H :    0.051652
  92 H :    0.055489
  93 H :    0.041489
  94 H :    0.047060
  95 H :    0.045530
  96 H :    0.039623

  Mayer bond orders larger than 0.100000
B(  0-C ,  1-C ) :   1.4392 B(  0-C ,  5-C ) :   0.1079 B(  0-C ,  7-C ) :   1.1904
B(  0-C , 87-H ) :   1.0068 B(  1-C ,  2-F ) :   1.1373 B(  1-C ,  3-C ) :   1.1896
B(  3-C ,  4-F ) :   1.1351 B(  3-C ,  5-C ) :   1.4434 B(  5-C ,  6-C ) :   1.1922
B(  5-C , 88-H ) :   1.0072 B(  6-C ,  7-C ) :   1.2543 B(  6-C , 11-C ) :   1.1891
B(  7-C ,  8-C ) :   1.2161 B(  8-C ,  9-C ) :   1.4513 B(  8-C , 89-H ) :   0.9895
B(  9-C , 10-C ) :   1.2213 B(  9-C , 15-C ) :   0.9834 B( 10-C , 11-C ) :   1.4666
B( 10-C , 12-C ) :   0.9608 B( 11-C , 90-H ) :   1.0172 B( 12-C , 13-O ) :   2.1182
B( 12-C , 14-C ) :   0.9799 B( 14-C , 15-C ) :   1.0734 B( 14-C , 21-C ) :   1.5014
B( 15-C , 16-C ) :   1.6326 B( 16-C , 17-C ) :   1.1415 B( 16-C , 19-C ) :   1.1473
B( 17-C , 18-N ) :   2.9585 B( 19-C , 20-N ) :   2.9605 B( 21-C , 22-C ) :   1.2526
B( 21-C , 91-H ) :   0.9340 B( 22-C , 23-C ) :   1.3705 B( 22-C , 27-S ) :   1.0555
B( 23-C , 24-F ) :   1.1725 B( 23-C , 25-C ) :   1.3405 B( 25-C , 26-C ) :   1.4084
B( 25-C , 30-S ) :   1.0144 B( 26-C , 27-S ) :   1.0526 B( 26-C , 28-C ) :   1.3412
B( 28-C , 29-C ) :   1.4661 B( 28-C , 34-S ) :   1.0178 B( 29-C , 30-S ) :   1.0189
B( 29-C , 31-C ) :   1.2945 B( 31-C , 32-F ) :   1.2131 B( 31-C , 33-C ) :   1.4080
B( 33-C , 34-S ) :   1.0820 B( 33-C , 35-C ) :   1.1739 B( 35-C , 36-C ) :   1.2594
B( 35-C , 46-C ) :   0.1189 B( 35-C , 48-C ) :   1.1999 B( 36-C , 37-C ) :   1.1028
B( 36-C , 41-N ) :   1.3823 B( 37-C , 38-N ) :   1.4411 B( 37-C , 46-C ) :   1.3028
B( 38-N , 39-C ) :   1.7442 B( 39-C , 40-C ) :   1.1953 B( 39-C , 44-C ) :   1.1541
B( 40-C , 41-N ) :   1.6978 B( 40-C , 42-C ) :   1.1514 B( 42-C , 43-N ) :   3.0388
B( 44-C , 45-N ) :   3.0509 B( 46-C , 47-C ) :   1.2255 B( 46-C , 52-C ) :   1.0848
B( 47-C , 48-C ) :   1.1040 B( 47-C , 51-N ) :   1.5004 B( 48-C , 49-N ) :   1.5215
B( 49-N , 50-S ) :   1.3087 B( 49-N , 51-N ) :   0.1506 B( 50-S , 51-N ) :   1.2787
B( 52-C , 53-C ) :   1.4623 B( 52-C , 56-C ) :   0.1017 B( 52-C , 57-S ) :   1.0921
B( 53-C , 54-F ) :   1.2000 B( 53-C , 55-C ) :   1.2726 B( 55-C , 56-C ) :   1.4647
B( 55-C , 60-S ) :   1.0349 B( 56-C , 57-S ) :   1.0683 B( 56-C , 58-C ) :   1.3354
B( 58-C , 59-C ) :   1.4557 B( 58-C , 64-S ) :   1.0926 B( 59-C , 60-S ) :   1.0259
B( 59-C , 61-C ) :   1.2820 B( 61-C , 62-F ) :   1.2100 B( 61-C , 63-C ) :   1.4364
B( 63-C , 64-S ) :   1.0622 B( 63-C , 65-C ) :   1.1353 B( 65-C , 66-C ) :   1.6349
B( 65-C , 92-H ) :   0.9470 B( 66-C , 67-C ) :   0.9373 B( 66-C , 81-C ) :   1.0368
B( 67-C , 68-O ) :   2.2811 B( 67-C , 69-C ) :   0.9167 B( 69-C , 70-C ) :   1.4750
B( 69-C , 80-C ) :   1.2212 B( 70-C , 71-C ) :   1.1973 B( 70-C , 93-H ) :   1.0165
B( 71-C , 72-C ) :   1.2552 B( 71-C , 76-C ) :   1.1932 B( 72-C , 73-C ) :   1.1920
B( 72-C , 79-C ) :   1.2146 B( 73-C , 74-C ) :   1.4428 B( 73-C , 76-C ) :   0.1079
B( 73-C , 94-H ) :   1.0066 B( 74-C , 75-C ) :   1.1897 B( 74-C , 78-F ) :   1.1352
B( 75-C , 76-C ) :   1.4448 B( 75-C , 77-F ) :   1.1343 B( 76-C , 95-H ) :   1.0066
B( 79-C , 80-C ) :   1.4603 B( 79-C , 96-H ) :   0.9940 B( 80-C , 81-C ) :   1.0015
B( 81-C , 82-C ) :   1.6609 B( 82-C , 83-C ) :   1.1493 B( 82-C , 85-C ) :   1.1331
B( 83-C , 84-N ) :   3.0287 B( 85-C , 86-N ) :   2.9888

-----------------------------------------------------------------------------
         ABSORPTION SPECTRUM VIA TRANSITION ELECTRIC DIPOLE MOMENTS
-----------------------------------------------------------------------------
State   Energy  Wavelength   fosc         T2         TX        TY        TZ
        (cm-1)    (nm)                  (au**2)     (au)      (au)      (au)
-----------------------------------------------------------------------------
   0   10331.7    967.9   0.936309368  29.83468   1.36416   4.36238   2.99056
   1   17911.0    558.3   0.010684269   0.19638  -0.01977   0.44246  -0.01492
   2   18777.5    532.6   0.029956286   0.52520  -0.08975  -0.71890   0.01821
   3   20058.0    498.6   0.274589882   4.50683  -0.66493  -0.58664  -1.92887
   4   20293.0    492.8   0.860878192  13.96599  -0.80708  -1.74035  -3.20715
   5   21177.4    472.2   0.497979907   7.74131  -0.55942  -1.85301  -1.99868
   6   23486.0    425.8   0.036535021   0.51213  -0.03126  -0.14355  -0.70039
   7   24905.5    401.5   0.002593553   0.03428  -0.07238  -0.12510   0.11574
   8   25344.0    394.6   0.057454946   0.74632   0.26088   0.62065   0.54135
   9   25570.2    391.1   0.009172315   0.11809   0.23274  -0.04139  -0.24942
  10   25966.9    385.1   0.120973807   1.53372  -0.69173   0.17996  -1.01136
  11   26541.1    376.8   0.005009936   0.06214   0.00924   0.24866  -0.01498
  12   27009.6    370.2   0.127652585   1.55592   0.30355   1.17859  -0.27330
  13   27190.5    367.8   0.021294426   0.25782   0.07608   0.19754  -0.46154
  14   27753.3    360.3   0.046837399   0.55559  -0.17031  -0.61940   0.37805
  15   27924.0    358.1   0.021493572   0.25340  -0.10914   0.29792  -0.39081
  16   27960.4    357.6   0.000715044   0.00842  -0.09071   0.01227  -0.00640
  17   28129.8    355.5   0.007396782   0.08657  -0.18712   0.07102  -0.21566
  18   28610.1    349.5   0.044326960   0.51006   0.12649  -0.51500  -0.47837
  19   28869.9    346.4   0.025501520   0.29080  -0.07260   0.30907  -0.43590
  20   28899.6    346.0   0.077611897   0.88412   0.02699   0.41122  -0.84516
  21   28993.0    344.9   0.003689249   0.04189  -0.11435   0.07956  -0.14995
  22   29416.2    339.9   0.004255031   0.04762   0.19096   0.09608  -0.04388
  23   29516.4    338.8   0.062009174   0.69162  -0.16186  -0.53538  -0.61546
  24   30084.7    332.4   0.229270103   2.50886  -1.15234  -0.99161  -0.44462
  25   30332.0    329.7   0.666612479   7.23515   1.11729   0.06788   2.44585
  26   30899.8    323.6   0.197719776   2.10654  -0.01727   0.46617  -1.37438
  27   31760.8    314.9   0.179977080   1.86553   0.30683   0.21933  -1.31274
  28   31884.8    313.6   0.194831028   2.01164   0.31661   0.26608  -1.35669
  29   32007.9    312.4   0.240456054   2.47317   0.14934   0.70019  -1.40022
  30   32318.8    309.4   0.095408518   0.97187  -0.20263  -0.91424   0.30816
  31   32570.9    307.0   0.177687097   1.79598  -0.06741  -1.20831  -0.57570
  32   33459.7    298.9   0.109270403   1.07512   0.34340   0.97551  -0.07464
  33   33820.0    295.7   0.052263110   0.50874   0.59505  -0.26249  -0.29285
  34   34010.6    294.0   0.054536792   0.52790  -0.56013  -0.01805  -0.46242
  35   34150.8    292.8   0.091710746   0.88409  -0.67873  -0.47114  -0.44882
  36   34444.9    290.3   0.064024369   0.61192  -0.52236   0.04547  -0.58052
  37   34559.3    289.4   0.240251501   2.28864   0.09960  -1.03386   1.09993
  38   34765.8    287.6   0.053879595   0.51021  -0.01170   0.43432  -0.56696
  39   34862.4    286.8   0.563142774   5.31786  -0.11332  -1.27828   1.91599
  40   35025.0    285.5   0.026037952   0.24474   0.07665  -0.22790   0.43235
  41   35184.8    284.2   0.296747880   2.77657   0.82990  -0.86388   1.15825
  42   35397.5    282.5   0.350856025   3.26311   1.59039   0.36145   0.77662
  43   35536.1    281.4   0.159956764   1.48187  -0.37078  -0.13180  -1.15196
  44   35558.0    281.2   0.072018856   0.66678   0.29103  -0.10146   0.75617
  45   35890.1    278.6   0.000994515   0.00912  -0.06163   0.06995   0.02076
  46   35988.8    277.9   0.042937479   0.39278  -0.13734  -0.21151  -0.57374
  47   36257.1    275.8   0.026128882   0.23725  -0.41048   0.14873  -0.21595
  48   36532.2    273.7   0.032208250   0.29025   0.08146   0.32955  -0.41834
  49   36671.9    272.7   0.080802276   0.72538   0.01680   0.10589   0.84492
  50   37056.9    269.9   0.003624986   0.03220  -0.00751  -0.13642   0.11635
  51   37154.6    269.1   0.034025348   0.30149  -0.09841  -0.47542   0.25647
  52   37183.0    268.9   0.061789436   0.54707  -0.33535  -0.24717  -0.61116
  53   37577.3    266.1   0.037731104   0.33056  -0.09819   0.49564  -0.27433
  54   38099.0    262.5   0.008914434   0.07703   0.03491   0.18752  -0.20161
  55   38169.3    262.0   0.043119451   0.37191  -0.04005   0.58510   0.16721
  56   38421.7    260.3   0.031149227   0.26690   0.28949   0.18625   0.38524
  57   38660.9    258.7   0.037629472   0.32043  -0.09618  -0.30101  -0.46965
  58   38824.2    257.6   0.040424118   0.34278   0.13139   0.50845   0.25883
  59   39173.9    255.3   0.116713887   0.98085  -0.09431   0.39481   0.90337
  60   39408.2    253.8   0.018291273   0.15280  -0.03891   0.02916   0.38786
  61   39438.1    253.6   0.076504317   0.63862   0.03792   0.06027   0.79596
  62   39721.5    251.8   0.078359409   0.64944   0.18845   0.67440  -0.39890
  63   39759.0    251.5   0.024342413   0.20156   0.04375   0.23684   0.37888
  64   40056.8    249.6   0.030032276   0.24682   0.12312  -0.06003  -0.47756
  65   40293.1    248.2   0.032572221   0.26613   0.24930   0.44362   0.08474

FINAL SINGLE POINT ENERGY     -6570.856226201406

DIPOLE MOMENT
-------------
                                X             Y             Z
Electronic contribution:      2.99601      -0.96461      -2.40311
Nuclear contribution   :     -4.01053       0.16280       0.84203
                        -----------------------------------------
Total Dipole Moment    :     -1.01452      -0.80182      -1.56108
                        -----------------------------------------
Magnitude (a.u.)       :      2.02710
Magnitude (Debye)      :      5.15248

Rotational constants in cm-1:     0.001389     0.000138     0.000129
Rotational constants in MHz :    41.628612     4.140517     3.857337

                             ****ORCA TERMINATED NORMALLY****
TOTAL RUN TIME: 0 days 0 hours 11 minutes 59 seconds 211 msec
