                         Program Version 4.2.0 -  RELEASE  -
|  1> # ORCA input file
|  2> # SCF done       -198.311134346443          0.000453932465
|  3> ! CAM-B3LYP def2-SVP def2/J RIJCOSX Grid4 TightSCF
|  4> %maxcore 5000
|  5> %tddft
|  6>     Mode sTDDFT
|  7>     Ethresh 5.0
|  8>     maxcore 5000
|  9> end
| 10>
| 11> %pal
| 12>   nprocs 6
| 13>   end
| 14> * xyz 0 1
| 15>    C      -11.37045        -3.43980        -5.38599
| 16>    C      -11.86264        -4.10332        -6.47497
| 17>    F      -12.79523        -3.53023        -7.24790
| 18>    C      -11.39890        -5.39374        -6.79857
| 19>    F      -11.89984        -6.02153        -7.87177
| 20>    C      -10.44831        -6.00332        -6.02842
| 21>    C       -9.92238        -5.34561        -4.89991
| 22>    C      -10.39055        -4.04083        -4.57099
| 23>    C       -9.87866        -3.36118        -3.44086
| 24>    C       -8.92913        -3.96850        -2.66301
| 25>    C       -8.46856        -5.27178        -3.00108
| 26>    C       -8.94094        -5.95276        -4.08479
| 27>    C       -7.46142        -5.69546        -2.01278
| 28>    O       -6.86507        -6.75870        -1.99939
| 29>    C       -7.33634        -4.59329        -1.05720
| 30>    C       -8.23109        -3.52738        -1.45527
| 31>    C       -8.41402        -2.31609        -0.83744
| 32>    C       -7.74860        -1.87374         0.32472
| 33>    N       -7.25219        -1.43576         1.26367
| 34>    C       -9.31237        -1.32761        -1.29062
| 35>    N      -10.02567        -0.48364        -1.60250
| 36>    C       -6.51638        -4.59936         0.04629
| 37>    C       -5.63540        -5.58365         0.50107
| 38>    C       -4.88731        -5.44583         1.67391
| 39>    S       -4.74844        -4.16054         2.81182
| 40>    C       -3.56723        -5.08818         3.73074
| 41>    C       -2.97826        -4.48386         4.95145
| 42>    C       -3.31662        -6.30315         3.19117
| 43>    C       -4.06943        -6.54608         2.00835
| 44>    C       -4.16699        -7.55626         1.05284
| 45>    S       -5.26447        -7.13391        -0.22649
| 46>    C       -3.53000        -8.84109         1.06618
| 47>    C       -3.18952        -9.53019        -0.09430
| 48>    F       -3.40214        -8.95821        -1.28979
| 49>    C       -2.59404       -10.79817        -0.10763
| 50>    F       -2.33147       -11.32635        -1.31405
| 51>    C       -2.31556       -11.52367         1.04526
| 52>    C       -2.70070       -10.86686         2.23950
| 53>    C       -3.25647        -9.55487         2.25787
| 54>    N       -3.49443        -9.25020         3.54168
| 55>    N       -3.10430       -10.29804         4.20964
| 56>    N       -2.62659       -11.28829         3.50808
| 57>    C       -3.23464       -10.36568         5.63160
| 58>    C       -1.69768       -12.81155         1.10294
| 59>    C       -0.90001       -13.50203         0.20820
| 60>    S       -0.26342       -13.15741        -1.36574
| 61>    C        0.60730       -14.67584        -1.36921
| 62>    C        1.43487       -15.02771        -2.54802
| 63>    C        0.42269       -15.39954        -0.23429
| 64>    C       -0.42918       -14.75318         0.69109
| 65>    C       -0.85906       -15.03193         1.99189
| 66>    S       -1.86958       -13.72668         2.56975
| 67>    C       -0.60881       -16.19878         2.72781
| 68>    C       -0.84718       -16.43322         4.05708
| 69>    C       -1.05143       -17.81786         4.54307
| 70>    O       -0.78037       -18.84641         3.96550
| 71>    C       -1.72221       -17.66629         5.85546
| 72>    C       -2.23500       -18.62854         6.67502
| 73>    C       -2.86708       -18.24089         7.87912
| 74>    C       -2.95233       -16.85793         8.21240
| 75>    C       -3.58928       -16.48052         9.41129
| 76>    C       -4.11529       -17.43031        10.24137
| 77>    C       -4.02946       -18.79718         9.91173
| 78>    C       -3.41793       -19.19528         8.75580
| 79>    F       -4.55542       -19.70723        10.74339
| 80>    F       -4.72067       -17.06706        11.38072
| 81>    C       -2.40016       -15.88336         7.34921
| 82>    C       -1.79566       -16.28314         6.18880
| 83>    C       -1.11584       -15.52528         5.14329
| 84>    C       -0.59726       -14.26059         5.28485
| 85>    C        0.36928       -13.73264         4.40343
| 86>    N        1.20605       -13.30514         3.74385
| 87>    C       -0.94591       -13.36696         6.30709
| 88>    N       -1.25530       -12.55755         7.06364
| 89>    H      -11.73664        -2.45222        -5.15259
| 90>    H      -10.10309        -6.99153        -6.28917
| 91>    H      -10.25546        -2.37564        -3.22101
| 92>    H       -8.57170        -6.94027        -4.31603
| 93>    H       -6.54082        -3.72600         0.68833
| 94>    H       -2.48458        -3.54282         4.71089
| 95>    H       -2.25201        -5.16163         5.39272
| 96>    H       -3.75532        -4.27020         5.68484
| 97>    H       -2.62833        -7.01035         3.61211
| 98>    H       -3.22738        -9.35285         6.02757
| 99>    H       -2.41621       -10.95387         6.04901
|100>    H       -4.17872       -10.84594         5.89558
|101>    H        2.23140       -14.29632        -2.68347
|102>    H        0.82882       -15.02493        -3.45342
|103>    H        1.87793       -16.01190        -2.41935
|104>    H        0.88211       -16.35490        -0.05824
|105>    H       -0.27410       -17.05870         2.15645
|106>    H       -2.16134       -19.67244         6.41084
|107>    H       -3.66126       -15.43836         9.68071
|108>    H       -3.36070       -20.24589         8.51780
|109>    H       -2.47788       -14.84186         7.61981
|110> *
|111>
|112>                          ****END OF INPUT****

CARTESIAN COORDINATES (ANGSTROEM)
---------------------------------
  C    -11.370450   -3.439800   -5.385990
  C    -11.862640   -4.103320   -6.474970
  F    -12.795230   -3.530230   -7.247900
  C    -11.398900   -5.393740   -6.798570
  F    -11.899840   -6.021530   -7.871770
  C    -10.448310   -6.003320   -6.028420
  C     -9.922380   -5.345610   -4.899910
  C    -10.390550   -4.040830   -4.570990
  C     -9.878660   -3.361180   -3.440860
  C     -8.929130   -3.968500   -2.663010
  C     -8.468560   -5.271780   -3.001080
  C     -8.940940   -5.952760   -4.084790
  C     -7.461420   -5.695460   -2.012780
  O     -6.865070   -6.758700   -1.999390
  C     -7.336340   -4.593290   -1.057200
  C     -8.231090   -3.527380   -1.455270
  C     -8.414020   -2.316090   -0.837440
  C     -7.748600   -1.873740    0.324720
  N     -7.252190   -1.435760    1.263670
  C     -9.312370   -1.327610   -1.290620
  N    -10.025670   -0.483640   -1.602500
  C     -6.516380   -4.599360    0.046290
  C     -5.635400   -5.583650    0.501070
  C     -4.887310   -5.445830    1.673910
  S     -4.748440   -4.160540    2.811820
  C     -3.567230   -5.088180    3.730740
  C     -2.978260   -4.483860    4.951450
  C     -3.316620   -6.303150    3.191170
  C     -4.069430   -6.546080    2.008350
  C     -4.166990   -7.556260    1.052840
  S     -5.264470   -7.133910   -0.226490
  C     -3.530000   -8.841090    1.066180
  C     -3.189520   -9.530190   -0.094300
  F     -3.402140   -8.958210   -1.289790
  C     -2.594040  -10.798170   -0.107630
  F     -2.331470  -11.326350   -1.314050
  C     -2.315560  -11.523670    1.045260
  C     -2.700700  -10.866860    2.239500
  C     -3.256470   -9.554870    2.257870
  N     -3.494430   -9.250200    3.541680
  N     -3.104300  -10.298040    4.209640
  N     -2.626590  -11.288290    3.508080
  C     -3.234640  -10.365680    5.631600
  C     -1.697680  -12.811550    1.102940
  C     -0.900010  -13.502030    0.208200
  S     -0.263420  -13.157410   -1.365740
  C      0.607300  -14.675840   -1.369210
  C      1.434870  -15.027710   -2.548020
  C      0.422690  -15.399540   -0.234290
  C     -0.429180  -14.753180    0.691090
  C     -0.859060  -15.031930    1.991890
  S     -1.869580  -13.726680    2.569750
  C     -0.608810  -16.198780    2.727810
  C     -0.847180  -16.433220    4.057080
  C     -1.051430  -17.817860    4.543070
  O     -0.780370  -18.846410    3.965500
  C     -1.722210  -17.666290    5.855460
  C     -2.235000  -18.628540    6.675020
  C     -2.867080  -18.240890    7.879120
  C     -2.952330  -16.857930    8.212400
  C     -3.589280  -16.480520    9.411290
  C     -4.115290  -17.430310   10.241370
  C     -4.029460  -18.797180    9.911730
  C     -3.417930  -19.195280    8.755800
  F     -4.555420  -19.707230   10.743390
  F     -4.720670  -17.067060   11.380720
  C     -2.400160  -15.883360    7.349210
  C     -1.795660  -16.283140    6.188800
  C     -1.115840  -15.525280    5.143290
  C     -0.597260  -14.260590    5.284850
  C      0.369280  -13.732640    4.403430
  N      1.206050  -13.305140    3.743850
  C     -0.945910  -13.366960    6.307090
  N     -1.255300  -12.557550    7.063640
  H    -11.736640   -2.452220   -5.152590
  H    -10.103090   -6.991530   -6.289170
  H    -10.255460   -2.375640   -3.221010
  H     -8.571700   -6.940270   -4.316030
  H     -6.540820   -3.726000    0.688330
  H     -2.484580   -3.542820    4.710890
  H     -2.252010   -5.161630    5.392720
  H     -3.755320   -4.270200    5.684840
  H     -2.628330   -7.010350    3.612110
  H     -3.227380   -9.352850    6.027570
  H     -2.416210  -10.953870    6.049010
  H     -4.178720  -10.845940    5.895580
  H      2.231400  -14.296320   -2.683470
  H      0.828820  -15.024930   -3.453420
  H      1.877930  -16.011900   -2.419350
  H      0.882110  -16.354900   -0.058240
  H     -0.274100  -17.058700    2.156450
  H     -2.161340  -19.672440    6.410840
  H     -3.661260  -15.438360    9.680710
  H     -3.360700  -20.245890    8.517800
  H     -2.477880  -14.841860    7.619810

 Total Charge           Charge          ....    0
 Multiplicity           Mult            ....    1
 Number of Electrons    NEL             ....  534
 Basis Dimension        Dim             .... 1157

ORBITAL ENERGIES
----------------

  NO   OCC          E(Eh)            E(eV)
   0   2.0000     -88.972188     -2421.0563
   1   2.0000     -88.968757     -2420.9630
   2   2.0000     -88.961192     -2420.7571
   3   2.0000     -88.958343     -2420.6796
   4   2.0000     -24.812661      -675.1868
   5   2.0000     -24.805954      -675.0043
   6   2.0000     -24.798288      -674.7957
   7   2.0000     -24.798038      -674.7889
   8   2.0000     -24.796241      -674.7400
   9   2.0000     -24.795233      -674.7126
  10   2.0000     -19.219510      -522.9894
  11   2.0000     -19.211575      -522.7735
  12   2.0000     -14.558994      -396.1704
  13   2.0000     -14.460873      -393.5004
  14   2.0000     -14.460056      -393.4781
  15   2.0000     -14.423213      -392.4756
  16   2.0000     -14.414617      -392.2417
  17   2.0000     -14.411479      -392.1563
  18   2.0000     -14.409932      -392.1142
  19   2.0000     -10.392718      -282.8002
  20   2.0000     -10.389173      -282.7038
  21   2.0000     -10.381206      -282.4870
  22   2.0000     -10.380879      -282.4781
  23   2.0000     -10.379113      -282.4300
  24   2.0000     -10.378362      -282.4096
  25   2.0000     -10.367369      -282.1104
  26   2.0000     -10.364100      -282.0215
  27   2.0000     -10.340824      -281.3881
  28   2.0000     -10.339702      -281.3576
  29   2.0000     -10.339368      -281.3485
  30   2.0000     -10.339191      -281.3437
  31   2.0000     -10.338017      -281.3117
  32   2.0000     -10.328955      -281.0652
  33   2.0000     -10.328790      -281.0607
  34   2.0000     -10.328678      -281.0576
  35   2.0000     -10.328461      -281.0517
  36   2.0000     -10.326466      -280.9974
  37   2.0000     -10.324150      -280.9344
  38   2.0000     -10.323285      -280.9109
  39   2.0000     -10.322149      -280.8800
  40   2.0000     -10.321981      -280.8754
  41   2.0000     -10.321254      -280.8556
  42   2.0000     -10.318310      -280.7755
  43   2.0000     -10.317493      -280.7533
  44   2.0000     -10.316932      -280.7380
  45   2.0000     -10.315392      -280.6961
  46   2.0000     -10.314987      -280.6851
  47   2.0000     -10.314695      -280.6771
  48   2.0000     -10.312965      -280.6301
  49   2.0000     -10.310660      -280.5673
  50   2.0000     -10.310590      -280.5654
  51   2.0000     -10.309864      -280.5457
  52   2.0000     -10.307923      -280.4929
  53   2.0000     -10.307607      -280.4842
  54   2.0000     -10.307279      -280.4753
  55   2.0000     -10.304482      -280.3992
  56   2.0000     -10.304436      -280.3980
  57   2.0000     -10.302497      -280.3452
  58   2.0000     -10.301504      -280.3182
  59   2.0000     -10.301071      -280.3064
  60   2.0000     -10.300937      -280.3027
  61   2.0000     -10.300059      -280.2788
  62   2.0000     -10.299328      -280.2590
  63   2.0000     -10.299052      -280.2515
  64   2.0000     -10.298149      -280.2269
  65   2.0000     -10.294701      -280.1331
  66   2.0000     -10.292728      -280.0794
  67   2.0000     -10.292514      -280.0736
  68   2.0000     -10.292145      -280.0635
  69   2.0000     -10.290600      -280.0215
  70   2.0000     -10.287849      -279.9466
  71   2.0000     -10.284220      -279.8479
  72   2.0000     -10.281340      -279.7695
  73   2.0000     -10.275291      -279.6049
  74   2.0000      -8.066015      -219.4874
  75   2.0000      -8.061478      -219.3640
  76   2.0000      -8.056929      -219.2402
  77   2.0000      -8.054191      -219.1657
  78   2.0000      -6.035562      -164.2360
  79   2.0000      -6.031052      -164.1133
  80   2.0000      -6.031035      -164.1128
  81   2.0000      -6.027935      -164.0284
  82   2.0000      -6.026692      -163.9946
  83   2.0000      -6.026281      -163.9834
  84   2.0000      -6.023852      -163.9174
  85   2.0000      -6.023583      -163.9100
  86   2.0000      -6.022345      -163.8763
  87   2.0000      -6.019541      -163.8000
  88   2.0000      -6.018102      -163.7609
  89   2.0000      -6.015615      -163.6932
  90   2.0000      -1.333984       -36.2996
  91   2.0000      -1.320811       -35.9411
  92   2.0000      -1.318495       -35.8781
  93   2.0000      -1.314956       -35.7818
  94   2.0000      -1.306019       -35.5386
  95   2.0000      -1.303633       -35.4737
  96   2.0000      -1.238144       -33.6916
  97   2.0000      -1.135077       -30.8870
  98   2.0000      -1.126767       -30.6609
  99   2.0000      -1.027771       -27.9671
 100   2.0000      -1.020637       -27.7730
 101   2.0000      -1.019849       -27.7515
 102   2.0000      -1.016919       -27.6718
 103   2.0000      -1.009678       -27.4747
 104   2.0000      -1.005397       -27.3582
 105   2.0000      -1.002359       -27.2756
 106   2.0000      -1.002196       -27.2711
 107   2.0000      -0.994307       -27.0565
 108   2.0000      -0.991650       -26.9842
 109   2.0000      -0.980702       -26.6862
 110   2.0000      -0.979261       -26.6471
 111   2.0000      -0.961255       -26.1571
 112   2.0000      -0.955295       -25.9949
 113   2.0000      -0.941675       -25.6243
 114   2.0000      -0.933348       -25.3977
 115   2.0000      -0.929390       -25.2900
 116   2.0000      -0.919181       -25.0122
 117   2.0000      -0.906885       -24.6776
 118   2.0000      -0.898130       -24.4394
 119   2.0000      -0.893101       -24.3025
 120   2.0000      -0.890368       -24.2281
 121   2.0000      -0.886355       -24.1189
 122   2.0000      -0.874989       -23.8097
 123   2.0000      -0.861155       -23.4332
 124   2.0000      -0.856063       -23.2947
 125   2.0000      -0.851541       -23.1716
 126   2.0000      -0.844791       -22.9879
 127   2.0000      -0.840270       -22.8649
 128   2.0000      -0.837970       -22.8023
 129   2.0000      -0.830526       -22.5998
 130   2.0000      -0.816338       -22.2137
 131   2.0000      -0.813090       -22.1253
 132   2.0000      -0.796536       -21.6748
 133   2.0000      -0.787878       -21.4393
 134   2.0000      -0.780948       -21.2507
 135   2.0000      -0.769820       -20.9479
 136   2.0000      -0.765777       -20.8379
 137   2.0000      -0.763952       -20.7882
 138   2.0000      -0.754041       -20.5185
 139   2.0000      -0.751984       -20.4625
 140   2.0000      -0.736609       -20.0442
 141   2.0000      -0.734154       -19.9773
 142   2.0000      -0.720005       -19.5923
 143   2.0000      -0.717576       -19.5262
 144   2.0000      -0.713257       -19.4087
 145   2.0000      -0.708581       -19.2815
 146   2.0000      -0.691793       -18.8247
 147   2.0000      -0.684724       -18.6323
 148   2.0000      -0.682621       -18.5751
 149   2.0000      -0.676027       -18.3956
 150   2.0000      -0.670660       -18.2496
 151   2.0000      -0.662989       -18.0408
 152   2.0000      -0.660352       -17.9691
 153   2.0000      -0.654900       -17.8207
 154   2.0000      -0.652179       -17.7467
 155   2.0000      -0.645102       -17.5541
 156   2.0000      -0.641698       -17.4615
 157   2.0000      -0.641463       -17.4551
 158   2.0000      -0.639988       -17.4150
 159   2.0000      -0.637185       -17.3387
 160   2.0000      -0.632731       -17.2175
 161   2.0000      -0.630444       -17.1553
 162   2.0000      -0.625262       -17.0142
 163   2.0000      -0.620125       -16.8745
 164   2.0000      -0.619070       -16.8458
 165   2.0000      -0.613919       -16.7056
 166   2.0000      -0.610100       -16.6017
 167   2.0000      -0.602724       -16.4009
 168   2.0000      -0.595981       -16.2175
 169   2.0000      -0.594964       -16.1898
 170   2.0000      -0.587846       -15.9961
 171   2.0000      -0.585911       -15.9435
 172   2.0000      -0.585533       -15.9332
 173   2.0000      -0.583196       -15.8696
 174   2.0000      -0.579800       -15.7772
 175   2.0000      -0.576015       -15.6742
 176   2.0000      -0.572581       -15.5807
 177   2.0000      -0.569094       -15.4858
 178   2.0000      -0.562938       -15.3183
 179   2.0000      -0.557397       -15.1675
 180   2.0000      -0.554607       -15.0916
 181   2.0000      -0.552482       -15.0338
 182   2.0000      -0.550152       -14.9704
 183   2.0000      -0.547262       -14.8918
 184   2.0000      -0.544887       -14.8271
 185   2.0000      -0.543864       -14.7993
 186   2.0000      -0.541615       -14.7381
 187   2.0000      -0.539712       -14.6863
 188   2.0000      -0.535066       -14.5599
 189   2.0000      -0.533698       -14.5227
 190   2.0000      -0.532244       -14.4831
 191   2.0000      -0.530956       -14.4481
 192   2.0000      -0.528337       -14.3768
 193   2.0000      -0.526358       -14.3229
 194   2.0000      -0.524022       -14.2594
 195   2.0000      -0.521355       -14.1868
 196   2.0000      -0.520013       -14.1503
 197   2.0000      -0.518422       -14.1070
 198   2.0000      -0.516444       -14.0531
 199   2.0000      -0.514561       -14.0019
 200   2.0000      -0.513564       -13.9748
 201   2.0000      -0.511741       -13.9252
 202   2.0000      -0.508335       -13.8325
 203   2.0000      -0.505625       -13.7587
 204   2.0000      -0.504608       -13.7311
 205   2.0000      -0.502992       -13.6871
 206   2.0000      -0.499485       -13.5917
 207   2.0000      -0.496434       -13.5087
 208   2.0000      -0.495146       -13.4736
 209   2.0000      -0.492753       -13.4085
 210   2.0000      -0.490043       -13.3348
 211   2.0000      -0.489916       -13.3313
 212   2.0000      -0.484211       -13.1761
 213   2.0000      -0.483298       -13.1512
 214   2.0000      -0.481566       -13.1041
 215   2.0000      -0.478409       -13.0182
 216   2.0000      -0.469145       -12.7661
 217   2.0000      -0.468789       -12.7564
 218   2.0000      -0.464360       -12.6359
 219   2.0000      -0.463425       -12.6104
 220   2.0000      -0.462640       -12.5891
 221   2.0000      -0.460652       -12.5350
 222   2.0000      -0.459195       -12.4953
 223   2.0000      -0.457519       -12.4497
 224   2.0000      -0.448323       -12.1995
 225   2.0000      -0.447831       -12.1861
 226   2.0000      -0.446946       -12.1620
 227   2.0000      -0.444646       -12.0994
 228   2.0000      -0.441818       -12.0225
 229   2.0000      -0.441364       -12.0101
 230   2.0000      -0.438504       -11.9323
 231   2.0000      -0.437248       -11.8981
 232   2.0000      -0.433178       -11.7874
 233   2.0000      -0.429610       -11.6903
 234   2.0000      -0.427677       -11.6377
 235   2.0000      -0.426434       -11.6039
 236   2.0000      -0.425977       -11.5914
 237   2.0000      -0.424752       -11.5581
 238   2.0000      -0.423034       -11.5113
 239   2.0000      -0.421836       -11.4787
 240   2.0000      -0.419858       -11.4249
 241   2.0000      -0.419423       -11.4131
 242   2.0000      -0.408714       -11.1217
 243   2.0000      -0.406383       -11.0582
 244   2.0000      -0.405228       -11.0268
 245   2.0000      -0.400936       -10.9100
 246   2.0000      -0.395639       -10.7659
 247   2.0000      -0.391610       -10.6563
 248   2.0000      -0.387262       -10.5379
 249   2.0000      -0.385656       -10.4942
 250   2.0000      -0.381466       -10.3802
 251   2.0000      -0.372226       -10.1288
 252   2.0000      -0.366782        -9.9807
 253   2.0000      -0.340590        -9.2679
 254   2.0000      -0.335905        -9.1404
 255   2.0000      -0.334653        -9.1064
 256   2.0000      -0.330602        -8.9961
 257   2.0000      -0.329574        -8.9682
 258   2.0000      -0.323757        -8.8099
 259   2.0000      -0.316841        -8.6217
 260   2.0000      -0.315675        -8.5899
 261   2.0000      -0.306692        -8.3455
 262   2.0000      -0.302291        -8.2258
 263   2.0000      -0.299797        -8.1579
 264   2.0000      -0.297974        -8.1083
 265   2.0000      -0.271410        -7.3854
 266   2.0000      -0.250246        -6.8095
 267   0.0000      -0.111502        -3.0341
 268   0.0000      -0.091332        -2.4853
 269   0.0000      -0.063141        -1.7182
 270   0.0000      -0.057467        -1.5638
 271   0.0000      -0.049984        -1.3601

MULLIKEN ATOMIC CHARGES
-----------------------
   0 C :   -0.106319
   1 C :    0.238835
   2 F :   -0.172514
   3 C :    0.237964
   4 F :   -0.173063
   5 C :   -0.103361
   6 C :    0.114937
   7 C :    0.112860
   8 C :   -0.083290
   9 C :    0.044518
  10 C :   -0.001285
  11 C :   -0.082183
  12 C :    0.170362
  13 O :   -0.183406
  14 C :   -0.104828
  15 C :    0.340420
  16 C :   -0.357275
  17 C :   -0.190769
  18 N :    0.146186
  19 C :   -0.185303
  20 N :    0.141612
  21 C :   -0.051497
  22 C :   -0.094351
  23 C :   -0.062678
  24 S :    0.139379
  25 C :   -0.209151
  26 C :    0.121607
  27 C :    0.019417
  28 C :    0.154794
  29 C :   -0.156505
  30 S :    0.235293
  31 C :    0.000502
  32 C :    0.150952
  33 F :   -0.162261
  34 C :    0.128158
  35 F :   -0.166580
  36 C :    0.076680
  37 C :   -0.056797
  38 C :   -0.013349
  39 N :   -0.052094
  40 N :   -0.065219
  41 N :   -0.073742
  42 C :    0.148019
  43 C :   -0.167951
  44 C :   -0.034656
  45 S :    0.148082
  46 C :   -0.195340
  47 C :    0.112141
  48 C :   -0.003504
  49 C :    0.162721
  50 C :   -0.122653
  51 S :    0.184143
  52 C :    0.033631
  53 C :   -0.144522
  54 C :    0.144261
  55 O :   -0.148255
  56 C :    0.009160
  57 C :   -0.089478
  58 C :    0.115901
  59 C :    0.120114
  60 C :   -0.113530
  61 C :    0.243136
  62 C :    0.241149
  63 C :   -0.110428
  64 F :   -0.172418
  65 F :   -0.173331
  66 C :   -0.093842
  67 C :    0.049399
  68 C :    0.252985
  69 C :   -0.324862
  70 C :   -0.215678
  71 N :    0.164201
  72 C :   -0.094789
  73 N :    0.080551
  74 H :    0.006620
  75 H :   -0.002434
  76 H :   -0.008040
  77 H :   -0.012191
  78 H :    0.011081
  79 H :    0.039843
  80 H :    0.023930
  81 H :    0.039443
  82 H :   -0.025144
  83 H :    0.048020
  84 H :    0.055187
  85 H :    0.051839
  86 H :    0.046566
  87 H :    0.042485
  88 H :    0.028022
  89 H :   -0.015485
  90 H :    0.018411
  91 H :   -0.009583
  92 H :    0.001467
  93 H :   -0.000156
  94 H :   -0.010894
Sum of atomic charges:   -0.0000000

LOEWDIN ATOMIC CHARGES
----------------------
   0 C :   -0.029059
   1 C :    0.065682
   2 F :   -0.050066
   3 C :    0.066741
   4 F :   -0.050754
   5 C :   -0.033596
   6 C :   -0.009468
   7 C :   -0.007192
   8 C :    0.016968
   9 C :   -0.021391
  10 C :   -0.050667
  11 C :    0.028190
  12 C :    0.083673
  13 O :   -0.168751
  14 C :   -0.112805
  15 C :    0.076139
  16 C :   -0.145938
  17 C :   -0.022362
  18 N :   -0.054906
  19 C :   -0.017369
  20 N :   -0.058719
  21 C :    0.055546
  22 C :   -0.207870
  23 C :   -0.160653
  24 S :    0.415915
  25 C :   -0.144316
  26 C :   -0.058526
  27 C :   -0.062556
  28 C :   -0.068116
  29 C :   -0.155958
  30 S :    0.534768
  31 C :   -0.063052
  32 C :    0.064157
  33 F :   -0.044518
  34 C :    0.068371
  35 F :   -0.044215
  36 C :   -0.071355
  37 C :   -0.050932
  38 C :   -0.045859
  39 N :   -0.074543
  40 N :    0.166076
  41 N :   -0.101155
  42 C :    0.030397
  43 C :   -0.150254
  44 C :   -0.190416
  45 S :    0.414107
  46 C :   -0.127646
  47 C :   -0.058067
  48 C :   -0.074477
  49 C :   -0.027575
  50 C :   -0.195600
  51 S :    0.527707
  52 C :    0.059920
  53 C :   -0.113213
  54 C :    0.080822
  55 O :   -0.150345
  56 C :   -0.050873
  57 C :    0.027910
  58 C :   -0.009869
  59 C :   -0.006768
  60 C :   -0.032828
  61 C :    0.066078
  62 C :    0.065749
  63 C :   -0.032892
  64 F :   -0.050550
  65 F :   -0.050831
  66 C :    0.007617
  67 C :   -0.017798
  68 C :    0.063618
  69 C :   -0.157781
  70 C :   -0.038598
  71 N :   -0.053090
  72 C :    0.003601
  73 N :   -0.078655
  74 H :    0.047500
  75 H :    0.044130
  76 H :    0.039699
  77 H :    0.039639
  78 H :    0.046005
  79 H :    0.040876
  80 H :    0.039782
  81 H :    0.040738
  82 H :    0.025629
  83 H :    0.041505
  84 H :    0.039802
  85 H :    0.041663
  86 H :    0.044750
  87 H :    0.042844
  88 H :    0.041410
  89 H :    0.032139
  90 H :    0.049499
  91 H :    0.040313
  92 H :    0.045260
  93 H :    0.044798
  94 H :    0.037061

  Mayer bond orders larger than 0.100000
B(  0-C ,  1-C ) :   1.4393 B(  0-C ,  5-C ) :   0.1086 B(  0-C ,  7-C ) :   1.1911
B(  0-C , 74-H ) :   1.0061 B(  1-C ,  2-F ) :   1.1331 B(  1-C ,  3-C ) :   1.1946
B(  3-C ,  4-F ) :   1.1320 B(  3-C ,  5-C ) :   1.4415 B(  5-C ,  6-C ) :   1.1942
B(  5-C , 75-H ) :   1.0065 B(  6-C ,  7-C ) :   1.2575 B(  6-C , 11-C ) :   1.1833
B(  7-C ,  8-C ) :   1.2120 B(  8-C ,  9-C ) :   1.4589 B(  8-C , 76-H ) :   0.9883
B(  9-C , 10-C ) :   1.2217 B(  9-C , 15-C ) :   0.9782 B( 10-C , 11-C ) :   1.4745
B( 10-C , 12-C ) :   0.9523 B( 11-C , 77-H ) :   1.0164 B( 12-C , 13-O ) :   2.1212
B( 12-C , 14-C ) :   0.9865 B( 14-C , 15-C ) :   1.0908 B( 14-C , 21-C ) :   1.4823
B( 15-C , 16-C ) :   1.6095 B( 16-C , 17-C ) :   1.1477 B( 16-C , 19-C ) :   1.1520
B( 17-C , 18-N ) :   2.9563 B( 19-C , 20-N ) :   2.9562 B( 21-C , 22-C ) :   1.2995
B( 21-C , 78-H ) :   0.9406 B( 22-C , 23-C ) :   1.3607 B( 22-C , 30-S ) :   1.0835
B( 23-C , 24-S ) :   1.1027 B( 23-C , 28-C ) :   1.2794 B( 24-S , 25-C ) :   1.0604
B( 25-C , 26-C ) :   1.0701 B( 25-C , 27-C ) :   1.6820 B( 26-C , 79-H ) :   0.9483
B( 26-C , 80-H ) :   0.9564 B( 26-C , 81-H ) :   0.9475 B( 27-C , 28-C ) :   1.1501
B( 27-C , 82-H ) :   0.9864 B( 28-C , 29-C ) :   1.3593 B( 29-C , 30-S ) :   1.1467
B( 29-C , 31-C ) :   1.0841 B( 31-C , 32-C ) :   1.3843 B( 31-C , 36-C ) :   0.1206
B( 31-C , 38-C ) :   1.1935 B( 32-C , 33-F ) :   1.1667 B( 32-C , 34-C ) :   1.1768
B( 34-C , 35-F ) :   1.1633 B( 34-C , 36-C ) :   1.3529 B( 36-C , 37-C ) :   1.1720
B( 36-C , 43-C ) :   1.1171 B( 37-C , 38-C ) :   1.2229 B( 37-C , 41-N ) :   1.4548
B( 38-C , 39-N ) :   1.4738 B( 39-N , 40-N ) :   1.2385 B( 39-N , 41-N ) :   0.1542
B( 40-N , 41-N ) :   1.2406 B( 40-N , 42-C ) :   0.9414 B( 42-C , 83-H ) :   0.9628
B( 42-C , 84-H ) :   0.9467 B( 42-C , 85-H ) :   0.9648 B( 43-C , 44-C ) :   1.4753
B( 43-C , 51-S ) :   1.1908 B( 44-C , 45-S ) :   1.0478 B( 44-C , 49-C ) :   1.2600
B( 45-S , 46-C ) :   1.0924 B( 46-C , 47-C ) :   1.0724 B( 46-C , 48-C ) :   1.6302
B( 47-C , 86-H ) :   0.9463 B( 47-C , 87-H ) :   0.9472 B( 47-C , 88-H ) :   0.9575
B( 48-C , 49-C ) :   1.1804 B( 48-C , 89-H ) :   0.9927 B( 49-C , 50-C ) :   1.3138
B( 50-C , 51-S ) :   1.0693 B( 50-C , 52-C ) :   1.2240 B( 52-C , 53-C ) :   1.5574
B( 52-C , 90-H ) :   0.9473 B( 53-C , 54-C ) :   0.9567 B( 53-C , 68-C ) :   1.0691
B( 54-C , 55-O ) :   2.2662 B( 54-C , 56-C ) :   0.9120 B( 56-C , 57-C ) :   1.4806
B( 56-C , 67-C ) :   1.2204 B( 57-C , 58-C ) :   1.1874 B( 57-C , 91-H ) :   1.0172
B( 58-C , 59-C ) :   1.2621 B( 58-C , 63-C ) :   1.1934 B( 59-C , 60-C ) :   1.1886
B( 59-C , 66-C ) :   1.2064 B( 60-C , 61-C ) :   1.4390 B( 60-C , 63-C ) :   0.1094
B( 60-C , 92-H ) :   1.0076 B( 61-C , 62-C ) :   1.1946 B( 61-C , 65-F ) :   1.1321
B( 62-C , 63-C ) :   1.4400 B( 62-C , 64-F ) :   1.1332 B( 63-C , 93-H ) :   1.0083
B( 66-C , 67-C ) :   1.4612 B( 66-C , 94-H ) :   0.9949 B( 67-C , 68-C ) :   1.0102
B( 68-C , 69-C ) :   1.6103 B( 69-C , 70-C ) :   1.1475 B( 69-C , 72-C ) :   1.1591
B( 70-C , 71-N ) :   3.0286 B( 72-C , 73-N ) :   2.8237

-----------------------------------------------------------------------------
         ABSORPTION SPECTRUM VIA TRANSITION ELECTRIC DIPOLE MOMENTS
-----------------------------------------------------------------------------
State   Energy  Wavelength   fosc         T2         TX        TY        TZ
        (cm-1)    (nm)                  (au**2)     (au)      (au)      (au)
-----------------------------------------------------------------------------
   0   14704.0    680.1   1.268555547  28.40207  -2.10952   3.89496  -2.96333
   1   18839.5    530.8   0.407880192   7.12752  -2.11680   1.62120   0.13564
   2   21876.0    457.1   0.025692936   0.38665   0.38122  -0.21202   0.44314
   3   24789.1    403.4   0.156307687   2.07585   0.32046  -0.75009  -1.18765
   4   25055.0    399.1   0.086078778   1.13104   0.72941   0.46613  -0.61784
   5   25760.6    388.2   0.005203583   0.06650   0.04445  -0.11283  -0.22758
   6   26046.6    383.9   0.173684172   2.19525  -0.21540   1.29986   0.67766
   7   26459.7    377.9   0.098335226   1.22349   0.42214   0.51592   0.88268
   8   27310.7    366.2   0.113897443   1.37296   0.51165   0.86347  -0.60465
   9   27656.1    361.6   0.147458418   1.75531  -0.61003  -0.71579  -0.93317
  10   27818.9    359.5   0.043621857   0.51623  -0.01984  -0.69640   0.17568
  11   27859.9    358.9   0.118664282   1.40222   0.09847  -0.08501   1.17699
  12   28581.8    349.9   0.107220610   1.23499   0.08010  -0.31716   1.06207
  13   29154.4    343.0   0.045120578   0.50950  -0.35617  -0.57956   0.21622
  14   29598.3    337.9   0.042898636   0.47715   0.23727   0.41587   0.49790
  15   30542.0    327.4   0.201338336   2.17023  -0.68460   1.28042   0.24915
  16   31464.5    317.8   0.036081223   0.37752  -0.39968   0.09487   0.45692
  17   31695.1    315.5   0.181389338   1.88406   0.09260  -0.21504  -1.35250
  18   31913.2    313.4   0.057570625   0.59389   0.16740  -0.64419   0.38844
  19   32274.7    309.8   0.052005271   0.53047   0.17678  -0.56259   0.42745
  20   32599.4    306.8   0.052460330   0.52978   0.61647   0.31279   0.22784
  21   33040.6    302.7   0.016283873   0.16225   0.23976  -0.31744  -0.06322
  22   33175.2    301.4   0.255274993   2.53321  -0.79632  -0.89285   1.04971
  23   33498.6    298.5   0.718874405   7.06484   1.15339   0.91057   2.21481
  24   33898.5    295.0   0.423428523   4.11221   0.61862   0.49455  -1.86680
  25   34000.8    294.1   0.041971270   0.40639  -0.20152  -0.30720   0.52096
  26   34596.6    289.0   0.193945487   1.84553  -0.73098  -1.09334   0.34032
  27   34778.0    287.5   0.040136093   0.37993  -0.16395  -0.13050  -0.57967
  28   35114.6    284.8   0.016842950   0.15791  -0.24000  -0.14626   0.28092
  29   35457.8    282.0   0.020489638   0.19024   0.06668   0.43025   0.02607
  30   35641.3    280.6   0.035076391   0.32399  -0.14793   0.40723  -0.36915
  31   36248.5    275.9   0.062842726   0.57074  -0.44513  -0.59331  -0.14349
  32   36272.1    275.7   0.064712992   0.58735   0.68122  -0.34646  -0.05699
  33   36421.7    274.6   0.021079929   0.19054  -0.10014  -0.27723   0.32195
  34   37722.0    265.1   0.028788867   0.25125   0.04263   0.42899  -0.25573
  35   37759.1    264.8   0.184958265   1.61260   0.30151   1.23240   0.05372
  36   37947.6    263.5   0.222807999   1.93296   0.12587  -1.05265  -0.89947
  37   38267.7    261.3   0.014542400   0.12511   0.21892  -0.27163   0.05828
  38   38466.6    260.0   0.015010192   0.12846  -0.13723   0.27889  -0.17847
  39   38509.1    259.7   0.039883602   0.34096   0.45266   0.35269  -0.10804
  40   38802.5    257.7   0.095511061   0.81034   0.57396  -0.03281   0.69271
  41   39500.0    253.2   0.137214961   1.14361  -0.42073   0.65537  -0.73287
  42   39768.9    251.5   0.033937331   0.28094   0.43059  -0.08798  -0.29629
  43   39896.7    250.6   0.078284747   0.64598  -0.53418  -0.06264  -0.59725
  44   40166.0    249.0   0.038762037   0.31770  -0.26953   0.41150   0.27519
  45   40247.2    248.5   0.052171562   0.42675  -0.03491  -0.24509  -0.60454

FINAL SINGLE POINT ENERGY     -4829.495210032797

DIPOLE MOMENT
-------------
                                X             Y             Z
Electronic contribution:    -27.96561       0.45675     -16.10114
Nuclear contribution   :     28.88432      -2.82538      16.02159
                        -----------------------------------------
Total Dipole Moment    :      0.91871      -2.36863      -0.07955
                        -----------------------------------------
Magnitude (a.u.)       :      2.54180
Magnitude (Debye)      :      6.46074

Rotational constants in cm-1:     0.001259     0.000292     0.000275
Rotational constants in MHz :    37.747988     8.749829     8.242772

                             ****ORCA TERMINATED NORMALLY****
TOTAL RUN TIME: 0 days 0 hours 10 minutes 50 seconds 67 msec
