                         Program Version 4.2.0 -  RELEASE  -
|  1> # ORCA input file
|  2> # SCF done       -204.573667784261          0.000774215342
|  3> ! CAM-B3LYP def2-SVP def2/J RIJCOSX Grid4 TightSCF
|  4> %maxcore 5000
|  5> %tddft
|  6>     Mode sTDDFT
|  7>     Ethresh 5.0
|  8>     maxcore 5000
|  9> end
| 10>
| 11> %pal
| 12>   nprocs 6
| 13>   end
| 14> * xyz 0 1
| 15>    C       -4.39482         2.98774         0.12376
| 16>    C       -3.46015         3.56668         0.93529
| 17>    F       -3.32327         4.89820         0.96180
| 18>    C       -2.63009         2.77364         1.75382
| 19>    F       -1.72313         3.36900         2.53882
| 20>    C       -2.74645         1.41192         1.74896
| 21>    C       -3.70074         0.78537         0.92394
| 22>    C       -4.54197         1.58593         0.09737
| 23>    C       -5.51262         0.98002        -0.73206
| 24>    C       -5.64424        -0.38442        -0.72868
| 25>    C       -4.79539        -1.17547         0.09473
| 26>    C       -3.84261        -0.61956         0.89900
| 27>    C       -5.12252        -2.60241        -0.08191
| 28>    O       -4.52083        -3.54663         0.37580
| 29>    C       -6.25205        -2.63176        -1.05386
| 30>    C       -6.55751        -1.26848        -1.44550
| 31>    C       -7.57522        -0.87004        -2.27080
| 32>    C       -8.49817        -1.73956        -2.89040
| 33>    N       -9.28959        -2.38745        -3.41123
| 34>    C       -7.84791         0.47587        -2.59583
| 35>    N       -8.11343         1.54948        -2.90149
| 36>    C       -6.75660        -3.77307        -1.60039
| 37>    C       -6.58775        -5.07406        -1.05883
| 38>    C       -6.51020        -5.45969         0.27091
| 39>    F       -6.67398        -4.61671         1.28575
| 40>    C       -6.37874        -6.84084         0.44047
| 41>    C       -6.36105        -7.53060        -0.77934
| 42>    S       -6.54190        -6.46944        -2.12146
| 43>    C       -6.20701        -8.91058        -0.59886
| 44>    C       -6.10808        -9.24489         0.75782
| 45>    S       -6.21137        -7.87715         1.82609
| 46>    C       -5.94348       -10.62267         0.94881
| 47>    F       -5.82603       -11.18560         2.15612
| 48>    C       -5.92138       -11.33416        -0.23205
| 49>    S       -6.10900       -10.29587        -1.62222
| 50>    C       -5.77106       -12.74132        -0.47336
| 51>    C       -5.52103       -13.70147         0.52250
| 52>    N       -5.37885       -14.96833         0.21952
| 53>    C       -5.48550       -15.34020        -1.06306
| 54>    C       -5.73945       -14.38135        -2.05806
| 55>    N       -5.87238       -13.11235        -1.75635
| 56>    C       -5.30559       -16.74548        -1.29464
| 57>    C       -5.41406       -17.49634        -2.44559
| 58>    F       -5.74198       -16.98265        -3.63558
| 59>    C       -5.15099       -18.85723        -2.23942
| 60>    C       -4.83101       -19.13225        -0.90346
| 61>    S       -4.87095       -17.72039         0.08560
| 62>    C       -4.55143       -20.48894        -0.71013
| 63>    C       -4.67293       -21.22708        -1.89400
| 64>    S       -5.12456       -20.26002        -3.26595
| 65>    C       -4.39809       -22.58340        -1.69690
| 66>    F       -4.45614       -23.50230        -2.65806
| 67>    C       -4.01934       -22.89430        -0.40091
| 68>    S       -4.07761       -21.46886         0.62242
| 69>    C       -3.71506       -24.19503         0.07669
| 70>    C       -3.01580       -24.54783         1.18473
| 71>    C       -3.18446       -25.91127         1.76820
| 72>    O       -3.70292       -26.86494         1.24049
| 73>    C       -2.64354       -25.80822         3.13921
| 74>    C       -2.66243       -26.73684         4.14007
| 75>    C       -2.10221       -26.40629         5.39435
| 76>    C       -1.54028       -25.11089         5.59158
| 77>    C       -0.99343       -24.78507         6.84910
| 78>    C       -0.99798       -25.70350         7.86102
| 79>    C       -1.54944       -26.98593         7.66362
| 80>    C       -2.09070       -27.33097         6.45698
| 81>    F       -1.53953       -27.86575         8.67290
| 82>    F       -0.47670       -25.39279         9.05418
| 83>    C       -1.52655       -24.17269         4.53461
| 84>    C       -2.06169       -24.52081         3.32353
| 85>    C       -2.14089       -23.79370         2.06067
| 86>    C       -1.31275       -22.77100         1.68366
| 87>    C       -1.21805       -22.30009         0.35698
| 88>    N       -1.08414       -21.92797        -0.72029
| 89>    C       -0.39392       -22.14975         2.55460
| 90>    N        0.35726       -21.60877         3.23241
| 91>    H       -5.02308         3.60924        -0.49501
| 92>    H       -2.10412         0.81898         2.38100
| 93>    H       -6.12855         1.61255        -1.35053
| 94>    H       -3.21254        -1.24421         1.51362
| 95>    H       -7.31190        -3.72455        -2.52847
| 96>    H       -5.43014       -13.44507         1.56706
| 97>    H       -5.82996       -14.63932        -3.10251
| 98>    H       -4.15653       -25.01253        -0.48663
| 99>    H       -3.09796       -27.71086         3.97719
|100>    H       -0.56327       -23.80986         7.01557
|101>    H       -2.50905       -28.31613         6.32241
|102>    H       -1.10186       -23.19695         4.70969
|103> *
|104>
|105>                          ****END OF INPUT****

CARTESIAN COORDINATES (ANGSTROEM)
---------------------------------
  C     -4.394820    2.987740    0.123760
  C     -3.460150    3.566680    0.935290
  F     -3.323270    4.898200    0.961800
  C     -2.630090    2.773640    1.753820
  F     -1.723130    3.369000    2.538820
  C     -2.746450    1.411920    1.748960
  C     -3.700740    0.785370    0.923940
  C     -4.541970    1.585930    0.097370
  C     -5.512620    0.980020   -0.732060
  C     -5.644240   -0.384420   -0.728680
  C     -4.795390   -1.175470    0.094730
  C     -3.842610   -0.619560    0.899000
  C     -5.122520   -2.602410   -0.081910
  O     -4.520830   -3.546630    0.375800
  C     -6.252050   -2.631760   -1.053860
  C     -6.557510   -1.268480   -1.445500
  C     -7.575220   -0.870040   -2.270800
  C     -8.498170   -1.739560   -2.890400
  N     -9.289590   -2.387450   -3.411230
  C     -7.847910    0.475870   -2.595830
  N     -8.113430    1.549480   -2.901490
  C     -6.756600   -3.773070   -1.600390
  C     -6.587750   -5.074060   -1.058830
  C     -6.510200   -5.459690    0.270910
  F     -6.673980   -4.616710    1.285750
  C     -6.378740   -6.840840    0.440470
  C     -6.361050   -7.530600   -0.779340
  S     -6.541900   -6.469440   -2.121460
  C     -6.207010   -8.910580   -0.598860
  C     -6.108080   -9.244890    0.757820
  S     -6.211370   -7.877150    1.826090
  C     -5.943480  -10.622670    0.948810
  F     -5.826030  -11.185600    2.156120
  C     -5.921380  -11.334160   -0.232050
  S     -6.109000  -10.295870   -1.622220
  C     -5.771060  -12.741320   -0.473360
  C     -5.521030  -13.701470    0.522500
  N     -5.378850  -14.968330    0.219520
  C     -5.485500  -15.340200   -1.063060
  C     -5.739450  -14.381350   -2.058060
  N     -5.872380  -13.112350   -1.756350
  C     -5.305590  -16.745480   -1.294640
  C     -5.414060  -17.496340   -2.445590
  F     -5.741980  -16.982650   -3.635580
  C     -5.150990  -18.857230   -2.239420
  C     -4.831010  -19.132250   -0.903460
  S     -4.870950  -17.720390    0.085600
  C     -4.551430  -20.488940   -0.710130
  C     -4.672930  -21.227080   -1.894000
  S     -5.124560  -20.260020   -3.265950
  C     -4.398090  -22.583400   -1.696900
  F     -4.456140  -23.502300   -2.658060
  C     -4.019340  -22.894300   -0.400910
  S     -4.077610  -21.468860    0.622420
  C     -3.715060  -24.195030    0.076690
  C     -3.015800  -24.547830    1.184730
  C     -3.184460  -25.911270    1.768200
  O     -3.702920  -26.864940    1.240490
  C     -2.643540  -25.808220    3.139210
  C     -2.662430  -26.736840    4.140070
  C     -2.102210  -26.406290    5.394350
  C     -1.540280  -25.110890    5.591580
  C     -0.993430  -24.785070    6.849100
  C     -0.997980  -25.703500    7.861020
  C     -1.549440  -26.985930    7.663620
  C     -2.090700  -27.330970    6.456980
  F     -1.539530  -27.865750    8.672900
  F     -0.476700  -25.392790    9.054180
  C     -1.526550  -24.172690    4.534610
  C     -2.061690  -24.520810    3.323530
  C     -2.140890  -23.793700    2.060670
  C     -1.312750  -22.771000    1.683660
  C     -1.218050  -22.300090    0.356980
  N     -1.084140  -21.927970   -0.720290
  C     -0.393920  -22.149750    2.554600
  N      0.357260  -21.608770    3.232410
  H     -5.023080    3.609240   -0.495010
  H     -2.104120    0.818980    2.381000
  H     -6.128550    1.612550   -1.350530
  H     -3.212540   -1.244210    1.513620
  H     -7.311900   -3.724550   -2.528470
  H     -5.430140  -13.445070    1.567060
  H     -5.829960  -14.639320   -3.102510
  H     -4.156530  -25.012530   -0.486630
  H     -3.097960  -27.710860    3.977190
  H     -0.563270  -23.809860    7.015570
  H     -2.509050  -28.316130    6.322410
  H     -1.101860  -23.196950    4.709690

 Total Charge           Charge          ....    0
 Multiplicity           Mult            ....    1
 Number of Electrons    NEL             ....  562
 Basis Dimension        Dim             .... 1148

ORBITAL ENERGIES
----------------

  NO   OCC          E(Eh)            E(eV)
   0   2.0000     -88.987326     -2421.4682
   1   2.0000     -88.987160     -2421.4637
   2   2.0000     -88.986686     -2421.4508
   3   2.0000     -88.986668     -2421.4503
   4   2.0000     -88.984075     -2421.3798
   5   2.0000     -88.983296     -2421.3586
   6   2.0000     -24.818920      -675.3571
   7   2.0000     -24.818320      -675.3408
   8   2.0000     -24.817719      -675.3245
   9   2.0000     -24.813470      -675.2088
  10   2.0000     -24.800835      -674.8650
  11   2.0000     -24.800436      -674.8542
  12   2.0000     -24.800371      -674.8524
  13   2.0000     -24.799403      -674.8261
  14   2.0000     -19.220476      -523.0157
  15   2.0000     -19.220273      -523.0102
  16   2.0000     -14.442089      -392.9892
  17   2.0000     -14.441962      -392.9858
  18   2.0000     -14.421479      -392.4284
  19   2.0000     -14.420357      -392.3979
  20   2.0000     -14.419418      -392.3723
  21   2.0000     -14.418379      -392.3440
  22   2.0000     -10.398459      -282.9564
  23   2.0000     -10.396205      -282.8951
  24   2.0000     -10.391419      -282.7649
  25   2.0000     -10.391262      -282.7606
  26   2.0000     -10.384225      -282.5691
  27   2.0000     -10.383824      -282.5582
  28   2.0000     -10.383654      -282.5536
  29   2.0000     -10.382798      -282.5303
  30   2.0000     -10.372368      -282.2465
  31   2.0000     -10.371450      -282.2215
  32   2.0000     -10.350132      -281.6414
  33   2.0000     -10.347703      -281.5753
  34   2.0000     -10.347598      -281.5725
  35   2.0000     -10.346625      -281.5460
  36   2.0000     -10.346399      -281.5398
  37   2.0000     -10.345807      -281.5237
  38   2.0000     -10.340379      -281.3760
  39   2.0000     -10.340370      -281.3758
  40   2.0000     -10.333624      -281.1922
  41   2.0000     -10.333610      -281.1918
  42   2.0000     -10.333427      -281.1868
  43   2.0000     -10.332975      -281.1745
  44   2.0000     -10.332190      -281.1532
  45   2.0000     -10.331921      -281.1459
  46   2.0000     -10.331337      -281.1300
  47   2.0000     -10.331085      -281.1231
  48   2.0000     -10.330993      -281.1206
  49   2.0000     -10.330317      -281.1022
  50   2.0000     -10.330125      -281.0970
  51   2.0000     -10.328895      -281.0635
  52   2.0000     -10.328501      -281.0528
  53   2.0000     -10.328193      -281.0444
  54   2.0000     -10.323708      -280.9224
  55   2.0000     -10.322886      -280.9000
  56   2.0000     -10.322021      -280.8765
  57   2.0000     -10.320658      -280.8394
  58   2.0000     -10.314162      -280.6626
  59   2.0000     -10.313700      -280.6501
  60   2.0000     -10.312900      -280.6283
  61   2.0000     -10.312635      -280.6211
  62   2.0000     -10.312247      -280.6105
  63   2.0000     -10.310328      -280.5583
  64   2.0000     -10.306538      -280.4552
  65   2.0000     -10.306230      -280.4468
  66   2.0000     -10.305858      -280.4367
  67   2.0000     -10.305221      -280.4193
  68   2.0000     -10.304734      -280.4061
  69   2.0000     -10.304673      -280.4044
  70   2.0000     -10.303995      -280.3860
  71   2.0000     -10.303250      -280.3657
  72   2.0000     -10.303158      -280.3632
  73   2.0000     -10.302503      -280.3454
  74   2.0000     -10.298033      -280.2237
  75   2.0000     -10.295862      -280.1646
  76   2.0000      -8.081784      -219.9165
  77   2.0000      -8.081779      -219.9164
  78   2.0000      -8.081760      -219.9159
  79   2.0000      -8.081081      -219.8974
  80   2.0000      -8.078263      -219.8207
  81   2.0000      -8.077585      -219.8023
  82   2.0000      -6.051685      -164.6747
  83   2.0000      -6.051473      -164.6689
  84   2.0000      -6.051441      -164.6681
  85   2.0000      -6.051012      -164.6564
  86   2.0000      -6.047941      -164.5728
  87   2.0000      -6.047667      -164.5654
  88   2.0000      -6.047454      -164.5596
  89   2.0000      -6.047425      -164.5588
  90   2.0000      -6.047237      -164.5537
  91   2.0000      -6.046969      -164.5464
  92   2.0000      -6.043863      -164.4619
  93   2.0000      -6.043176      -164.4432
  94   2.0000      -6.043014      -164.4388
  95   2.0000      -6.042921      -164.4362
  96   2.0000      -6.042561      -164.4265
  97   2.0000      -6.041875      -164.4078
  98   2.0000      -6.039597      -164.3458
  99   2.0000      -6.038908      -164.3270
 100   2.0000      -1.334604       -36.3164
 101   2.0000      -1.332218       -36.2515
 102   2.0000      -1.331640       -36.2358
 103   2.0000      -1.329582       -36.1798
 104   2.0000      -1.323884       -36.0247
 105   2.0000      -1.323047       -36.0019
 106   2.0000      -1.309001       -35.6197
 107   2.0000      -1.308135       -35.5962
 108   2.0000      -1.136751       -30.9326
 109   2.0000      -1.136368       -30.9221
 110   2.0000      -1.101361       -29.9696
 111   2.0000      -1.047832       -28.5130
 112   2.0000      -1.046070       -28.4650
 113   2.0000      -1.027257       -27.9531
 114   2.0000      -1.024577       -27.8802
 115   2.0000      -1.023610       -27.8538
 116   2.0000      -1.007872       -27.4256
 117   2.0000      -1.007455       -27.4143
 118   2.0000      -1.005135       -27.3511
 119   2.0000      -1.002444       -27.2779
 120   2.0000      -0.998623       -27.1739
 121   2.0000      -0.997296       -27.1378
 122   2.0000      -0.985413       -26.8144
 123   2.0000      -0.984308       -26.7844
 124   2.0000      -0.957519       -26.0554
 125   2.0000      -0.955457       -25.9993
 126   2.0000      -0.935002       -25.4427
 127   2.0000      -0.934514       -25.4294
 128   2.0000      -0.911537       -24.8042
 129   2.0000      -0.910092       -24.7649
 130   2.0000      -0.908178       -24.7128
 131   2.0000      -0.896988       -24.4083
 132   2.0000      -0.895989       -24.3811
 133   2.0000      -0.889836       -24.2137
 134   2.0000      -0.888324       -24.1725
 135   2.0000      -0.878028       -23.8924
 136   2.0000      -0.865946       -23.5636
 137   2.0000      -0.857152       -23.3243
 138   2.0000      -0.855034       -23.2667
 139   2.0000      -0.844288       -22.9742
 140   2.0000      -0.843151       -22.9433
 141   2.0000      -0.837770       -22.7969
 142   2.0000      -0.824534       -22.4367
 143   2.0000      -0.822115       -22.3709
 144   2.0000      -0.810938       -22.0667
 145   2.0000      -0.803140       -21.8546
 146   2.0000      -0.786141       -21.3920
 147   2.0000      -0.771730       -20.9999
 148   2.0000      -0.770395       -20.9635
 149   2.0000      -0.769174       -20.9303
 150   2.0000      -0.765529       -20.8311
 151   2.0000      -0.747691       -20.3457
 152   2.0000      -0.739519       -20.1233
 153   2.0000      -0.728303       -19.8181
 154   2.0000      -0.722282       -19.6543
 155   2.0000      -0.720168       -19.5968
 156   2.0000      -0.713146       -19.4057
 157   2.0000      -0.702543       -19.1172
 158   2.0000      -0.695006       -18.9121
 159   2.0000      -0.693233       -18.8638
 160   2.0000      -0.692404       -18.8413
 161   2.0000      -0.689704       -18.7678
 162   2.0000      -0.686615       -18.6837
 163   2.0000      -0.683262       -18.5925
 164   2.0000      -0.680900       -18.5282
 165   2.0000      -0.671864       -18.2823
 166   2.0000      -0.667613       -18.1667
 167   2.0000      -0.660744       -17.9797
 168   2.0000      -0.658476       -17.9180
 169   2.0000      -0.652590       -17.7579
 170   2.0000      -0.647118       -17.6090
 171   2.0000      -0.644846       -17.5471
 172   2.0000      -0.642354       -17.4793
 173   2.0000      -0.640094       -17.4178
 174   2.0000      -0.630789       -17.1646
 175   2.0000      -0.621252       -16.9051
 176   2.0000      -0.618908       -16.8414
 177   2.0000      -0.616963       -16.7884
 178   2.0000      -0.610802       -16.6208
 179   2.0000      -0.605585       -16.4788
 180   2.0000      -0.599595       -16.3158
 181   2.0000      -0.598305       -16.2807
 182   2.0000      -0.595180       -16.1957
 183   2.0000      -0.593576       -16.1520
 184   2.0000      -0.590170       -16.0593
 185   2.0000      -0.588632       -16.0175
 186   2.0000      -0.588271       -16.0077
 187   2.0000      -0.587453       -15.9854
 188   2.0000      -0.585656       -15.9365
 189   2.0000      -0.584220       -15.8974
 190   2.0000      -0.583590       -15.8803
 191   2.0000      -0.578415       -15.7395
 192   2.0000      -0.571344       -15.5471
 193   2.0000      -0.566484       -15.4148
 194   2.0000      -0.563742       -15.3402
 195   2.0000      -0.557271       -15.1641
 196   2.0000      -0.556608       -15.1461
 197   2.0000      -0.554507       -15.0889
 198   2.0000      -0.549829       -14.9616
 199   2.0000      -0.549045       -14.9403
 200   2.0000      -0.547237       -14.8911
 201   2.0000      -0.544509       -14.8168
 202   2.0000      -0.543679       -14.7943
 203   2.0000      -0.542686       -14.7672
 204   2.0000      -0.541892       -14.7456
 205   2.0000      -0.537483       -14.6257
 206   2.0000      -0.536018       -14.5858
 207   2.0000      -0.534372       -14.5410
 208   2.0000      -0.531508       -14.4631
 209   2.0000      -0.528494       -14.3811
 210   2.0000      -0.526875       -14.3370
 211   2.0000      -0.525741       -14.3061
 212   2.0000      -0.521937       -14.2026
 213   2.0000      -0.520723       -14.1696
 214   2.0000      -0.519074       -14.1247
 215   2.0000      -0.515836       -14.0366
 216   2.0000      -0.512586       -13.9482
 217   2.0000      -0.511332       -13.9140
 218   2.0000      -0.510431       -13.8895
 219   2.0000      -0.510110       -13.8808
 220   2.0000      -0.505575       -13.7574
 221   2.0000      -0.502320       -13.6688
 222   2.0000      -0.500085       -13.6080
 223   2.0000      -0.499661       -13.5965
 224   2.0000      -0.493243       -13.4218
 225   2.0000      -0.490091       -13.3360
 226   2.0000      -0.488095       -13.2817
 227   2.0000      -0.485015       -13.1979
 228   2.0000      -0.481569       -13.1042
 229   2.0000      -0.477340       -12.9891
 230   2.0000      -0.475733       -12.9454
 231   2.0000      -0.472866       -12.8673
 232   2.0000      -0.471127       -12.8200
 233   2.0000      -0.470025       -12.7900
 234   2.0000      -0.466469       -12.6933
 235   2.0000      -0.465459       -12.6658
 236   2.0000      -0.465049       -12.6546
 237   2.0000      -0.455179       -12.3861
 238   2.0000      -0.453458       -12.3392
 239   2.0000      -0.450264       -12.2523
 240   2.0000      -0.449391       -12.2285
 241   2.0000      -0.448836       -12.2134
 242   2.0000      -0.447736       -12.1835
 243   2.0000      -0.447011       -12.1638
 244   2.0000      -0.442156       -12.0317
 245   2.0000      -0.441352       -12.0098
 246   2.0000      -0.437283       -11.8991
 247   2.0000      -0.436908       -11.8889
 248   2.0000      -0.433044       -11.7837
 249   2.0000      -0.432429       -11.7670
 250   2.0000      -0.431662       -11.7461
 251   2.0000      -0.430845       -11.7239
 252   2.0000      -0.429660       -11.6916
 253   2.0000      -0.427707       -11.6385
 254   2.0000      -0.424155       -11.5418
 255   2.0000      -0.418369       -11.3844
 256   2.0000      -0.414246       -11.2722
 257   2.0000      -0.411680       -11.2024
 258   2.0000      -0.403393       -10.9769
 259   2.0000      -0.401673       -10.9301
 260   2.0000      -0.399135       -10.8610
 261   2.0000      -0.394458       -10.7338
 262   2.0000      -0.389470       -10.5980
 263   2.0000      -0.387731       -10.5507
 264   2.0000      -0.374922       -10.2021
 265   2.0000      -0.365990        -9.9591
 266   2.0000      -0.350420        -9.5354
 267   2.0000      -0.347513        -9.4563
 268   2.0000      -0.345186        -9.3930
 269   2.0000      -0.344058        -9.3623
 270   2.0000      -0.343765        -9.3543
 271   2.0000      -0.338095        -9.2000
 272   2.0000      -0.322261        -8.7692
 273   2.0000      -0.320358        -8.7174
 274   2.0000      -0.317810        -8.6480
 275   2.0000      -0.305566        -8.3149
 276   2.0000      -0.303440        -8.2570
 277   2.0000      -0.302962        -8.2440
 278   2.0000      -0.302167        -8.2224
 279   2.0000      -0.284256        -7.7350
 280   2.0000      -0.264463        -7.1964
 281   0.0000      -0.107430        -2.9233
 282   0.0000      -0.100815        -2.7433
 283   0.0000      -0.070940        -1.9304
 284   0.0000      -0.062692        -1.7059
 285   0.0000      -0.057697        -1.5700

MULLIKEN ATOMIC CHARGES
-----------------------
   0 C :   -0.105619
   1 C :    0.240706
   2 F :   -0.170423
   3 C :    0.236378
   4 F :   -0.170854
   5 C :   -0.103157
   6 C :    0.116673
   7 C :    0.114013
   8 C :   -0.085725
   9 C :    0.051384
  10 C :   -0.007487
  11 C :   -0.077672
  12 C :    0.141452
  13 O :   -0.139547
  14 C :   -0.094238
  15 C :    0.306161
  16 C :   -0.340267
  17 C :   -0.205063
  18 N :    0.163538
  19 C :   -0.181207
  20 N :    0.150417
  21 C :    0.028754
  22 C :   -0.189310
  23 C :    0.263105
  24 F :   -0.151076
  25 C :   -0.092698
  26 C :   -0.076219
  27 S :    0.197354
  28 C :   -0.076013
  29 C :   -0.087247
  30 S :    0.217464
  31 C :    0.204356
  32 F :   -0.170280
  33 C :   -0.126010
  34 S :    0.230538
  35 C :   -0.008230
  36 C :    0.009907
  37 N :   -0.058666
  38 C :   -0.004408
  39 C :    0.011332
  40 N :   -0.057122
  41 C :   -0.123706
  42 C :    0.202698
  43 F :   -0.169970
  44 C :   -0.089527
  45 C :   -0.068486
  46 S :    0.230560
  47 C :   -0.077817
  48 C :   -0.059373
  49 S :    0.219517
  50 C :    0.248762
  51 F :   -0.153305
  52 C :   -0.205741
  53 S :    0.192128
  54 C :    0.055932
  55 C :   -0.129305
  56 C :    0.141644
  57 O :   -0.134501
  58 C :    0.010849
  59 C :   -0.079416
  60 C :    0.110560
  61 C :    0.109419
  62 C :   -0.103846
  63 C :    0.241207
  64 C :    0.238466
  65 C :   -0.100906
  66 F :   -0.171044
  67 F :   -0.169912
  68 C :   -0.077475
  69 C :    0.038779
  70 C :    0.241515
  71 C :   -0.316448
  72 C :   -0.201326
  73 N :    0.174412
  74 C :   -0.176810
  75 N :    0.156771
  76 H :    0.007817
  77 H :    0.000771
  78 H :   -0.005126
  79 H :   -0.009380
  80 H :    0.034555
  81 H :    0.015416
  82 H :    0.014827
  83 H :    0.037808
  84 H :   -0.008036
  85 H :    0.006035
  86 H :   -0.000551
  87 H :   -0.003436
Sum of atomic charges:   -0.0000000

LOEWDIN ATOMIC CHARGES
----------------------
   0 C :   -0.028918
   1 C :    0.066634
   2 F :   -0.048023
   3 C :    0.067932
   4 F :   -0.048352
   5 C :   -0.033280
   6 C :   -0.008022
   7 C :   -0.006483
   8 C :    0.018084
   9 C :   -0.023270
  10 C :   -0.051151
  11 C :    0.030114
  12 C :    0.078098
  13 O :   -0.135534
  14 C :   -0.090029
  15 C :    0.073700
  16 C :   -0.135784
  17 C :   -0.023294
  18 N :   -0.047889
  19 C :   -0.017665
  20 N :   -0.050698
  21 C :    0.049761
  22 C :   -0.211883
  23 C :    0.074145
  24 F :   -0.026014
  25 C :   -0.215106
  26 C :   -0.193931
  27 S :    0.456792
  28 C :   -0.211562
  29 C :   -0.210065
  30 S :    0.445190
  31 C :    0.041506
  32 F :   -0.045963
  33 C :   -0.206049
  34 S :    0.483289
  35 C :   -0.026501
  36 C :    0.018223
  37 N :   -0.054610
  38 C :   -0.026521
  39 C :    0.018530
  40 N :   -0.054516
  41 C :   -0.204677
  42 C :    0.041538
  43 F :   -0.046036
  44 C :   -0.208672
  45 C :   -0.210852
  46 S :    0.484616
  47 C :   -0.186791
  48 C :   -0.217226
  49 S :    0.447014
  50 C :    0.075467
  51 F :   -0.033624
  52 C :   -0.215277
  53 S :    0.469293
  54 C :    0.055268
  55 C :   -0.095983
  56 C :    0.083167
  57 O :   -0.137117
  58 C :   -0.054440
  59 C :    0.031632
  60 C :   -0.009409
  61 C :   -0.005450
  62 C :   -0.030314
  63 C :    0.067223
  64 C :    0.067126
  65 C :   -0.032270
  66 F :   -0.048275
  67 F :   -0.047651
  68 C :    0.014183
  69 C :   -0.020074
  70 C :    0.059151
  71 C :   -0.137900
  72 C :   -0.034603
  73 N :   -0.047015
  74 C :   -0.019368
  75 N :   -0.048244
  76 H :    0.047814
  77 H :    0.045049
  78 H :    0.040021
  79 H :    0.040506
  80 H :    0.046481
  81 H :    0.028051
  82 H :    0.028387
  83 H :    0.055077
  84 H :    0.041181
  85 H :    0.047338
  86 H :    0.045078
  87 H :    0.039720

  Mayer bond orders larger than 0.100000
B(  0-C ,  1-C ) :   1.4434 B(  0-C ,  5-C ) :   0.1079 B(  0-C ,  7-C ) :   1.1890
B(  0-C , 76-H ) :   1.0063 B(  1-C ,  2-F ) :   1.1354 B(  1-C ,  3-C ) :   1.1900
B(  3-C ,  4-F ) :   1.1351 B(  3-C ,  5-C ) :   1.4455 B(  5-C ,  6-C ) :   1.1917
B(  5-C , 77-H ) :   1.0066 B(  6-C ,  7-C ) :   1.2554 B(  6-C , 11-C ) :   1.1910
B(  7-C ,  8-C ) :   1.2201 B(  8-C ,  9-C ) :   1.4489 B(  8-C , 78-H ) :   0.9893
B(  9-C , 10-C ) :   1.2223 B(  9-C , 15-C ) :   0.9918 B( 10-C , 11-C ) :   1.4758
B( 10-C , 12-C ) :   0.9364 B( 11-C , 79-H ) :   1.0160 B( 12-C , 13-O ) :   2.2324
B( 12-C , 14-C ) :   0.9428 B( 14-C , 15-C ) :   1.0724 B( 14-C , 21-C ) :   1.6292
B( 15-C , 16-C ) :   1.6433 B( 16-C , 17-C ) :   1.1418 B( 16-C , 19-C ) :   1.1428
B( 17-C , 18-N ) :   2.9876 B( 19-C , 20-N ) :   2.9639 B( 21-C , 22-C ) :   1.1433
B( 21-C , 80-H ) :   0.9328 B( 22-C , 23-C ) :   1.4461 B( 22-C , 27-S ) :   1.0571
B( 23-C , 24-F ) :   1.1961 B( 23-C , 25-C ) :   1.2899 B( 25-C , 26-C ) :   1.4687
B( 25-C , 30-S ) :   1.0266 B( 26-C , 27-S ) :   1.0929 B( 26-C , 28-C ) :   1.3274
B( 28-C , 29-C ) :   1.4920 B( 28-C , 33-C ) :   0.1068 B( 28-C , 34-S ) :   1.0591
B( 29-C , 30-S ) :   1.0364 B( 29-C , 31-C ) :   1.2751 B( 31-C , 32-F ) :   1.1555
B( 31-C , 33-C ) :   1.5011 B( 33-C , 34-S ) :   1.0913 B( 33-C , 35-C ) :   1.0541
B( 35-C , 36-C ) :   1.3214 B( 35-C , 40-N ) :   1.5282 B( 36-C , 37-N ) :   1.5865
B( 36-C , 81-H ) :   0.9717 B( 37-N , 38-C ) :   1.5239 B( 38-C , 39-C ) :   1.3245
B( 38-C , 41-C ) :   1.0500 B( 39-C , 40-N ) :   1.5839 B( 39-C , 82-H ) :   0.9722
B( 41-C , 42-C ) :   1.5018 B( 41-C , 45-C ) :   0.1065 B( 41-C , 46-S ) :   1.0932
B( 42-C , 43-F ) :   1.1576 B( 42-C , 44-C ) :   1.2736 B( 44-C , 45-C ) :   1.4851
B( 44-C , 49-S ) :   1.0395 B( 45-C , 46-S ) :   1.0575 B( 45-C , 47-C ) :   1.3358
B( 47-C , 48-C ) :   1.4658 B( 47-C , 53-S ) :   1.0904 B( 48-C , 49-S ) :   1.0242
B( 48-C , 50-C ) :   1.2747 B( 50-C , 51-F ) :   1.2139 B( 50-C , 52-C ) :   1.4409
B( 52-C , 53-S ) :   1.0658 B( 52-C , 54-C ) :   1.1161 B( 54-C , 55-C ) :   1.6478
B( 54-C , 83-H ) :   0.9482 B( 55-C , 56-C ) :   0.9361 B( 55-C , 70-C ) :   1.0349
B( 56-C , 57-O ) :   2.2827 B( 56-C , 58-C ) :   0.9176 B( 58-C , 59-C ) :   1.4748
B( 58-C , 69-C ) :   1.2235 B( 59-C , 60-C ) :   1.1958 B( 59-C , 84-H ) :   1.0155
B( 60-C , 61-C ) :   1.2580 B( 60-C , 65-C ) :   1.1939 B( 61-C , 62-C ) :   1.1892
B( 61-C , 68-C ) :   1.2160 B( 62-C , 63-C ) :   1.4428 B( 62-C , 65-C ) :   0.1084
B( 62-C , 85-H ) :   1.0061 B( 63-C , 64-C ) :   1.1911 B( 63-C , 67-F ) :   1.1355
B( 64-C , 65-C ) :   1.4438 B( 64-C , 66-F ) :   1.1337 B( 65-C , 86-H ) :   1.0062
B( 68-C , 69-C ) :   1.4565 B( 68-C , 87-H ) :   0.9939 B( 69-C , 70-C ) :   0.9989
B( 70-C , 71-C ) :   1.6646 B( 71-C , 72-C ) :   1.1491 B( 71-C , 74-C ) :   1.1366
B( 72-C , 73-N ) :   3.0266 B( 74-C , 75-N ) :   2.9915

-----------------------------------------------------------------------------
         ABSORPTION SPECTRUM VIA TRANSITION ELECTRIC DIPOLE MOMENTS
-----------------------------------------------------------------------------
State   Energy  Wavelength   fosc         T2         TX        TY        TZ
        (cm-1)    (nm)                  (au**2)     (au)      (au)      (au)
-----------------------------------------------------------------------------
   0   19206.7    520.7   2.433560932  41.71232  -1.39947   6.15727  -1.35715
   1   21075.8    474.5   0.257946513   4.02922   0.99201   1.59608   0.70545
   2   26146.0    382.5   0.099218853   1.24930   0.01293   0.78086  -0.79961
   3   26488.7    377.5   0.531142439   6.60124  -0.22644  -2.18113  -1.33890
   4   27139.3    368.5   0.017513427   0.21245   0.22819  -0.23946  -0.32099
   5   27232.4    367.2   0.008101689   0.09794   0.25490   0.08184  -0.16207
   6   27308.9    366.2   0.233862137   2.81924  -0.56622  -1.54559  -0.33135
   7   27790.3    359.8   0.109380388   1.29575   0.37695   0.49588   0.95276
   8   28283.8    353.6   0.017743887   0.20653   0.12545   0.10586   0.42378
   9   28729.1    348.1   0.009808800   0.11240   0.26328   0.16506   0.12586
  10   29365.1    340.5   0.051039700   0.57221  -0.37036  -0.54270  -0.37485
  11   29778.0    335.8   0.116987021   1.29336  -0.82505   0.10822  -0.77520
  12   30117.3    332.0   0.185714041   2.03004   0.69477  -0.52814   1.12623
  13   30868.9    324.0   0.420145109   4.48079   0.28818   1.91209  -0.86118
  14   31159.7    320.9   0.097531796   1.03045   0.33926  -0.55438  -0.77975
  15   32583.4    306.9   0.002691686   0.02720  -0.13558  -0.09317  -0.01153
  16   33381.7    299.6   0.067104335   0.66179  -0.25742  -0.41902  -0.64803
  17   33556.7    298.0   0.043482571   0.42659  -0.01153  -0.39344   0.52121
  18   33904.3    294.9   0.161075041   1.56404   0.16124   1.02346  -0.70041
  19   34222.7    292.2   0.316389299   3.04357   1.27857   0.89278   0.78217
  20   34393.0    290.8   0.264436428   2.53120  -0.41331  -0.85661   1.27538
  21   34532.0    289.6   0.028778287   0.27436  -0.30604  -0.25646  -0.33901
  22   34828.2    287.1   0.282878083   2.67389   1.12178   1.06146   0.53740
  23   35231.0    283.8   0.534651188   4.99599   0.39460  -0.79752   2.05042
  24   35610.0    280.8   0.084416663   0.78043  -0.38016  -0.36091  -0.71109
  25   35808.1    279.3   0.077310451   0.71078   0.50001   0.57377   0.36271
  26   35973.0    278.0   0.056600002   0.51798  -0.38702   0.57866  -0.18263
  27   36555.6    273.6   0.011781896   0.10611  -0.22436   0.01019  -0.23593
  28   36836.3    271.5   0.023956073   0.21410  -0.11922   0.28671  -0.34305
  29   37345.4    267.8   0.071928140   0.63407  -0.15266  -0.18750  -0.75869
  30   37525.7    266.5   0.024769822   0.21730   0.01753   0.43948   0.15445
  31   37704.2    265.2   0.098502065   0.86006   0.15740  -0.01003   0.91389
  32   37932.6    263.6   0.005123307   0.04446   0.07840   0.19493  -0.01790
  33   38478.2    259.9   0.027571166   0.23589  -0.15188  -0.32228   0.33010
  34   38830.9    257.5   0.036657218   0.31078   0.15022  -0.45435   0.28598
  35   38868.0    257.3   0.042092797   0.35653   0.06423  -0.18794  -0.56310
  36   39136.2    255.5   0.064916429   0.54607  -0.26293  -0.68519   0.08633
  37   39313.6    254.4   0.237956308   1.99264   0.90652  -0.53263   0.94190
  38   39495.3    253.2   0.115902314   0.96610  -0.59843  -0.26636  -0.73283
  39   39704.9    251.9   0.076221857   0.63199  -0.19849   0.72443  -0.26037

FINAL SINGLE POINT ENERGY     -5726.976313910566

DIPOLE MOMENT
-------------
                                X             Y             Z
Electronic contribution:     -1.63490      -0.22960       2.00811
Nuclear contribution   :      1.37440      -0.95169      -0.89006
                        -----------------------------------------
Total Dipole Moment    :     -0.26050      -1.18129       1.11805
                        -----------------------------------------
Magnitude (a.u.)       :      1.64722
Magnitude (Debye)      :      4.18690

Rotational constants in cm-1:     0.001521     0.000141     0.000132
Rotational constants in MHz :    45.603468     4.233328     3.963794

                             ****ORCA TERMINATED NORMALLY****
TOTAL RUN TIME: 0 days 0 hours 9 minutes 12 seconds 482 msec
