                         Program Version 4.2.0 -  RELEASE  -
|  1> # ORCA input file
|  2> # SCF done       -203.550181873116          0.000682205003
|  3> ! CAM-B3LYP def2-SVP def2/J RIJCOSX Grid4 TightSCF
|  4> %maxcore 5000
|  5> %tddft
|  6>     Mode sTDDFT
|  7>     Ethresh 5.0
|  8>     maxcore 5000
|  9> end
| 10>
| 11> %pal
| 12>   nprocs 6
| 13>   end
| 14> * xyz 0 1
| 15>    C       -8.16276         3.26846         2.82431
| 16>    C       -8.66421         3.61811         4.04627
| 17>    F       -9.16133         4.84612         4.24420
| 18>    C       -8.66602         2.69517         5.11180
| 19>    F       -9.16444         3.06569         6.29902
| 20>    C       -8.16584         1.43499         4.94024
| 21>    C       -7.64159         1.04418         3.69267
| 22>    C       -7.64059         1.97583         2.61415
| 23>    C       -7.12156         1.60599         1.35314
| 24>    C       -6.62327         0.34124         1.17354
| 25>    C       -6.62484        -0.58035         2.25651
| 26>    C       -7.11275        -0.24937         3.48768
| 27>    C       -6.01166        -1.85375         1.82566
| 28>    O       -5.73719        -2.79098         2.53861
| 29>    C       -5.68530        -1.66952         0.38403
| 30>    C       -6.03970        -0.31019         0.00523
| 31>    C       -5.91256         0.25548        -1.23520
| 32>    C       -6.30672         1.57428        -1.54891
| 33>    N       -6.60355         2.63558        -1.86973
| 34>    C       -5.38315        -0.37957        -2.37920
| 35>    N       -4.97338        -0.81953        -3.35735
| 36>    C       -5.03998        -2.57671        -0.39324
| 37>    C       -4.83735        -3.96455        -0.09041
| 38>    C       -3.69387        -4.62867        -0.52059
| 39>    C       -3.44104        -5.96831        -0.22998
| 40>    C       -4.31968        -6.75246         0.50043
| 41>    C       -5.51931        -6.12736         0.88618
| 42>    C       -5.78442        -4.75863         0.59169
| 43>    N       -7.03340        -4.49612         1.00491
| 44>    N       -7.45085        -5.61536         1.51327
| 45>    N       -6.62407        -6.62196         1.47181
| 46>    C       -8.73778        -5.73529         2.12375
| 47>    C       -4.06371        -8.16576         0.75750
| 48>    C       -3.79337        -9.01785        -0.24949
| 49>    C       -3.67739       -10.42813        -0.03939
| 50>    C       -4.08125       -11.01510         1.11005
| 51>    C       -4.60836       -10.14119         2.23173
| 52>    C       -4.03341        -8.71486         2.17060
| 53>    N       -4.67971        -7.84147         3.12149
| 54>    C       -5.91985        -8.00625         3.27327
| 55>    C       -6.64885        -9.13683         2.65619
| 56>    N       -6.05930       -10.14414         2.19043
| 57>    F       -7.97776        -9.08194         2.62488
| 58>    F       -6.58254        -7.25577         4.14986
| 59>    C       -4.08955       -12.44703         1.29078
| 60>    C       -4.85916       -13.07940         2.26405
| 61>    C       -4.84585       -14.45330         2.46799
| 62>    C       -4.02004       -15.32382         1.75851
| 63>    C       -3.26414       -14.71962         0.72643
| 64>    C       -3.30528       -13.31197         0.49100
| 65>    N       -2.48456       -13.06440        -0.54327
| 66>    N       -2.01962       -14.23094        -0.88221
| 67>    N       -2.43676       -15.25242        -0.18423
| 68>    C       -1.07213       -14.38878        -1.94204
| 69>    C       -4.01122       -16.71866         2.06479
| 70>    C       -3.07316       -17.66583         1.79634
| 71>    C       -3.45447       -19.10512         1.83866
| 72>    O       -4.45107       -19.58067         2.33043
| 73>    C       -2.38321       -19.80917         1.10043
| 74>    C       -2.30176       -21.12665         0.75382
| 75>    C       -1.18495       -21.57471         0.01218
| 76>    C       -0.17349       -20.64255        -0.36106
| 77>    C        0.93156       -21.09426        -1.11026
| 78>    C        1.03116       -22.40956        -1.46717
| 79>    C        0.03342       -23.33143        -1.09285
| 80>    C       -1.05209       -22.92401        -0.36907
| 81>    F        0.15766       -24.61575        -1.45545
| 82>    F        2.08304       -22.83578        -2.17969
| 83>    C       -0.27880       -19.28632         0.02326
| 84>    C       -1.36562       -18.87655         0.74807
| 85>    C       -1.71562       -17.57744         1.31146
| 86>    C       -0.84554       -16.54101         1.52603
| 87>    C       -1.13810       -15.44285         2.36012
| 88>    N       -1.31303       -14.55116         3.06153
| 89>    C        0.43845       -16.46119         0.95718
| 90>    N        1.46089       -16.30732         0.45626
| 91>    H       -8.16917         3.98671         2.01934
| 92>    H       -8.17305         0.74105         5.76613
| 93>    H       -7.12853         2.33671         0.56085
| 94>    H       -7.09636        -0.96709         4.29372
| 95>    H       -4.61140        -2.24899        -1.33241
| 96>    H       -2.95015        -4.07025        -1.07029
| 97>    H       -2.51384        -6.40793        -0.56563
| 98>    H       -9.38321        -4.95567         1.72673
| 99>    H       -8.64300        -5.61426         3.20479
|100>    H       -9.14407        -6.72364         1.91485
|101>    H       -3.73188        -8.65015        -1.26335
|102>    H       -3.32837       -11.03942        -0.85584
|103>    H       -4.31542       -10.58649         3.19288
|104>    H       -2.97356        -8.74436         2.46298
|105>    H       -5.52037       -12.48262         2.87125
|106>    H       -5.46966       -14.86420         3.24841
|107>    H       -0.94721       -13.42578        -2.43078
|108>    H       -1.43429       -15.13338        -2.65073
|109>    H       -0.11629       -14.72657        -1.53659
|110>    H       -4.91386       -17.09687         2.53635
|111>    H       -3.07842       -21.81941         1.04019
|112>    H        1.70646       -20.40251        -1.40165
|113>    H       -1.80740       -23.64231        -0.09118
|114>    H        0.49938       -18.60062        -0.27222
|115> *
|116>
|117>                          ****END OF INPUT****

CARTESIAN COORDINATES (ANGSTROEM)
---------------------------------
  C     -8.162760    3.268460    2.824310
  C     -8.664210    3.618110    4.046270
  F     -9.161330    4.846120    4.244200
  C     -8.666020    2.695170    5.111800
  F     -9.164440    3.065690    6.299020
  C     -8.165840    1.434990    4.940240
  C     -7.641590    1.044180    3.692670
  C     -7.640590    1.975830    2.614150
  C     -7.121560    1.605990    1.353140
  C     -6.623270    0.341240    1.173540
  C     -6.624840   -0.580350    2.256510
  C     -7.112750   -0.249370    3.487680
  C     -6.011660   -1.853750    1.825660
  O     -5.737190   -2.790980    2.538610
  C     -5.685300   -1.669520    0.384030
  C     -6.039700   -0.310190    0.005230
  C     -5.912560    0.255480   -1.235200
  C     -6.306720    1.574280   -1.548910
  N     -6.603550    2.635580   -1.869730
  C     -5.383150   -0.379570   -2.379200
  N     -4.973380   -0.819530   -3.357350
  C     -5.039980   -2.576710   -0.393240
  C     -4.837350   -3.964550   -0.090410
  C     -3.693870   -4.628670   -0.520590
  C     -3.441040   -5.968310   -0.229980
  C     -4.319680   -6.752460    0.500430
  C     -5.519310   -6.127360    0.886180
  C     -5.784420   -4.758630    0.591690
  N     -7.033400   -4.496120    1.004910
  N     -7.450850   -5.615360    1.513270
  N     -6.624070   -6.621960    1.471810
  C     -8.737780   -5.735290    2.123750
  C     -4.063710   -8.165760    0.757500
  C     -3.793370   -9.017850   -0.249490
  C     -3.677390  -10.428130   -0.039390
  C     -4.081250  -11.015100    1.110050
  C     -4.608360  -10.141190    2.231730
  C     -4.033410   -8.714860    2.170600
  N     -4.679710   -7.841470    3.121490
  C     -5.919850   -8.006250    3.273270
  C     -6.648850   -9.136830    2.656190
  N     -6.059300  -10.144140    2.190430
  F     -7.977760   -9.081940    2.624880
  F     -6.582540   -7.255770    4.149860
  C     -4.089550  -12.447030    1.290780
  C     -4.859160  -13.079400    2.264050
  C     -4.845850  -14.453300    2.467990
  C     -4.020040  -15.323820    1.758510
  C     -3.264140  -14.719620    0.726430
  C     -3.305280  -13.311970    0.491000
  N     -2.484560  -13.064400   -0.543270
  N     -2.019620  -14.230940   -0.882210
  N     -2.436760  -15.252420   -0.184230
  C     -1.072130  -14.388780   -1.942040
  C     -4.011220  -16.718660    2.064790
  C     -3.073160  -17.665830    1.796340
  C     -3.454470  -19.105120    1.838660
  O     -4.451070  -19.580670    2.330430
  C     -2.383210  -19.809170    1.100430
  C     -2.301760  -21.126650    0.753820
  C     -1.184950  -21.574710    0.012180
  C     -0.173490  -20.642550   -0.361060
  C      0.931560  -21.094260   -1.110260
  C      1.031160  -22.409560   -1.467170
  C      0.033420  -23.331430   -1.092850
  C     -1.052090  -22.924010   -0.369070
  F      0.157660  -24.615750   -1.455450
  F      2.083040  -22.835780   -2.179690
  C     -0.278800  -19.286320    0.023260
  C     -1.365620  -18.876550    0.748070
  C     -1.715620  -17.577440    1.311460
  C     -0.845540  -16.541010    1.526030
  C     -1.138100  -15.442850    2.360120
  N     -1.313030  -14.551160    3.061530
  C      0.438450  -16.461190    0.957180
  N      1.460890  -16.307320    0.456260
  H     -8.169170    3.986710    2.019340
  H     -8.173050    0.741050    5.766130
  H     -7.128530    2.336710    0.560850
  H     -7.096360   -0.967090    4.293720
  H     -4.611400   -2.248990   -1.332410
  H     -2.950150   -4.070250   -1.070290
  H     -2.513840   -6.407930   -0.565630
  H     -9.383210   -4.955670    1.726730
  H     -8.643000   -5.614260    3.204790
  H     -9.144070   -6.723640    1.914850
  H     -3.731880   -8.650150   -1.263350
  H     -3.328370  -11.039420   -0.855840
  H     -4.315420  -10.586490    3.192880
  H     -2.973560   -8.744360    2.462980
  H     -5.520370  -12.482620    2.871250
  H     -5.469660  -14.864200    3.248410
  H     -0.947210  -13.425780   -2.430780
  H     -1.434290  -15.133380   -2.650730
  H     -0.116290  -14.726570   -1.536590
  H     -4.913860  -17.096870    2.536350
  H     -3.078420  -21.819410    1.040190
  H      1.706460  -20.402510   -1.401650
  H     -1.807400  -23.642310   -0.091180
  H      0.499380  -18.600620   -0.272220

 Total Charge           Charge          ....    0
 Multiplicity           Mult            ....    1
 Number of Electrons    NEL             ....  514
 Basis Dimension        Dim             .... 1184

ORBITAL ENERGIES
----------------

  NO   OCC          E(Eh)            E(eV)
   0   2.0000     -24.805558      -674.9936
   1   2.0000     -24.804287      -674.9590
   2   2.0000     -24.799740      -674.8352
   3   2.0000     -24.798589      -674.8039
   4   2.0000     -24.796950      -674.7593
   5   2.0000     -24.796796      -674.7551
   6   2.0000     -19.215436      -522.8786
   7   2.0000     -19.214417      -522.8509
   8   2.0000     -14.554653      -396.0523
   9   2.0000     -14.552263      -395.9872
  10   2.0000     -14.454618      -393.3302
  11   2.0000     -14.454301      -393.3215
  12   2.0000     -14.449811      -393.1994
  13   2.0000     -14.448755      -393.1706
  14   2.0000     -14.427784      -392.6000
  15   2.0000     -14.420280      -392.3958
  16   2.0000     -14.419163      -392.3654
  17   2.0000     -14.418959      -392.3598
  18   2.0000     -14.415386      -392.2626
  19   2.0000     -14.411032      -392.1441
  20   2.0000     -10.415992      -283.4336
  21   2.0000     -10.414180      -283.3842
  22   2.0000     -10.383017      -282.5362
  23   2.0000     -10.381914      -282.5062
  24   2.0000     -10.379925      -282.4521
  25   2.0000     -10.379593      -282.4431
  26   2.0000     -10.366984      -282.1000
  27   2.0000     -10.365143      -282.0499
  28   2.0000     -10.346950      -281.5548
  29   2.0000     -10.344833      -281.4972
  30   2.0000     -10.338213      -281.3171
  31   2.0000     -10.334537      -281.2170
  32   2.0000     -10.327453      -281.0243
  33   2.0000     -10.326465      -280.9974
  34   2.0000     -10.325946      -280.9833
  35   2.0000     -10.325778      -280.9787
  36   2.0000     -10.322781      -280.8971
  37   2.0000     -10.322079      -280.8780
  38   2.0000     -10.321646      -280.8663
  39   2.0000     -10.320162      -280.8259
  40   2.0000     -10.314434      -280.6700
  41   2.0000     -10.313279      -280.6386
  42   2.0000     -10.313055      -280.6325
  43   2.0000     -10.311962      -280.6028
  44   2.0000     -10.311880      -280.6005
  45   2.0000     -10.311645      -280.5941
  46   2.0000     -10.311534      -280.5911
  47   2.0000     -10.310713      -280.5688
  48   2.0000     -10.309291      -280.5301
  49   2.0000     -10.309107      -280.5251
  50   2.0000     -10.308764      -280.5157
  51   2.0000     -10.308478      -280.5079
  52   2.0000     -10.306817      -280.4627
  53   2.0000     -10.305200      -280.4188
  54   2.0000     -10.304073      -280.3881
  55   2.0000     -10.303242      -280.3655
  56   2.0000     -10.302776      -280.3528
  57   2.0000     -10.302572      -280.3472
  58   2.0000     -10.302426      -280.3433
  59   2.0000     -10.301769      -280.3254
  60   2.0000     -10.300996      -280.3043
  61   2.0000     -10.300035      -280.2782
  62   2.0000     -10.299904      -280.2746
  63   2.0000     -10.299901      -280.2746
  64   2.0000     -10.299519      -280.2642
  65   2.0000     -10.299169      -280.2546
  66   2.0000     -10.298355      -280.2325
  67   2.0000     -10.296655      -280.1862
  68   2.0000     -10.294354      -280.1236
  69   2.0000     -10.293925      -280.1119
  70   2.0000     -10.293629      -280.1039
  71   2.0000     -10.291550      -280.0473
  72   2.0000     -10.290939      -280.0307
  73   2.0000     -10.285687      -279.8878
  74   2.0000     -10.284562      -279.8572
  75   2.0000     -10.283806      -279.8366
  76   2.0000      -1.332638       -36.2629
  77   2.0000      -1.322055       -35.9750
  78   2.0000      -1.319648       -35.9094
  79   2.0000      -1.318551       -35.8796
  80   2.0000      -1.307182       -35.5702
  81   2.0000      -1.304851       -35.5068
  82   2.0000      -1.231558       -33.5124
  83   2.0000      -1.229590       -33.4588
  84   2.0000      -1.131643       -30.7936
  85   2.0000      -1.129501       -30.7353
  86   2.0000      -1.080070       -29.3902
  87   2.0000      -1.022753       -27.8305
  88   2.0000      -1.019616       -27.7452
  89   2.0000      -1.012546       -27.5528
  90   2.0000      -1.006414       -27.3859
  91   2.0000      -1.003266       -27.3003
  92   2.0000      -1.002304       -27.2741
  93   2.0000      -1.001232       -27.2449
  94   2.0000      -0.998126       -27.1604
  95   2.0000      -0.996050       -27.1039
  96   2.0000      -0.992910       -27.0184
  97   2.0000      -0.988223       -26.8909
  98   2.0000      -0.982306       -26.7299
  99   2.0000      -0.978275       -26.6202
 100   2.0000      -0.955786       -26.0082
 101   2.0000      -0.938071       -25.5262
 102   2.0000      -0.935055       -25.4441
 103   2.0000      -0.931347       -25.3432
 104   2.0000      -0.927059       -25.2266
 105   2.0000      -0.914995       -24.8983
 106   2.0000      -0.903657       -24.5898
 107   2.0000      -0.896382       -24.3918
 108   2.0000      -0.893263       -24.3069
 109   2.0000      -0.889992       -24.2179
 110   2.0000      -0.884254       -24.0618
 111   2.0000      -0.866114       -23.5682
 112   2.0000      -0.856693       -23.3118
 113   2.0000      -0.846692       -23.0397
 114   2.0000      -0.841701       -22.9039
 115   2.0000      -0.838687       -22.8218
 116   2.0000      -0.827034       -22.5047
 117   2.0000      -0.823725       -22.4147
 118   2.0000      -0.820744       -22.3336
 119   2.0000      -0.798401       -21.7256
 120   2.0000      -0.788767       -21.4635
 121   2.0000      -0.771682       -20.9985
 122   2.0000      -0.768985       -20.9252
 123   2.0000      -0.763459       -20.7748
 124   2.0000      -0.761459       -20.7204
 125   2.0000      -0.751201       -20.4412
 126   2.0000      -0.744632       -20.2625
 127   2.0000      -0.737805       -20.0767
 128   2.0000      -0.735817       -20.0226
 129   2.0000      -0.729805       -19.8590
 130   2.0000      -0.725438       -19.7402
 131   2.0000      -0.718114       -19.5409
 132   2.0000      -0.714437       -19.4408
 133   2.0000      -0.712004       -19.3746
 134   2.0000      -0.702520       -19.1165
 135   2.0000      -0.696612       -18.9558
 136   2.0000      -0.685780       -18.6610
 137   2.0000      -0.680444       -18.5158
 138   2.0000      -0.673334       -18.3223
 139   2.0000      -0.672451       -18.2983
 140   2.0000      -0.665080       -18.0977
 141   2.0000      -0.659972       -17.9588
 142   2.0000      -0.654655       -17.8141
 143   2.0000      -0.652392       -17.7525
 144   2.0000      -0.646472       -17.5914
 145   2.0000      -0.642729       -17.4895
 146   2.0000      -0.640643       -17.4328
 147   2.0000      -0.635541       -17.2939
 148   2.0000      -0.634810       -17.2740
 149   2.0000      -0.630572       -17.1587
 150   2.0000      -0.623658       -16.9706
 151   2.0000      -0.620072       -16.8730
 152   2.0000      -0.616261       -16.7693
 153   2.0000      -0.614732       -16.7277
 154   2.0000      -0.614004       -16.7079
 155   2.0000      -0.611823       -16.6486
 156   2.0000      -0.611486       -16.6394
 157   2.0000      -0.603205       -16.4140
 158   2.0000      -0.594478       -16.1766
 159   2.0000      -0.591072       -16.0839
 160   2.0000      -0.587506       -15.9868
 161   2.0000      -0.586643       -15.9634
 162   2.0000      -0.584244       -15.8981
 163   2.0000      -0.582366       -15.8470
 164   2.0000      -0.580827       -15.8051
 165   2.0000      -0.579661       -15.7734
 166   2.0000      -0.576328       -15.6827
 167   2.0000      -0.574953       -15.6453
 168   2.0000      -0.564096       -15.3498
 169   2.0000      -0.559219       -15.2171
 170   2.0000      -0.555613       -15.1190
 171   2.0000      -0.553160       -15.0522
 172   2.0000      -0.551551       -15.0085
 173   2.0000      -0.549166       -14.9436
 174   2.0000      -0.548255       -14.9188
 175   2.0000      -0.546000       -14.8574
 176   2.0000      -0.543586       -14.7917
 177   2.0000      -0.540924       -14.7193
 178   2.0000      -0.538605       -14.6562
 179   2.0000      -0.537700       -14.6316
 180   2.0000      -0.534491       -14.5442
 181   2.0000      -0.533126       -14.5071
 182   2.0000      -0.531545       -14.4641
 183   2.0000      -0.529848       -14.4179
 184   2.0000      -0.528568       -14.3831
 185   2.0000      -0.525095       -14.2886
 186   2.0000      -0.519566       -14.1381
 187   2.0000      -0.518061       -14.0972
 188   2.0000      -0.515294       -14.0219
 189   2.0000      -0.514619       -14.0035
 190   2.0000      -0.512561       -13.9475
 191   2.0000      -0.512397       -13.9430
 192   2.0000      -0.512144       -13.9362
 193   2.0000      -0.511879       -13.9289
 194   2.0000      -0.507714       -13.8156
 195   2.0000      -0.504309       -13.7229
 196   2.0000      -0.501747       -13.6532
 197   2.0000      -0.499475       -13.5914
 198   2.0000      -0.496957       -13.5229
 199   2.0000      -0.494812       -13.4645
 200   2.0000      -0.491929       -13.3861
 201   2.0000      -0.486545       -13.2396
 202   2.0000      -0.486175       -13.2295
 203   2.0000      -0.483347       -13.1526
 204   2.0000      -0.479370       -13.0443
 205   2.0000      -0.471016       -12.8170
 206   2.0000      -0.470249       -12.7961
 207   2.0000      -0.466585       -12.6964
 208   2.0000      -0.465461       -12.6658
 209   2.0000      -0.464796       -12.6477
 210   2.0000      -0.463689       -12.6176
 211   2.0000      -0.461237       -12.5509
 212   2.0000      -0.456909       -12.4331
 213   2.0000      -0.453385       -12.3372
 214   2.0000      -0.453019       -12.3273
 215   2.0000      -0.452245       -12.3062
 216   2.0000      -0.448651       -12.2084
 217   2.0000      -0.447413       -12.1747
 218   2.0000      -0.446016       -12.1367
 219   2.0000      -0.444935       -12.1073
 220   2.0000      -0.441290       -12.0081
 221   2.0000      -0.436499       -11.8777
 222   2.0000      -0.434018       -11.8102
 223   2.0000      -0.431072       -11.7301
 224   2.0000      -0.427487       -11.6325
 225   2.0000      -0.427116       -11.6224
 226   2.0000      -0.425802       -11.5867
 227   2.0000      -0.422665       -11.5013
 228   2.0000      -0.419129       -11.4051
 229   2.0000      -0.416215       -11.3258
 230   2.0000      -0.412351       -11.2206
 231   2.0000      -0.406860       -11.0712
 232   2.0000      -0.402775       -10.9601
 233   2.0000      -0.400702       -10.9036
 234   2.0000      -0.395670       -10.7667
 235   2.0000      -0.393581       -10.7099
 236   2.0000      -0.391433       -10.6514
 237   2.0000      -0.389821       -10.6076
 238   2.0000      -0.385186       -10.4814
 239   2.0000      -0.382944       -10.4204
 240   2.0000      -0.378765       -10.3067
 241   2.0000      -0.373680       -10.1683
 242   2.0000      -0.359626        -9.7859
 243   2.0000      -0.348042        -9.4707
 244   2.0000      -0.346649        -9.4328
 245   2.0000      -0.343040        -9.3346
 246   2.0000      -0.337085        -9.1726
 247   2.0000      -0.334332        -9.0976
 248   2.0000      -0.331969        -9.0333
 249   2.0000      -0.327974        -8.9246
 250   2.0000      -0.321486        -8.7481
 251   2.0000      -0.317007        -8.6262
 252   2.0000      -0.312896        -8.5143
 253   2.0000      -0.304177        -8.2771
 254   2.0000      -0.295382        -8.0378
 255   2.0000      -0.290755        -7.9118
 256   2.0000      -0.264919        -7.2088
 257   0.0000      -0.101897        -2.7728
 258   0.0000      -0.094330        -2.5668
 259   0.0000      -0.062483        -1.7002
 260   0.0000      -0.056780        -1.5451
 261   0.0000      -0.046591        -1.2678

MULLIKEN ATOMIC CHARGES
-----------------------
   0 C :   -0.111757
   1 C :    0.242982
   2 F :   -0.170754
   3 C :    0.239639
   4 F :   -0.171565
   5 C :   -0.109677
   6 C :    0.122292
   7 C :    0.117853
   8 C :   -0.092354
   9 C :    0.054073
  10 C :   -0.002678
  11 C :   -0.088373
  12 C :    0.149715
  13 O :   -0.132660
  14 C :   -0.058360
  15 C :    0.315093
  16 C :   -0.354034
  17 C :   -0.182817
  18 N :    0.151645
  19 C :   -0.191573
  20 N :    0.159314
  21 C :   -0.063810
  22 C :    0.053901
  23 C :   -0.012959
  24 C :   -0.034778
  25 C :    0.053991
  26 C :    0.062679
  27 C :    0.030004
  28 N :   -0.041624
  29 N :   -0.054904
  30 N :   -0.122183
  31 C :    0.136493
  32 C :   -0.069526
  33 C :    0.033166
  34 C :   -0.029986
  35 C :    0.006629
  36 C :    0.052703
  37 C :    0.094985
  38 N :   -0.090592
  39 C :    0.131617
  40 C :    0.150827
  41 N :   -0.090877
  42 F :   -0.152227
  43 F :   -0.153198
  44 C :    0.095722
  45 C :   -0.044850
  46 C :    0.004191
  47 C :    0.063283
  48 C :   -0.023319
  49 C :   -0.001050
  50 N :   -0.054409
  51 N :   -0.060100
  52 N :   -0.070676
  53 C :    0.138683
  54 C :   -0.001654
  55 C :   -0.116239
  56 C :    0.134022
  57 O :   -0.140747
  58 C :    0.011719
  59 C :   -0.083398
  60 C :    0.111576
  61 C :    0.117104
  62 C :   -0.109560
  63 C :    0.241231
  64 C :    0.236798
  65 C :   -0.103905
  66 F :   -0.173194
  67 F :   -0.172673
  68 C :   -0.094917
  69 C :    0.049324
  70 C :    0.305685
  71 C :   -0.315546
  72 C :   -0.221385
  73 N :    0.172812
  74 C :   -0.165348
  75 N :    0.121760
  76 H :    0.008695
  77 H :    0.000188
  78 H :   -0.005593
  79 H :   -0.011014
  80 H :    0.025706
  81 H :   -0.008627
  82 H :   -0.016592
  83 H :    0.051851
  84 H :    0.064145
  85 H :    0.055336
  86 H :   -0.013969
  87 H :   -0.003361
  88 H :    0.036852
  89 H :    0.038276
  90 H :   -0.007088
  91 H :   -0.011768
  92 H :    0.050764
  93 H :    0.052839
  94 H :    0.066608
  95 H :    0.018156
  96 H :   -0.009852
  97 H :    0.003713
  98 H :   -0.001339
  99 H :   -0.011200
Sum of atomic charges:   -0.0000000

LOEWDIN ATOMIC CHARGES
----------------------
   0 C :   -0.029101
   1 C :    0.065993
   2 F :   -0.048948
   3 C :    0.068153
   4 F :   -0.049218
   5 C :   -0.034366
   6 C :   -0.007635
   7 C :   -0.007267
   8 C :    0.017808
   9 C :   -0.024350
  10 C :   -0.048969
  11 C :    0.027189
  12 C :    0.081653
  13 O :   -0.128284
  14 C :   -0.081049
  15 C :    0.076892
  16 C :   -0.134842
  17 C :   -0.016766
  18 N :   -0.051315
  19 C :   -0.021558
  20 N :   -0.048362
  21 C :    0.080145
  22 C :   -0.039342
  23 C :    0.012864
  24 C :   -0.020530
  25 C :    0.001950
  26 C :   -0.032793
  27 C :   -0.030726
  28 N :   -0.074560
  29 N :    0.172228
  30 N :   -0.078845
  31 C :    0.031487
  32 C :   -0.010824
  33 C :   -0.019658
  34 C :    0.002835
  35 C :   -0.017400
  36 C :    0.018314
  37 C :    0.020189
  38 N :   -0.100773
  39 C :    0.052306
  40 C :    0.049537
  41 N :   -0.080536
  42 F :   -0.035890
  43 F :   -0.036708
  44 C :    0.012539
  45 C :   -0.020911
  46 C :    0.027141
  47 C :   -0.050450
  48 C :   -0.039244
  49 C :   -0.040009
  50 N :   -0.077385
  51 N :    0.161644
  52 N :   -0.087669
  53 C :    0.032430
  54 C :    0.075526
  55 C :   -0.087538
  56 C :    0.084744
  57 O :   -0.141265
  58 C :   -0.053678
  59 C :    0.029665
  60 C :   -0.010831
  61 C :   -0.005579
  62 C :   -0.032559
  63 C :    0.066308
  64 C :    0.065316
  65 C :   -0.032866
  66 F :   -0.050895
  67 F :   -0.050408
  68 C :    0.008076
  69 C :   -0.014469
  70 C :    0.074303
  71 C :   -0.135345
  72 C :   -0.021762
  73 N :   -0.053350
  74 C :   -0.012533
  75 N :   -0.068180
  76 H :    0.047867
  77 H :    0.044740
  78 H :    0.039782
  79 H :    0.039544
  80 H :    0.046616
  81 H :    0.036667
  82 H :    0.033997
  83 H :    0.042261
  84 H :    0.043718
  85 H :    0.040642
  86 H :    0.032757
  87 H :    0.030586
  88 H :    0.039123
  89 H :    0.049055
  90 H :    0.032758
  91 H :    0.036626
  92 H :    0.041969
  93 H :    0.041676
  94 H :    0.044630
  95 H :    0.046898
  96 H :    0.040207
  97 H :    0.046098
  98 H :    0.044549
  99 H :    0.037539

  Mayer bond orders larger than 0.100000
B(  0-C ,  1-C ) :   1.4431 B(  0-C ,  5-C ) :   0.1089 B(  0-C ,  7-C ) :   1.1854
B(  0-C , 76-H ) :   1.0071 B(  1-C ,  2-F ) :   1.1354 B(  1-C ,  3-C ) :   1.1889
B(  3-C ,  4-F ) :   1.1333 B(  3-C ,  5-C ) :   1.4445 B(  5-C ,  6-C ) :   1.1906
B(  5-C , 77-H ) :   1.0072 B(  6-C ,  7-C ) :   1.2552 B(  6-C , 11-C ) :   1.1889
B(  7-C ,  8-C ) :   1.2220 B(  8-C ,  9-C ) :   1.4395 B(  8-C , 78-H ) :   0.9895
B(  9-C , 10-C ) :   1.2230 B(  9-C , 15-C ) :   0.9909 B( 10-C , 11-C ) :   1.4725
B( 10-C , 12-C ) :   0.9373 B( 11-C , 79-H ) :   1.0166 B( 12-C , 13-O ) :   2.2457
B( 12-C , 14-C ) :   0.9266 B( 14-C , 15-C ) :   1.0622 B( 14-C , 21-C ) :   1.6526
B( 15-C , 16-C ) :   1.6421 B( 16-C , 17-C ) :   1.1470 B( 16-C , 19-C ) :   1.1432
B( 17-C , 18-N ) :   2.9623 B( 19-C , 20-N ) :   2.9721 B( 21-C , 22-C ) :   1.0852
B( 21-C , 80-H ) :   0.9403 B( 22-C , 23-C ) :   1.4096 B( 22-C , 25-C ) :   0.1034
B( 22-C , 27-C ) :   1.1938 B( 23-C , 24-C ) :   1.2390 B( 23-C , 81-H ) :   0.9985
B( 24-C , 25-C ) :   1.4766 B( 24-C , 82-H ) :   1.0002 B( 25-C , 26-C ) :   1.2258
B( 25-C , 32-C ) :   0.9710 B( 26-C , 27-C ) :   1.2515 B( 26-C , 30-N ) :   1.3635
B( 27-C , 28-N ) :   1.4458 B( 28-N , 29-N ) :   1.2608 B( 28-N , 30-N ) :   0.1629
B( 29-N , 30-N ) :   1.2394 B( 29-N , 31-C ) :   0.9514 B( 31-C , 83-H ) :   0.9652
B( 31-C , 84-H ) :   0.9657 B( 31-C , 85-H ) :   0.9660 B( 32-C , 33-C ) :   1.7868
B( 32-C , 37-C ) :   0.9460 B( 33-C , 34-C ) :   1.0800 B( 33-C , 86-H ) :   0.9755
B( 34-C , 35-C ) :   1.7363 B( 34-C , 87-H ) :   0.9588 B( 35-C , 36-C ) :   0.9680
B( 35-C , 44-C ) :   1.0994 B( 36-C , 37-C ) :   0.9945 B( 36-C , 41-N ) :   0.9865
B( 36-C , 88-H ) :   0.8954 B( 37-C , 38-N ) :   1.0355 B( 37-C , 89-H ) :   0.8876
B( 38-N , 39-C ) :   1.9267 B( 39-C , 40-C ) :   0.9158 B( 39-C , 43-F ) :   1.1375
B( 40-C , 41-N ) :   1.9580 B( 40-C , 42-F ) :   1.1476 B( 44-C , 45-C ) :   1.4360
B( 44-C , 47-C ) :   0.1023 B( 44-C , 49-C ) :   1.1850 B( 45-C , 46-C ) :   1.2705
B( 45-C , 90-H ) :   0.9760 B( 46-C , 47-C ) :   1.3834 B( 46-C , 91-H ) :   0.9941
B( 47-C , 48-C ) :   1.1690 B( 47-C , 54-C ) :   1.0914 B( 48-C , 49-C ) :   1.2377
B( 48-C , 52-N ) :   1.4686 B( 49-C , 50-N ) :   1.4501 B( 50-N , 51-N ) :   1.2535
B( 50-N , 52-N ) :   0.1539 B( 51-N , 52-N ) :   1.2071 B( 51-N , 53-C ) :   0.9518
B( 53-C , 92-H ) :   0.9656 B( 53-C , 93-H ) :   0.9680 B( 53-C , 94-H ) :   0.9631
B( 54-C , 55-C ) :   1.6523 B( 54-C , 95-H ) :   0.9458 B( 55-C , 56-C ) :   0.9381
B( 55-C , 70-C ) :   1.0471 B( 56-C , 57-O ) :   2.2732 B( 56-C , 58-C ) :   0.9158
B( 58-C , 59-C ) :   1.4753 B( 58-C , 69-C ) :   1.2167 B( 59-C , 60-C ) :   1.1945
B( 59-C , 96-H ) :   1.0149 B( 60-C , 61-C ) :   1.2579 B( 60-C , 65-C ) :   1.1925
B( 61-C , 62-C ) :   1.1900 B( 61-C , 68-C ) :   1.2099 B( 62-C , 63-C ) :   1.4410
B( 62-C , 65-C ) :   0.1092 B( 62-C , 97-H ) :   1.0061 B( 63-C , 64-C ) :   1.1945
B( 63-C , 67-F ) :   1.1325 B( 64-C , 65-C ) :   1.4437 B( 64-C , 66-F ) :   1.1318
B( 65-C , 98-H ) :   1.0064 B( 68-C , 69-C ) :   1.4574 B( 68-C , 99-H ) :   0.9935
B( 69-C , 70-C ) :   1.0111 B( 70-C , 71-C ) :   1.6392 B( 71-C , 72-C ) :   1.1583
B( 71-C , 74-C ) :   1.1549 B( 72-C , 73-N ) :   3.0145 B( 74-C , 75-N ) :   2.9140

-----------------------------------------------------------------------------
         ABSORPTION SPECTRUM VIA TRANSITION ELECTRIC DIPOLE MOMENTS
-----------------------------------------------------------------------------
State   Energy  Wavelength   fosc         T2         TX        TY        TZ
        (cm-1)    (nm)                  (au**2)     (au)      (au)      (au)
-----------------------------------------------------------------------------
   0   19857.9    503.6   1.639309095  27.17715   1.57064  -4.96584   0.22514
   1   22711.4    440.3   0.130254201   1.88809  -0.11724  -1.36885   0.02439
   2   26066.1    383.6   0.079164024   0.99983   0.08719   0.98679   0.13596
   3   26245.4    381.0   0.033345255   0.41827   0.04733  -0.42649  -0.48387
   4   26971.9    370.8   0.027089901   0.33065   0.07393  -0.46798   0.32586
   5   28062.7    356.3   0.161038593   1.88919   0.46607  -1.09452  -0.68848
   6   28781.3    347.4   0.109027129   1.24710   0.37199   1.05296   0.00057
   7   29020.8    344.6   0.009959085   0.11298  -0.25840   0.01582   0.21437
   8   29284.3    341.5   0.037908215   0.42616  -0.25208  -0.34947  -0.49039
   9   30032.3    333.0   0.057848357   0.63413   0.10871  -0.70510  -0.35376
  10   30475.3    328.1   0.166441279   1.79800  -0.15992  -1.11729   0.72393
  11   30701.2    325.7   0.250861674   2.69001  -0.52929   1.24141   0.93207
  12   31612.8    316.3   0.011444152   0.11918  -0.05400   0.16978   0.29570
  13   31776.8    314.7   0.080665695   0.83571  -0.64060   0.42970   0.49061
  14   32549.9    307.2   0.026834816   0.27141  -0.22172  -0.46334   0.08696
  15   32799.8    304.9   0.115864138   1.16293   0.35763  -1.00970  -0.12462
  16   33018.4    302.9   0.012999075   0.12961   0.09740  -0.01648   0.34619
  17   33211.8    301.1   0.405633592   4.02084   0.65618   1.89477   0.01007
  18   33674.1    297.0   0.279513584   2.73264   0.74967  -1.24270  -0.79142
  19   34287.1    291.7   0.487827881   4.68393  -0.66562   0.49946   1.99785
  20   34720.1    288.0   0.024001567   0.22758  -0.23381   0.35217   0.22111
  21   35010.5    285.6   0.114417576   1.07589   0.03638   1.00356   0.25970
  22   35554.9    281.3   0.027579936   0.25537   0.21888  -0.01888  -0.45509
  23   35739.0    279.8   0.163468938   1.50580  -0.32891   0.85896   0.81229
  24   36229.4    276.0   0.145888717   1.32567  -0.25787   0.89670   0.67462
  25   36604.2    273.2   0.220271442   1.98109  -0.47546   0.78963   1.06373
  26   37046.2    269.9   0.046370571   0.41207  -0.04662  -0.05499   0.63787
  27   37342.5    267.8   0.030485482   0.26876  -0.05417  -0.49446   0.14606
  28   37990.4    263.2   0.030148227   0.26125  -0.32061   0.13224   0.37547
  29   38086.0    262.6   0.038118649   0.32949   0.52270   0.22380  -0.07865
  30   38554.5    259.4   0.061426218   0.52451  -0.05052  -0.58961   0.41751
  31   38725.7    258.2   0.009236088   0.07852  -0.16252   0.14637   0.17516
  32   38956.0    256.7   0.000631496   0.00534   0.00510  -0.05691  -0.04552
  33   39226.4    254.9   0.036347636   0.30505   0.52198  -0.07422  -0.16457
  34   39424.9    253.6   0.163248236   1.36318  -0.25192  -0.82599   0.78579
  35   39552.5    252.8   0.088493025   0.73657  -0.39235   0.75194  -0.13119
  36   39577.2    252.7   0.043795763   0.36430  -0.31005   0.51717   0.02655
  37   39872.7    250.8   0.067709963   0.55905  -0.74297  -0.05001   0.06742
  38   40170.3    248.9   0.017745224   0.14543  -0.18551   0.11827  -0.31150

FINAL SINGLE POINT ENERGY     -3550.437310010153

DIPOLE MOMENT
-------------
                                X             Y             Z
Electronic contribution:     -5.99464       8.14873      12.27940
Nuclear contribution   :      5.10779      -9.15782     -12.25606
                        -----------------------------------------
Total Dipole Moment    :     -0.88685      -1.00909       0.02334
                        -----------------------------------------
Magnitude (a.u.)       :      1.34362
Magnitude (Debye)      :      3.41521

Rotational constants in cm-1:     0.003200     0.000215     0.000207
Rotational constants in MHz :    95.939143     6.447888     6.193077

                             ****ORCA TERMINATED NORMALLY****
TOTAL RUN TIME: 0 days 0 hours 10 minutes 55 seconds 213 msec
