                         Program Version 4.2.0 -  RELEASE  -
|  1> # ORCA input file
|  2> # SCF done       -208.728603702590          0.000528686496
|  3> ! CAM-B3LYP def2-SVP def2/J RIJCOSX Grid4 TightSCF
|  4> %maxcore 5000
|  5> %tddft
|  6>     Mode sTDDFT
|  7>     Ethresh 5.0
|  8>     maxcore 5000
|  9> end
| 10>
| 11> %pal
| 12>   nprocs 6
| 13>   end
| 14> * xyz 0 1
| 15>    C       -0.81303        -4.90770        15.18824
| 16>    C       -0.05518        -3.79402        15.41751
| 17>    F        0.43409        -3.55233        16.64088
| 18>    C        0.22192        -2.88748        14.37437
| 19>    F        0.96881        -1.80422        14.62812
| 20>    C       -0.26350        -3.10724        13.11595
| 21>    C       -1.04786        -4.24598        12.84769
| 22>    C       -1.32917        -5.16330        13.90166
| 23>    C       -2.11683        -6.31109        13.65733
| 24>    C       -2.60666        -6.53406        12.39714
| 25>    C       -2.31328        -5.61903        11.34999
| 26>    C       -1.55889        -4.49999        11.55578
| 27>    C       -2.93395        -6.08348        10.09219
| 28>    O       -2.90444        -5.48961         9.03573
| 29>    C       -3.54591        -7.39767        10.41195
| 30>    C       -3.44011        -7.59881        11.85158
| 31>    C       -4.09084        -8.55037        12.59052
| 32>    C       -5.01745        -9.49354        12.09262
| 33>    N       -5.81082       -10.26765        11.79291
| 34>    C       -3.96669        -8.67425        13.99100
| 35>    N       -3.90115        -8.82724        15.12671
| 36>    C       -3.98827        -8.37531         9.56757
| 37>    C       -4.24989        -8.40602         8.16783
| 38>    C       -4.35026        -7.32371         7.28865
| 39>    C       -4.68409        -7.47696         5.95072
| 40>    C       -4.94983        -8.71606         5.36404
| 41>    C       -4.89876        -9.83055         6.23123
| 42>    C       -4.53565        -9.67479         7.60135
| 43>    N       -4.55737       -10.89353         8.15724
| 44>    N       -4.93122       -11.68334         7.18740
| 45>    N       -5.16146       -11.12875         6.03722
| 46>    C       -5.05823       -13.09541         7.36299
| 47>    C       -5.25116        -8.86462         3.97927
| 48>    C       -5.17713       -10.02207         3.19634
| 49>    C       -5.66604        -9.82831         1.85129
| 50>    N       -5.63546       -10.82806         0.96815
| 51>    C       -5.23100       -12.00105         1.38958
| 52>    C       -5.26347       -13.12372         0.42153
| 53>    O       -5.84773       -13.06462        -0.64127
| 54>    C       -4.56453       -14.34492         0.86029
| 55>    C       -4.07904       -14.51335         2.09421
| 56>    C       -4.18690       -13.49711         3.15633
| 57>    O       -3.88920       -13.73831         4.30898
| 58>    C       -4.71957       -12.18546         2.71687
| 59>    N       -4.65691       -11.19226         3.56992
| 60>    C       -6.09297        -8.51780         1.60879
| 61>    S       -5.86173        -7.55341         3.02869
| 62>    C       -6.68594        -7.97383         0.43197
| 63>    C       -6.71317        -6.60317         0.17227
| 64>    C       -7.25914        -6.07578        -0.98653
| 65>    C       -7.79963        -6.86003        -2.00992
| 66>    C       -7.82011        -8.25190        -1.75695
| 67>    C       -7.28540        -8.79432        -0.54821
| 68>    N       -7.50471       -10.11388        -0.57461
| 69>    N       -8.08749       -10.32860        -1.71003
| 70>    N       -8.31662        -9.28171        -2.46010
| 71>    C       -8.41975       -11.65292        -2.13223
| 72>    C       -8.35954        -6.22582        -3.16021
| 73>    C       -8.69335        -6.73217        -4.37615
| 74>    C       -9.67116        -5.98913        -5.22178
| 75>    O      -10.01866        -4.83892        -5.09184
| 76>    C      -10.16422        -6.98308        -6.19811
| 77>    C      -11.17457        -6.86239        -7.10779
| 78>    C      -11.50644        -7.97249        -7.91677
| 79>    C      -10.77908        -9.18909        -7.76729
| 80>    C      -11.12376       -10.29525        -8.56990
| 81>    C      -12.14082       -10.19835        -9.47744
| 82>    C      -12.85815        -8.99445        -9.62526
| 83>    C      -12.54777        -7.90364        -8.86265
| 84>    F      -13.85220        -8.92871       -10.52184
| 85>    F      -12.46778       -11.25258       -10.23713
| 86>    C       -9.72844        -9.28001        -6.82565
| 87>    C       -9.42448        -8.19197        -6.05222
| 88>    C       -8.40507        -7.98902        -5.02801
| 89>    C       -7.27387        -8.74068        -4.85817
| 90>    C       -7.04940        -9.97120        -5.50429
| 91>    N       -6.85059       -11.00028        -5.97337
| 92>    C       -6.19245        -8.32751        -4.05261
| 93>    N       -5.27884        -7.99833        -3.44141
| 94>    H       -1.01726        -5.59053        15.99811
| 95>    H       -0.04238        -2.40403        12.32834
| 96>    H       -2.30739        -6.98879        14.47360
| 97>    H       -1.35399        -3.81969        10.74312
| 98>    H       -4.17453        -9.34308        10.02163
| 99>    H       -4.15524        -6.33081         7.65769
|100>    H       -4.72591        -6.59668         5.32493
|101>    H       -4.51726       -13.38140         8.26155
|102>    H       -4.64727       -13.58697         6.48026
|103>    H       -6.10969       -13.36757         7.46795
|104>    H       -4.49761       -15.12785         0.11688
|105>    H       -3.60242       -15.43831         2.39003
|106>    H       -6.27480        -5.93185         0.89661
|107>    H       -7.23441        -5.00497        -1.12584
|108>    H       -7.67627       -12.33172        -1.71357
|109>    H       -8.40667       -11.69050        -3.21958
|110>    H       -9.41187       -11.92912        -1.77105
|111>    H       -8.64078        -5.18579        -3.01763
|112>    H      -11.71742        -5.93466        -7.20654
|113>    H      -10.58318       -11.22370        -8.47198
|114>    H      -13.10656        -6.98935        -8.98730
|115>    H       -9.19664       -10.21313        -6.72898
|116> *
|117>
|118>                          ****END OF INPUT****

CARTESIAN COORDINATES (ANGSTROEM)
---------------------------------
  C     -0.813030   -4.907700   15.188240
  C     -0.055180   -3.794020   15.417510
  F      0.434090   -3.552330   16.640880
  C      0.221920   -2.887480   14.374370
  F      0.968810   -1.804220   14.628120
  C     -0.263500   -3.107240   13.115950
  C     -1.047860   -4.245980   12.847690
  C     -1.329170   -5.163300   13.901660
  C     -2.116830   -6.311090   13.657330
  C     -2.606660   -6.534060   12.397140
  C     -2.313280   -5.619030   11.349990
  C     -1.558890   -4.499990   11.555780
  C     -2.933950   -6.083480   10.092190
  O     -2.904440   -5.489610    9.035730
  C     -3.545910   -7.397670   10.411950
  C     -3.440110   -7.598810   11.851580
  C     -4.090840   -8.550370   12.590520
  C     -5.017450   -9.493540   12.092620
  N     -5.810820  -10.267650   11.792910
  C     -3.966690   -8.674250   13.991000
  N     -3.901150   -8.827240   15.126710
  C     -3.988270   -8.375310    9.567570
  C     -4.249890   -8.406020    8.167830
  C     -4.350260   -7.323710    7.288650
  C     -4.684090   -7.476960    5.950720
  C     -4.949830   -8.716060    5.364040
  C     -4.898760   -9.830550    6.231230
  C     -4.535650   -9.674790    7.601350
  N     -4.557370  -10.893530    8.157240
  N     -4.931220  -11.683340    7.187400
  N     -5.161460  -11.128750    6.037220
  C     -5.058230  -13.095410    7.362990
  C     -5.251160   -8.864620    3.979270
  C     -5.177130  -10.022070    3.196340
  C     -5.666040   -9.828310    1.851290
  N     -5.635460  -10.828060    0.968150
  C     -5.231000  -12.001050    1.389580
  C     -5.263470  -13.123720    0.421530
  O     -5.847730  -13.064620   -0.641270
  C     -4.564530  -14.344920    0.860290
  C     -4.079040  -14.513350    2.094210
  C     -4.186900  -13.497110    3.156330
  O     -3.889200  -13.738310    4.308980
  C     -4.719570  -12.185460    2.716870
  N     -4.656910  -11.192260    3.569920
  C     -6.092970   -8.517800    1.608790
  S     -5.861730   -7.553410    3.028690
  C     -6.685940   -7.973830    0.431970
  C     -6.713170   -6.603170    0.172270
  C     -7.259140   -6.075780   -0.986530
  C     -7.799630   -6.860030   -2.009920
  C     -7.820110   -8.251900   -1.756950
  C     -7.285400   -8.794320   -0.548210
  N     -7.504710  -10.113880   -0.574610
  N     -8.087490  -10.328600   -1.710030
  N     -8.316620   -9.281710   -2.460100
  C     -8.419750  -11.652920   -2.132230
  C     -8.359540   -6.225820   -3.160210
  C     -8.693350   -6.732170   -4.376150
  C     -9.671160   -5.989130   -5.221780
  O    -10.018660   -4.838920   -5.091840
  C    -10.164220   -6.983080   -6.198110
  C    -11.174570   -6.862390   -7.107790
  C    -11.506440   -7.972490   -7.916770
  C    -10.779080   -9.189090   -7.767290
  C    -11.123760  -10.295250   -8.569900
  C    -12.140820  -10.198350   -9.477440
  C    -12.858150   -8.994450   -9.625260
  C    -12.547770   -7.903640   -8.862650
  F    -13.852200   -8.928710  -10.521840
  F    -12.467780  -11.252580  -10.237130
  C     -9.728440   -9.280010   -6.825650
  C     -9.424480   -8.191970   -6.052220
  C     -8.405070   -7.989020   -5.028010
  C     -7.273870   -8.740680   -4.858170
  C     -7.049400   -9.971200   -5.504290
  N     -6.850590  -11.000280   -5.973370
  C     -6.192450   -8.327510   -4.052610
  N     -5.278840   -7.998330   -3.441410
  H     -1.017260   -5.590530   15.998110
  H     -0.042380   -2.404030   12.328340
  H     -2.307390   -6.988790   14.473600
  H     -1.353990   -3.819690   10.743120
  H     -4.174530   -9.343080   10.021630
  H     -4.155240   -6.330810    7.657690
  H     -4.725910   -6.596680    5.324930
  H     -4.517260  -13.381400    8.261550
  H     -4.647270  -13.586970    6.480260
  H     -6.109690  -13.367570    7.467950
  H     -4.497610  -15.127850    0.116880
  H     -3.602420  -15.438310    2.390030
  H     -6.274800   -5.931850    0.896610
  H     -7.234410   -5.004970   -1.125840
  H     -7.676270  -12.331720   -1.713570
  H     -8.406670  -11.690500   -3.219580
  H     -9.411870  -11.929120   -1.771050
  H     -8.640780   -5.185790   -3.017630
  H    -11.717420   -5.934660   -7.206540
  H    -10.583180  -11.223700   -8.471980
  H    -13.106560   -6.989350   -8.987300
  H     -9.196640  -10.213130   -6.728980

 Total Charge           Charge          ....    0
 Multiplicity           Mult            ....    1
 Number of Electrons    NEL             ....  538
 Basis Dimension        Dim             .... 1220

ORBITAL ENERGIES
----------------

  NO   OCC          E(Eh)            E(eV)
   0   2.0000     -89.002153     -2421.8717
   1   2.0000     -24.798429      -674.7996
   2   2.0000     -24.797449      -674.7729
   3   2.0000     -24.795990      -674.7332
   4   2.0000     -24.795860      -674.7296
   5   2.0000     -19.236070      -523.4401
   6   2.0000     -19.236014      -523.4385
   7   2.0000     -19.221515      -523.0440
   8   2.0000     -19.214697      -522.8585
   9   2.0000     -14.546360      -395.8266
  10   2.0000     -14.543021      -395.7357
  11   2.0000     -14.444053      -393.0427
  12   2.0000     -14.442599      -393.0031
  13   2.0000     -14.442117      -392.9900
  14   2.0000     -14.441969      -392.9859
  15   2.0000     -14.440804      -392.9543
  16   2.0000     -14.440079      -392.9345
  17   2.0000     -14.416093      -392.2818
  18   2.0000     -14.415034      -392.2530
  19   2.0000     -14.412642      -392.1879
  20   2.0000     -14.408863      -392.0851
  21   2.0000     -10.384171      -282.5677
  22   2.0000     -10.384052      -282.5644
  23   2.0000     -10.381545      -282.4962
  24   2.0000     -10.380853      -282.4774
  25   2.0000     -10.378878      -282.4236
  26   2.0000     -10.378541      -282.4144
  27   2.0000     -10.372960      -282.2626
  28   2.0000     -10.365238      -282.0525
  29   2.0000     -10.342466      -281.4328
  30   2.0000     -10.340719      -281.3853
  31   2.0000     -10.340427      -281.3773
  32   2.0000     -10.340159      -281.3700
  33   2.0000     -10.337779      -281.3053
  34   2.0000     -10.337520      -281.2982
  35   2.0000     -10.336668      -281.2750
  36   2.0000     -10.336229      -281.2631
  37   2.0000     -10.335803      -281.2515
  38   2.0000     -10.332097      -281.1507
  39   2.0000     -10.320943      -280.8471
  40   2.0000     -10.320150      -280.8256
  41   2.0000     -10.318403      -280.7780
  42   2.0000     -10.317842      -280.7628
  43   2.0000     -10.316762      -280.7334
  44   2.0000     -10.316309      -280.7210
  45   2.0000     -10.315602      -280.7018
  46   2.0000     -10.315040      -280.6865
  47   2.0000     -10.313315      -280.6396
  48   2.0000     -10.311483      -280.5897
  49   2.0000     -10.311376      -280.5868
  50   2.0000     -10.311080      -280.5787
  51   2.0000     -10.310784      -280.5707
  52   2.0000     -10.310619      -280.5662
  53   2.0000     -10.310327      -280.5583
  54   2.0000     -10.310307      -280.5577
  55   2.0000     -10.308996      -280.5221
  56   2.0000     -10.308512      -280.5089
  57   2.0000     -10.308040      -280.4960
  58   2.0000     -10.307388      -280.4783
  59   2.0000     -10.306885      -280.4646
  60   2.0000     -10.304893      -280.4104
  61   2.0000     -10.304251      -280.3929
  62   2.0000     -10.302584      -280.3476
  63   2.0000     -10.301957      -280.3305
  64   2.0000     -10.301351      -280.3140
  65   2.0000     -10.301232      -280.3108
  66   2.0000     -10.300849      -280.3004
  67   2.0000     -10.300577      -280.2930
  68   2.0000     -10.300309      -280.2857
  69   2.0000     -10.300240      -280.2838
  70   2.0000     -10.298954      -280.2488
  71   2.0000     -10.298075      -280.2249
  72   2.0000     -10.298013      -280.2232
  73   2.0000     -10.296958      -280.1945
  74   2.0000     -10.295351      -280.1508
  75   2.0000     -10.293437      -280.0987
  76   2.0000     -10.293382      -280.0972
  77   2.0000     -10.290717      -280.0247
  78   2.0000     -10.289612      -279.9946
  79   2.0000      -8.096615      -220.3201
  80   2.0000      -6.065404      -165.0480
  81   2.0000      -6.061352      -164.9378
  82   2.0000      -6.059800      -164.8955
  83   2.0000      -1.320819       -35.9413
  84   2.0000      -1.318728       -35.8844
  85   2.0000      -1.305945       -35.5366
  86   2.0000      -1.303915       -35.4813
  87   2.0000      -1.224903       -33.3313
  88   2.0000      -1.221636       -33.2424
  89   2.0000      -1.151294       -31.3283
  90   2.0000      -1.147437       -31.2233
  91   2.0000      -1.136649       -30.9298
  92   2.0000      -1.129926       -30.7468
  93   2.0000      -1.100402       -29.9435
  94   2.0000      -1.026495       -27.9324
  95   2.0000      -1.019116       -27.7316
  96   2.0000      -1.017304       -27.6823
  97   2.0000      -1.015129       -27.6231
  98   2.0000      -1.003629       -27.3101
  99   2.0000      -1.001374       -27.2488
 100   2.0000      -0.997646       -27.1473
 101   2.0000      -0.994445       -27.0602
 102   2.0000      -0.992456       -27.0061
 103   2.0000      -0.991760       -26.9872
 104   2.0000      -0.988128       -26.8883
 105   2.0000      -0.982811       -26.7436
 106   2.0000      -0.979720       -26.6595
 107   2.0000      -0.976862       -26.5818
 108   2.0000      -0.945556       -25.7299
 109   2.0000      -0.933631       -25.4054
 110   2.0000      -0.933377       -25.3985
 111   2.0000      -0.929758       -25.3000
 112   2.0000      -0.925316       -25.1791
 113   2.0000      -0.914957       -24.8972
 114   2.0000      -0.904443       -24.6111
 115   2.0000      -0.895806       -24.3761
 116   2.0000      -0.892367       -24.2825
 117   2.0000      -0.889052       -24.1923
 118   2.0000      -0.885437       -24.0940
 119   2.0000      -0.875141       -23.8138
 120   2.0000      -0.865806       -23.5598
 121   2.0000      -0.848422       -23.0867
 122   2.0000      -0.840376       -22.8678
 123   2.0000      -0.837635       -22.7932
 124   2.0000      -0.831228       -22.6189
 125   2.0000      -0.822193       -22.3730
 126   2.0000      -0.815707       -22.1965
 127   2.0000      -0.802767       -21.8444
 128   2.0000      -0.796806       -21.6822
 129   2.0000      -0.792739       -21.5715
 130   2.0000      -0.783103       -21.3093
 131   2.0000      -0.767247       -20.8778
 132   2.0000      -0.762181       -20.7400
 133   2.0000      -0.755105       -20.5474
 134   2.0000      -0.750993       -20.4356
 135   2.0000      -0.741795       -20.1853
 136   2.0000      -0.733593       -19.9621
 137   2.0000      -0.730290       -19.8722
 138   2.0000      -0.728679       -19.8284
 139   2.0000      -0.718391       -19.5484
 140   2.0000      -0.714369       -19.4390
 141   2.0000      -0.713479       -19.4147
 142   2.0000      -0.708279       -19.2732
 143   2.0000      -0.702537       -19.1170
 144   2.0000      -0.694941       -18.9103
 145   2.0000      -0.682704       -18.5773
 146   2.0000      -0.680966       -18.5300
 147   2.0000      -0.679195       -18.4818
 148   2.0000      -0.668463       -18.1898
 149   2.0000      -0.664608       -18.0849
 150   2.0000      -0.659658       -17.9502
 151   2.0000      -0.653513       -17.7830
 152   2.0000      -0.650947       -17.7132
 153   2.0000      -0.643948       -17.5227
 154   2.0000      -0.641995       -17.4696
 155   2.0000      -0.638667       -17.3790
 156   2.0000      -0.634706       -17.2712
 157   2.0000      -0.629699       -17.1350
 158   2.0000      -0.623849       -16.9758
 159   2.0000      -0.616501       -16.7758
 160   2.0000      -0.612998       -16.6805
 161   2.0000      -0.611612       -16.6428
 162   2.0000      -0.609159       -16.5761
 163   2.0000      -0.607618       -16.5341
 164   2.0000      -0.604943       -16.4613
 165   2.0000      -0.603689       -16.4272
 166   2.0000      -0.602700       -16.4003
 167   2.0000      -0.587761       -15.9938
 168   2.0000      -0.586811       -15.9679
 169   2.0000      -0.585401       -15.9296
 170   2.0000      -0.583344       -15.8736
 171   2.0000      -0.582540       -15.8517
 172   2.0000      -0.581004       -15.8099
 173   2.0000      -0.575961       -15.6727
 174   2.0000      -0.572918       -15.5899
 175   2.0000      -0.571629       -15.5548
 176   2.0000      -0.570079       -15.5126
 177   2.0000      -0.568405       -15.4671
 178   2.0000      -0.565799       -15.3962
 179   2.0000      -0.554361       -15.0849
 180   2.0000      -0.552149       -15.0247
 181   2.0000      -0.549056       -14.9406
 182   2.0000      -0.547074       -14.8866
 183   2.0000      -0.546206       -14.8630
 184   2.0000      -0.545128       -14.8337
 185   2.0000      -0.542538       -14.7632
 186   2.0000      -0.539311       -14.6754
 187   2.0000      -0.538237       -14.6462
 188   2.0000      -0.535725       -14.5778
 189   2.0000      -0.533304       -14.5119
 190   2.0000      -0.531732       -14.4692
 191   2.0000      -0.529735       -14.4148
 192   2.0000      -0.529267       -14.4021
 193   2.0000      -0.526847       -14.3362
 194   2.0000      -0.523013       -14.2319
 195   2.0000      -0.519296       -14.1308
 196   2.0000      -0.517680       -14.0868
 197   2.0000      -0.515869       -14.0375
 198   2.0000      -0.514767       -14.0075
 199   2.0000      -0.512178       -13.9371
 200   2.0000      -0.508389       -13.8340
 201   2.0000      -0.505983       -13.7685
 202   2.0000      -0.505501       -13.7554
 203   2.0000      -0.502923       -13.6852
 204   2.0000      -0.500838       -13.6285
 205   2.0000      -0.498611       -13.5679
 206   2.0000      -0.497158       -13.5284
 207   2.0000      -0.495389       -13.4802
 208   2.0000      -0.491934       -13.3862
 209   2.0000      -0.490716       -13.3531
 210   2.0000      -0.487670       -13.2702
 211   2.0000      -0.485942       -13.2232
 212   2.0000      -0.485014       -13.1979
 213   2.0000      -0.482824       -13.1383
 214   2.0000      -0.481047       -13.0900
 215   2.0000      -0.473014       -12.8714
 216   2.0000      -0.470000       -12.7893
 217   2.0000      -0.466946       -12.7063
 218   2.0000      -0.465089       -12.6557
 219   2.0000      -0.463800       -12.6206
 220   2.0000      -0.460967       -12.5435
 221   2.0000      -0.460070       -12.5191
 222   2.0000      -0.457227       -12.4418
 223   2.0000      -0.452047       -12.3008
 224   2.0000      -0.448398       -12.2015
 225   2.0000      -0.447488       -12.1768
 226   2.0000      -0.446025       -12.1370
 227   2.0000      -0.444415       -12.0931
 228   2.0000      -0.443496       -12.0681
 229   2.0000      -0.441539       -12.0149
 230   2.0000      -0.441038       -12.0013
 231   2.0000      -0.439114       -11.9489
 232   2.0000      -0.430203       -11.7064
 233   2.0000      -0.429088       -11.6761
 234   2.0000      -0.425375       -11.5751
 235   2.0000      -0.425118       -11.5680
 236   2.0000      -0.423774       -11.5315
 237   2.0000      -0.420572       -11.4443
 238   2.0000      -0.419825       -11.4240
 239   2.0000      -0.414392       -11.2762
 240   2.0000      -0.411694       -11.2028
 241   2.0000      -0.405629       -11.0377
 242   2.0000      -0.402722       -10.9586
 243   2.0000      -0.399242       -10.8639
 244   2.0000      -0.394282       -10.7290
 245   2.0000      -0.391850       -10.6628
 246   2.0000      -0.387581       -10.5466
 247   2.0000      -0.384970       -10.4756
 248   2.0000      -0.381556       -10.3827
 249   2.0000      -0.380877       -10.3642
 250   2.0000      -0.372285       -10.1304
 251   2.0000      -0.368305       -10.0221
 252   2.0000      -0.361188        -9.8284
 253   2.0000      -0.355518        -9.6741
 254   2.0000      -0.351366        -9.5612
 255   2.0000      -0.347580        -9.4581
 256   2.0000      -0.342627        -9.3234
 257   2.0000      -0.339930        -9.2500
 258   2.0000      -0.335041        -9.1169
 259   2.0000      -0.332951        -9.0601
 260   2.0000      -0.331256        -9.0139
 261   2.0000      -0.326456        -8.8833
 262   2.0000      -0.318881        -8.6772
 263   2.0000      -0.317177        -8.6308
 264   2.0000      -0.311179        -8.4676
 265   2.0000      -0.301666        -8.2087
 266   2.0000      -0.293741        -7.9931
 267   2.0000      -0.289690        -7.8829
 268   2.0000      -0.257159        -6.9977
 269   0.0000      -0.116901        -3.1810
 270   0.0000      -0.099379        -2.7042
 271   0.0000      -0.085237        -2.3194
 272   0.0000      -0.078745        -2.1427
 273   0.0000      -0.060146        -1.6367

MULLIKEN ATOMIC CHARGES
-----------------------
   0 C :   -0.108049
   1 C :    0.242022
   2 F :   -0.170925
   3 C :    0.238105
   4 F :   -0.171714
   5 C :   -0.105530
   6 C :    0.116967
   7 C :    0.114623
   8 C :   -0.084353
   9 C :    0.053303
  10 C :   -0.000943
  11 C :   -0.085410
  12 C :    0.164307
  13 O :   -0.152596
  14 C :   -0.058432
  15 C :    0.295952
  16 C :   -0.338473
  17 C :   -0.208638
  18 N :    0.169185
  19 C :   -0.184411
  20 N :    0.147160
  21 C :   -0.060837
  22 C :    0.028781
  23 C :   -0.013588
  24 C :   -0.055728
  25 C :    0.106803
  26 C :   -0.019417
  27 C :   -0.013298
  28 N :   -0.051108
  29 N :   -0.061235
  30 N :   -0.025294
  31 C :    0.139434
  32 C :   -0.187174
  33 C :    0.033037
  34 C :    0.041111
  35 N :    0.107080
  36 C :   -0.123121
  37 C :    0.160846
  38 O :   -0.118100
  39 C :   -0.014205
  40 C :   -0.008602
  41 C :    0.152712
  42 O :   -0.120262
  43 C :   -0.120702
  44 N :    0.097837
  45 C :   -0.196455
  46 S :    0.206578
  47 C :    0.097407
  48 C :   -0.048378
  49 C :   -0.012120
  50 C :    0.069381
  51 C :   -0.010332
  52 C :   -0.012324
  53 N :   -0.010379
  54 N :   -0.055448
  55 N :   -0.075657
  56 C :    0.134374
  57 C :   -0.009110
  58 C :   -0.117343
  59 C :    0.135773
  60 O :   -0.141141
  61 C :    0.011264
  62 C :   -0.081750
  63 C :    0.111170
  64 C :    0.114220
  65 C :   -0.107499
  66 C :    0.241273
  67 C :    0.235779
  68 C :   -0.103428
  69 F :   -0.174089
  70 F :   -0.172464
  71 C :   -0.090846
  72 C :    0.047732
  73 C :    0.303354
  74 C :   -0.301187
  75 C :   -0.187742
  76 N :    0.143418
  77 C :   -0.219707
  78 N :    0.173381
  79 H :    0.007471
  80 H :   -0.000793
  81 H :   -0.004785
  82 H :   -0.011089
  83 H :    0.038741
  84 H :    0.005293
  85 H :   -0.016932
  86 H :    0.049199
  87 H :    0.063140
  88 H :    0.049016
  89 H :    0.021671
  90 H :    0.019241
  91 H :   -0.014452
  92 H :   -0.007791
  93 H :    0.065051
  94 H :    0.050694
  95 H :    0.044823
  96 H :    0.015021
  97 H :   -0.010337
  98 H :    0.003415
  99 H :   -0.001622
 100 H :   -0.009798
Sum of atomic charges:   -0.0000000

LOEWDIN ATOMIC CHARGES
----------------------
   0 C :   -0.029514
   1 C :    0.066619
   2 F :   -0.049017
   3 C :    0.067240
   4 F :   -0.049739
   5 C :   -0.033577
   6 C :   -0.008890
   7 C :   -0.006064
   8 C :    0.016596
   9 C :   -0.022620
  10 C :   -0.051768
  11 C :    0.029043
  12 C :    0.087266
  13 O :   -0.139501
  14 C :   -0.090116
  15 C :    0.074391
  16 C :   -0.135010
  17 C :   -0.028868
  18 N :   -0.042927
  19 C :   -0.016446
  20 N :   -0.054078
  21 C :    0.084828
  22 C :   -0.048330
  23 C :    0.024104
  24 C :   -0.032489
  25 C :   -0.019191
  26 C :   -0.051016
  27 C :   -0.036246
  28 N :   -0.095018
  29 N :    0.169567
  30 N :   -0.059033
  31 C :    0.029959
  32 C :   -0.162757
  33 C :   -0.038272
  34 C :   -0.038283
  35 N :    0.027991
  36 C :   -0.044247
  37 C :    0.069938
  38 O :   -0.104205
  39 C :   -0.010108
  40 C :   -0.011379
  41 C :    0.068182
  42 O :   -0.107414
  43 C :   -0.045074
  44 N :    0.027268
  45 C :   -0.160544
  46 S :    0.533577
  47 C :   -0.017652
  48 C :   -0.029820
  49 C :    0.019397
  50 C :   -0.039150
  51 C :   -0.038243
  52 C :   -0.043048
  53 N :   -0.046801
  54 N :    0.170766
  55 N :   -0.096373
  56 C :    0.028023
  57 C :    0.067089
  58 C :   -0.080446
  59 C :    0.085360
  60 O :   -0.141104
  61 C :   -0.054439
  62 C :    0.029871
  63 C :   -0.011238
  64 C :   -0.005185
  65 C :   -0.032216
  66 C :    0.066219
  67 C :    0.065074
  68 C :   -0.033032
  69 F :   -0.051159
  70 F :   -0.050399
  71 C :    0.008566
  72 C :   -0.013631
  73 C :    0.069701
  74 C :   -0.126530
  75 C :   -0.014405
  76 N :   -0.060724
  77 C :   -0.021414
  78 N :   -0.052161
  79 H :    0.047764
  80 H :    0.044636
  81 H :    0.039959
  82 H :    0.039606
  83 H :    0.050676
  84 H :    0.033932
  85 H :    0.025325
  86 H :    0.041397
  87 H :    0.041012
  88 H :    0.039816
  89 H :    0.046489
  90 H :    0.045756
  91 H :    0.025654
  92 H :    0.037644
  93 H :    0.042581
  94 H :    0.040175
  95 H :    0.037480
  96 H :    0.045972
  97 H :    0.039982
  98 H :    0.046183
  99 H :    0.044368
 100 H :    0.037872

  Mayer bond orders larger than 0.100000
B(  0-C ,  1-C ) :   1.4423 B(  0-C ,  5-C ) :   0.1089 B(  0-C ,  7-C ) :   1.1870
B(  0-C , 79-H ) :   1.0063 B(  1-C ,  2-F ) :   1.1351 B(  1-C ,  3-C ) :   1.1917
B(  3-C ,  4-F ) :   1.1334 B(  3-C ,  5-C ) :   1.4440 B(  5-C ,  6-C ) :   1.1925
B(  5-C , 80-H ) :   1.0063 B(  6-C ,  7-C ) :   1.2555 B(  6-C , 11-C ) :   1.1895
B(  7-C ,  8-C ) :   1.2176 B(  8-C ,  9-C ) :   1.4489 B(  8-C , 81-H ) :   0.9899
B(  9-C , 10-C ) :   1.2228 B(  9-C , 15-C ) :   0.9828 B( 10-C , 11-C ) :   1.4713
B( 10-C , 12-C ) :   0.9486 B( 11-C , 82-H ) :   1.0155 B( 12-C , 13-O ) :   2.1800
B( 12-C , 14-C ) :   0.9344 B( 14-C , 15-C ) :   1.0630 B( 14-C , 21-C ) :   1.5426
B( 15-C , 16-C ) :   1.6452 B( 16-C , 17-C ) :   1.1332 B( 16-C , 19-C ) :   1.1447
B( 17-C , 18-N ) :   3.0039 B( 19-C , 20-N ) :   2.9677 B( 21-C , 22-C ) :   1.1929
B( 21-C , 83-H ) :   0.9435 B( 22-C , 23-C ) :   1.3738 B( 22-C , 25-C ) :   0.1034
B( 22-C , 27-C ) :   1.1582 B( 23-C , 24-C ) :   1.3047 B( 23-C , 84-H ) :   0.9728
B( 24-C , 25-C ) :   1.3743 B( 24-C , 85-H ) :   0.9929 B( 25-C , 26-C ) :   1.2144
B( 25-C , 32-C ) :   1.0988 B( 26-C , 27-C ) :   1.2167 B( 26-C , 30-N ) :   1.4554
B( 27-C , 28-N ) :   1.4934 B( 28-N , 29-N ) :   1.2216 B( 28-N , 30-N ) :   0.1561
B( 29-N , 30-N ) :   1.2541 B( 29-N , 31-C ) :   0.9479 B( 31-C , 86-H ) :   0.9651
B( 31-C , 87-H ) :   0.9539 B( 31-C , 88-H ) :   0.9667 B( 32-C , 33-C ) :   1.3482
B( 32-C , 45-C ) :   0.1429 B( 32-C , 46-S ) :   1.1840 B( 33-C , 34-C ) :   1.1750
B( 33-C , 44-N ) :   1.4370 B( 34-C , 35-N ) :   1.4425 B( 34-C , 45-C ) :   1.3432
B( 35-N , 36-C ) :   1.7229 B( 36-C , 37-C ) :   0.8999 B( 36-C , 43-C ) :   1.0825
B( 37-C , 38-O ) :   2.1544 B( 37-C , 39-C ) :   1.0280 B( 39-C , 40-C ) :   1.6942
B( 39-C , 89-H ) :   0.9955 B( 40-C , 41-C ) :   1.0278 B( 40-C , 90-H ) :   0.9951
B( 41-C , 42-O ) :   2.1633 B( 41-C , 43-C ) :   0.8988 B( 43-C , 44-N ) :   1.7180
B( 45-C , 46-S ) :   1.1883 B( 45-C , 47-C ) :   1.0986 B( 47-C , 48-C ) :   1.3832
B( 47-C , 50-C ) :   0.1015 B( 47-C , 52-C ) :   1.2200 B( 48-C , 49-C ) :   1.3029
B( 48-C , 91-H ) :   0.9882 B( 49-C , 50-C ) :   1.3721 B( 49-C , 92-H ) :   0.9947
B( 50-C , 51-C ) :   1.1744 B( 50-C , 57-C ) :   1.1011 B( 51-C , 52-C ) :   1.2254
B( 51-C , 55-N ) :   1.4678 B( 52-C , 53-N ) :   1.4600 B( 53-N , 54-N ) :   1.2705
B( 53-N , 55-N ) :   0.1498 B( 54-N , 55-N ) :   1.2021 B( 54-N , 56-C ) :   0.9470
B( 56-C , 93-H ) :   0.9497 B( 56-C , 94-H ) :   0.9633 B( 56-C , 95-H ) :   0.9648
B( 57-C , 58-C ) :   1.6576 B( 57-C , 96-H ) :   0.9437 B( 58-C , 59-C ) :   0.9356
B( 58-C , 73-C ) :   1.0423 B( 59-C , 60-O ) :   2.2684 B( 59-C , 61-C ) :   0.9185
B( 61-C , 62-C ) :   1.4742 B( 61-C , 72-C ) :   1.2160 B( 62-C , 63-C ) :   1.1952
B( 62-C , 97-H ) :   1.0153 B( 63-C , 64-C ) :   1.2578 B( 63-C , 68-C ) :   1.1920
B( 64-C , 65-C ) :   1.1907 B( 64-C , 71-C ) :   1.2094 B( 65-C , 66-C ) :   1.4407
B( 65-C , 68-C ) :   0.1092 B( 65-C , 98-H ) :   1.0064 B( 66-C , 67-C ) :   1.1939
B( 66-C , 70-F ) :   1.1331 B( 67-C , 68-C ) :   1.4438 B( 67-C , 69-F ) :   1.1306
B( 68-C , 99-H ) :   1.0066 B( 71-C , 72-C ) :   1.4603 B( 71-C ,100-H ) :   0.9939
B( 72-C , 73-C ) :   1.0046 B( 73-C , 74-C ) :   1.6565 B( 74-C , 75-C ) :   1.1552
B( 74-C , 77-C ) :   1.1532 B( 75-C , 76-N ) :   2.9499 B( 77-C , 78-N ) :   3.0182

-----------------------------------------------------------------------------
         ABSORPTION SPECTRUM VIA TRANSITION ELECTRIC DIPOLE MOMENTS
-----------------------------------------------------------------------------
State   Energy  Wavelength   fosc         T2         TX        TY        TZ
        (cm-1)    (nm)                  (au**2)     (au)      (au)      (au)
-----------------------------------------------------------------------------
   0   15017.1    665.9   1.596676834  35.00312   1.82718   0.19866   5.62362
   1   18954.4    527.6   0.155699122   2.70428  -0.38734   1.59392   0.11694
   2   20085.9    497.9   0.015467134   0.25351  -0.02848  -0.03420   0.50153
   3   22021.3    454.1   0.138716732   2.07378  -0.29029  -0.30888  -1.37626
   4   22423.3    446.0   0.306294081   4.49692   0.54304   0.34491   2.02066
   5   22891.0    436.9   0.004774578   0.06867   0.08531  -0.16415   0.18558
   6   23703.7    421.9   0.003541878   0.04919  -0.16758  -0.13382   0.05656
   7   24817.1    402.9   0.050813094   0.67406   0.75238  -0.28646   0.16103
   8   26594.8    376.0   0.020664106   0.25580   0.24397   0.42960   0.10826
   9   27002.3    370.3   0.001665316   0.02030  -0.02988   0.12402   0.06347
  10   27597.7    362.3   0.012960324   0.15460  -0.14740   0.11513   0.34586
  11   27901.7    358.4   0.015388876   0.18157  -0.39303  -0.16057  -0.03630
  12   28253.1    353.9   0.004307496   0.05019   0.06217  -0.12457  -0.17553
  13   28528.0    350.5   0.093234318   1.07592   0.48433   0.84974   0.34538
  14   28822.2    347.0   0.088614158   1.01217   0.47510   0.05932   0.88483
  15   29030.7    344.5   0.014490187   0.16432   0.35966   0.11335   0.14873
  16   29254.6    341.8   0.022688972   0.25533  -0.26096  -0.39233   0.18248
  17   29447.4    339.6   0.026144644   0.29229   0.02219  -0.53391   0.08205
  18   29567.2    338.2   0.120299455   1.33946   0.64031   0.83575   0.48060
  19   29850.8    335.0   0.061976155   0.68351   0.31289  -0.71905   0.26186
  20   30102.9    332.2   0.010385397   0.11358  -0.04452   0.26504  -0.20335
  21   30144.1    331.7   0.035608186   0.38889  -0.48598   0.17002  -0.35186
  22   30808.9    324.6   0.227399016   2.42990  -0.84021   0.01157  -1.31294
  23   31076.0    321.8   0.012298795   0.13029   0.28715   0.14815   0.16089
  24   31323.4    319.3   0.015680080   0.16480   0.28447  -0.26873   0.10799
  25   32109.3    311.4   0.198682002   2.03706  -1.14348   0.70769  -0.47821
  26   32285.8    309.7   0.006464011   0.06591  -0.08592   0.02486  -0.24065
  27   32711.1    305.7   0.111287744   1.12002  -0.62492   0.35784  -0.77553
  28   32876.5    304.2   0.385327969   3.85852  -1.03445  -0.89800  -1.40784
  29   33446.3    299.0   0.308509286   3.03666  -1.31986  -1.13497  -0.08037
  30   33641.3    297.3   0.052097545   0.50982   0.52609  -0.10627   0.47092
  31   33799.9    295.9   0.095727845   0.93239   0.41991  -0.63624   0.59268
  32   34387.2    290.8   0.359562961   3.44234  -0.16525  -1.71987  -0.67606
  33   34498.9    289.9   0.048114253   0.45914  -0.40877  -0.30337  -0.44722
  34   34618.1    288.9   0.130974071   1.24554  -0.62736  -0.74369  -0.54670
  35   34689.0    288.3   0.001896492   0.01800   0.09813  -0.08220  -0.04015
  36   34895.1    286.6   0.104565296   0.98650   0.15752   0.82694   0.52713
  37   34932.5    286.3   0.117803171   1.11021   0.85304   0.01943   0.61818
  38   35214.4    284.0   0.050957012   0.47639   0.21913   0.62490   0.19460
  39   35257.0    283.6   0.082357866   0.76902  -0.39596  -0.59321  -0.51023
  40   35560.8    281.2   0.053482125   0.49512   0.27403   0.49390   0.41964
  41   35642.0    280.6   0.039974173   0.36923   0.41805  -0.37003  -0.23987
  42   35746.0    279.8   0.023916820   0.22027  -0.19908  -0.14411  -0.39984
  43   35921.9    278.4   0.020754758   0.19021   0.35696  -0.03515   0.24810
  44   36102.8    277.0   0.000007537   0.00007  -0.00441  -0.00696  -0.00092
  45   36468.3    274.2   0.031969277   0.28860  -0.51084   0.16543  -0.01639
  46   36534.6    273.7   0.205057992   1.84777   1.03947  -0.61741   0.62136
  47   36773.9    271.9   0.030601835   0.27396  -0.23365   0.28587  -0.37101
  48   37079.0    269.7   0.046717303   0.41479   0.60040   0.23161   0.02568
  49   37450.0    267.0   0.023165150   0.20364   0.36327   0.26638   0.02675
  50   37469.2    266.9   0.312607737   2.74664  -0.78403  -1.43632   0.26251
  51   37693.0    265.3   0.026171198   0.22858  -0.28257  -0.12104   0.36617
  52   37896.6    263.9   0.039871373   0.34637   0.26458  -0.47777   0.21932
  53   38169.9    262.0   0.030831281   0.26592  -0.37873  -0.17415   0.30357
  54   38340.2    260.8   0.005231112   0.04492   0.01098   0.14810  -0.15121
  55   38635.9    258.8   0.002751730   0.02345  -0.13690   0.01412  -0.06712
  56   38852.3    257.4   0.024302549   0.20593  -0.25461   0.24807  -0.28207
  57   38935.3    256.8   0.041840633   0.35378  -0.08663  -0.10041  -0.57982
  58   39214.4    255.0   0.050724056   0.42584   0.42264   0.01802   0.49688
  59   39412.0    253.7   0.011838768   0.09889   0.24479  -0.01540   0.19680
  60   39606.7    252.5   0.069469389   0.57743  -0.14515   0.02710  -0.74540
  61   39965.3    250.2   0.029582896   0.24369   0.17326   0.27588  -0.37089

FINAL SINGLE POINT ENERGY     -3974.242309610985

DIPOLE MOMENT
-------------
                                X             Y             Z
Electronic contribution:      1.96295      18.18607       1.07439
Nuclear contribution   :     -2.21944     -18.33909      -1.80717
                        -----------------------------------------
Total Dipole Moment    :     -0.25650      -0.15301      -0.73277
                        -----------------------------------------
Magnitude (a.u.)       :      0.79130
Magnitude (Debye)      :      2.01134

Rotational constants in cm-1:     0.001913     0.000217     0.000203
Rotational constants in MHz :    57.352391     6.511151     6.074365

                             ****ORCA TERMINATED NORMALLY****
TOTAL RUN TIME: 0 days 0 hours 10 minutes 57 seconds 912 msec
