                         Program Version 4.2.0 -  RELEASE  -
|  1> # ORCA input file
|  2> # SCF done       -210.106307520448          0.000924000428
|  3> ! CAM-B3LYP def2-SVP def2/J RIJCOSX Grid4 TightSCF
|  4> %maxcore 5000
|  5> %tddft
|  6>     Mode sTDDFT
|  7>     Ethresh 5.0
|  8>     maxcore 5000
|  9> end
| 10>
| 11> %pal
| 12>   nprocs 6
| 13>   end
| 14> * xyz 0 1
| 15>    C        2.56269         0.26832         4.11382
| 16>    C        3.55149         0.79662         3.33226
| 17>    F        4.29927         1.80978         3.78644
| 18>    C        3.79790         0.28393         2.04224
| 19>    F        4.77448         0.82054         1.29989
| 20>    C        3.05138        -0.75054         1.55171
| 21>    C        2.02620        -1.31749         2.33359
| 22>    C        1.77511        -0.79926         3.63762
| 23>    C        0.75072        -1.35132         4.43997
| 24>    C        0.00219        -2.39070         3.95291
| 25>    C        0.26527        -2.90666         2.65399
| 26>    C        1.24559        -2.39273         1.85475
| 27>    C       -0.65041        -4.02768         2.36774
| 28>    O       -0.67563        -4.68886         1.35357
| 29>    C       -1.45109        -4.20942         3.60673
| 30>    C       -1.09860        -3.14924         4.53570
| 31>    C       -1.74137        -2.85053         5.70778
| 32>    C       -2.87504        -3.52908         6.20442
| 33>    N       -3.80814        -4.02226         6.65648
| 34>    C       -1.37387        -1.78548         6.55762
| 35>    N       -1.11664        -0.94023         7.28995
| 36>    C       -2.21961        -5.29301         3.92552
| 37>    C       -2.69178        -6.32389         3.08427
| 38>    C       -2.87818        -6.37389         1.70938
| 39>    C       -3.40155        -7.59380         1.29921
| 40>    C       -3.61431        -8.49300         2.36538
| 41>    S       -3.21212        -7.81816         3.87097
| 42>    C       -4.09475        -9.71896         1.83534
| 43>    C       -4.19520        -9.58736         0.43565
| 44>    C       -3.78523        -8.24523         0.05568
| 45>    C       -3.78645        -7.70737        -1.19688
| 46>    C       -4.19253        -8.44975        -2.32728
| 47>    N       -4.52809        -9.05137        -3.24349
| 48>    C       -3.41517        -6.36911        -1.45387
| 49>    N       -3.14248        -5.27986        -1.68261
| 50>    C       -4.64108       -10.75634        -0.17899
| 51>    C       -4.86940       -11.75266         0.74781
| 52>    S       -4.54814       -11.26708         2.38931
| 53>    C       -5.29663       -13.09641         0.48468
| 54>    N       -5.51307       -13.44107        -0.78039
| 55>    C       -5.86723       -14.70937        -0.97506
| 56>    N       -6.02365       -15.61034         0.00049
| 57>    C       -5.80237       -15.15251         1.21640
| 58>    N       -5.43609       -13.92454         1.52589
| 59>    C       -6.08165       -15.11228        -2.33417
| 60>    C       -6.38503       -16.36844        -2.81635
| 61>    C       -6.49621       -16.36018        -4.20675
| 62>    C       -6.27858       -15.08110        -4.75773
| 63>    S       -5.92950       -13.90133        -3.57977
| 64>    C       -6.40852       -15.17461        -6.16752
| 65>    C       -6.70694       -16.50773        -6.50738
| 66>    C       -6.77030       -17.29623        -5.28508
| 67>    C       -7.03093       -18.62983        -5.17826
| 68>    C       -7.28986       -19.43748        -6.30688
| 69>    N       -7.50966       -20.09199        -7.22171
| 70>    C       -7.06590       -19.29529        -3.93347
| 71>    N       -7.09960       -19.84546        -2.92871
| 72>    C       -6.86451       -16.69007        -7.87709
| 73>    C       -6.65710       -15.51806        -8.59081
| 74>    S       -6.30838       -14.15901        -7.52644
| 75>    C       -6.81297       -15.37800        -9.99015
| 76>    C       -6.42550       -14.37141       -10.81752
| 77>    C       -7.11188       -14.20978       -12.13280
| 78>    O       -7.81394       -15.02188       -12.68555
| 79>    C       -6.80047       -12.83050       -12.55897
| 80>    C       -7.28971       -12.13091       -13.62435
| 81>    C       -6.87286       -10.79490       -13.81791
| 82>    C       -5.95834       -10.20546       -12.89669
| 83>    C       -5.55753        -8.86818       -13.08995
| 84>    C       -6.03798        -8.15138       -14.14971
| 85>    C       -6.93931        -8.73642       -15.06226
| 86>    C       -7.34862       -10.03036       -14.90110
| 87>    F       -7.39401        -8.00996       -16.09105
| 88>    F       -5.65626        -6.88147       -14.33192
| 89>    C       -5.45962       -10.95770       -11.80865
| 90>    C       -5.86987       -12.25364       -11.64758
| 91>    C       -5.50315       -13.26578       -10.66132
| 92>    C       -4.33572       -13.28429        -9.94567
| 93>    C       -3.89019       -14.41532        -9.23085
| 94>    N       -3.48950       -15.33677        -8.67600
| 95>    C       -3.41254       -12.21857        -9.92995
| 96>    N       -2.64302       -11.36930        -9.87838
| 97>    H        2.38645         0.67378         5.09789
| 98>    H        3.25209        -1.13183         0.56279
| 99>    H        0.58967        -0.94225         5.42424
|100>    H        1.42151        -2.80222         0.87172
|101>    H       -2.48365        -5.42128         4.96914
|102>    H       -2.64134        -5.55538         1.05614
|103>    H       -4.79337       -10.90614        -1.23202
|104>    H       -5.92960       -15.84938         2.03507
|105>    H       -6.50760       -17.21820        -2.17012
|106>    H       -7.09401       -17.62466        -8.35633
|107>    H       -7.40759       -16.15463       -10.46342
|108>    H       -7.98617       -12.58955       -14.30949
|109>    H       -4.86537        -8.40642       -12.40342
|110>    H       -8.03912       -10.46326       -15.60775
|111>    H       -4.77455       -10.48764       -11.12104
|112> *
|113>
|114>                          ****END OF INPUT****

CARTESIAN COORDINATES (ANGSTROEM)
---------------------------------
  C      2.562690    0.268320    4.113820
  C      3.551490    0.796620    3.332260
  F      4.299270    1.809780    3.786440
  C      3.797900    0.283930    2.042240
  F      4.774480    0.820540    1.299890
  C      3.051380   -0.750540    1.551710
  C      2.026200   -1.317490    2.333590
  C      1.775110   -0.799260    3.637620
  C      0.750720   -1.351320    4.439970
  C      0.002190   -2.390700    3.952910
  C      0.265270   -2.906660    2.653990
  C      1.245590   -2.392730    1.854750
  C     -0.650410   -4.027680    2.367740
  O     -0.675630   -4.688860    1.353570
  C     -1.451090   -4.209420    3.606730
  C     -1.098600   -3.149240    4.535700
  C     -1.741370   -2.850530    5.707780
  C     -2.875040   -3.529080    6.204420
  N     -3.808140   -4.022260    6.656480
  C     -1.373870   -1.785480    6.557620
  N     -1.116640   -0.940230    7.289950
  C     -2.219610   -5.293010    3.925520
  C     -2.691780   -6.323890    3.084270
  C     -2.878180   -6.373890    1.709380
  C     -3.401550   -7.593800    1.299210
  C     -3.614310   -8.493000    2.365380
  S     -3.212120   -7.818160    3.870970
  C     -4.094750   -9.718960    1.835340
  C     -4.195200   -9.587360    0.435650
  C     -3.785230   -8.245230    0.055680
  C     -3.786450   -7.707370   -1.196880
  C     -4.192530   -8.449750   -2.327280
  N     -4.528090   -9.051370   -3.243490
  C     -3.415170   -6.369110   -1.453870
  N     -3.142480   -5.279860   -1.682610
  C     -4.641080  -10.756340   -0.178990
  C     -4.869400  -11.752660    0.747810
  S     -4.548140  -11.267080    2.389310
  C     -5.296630  -13.096410    0.484680
  N     -5.513070  -13.441070   -0.780390
  C     -5.867230  -14.709370   -0.975060
  N     -6.023650  -15.610340    0.000490
  C     -5.802370  -15.152510    1.216400
  N     -5.436090  -13.924540    1.525890
  C     -6.081650  -15.112280   -2.334170
  C     -6.385030  -16.368440   -2.816350
  C     -6.496210  -16.360180   -4.206750
  C     -6.278580  -15.081100   -4.757730
  S     -5.929500  -13.901330   -3.579770
  C     -6.408520  -15.174610   -6.167520
  C     -6.706940  -16.507730   -6.507380
  C     -6.770300  -17.296230   -5.285080
  C     -7.030930  -18.629830   -5.178260
  C     -7.289860  -19.437480   -6.306880
  N     -7.509660  -20.091990   -7.221710
  C     -7.065900  -19.295290   -3.933470
  N     -7.099600  -19.845460   -2.928710
  C     -6.864510  -16.690070   -7.877090
  C     -6.657100  -15.518060   -8.590810
  S     -6.308380  -14.159010   -7.526440
  C     -6.812970  -15.378000   -9.990150
  C     -6.425500  -14.371410  -10.817520
  C     -7.111880  -14.209780  -12.132800
  O     -7.813940  -15.021880  -12.685550
  C     -6.800470  -12.830500  -12.558970
  C     -7.289710  -12.130910  -13.624350
  C     -6.872860  -10.794900  -13.817910
  C     -5.958340  -10.205460  -12.896690
  C     -5.557530   -8.868180  -13.089950
  C     -6.037980   -8.151380  -14.149710
  C     -6.939310   -8.736420  -15.062260
  C     -7.348620  -10.030360  -14.901100
  F     -7.394010   -8.009960  -16.091050
  F     -5.656260   -6.881470  -14.331920
  C     -5.459620  -10.957700  -11.808650
  C     -5.869870  -12.253640  -11.647580
  C     -5.503150  -13.265780  -10.661320
  C     -4.335720  -13.284290   -9.945670
  C     -3.890190  -14.415320   -9.230850
  N     -3.489500  -15.336770   -8.676000
  C     -3.412540  -12.218570   -9.929950
  N     -2.643020  -11.369300   -9.878380
  H      2.386450    0.673780    5.097890
  H      3.252090   -1.131830    0.562790
  H      0.589670   -0.942250    5.424240
  H      1.421510   -2.802220    0.871720
  H     -2.483650   -5.421280    4.969140
  H     -2.641340   -5.555380    1.056140
  H     -4.793370  -10.906140   -1.232020
  H     -5.929600  -15.849380    2.035070
  H     -6.507600  -17.218200   -2.170120
  H     -7.094010  -17.624660   -8.356330
  H     -7.407590  -16.154630  -10.463420
  H     -7.986170  -12.589550  -14.309490
  H     -4.865370   -8.406420  -12.403420
  H     -8.039120  -10.463260  -15.607750
  H     -4.774550  -10.487640  -11.121040

 Total Charge           Charge          ....    0
 Multiplicity           Mult            ....    1
 Number of Electrons    NEL             ....  574
 Basis Dimension        Dim             .... 1239

ORBITAL ENERGIES
----------------

  NO   OCC          E(Eh)            E(eV)
   0   2.0000     -89.006379     -2421.9867
   1   2.0000     -89.006079     -2421.9785
   2   2.0000     -89.004118     -2421.9252
   3   2.0000     -89.002140     -2421.8714
   4   2.0000     -24.802309      -674.9051
   5   2.0000     -24.802282      -674.9044
   6   2.0000     -24.801642      -674.8870
   7   2.0000     -24.801582      -674.8854
   8   2.0000     -19.227379      -523.2036
   9   2.0000     -19.223252      -523.0913
  10   2.0000     -14.441831      -392.9822
  11   2.0000     -14.440337      -392.9416
  12   2.0000     -14.437539      -392.8654
  13   2.0000     -14.437397      -392.8615
  14   2.0000     -14.436693      -392.8424
  15   2.0000     -14.436639      -392.8409
  16   2.0000     -14.434543      -392.7839
  17   2.0000     -14.424241      -392.5035
  18   2.0000     -14.424128      -392.5005
  19   2.0000     -14.423895      -392.4941
  20   2.0000     -14.422575      -392.4582
  21   2.0000     -10.388276      -282.6794
  22   2.0000     -10.387020      -282.6452
  23   2.0000     -10.385925      -282.6154
  24   2.0000     -10.385897      -282.6146
  25   2.0000     -10.385476      -282.6032
  26   2.0000     -10.385383      -282.6006
  27   2.0000     -10.379346      -282.4364
  28   2.0000     -10.376635      -282.3626
  29   2.0000     -10.375242      -282.3247
  30   2.0000     -10.374042      -282.2920
  31   2.0000     -10.371522      -282.2235
  32   2.0000     -10.363463      -282.0042
  33   2.0000     -10.361434      -281.9489
  34   2.0000     -10.354669      -281.7649
  35   2.0000     -10.353877      -281.7433
  36   2.0000     -10.352050      -281.6936
  37   2.0000     -10.351303      -281.6733
  38   2.0000     -10.351021      -281.6656
  39   2.0000     -10.349754      -281.6311
  40   2.0000     -10.349605      -281.6271
  41   2.0000     -10.346308      -281.5374
  42   2.0000     -10.340272      -281.3731
  43   2.0000     -10.338968      -281.3376
  44   2.0000     -10.337961      -281.3102
  45   2.0000     -10.337815      -281.3062
  46   2.0000     -10.337367      -281.2941
  47   2.0000     -10.336716      -281.2763
  48   2.0000     -10.336347      -281.2663
  49   2.0000     -10.333388      -281.1858
  50   2.0000     -10.332489      -281.1613
  51   2.0000     -10.328978      -281.0658
  52   2.0000     -10.326902      -281.0093
  53   2.0000     -10.326128      -280.9882
  54   2.0000     -10.325356      -280.9672
  55   2.0000     -10.325142      -280.9614
  56   2.0000     -10.321296      -280.8567
  57   2.0000     -10.320424      -280.8330
  58   2.0000     -10.319441      -280.8063
  59   2.0000     -10.318863      -280.7905
  60   2.0000     -10.318228      -280.7733
  61   2.0000     -10.317400      -280.7507
  62   2.0000     -10.317154      -280.7440
  63   2.0000     -10.316322      -280.7214
  64   2.0000     -10.316131      -280.7162
  65   2.0000     -10.315747      -280.7057
  66   2.0000     -10.315681      -280.7040
  67   2.0000     -10.315485      -280.6986
  68   2.0000     -10.314825      -280.6807
  69   2.0000     -10.313557      -280.6462
  70   2.0000     -10.312174      -280.6085
  71   2.0000     -10.308886      -280.5190
  72   2.0000     -10.308734      -280.5149
  73   2.0000     -10.308614      -280.5117
  74   2.0000     -10.308421      -280.5064
  75   2.0000     -10.308045      -280.4962
  76   2.0000     -10.305643      -280.4308
  77   2.0000     -10.305490      -280.4266
  78   2.0000     -10.304912      -280.4109
  79   2.0000     -10.304904      -280.4107
  80   2.0000     -10.300527      -280.2916
  81   2.0000     -10.299405      -280.2611
  82   2.0000      -8.101116      -220.4426
  83   2.0000      -8.099981      -220.4117
  84   2.0000      -8.098305      -220.3661
  85   2.0000      -8.096160      -220.3077
  86   2.0000      -6.070220      -165.1791
  87   2.0000      -6.069145      -165.1498
  88   2.0000      -6.067506      -165.1052
  89   2.0000      -6.066078      -165.0664
  90   2.0000      -6.065317      -165.0457
  91   2.0000      -6.064851      -165.0330
  92   2.0000      -6.063694      -165.0015
  93   2.0000      -6.063296      -164.9907
  94   2.0000      -6.062703      -164.9745
  95   2.0000      -6.060999      -164.9282
  96   2.0000      -6.060793      -164.9226
  97   2.0000      -6.058848      -164.8696
  98   2.0000      -1.325245       -36.0617
  99   2.0000      -1.325190       -36.0602
 100   2.0000      -1.310354       -35.6566
 101   2.0000      -1.310276       -35.6544
 102   2.0000      -1.144781       -31.1511
 103   2.0000      -1.143570       -31.1181
 104   2.0000      -1.139464       -31.0064
 105   2.0000      -1.060614       -28.8608
 106   2.0000      -1.058033       -28.7905
 107   2.0000      -1.032436       -28.0940
 108   2.0000      -1.030634       -28.0450
 109   2.0000      -1.029933       -28.0259
 110   2.0000      -1.027938       -27.9716
 111   2.0000      -1.026066       -27.9207
 112   2.0000      -1.021357       -27.7925
 113   2.0000      -1.015806       -27.6415
 114   2.0000      -1.014499       -27.6059
 115   2.0000      -1.010807       -27.5055
 116   2.0000      -1.010716       -27.5030
 117   2.0000      -1.007320       -27.4106
 118   2.0000      -1.004554       -27.3353
 119   2.0000      -1.001920       -27.2636
 120   2.0000      -1.000785       -27.2328
 121   2.0000      -0.988107       -26.8877
 122   2.0000      -0.987952       -26.8835
 123   2.0000      -0.970398       -26.4059
 124   2.0000      -0.967783       -26.3347
 125   2.0000      -0.940901       -25.6032
 126   2.0000      -0.940063       -25.5804
 127   2.0000      -0.928335       -25.2613
 128   2.0000      -0.926900       -25.2222
 129   2.0000      -0.908658       -24.7259
 130   2.0000      -0.908314       -24.7165
 131   2.0000      -0.898476       -24.4488
 132   2.0000      -0.897920       -24.4337
 133   2.0000      -0.888342       -24.1730
 134   2.0000      -0.886943       -24.1349
 135   2.0000      -0.880568       -23.9615
 136   2.0000      -0.877878       -23.8883
 137   2.0000      -0.871017       -23.7016
 138   2.0000      -0.868495       -23.6330
 139   2.0000      -0.846834       -23.0435
 140   2.0000      -0.846329       -23.0298
 141   2.0000      -0.845267       -23.0009
 142   2.0000      -0.836408       -22.7598
 143   2.0000      -0.818975       -22.2854
 144   2.0000      -0.813544       -22.1376
 145   2.0000      -0.790047       -21.4983
 146   2.0000      -0.788878       -21.4664
 147   2.0000      -0.777712       -21.1626
 148   2.0000      -0.774412       -21.0728
 149   2.0000      -0.773719       -21.0540
 150   2.0000      -0.770037       -20.9538
 151   2.0000      -0.750496       -20.4220
 152   2.0000      -0.742304       -20.1991
 153   2.0000      -0.730784       -19.8856
 154   2.0000      -0.724390       -19.7116
 155   2.0000      -0.722516       -19.6606
 156   2.0000      -0.718764       -19.5586
 157   2.0000      -0.716761       -19.5040
 158   2.0000      -0.707411       -19.2496
 159   2.0000      -0.700492       -19.0613
 160   2.0000      -0.697155       -18.9706
 161   2.0000      -0.695752       -18.9324
 162   2.0000      -0.691295       -18.8111
 163   2.0000      -0.689651       -18.7664
 164   2.0000      -0.679857       -18.4998
 165   2.0000      -0.674715       -18.3599
 166   2.0000      -0.665052       -18.0970
 167   2.0000      -0.662438       -18.0259
 168   2.0000      -0.659436       -17.9442
 169   2.0000      -0.653480       -17.7821
 170   2.0000      -0.648209       -17.6387
 171   2.0000      -0.647553       -17.6208
 172   2.0000      -0.645195       -17.5567
 173   2.0000      -0.635508       -17.2930
 174   2.0000      -0.634309       -17.2604
 175   2.0000      -0.631673       -17.1887
 176   2.0000      -0.628189       -17.0939
 177   2.0000      -0.626197       -17.0397
 178   2.0000      -0.621244       -16.9049
 179   2.0000      -0.617617       -16.8062
 180   2.0000      -0.612510       -16.6673
 181   2.0000      -0.598841       -16.2953
 182   2.0000      -0.595162       -16.1952
 183   2.0000      -0.590401       -16.0656
 184   2.0000      -0.589939       -16.0530
 185   2.0000      -0.589631       -16.0447
 186   2.0000      -0.589574       -16.0431
 187   2.0000      -0.583797       -15.8859
 188   2.0000      -0.580838       -15.8054
 189   2.0000      -0.577102       -15.7037
 190   2.0000      -0.565753       -15.3949
 191   2.0000      -0.561138       -15.2693
 192   2.0000      -0.560408       -15.2495
 193   2.0000      -0.558768       -15.2049
 194   2.0000      -0.557801       -15.1785
 195   2.0000      -0.556728       -15.1493
 196   2.0000      -0.551898       -15.0179
 197   2.0000      -0.551181       -14.9984
 198   2.0000      -0.551130       -14.9970
 199   2.0000      -0.546718       -14.8769
 200   2.0000      -0.545659       -14.8481
 201   2.0000      -0.543867       -14.7994
 202   2.0000      -0.540754       -14.7147
 203   2.0000      -0.537452       -14.6248
 204   2.0000      -0.536017       -14.5858
 205   2.0000      -0.533474       -14.5166
 206   2.0000      -0.530247       -14.4287
 207   2.0000      -0.528998       -14.3948
 208   2.0000      -0.523456       -14.2440
 209   2.0000      -0.520744       -14.1702
 210   2.0000      -0.519998       -14.1499
 211   2.0000      -0.517395       -14.0790
 212   2.0000      -0.516606       -14.0576
 213   2.0000      -0.515900       -14.0383
 214   2.0000      -0.513405       -13.9705
 215   2.0000      -0.511289       -13.9129
 216   2.0000      -0.509635       -13.8679
 217   2.0000      -0.508366       -13.8333
 218   2.0000      -0.504699       -13.7336
 219   2.0000      -0.502725       -13.6798
 220   2.0000      -0.502253       -13.6670
 221   2.0000      -0.499181       -13.5834
 222   2.0000      -0.497814       -13.5462
 223   2.0000      -0.494675       -13.4608
 224   2.0000      -0.490318       -13.3422
 225   2.0000      -0.487462       -13.2645
 226   2.0000      -0.484381       -13.1807
 227   2.0000      -0.482904       -13.1405
 228   2.0000      -0.477140       -12.9836
 229   2.0000      -0.475241       -12.9320
 230   2.0000      -0.473797       -12.8927
 231   2.0000      -0.470158       -12.7936
 232   2.0000      -0.468789       -12.7564
 233   2.0000      -0.468384       -12.7454
 234   2.0000      -0.467420       -12.7191
 235   2.0000      -0.465872       -12.6770
 236   2.0000      -0.464839       -12.6489
 237   2.0000      -0.463325       -12.6077
 238   2.0000      -0.459785       -12.5114
 239   2.0000      -0.457803       -12.4575
 240   2.0000      -0.456764       -12.4292
 241   2.0000      -0.455123       -12.3845
 242   2.0000      -0.454812       -12.3761
 243   2.0000      -0.452292       -12.3075
 244   2.0000      -0.451485       -12.2855
 245   2.0000      -0.450657       -12.2630
 246   2.0000      -0.450434       -12.2569
 247   2.0000      -0.449421       -12.2294
 248   2.0000      -0.448357       -12.2004
 249   2.0000      -0.447701       -12.1826
 250   2.0000      -0.446850       -12.1594
 251   2.0000      -0.446051       -12.1377
 252   2.0000      -0.443479       -12.0677
 253   2.0000      -0.437496       -11.9049
 254   2.0000      -0.436592       -11.8803
 255   2.0000      -0.434930       -11.8351
 256   2.0000      -0.434157       -11.8140
 257   2.0000      -0.433784       -11.8039
 258   2.0000      -0.433181       -11.7875
 259   2.0000      -0.431250       -11.7349
 260   2.0000      -0.430251       -11.7077
 261   2.0000      -0.422633       -11.5004
 262   2.0000      -0.419492       -11.4150
 263   2.0000      -0.417232       -11.3535
 264   2.0000      -0.412549       -11.2260
 265   2.0000      -0.410518       -11.1708
 266   2.0000      -0.405908       -11.0453
 267   2.0000      -0.393368       -10.7041
 268   2.0000      -0.392757       -10.6874
 269   2.0000      -0.380333       -10.3494
 270   2.0000      -0.378217       -10.2918
 271   2.0000      -0.367354        -9.9962
 272   2.0000      -0.364401        -9.9158
 273   2.0000      -0.364160        -9.9093
 274   2.0000      -0.358666        -9.7598
 275   2.0000      -0.352250        -9.5852
 276   2.0000      -0.349880        -9.5207
 277   2.0000      -0.339510        -9.2385
 278   2.0000      -0.338213        -9.2032
 279   2.0000      -0.332556        -9.0493
 280   2.0000      -0.329348        -8.9620
 281   2.0000      -0.323267        -8.7965
 282   2.0000      -0.322879        -8.7860
 283   2.0000      -0.307429        -8.3656
 284   2.0000      -0.306988        -8.3536
 285   2.0000      -0.282763        -7.6944
 286   2.0000      -0.281109        -7.6494
 287   0.0000      -0.124011        -3.3745
 288   0.0000      -0.121390        -3.3032
 289   0.0000      -0.098781        -2.6880
 290   0.0000      -0.096739        -2.6324
 291   0.0000      -0.069741        -1.8978

MULLIKEN ATOMIC CHARGES
-----------------------
   0 C :   -0.104922
   1 C :    0.240454
   2 F :   -0.169066
   3 C :    0.238742
   4 F :   -0.169874
   5 C :   -0.100489
   6 C :    0.113855
   7 C :    0.112107
   8 C :   -0.078685
   9 C :    0.052751
  10 C :   -0.013111
  11 C :   -0.074868
  12 C :    0.157246
  13 O :   -0.146231
  14 C :   -0.095964
  15 C :    0.302656
  16 C :   -0.340314
  17 C :   -0.203622
  18 N :    0.163182
  19 C :   -0.183004
  20 N :    0.149574
  21 C :    0.027334
  22 C :   -0.112460
  23 C :    0.037927
  24 C :   -0.018386
  25 C :   -0.089108
  26 S :    0.215312
  27 C :   -0.093031
  28 C :    0.019055
  29 C :    0.302481
  30 C :   -0.292021
  31 C :   -0.191454
  32 N :    0.176277
  33 C :   -0.185586
  34 N :    0.190182
  35 C :   -0.036487
  36 C :   -0.057279
  37 S :    0.262399
  38 C :   -0.035031
  39 N :   -0.061992
  40 C :   -0.026264
  41 N :   -0.082874
  42 C :    0.124173
  43 N :   -0.109682
  44 C :   -0.064812
  45 C :   -0.028752
  46 C :    0.008256
  47 C :   -0.091991
  48 S :    0.260573
  49 C :   -0.083142
  50 C :    0.029074
  51 C :    0.299466
  52 C :   -0.287955
  53 C :   -0.189725
  54 N :    0.179266
  55 C :   -0.192821
  56 N :    0.184171
  57 C :   -0.000363
  58 C :   -0.082996
  59 S :    0.217063
  60 C :    0.039967
  61 C :   -0.129370
  62 C :    0.141188
  63 O :   -0.135956
  64 C :    0.014045
  65 C :   -0.082574
  66 C :    0.113318
  67 C :    0.112254
  68 C :   -0.107927
  69 C :    0.244729
  70 C :    0.241981
  71 C :   -0.107262
  72 F :   -0.169954
  73 F :   -0.169041
  74 C :   -0.078658
  75 C :    0.038021
  76 C :    0.239843
  77 C :   -0.314756
  78 C :   -0.214101
  79 N :    0.176536
  80 C :   -0.171552
  81 N :    0.160118
  82 H :    0.007991
  83 H :    0.001008
  84 H :   -0.005276
  85 H :   -0.006794
  86 H :    0.024835
  87 H :    0.034022
  88 H :    0.019479
  89 H :    0.028972
  90 H :    0.027155
  91 H :    0.020689
  92 H :    0.035694
  93 H :   -0.006293
  94 H :    0.007061
  95 H :    0.001679
  96 H :   -0.000285
Sum of atomic charges:   -0.0000000

LOEWDIN ATOMIC CHARGES
----------------------
   0 C :   -0.029059
   1 C :    0.067660
   2 F :   -0.047093
   3 C :    0.068565
   4 F :   -0.047522
   5 C :   -0.031782
   6 C :   -0.008116
   7 C :   -0.005953
   8 C :    0.018811
   9 C :   -0.023829
  10 C :   -0.053071
  11 C :    0.033241
  12 C :    0.084974
  13 O :   -0.134569
  14 C :   -0.090707
  15 C :    0.074541
  16 C :   -0.137460
  17 C :   -0.025744
  18 N :   -0.049121
  19 C :   -0.017855
  20 N :   -0.049409
  21 C :    0.044456
  22 C :   -0.174228
  23 C :    0.023412
  24 C :   -0.068276
  25 C :   -0.164638
  26 S :    0.501091
  27 C :   -0.176502
  28 C :   -0.062814
  29 C :    0.075266
  30 C :   -0.092429
  31 C :   -0.015604
  32 N :   -0.028878
  33 C :   -0.020088
  34 N :   -0.017825
  35 C :    0.006508
  36 C :   -0.192048
  37 S :    0.530411
  38 C :    0.036826
  39 N :   -0.117102
  40 C :    0.038207
  41 N :   -0.106719
  42 C :    0.085114
  43 N :   -0.126706
  44 C :   -0.192283
  45 C :    0.010154
  46 C :   -0.064128
  47 C :   -0.173441
  48 S :    0.531998
  49 C :   -0.157547
  50 C :   -0.066263
  51 C :    0.077244
  52 C :   -0.094376
  53 C :   -0.017299
  54 N :   -0.025751
  55 C :   -0.018947
  56 N :   -0.023252
  57 C :    0.013082
  58 C :   -0.174498
  59 S :    0.520154
  60 C :    0.051625
  61 C :   -0.096988
  62 C :    0.083866
  63 O :   -0.137247
  64 C :   -0.054531
  65 C :    0.032281
  66 C :   -0.008894
  67 C :   -0.005189
  68 C :   -0.029777
  69 C :    0.068131
  70 C :    0.068061
  71 C :   -0.032319
  72 F :   -0.047775
  73 F :   -0.046994
  74 C :    0.015371
  75 C :   -0.020732
  76 C :    0.060071
  77 C :   -0.140377
  78 C :   -0.038066
  79 N :   -0.044157
  80 C :   -0.020453
  81 N :   -0.044786
  82 H :    0.047971
  83 H :    0.045631
  84 H :    0.040207
  85 H :    0.041729
  86 H :    0.044757
  87 H :    0.045910
  88 H :    0.046215
  89 H :    0.028045
  90 H :    0.049933
  91 H :    0.047851
  92 H :    0.056348
  93 H :    0.041706
  94 H :    0.047777
  95 H :    0.045567
  96 H :    0.040450

  Mayer bond orders larger than 0.100000
B(  0-C ,  1-C ) :   1.4431 B(  0-C ,  5-C ) :   0.1081 B(  0-C ,  7-C ) :   1.1882
B(  0-C , 82-H ) :   1.0059 B(  1-C ,  2-F ) :   1.1368 B(  1-C ,  3-C ) :   1.1905
B(  3-C ,  4-F ) :   1.1346 B(  3-C ,  5-C ) :   1.4433 B(  5-C ,  6-C ) :   1.1941
B(  5-C , 83-H ) :   1.0065 B(  6-C ,  7-C ) :   1.2520 B(  6-C , 11-C ) :   1.1892
B(  7-C ,  8-C ) :   1.2202 B(  8-C ,  9-C ) :   1.4495 B(  8-C , 84-H ) :   0.9895
B(  9-C , 10-C ) :   1.2177 B(  9-C , 15-C ) :   0.9892 B( 10-C , 11-C ) :   1.4751
B( 10-C , 12-C ) :   0.9432 B( 11-C , 85-H ) :   1.0159 B( 12-C , 13-O ) :   2.2035
B( 12-C , 14-C ) :   0.9412 B( 14-C , 15-C ) :   1.0665 B( 14-C , 21-C ) :   1.6107
B( 15-C , 16-C ) :   1.6416 B( 16-C , 17-C ) :   1.1374 B( 16-C , 19-C ) :   1.1451
B( 17-C , 18-N ) :   2.9952 B( 19-C , 20-N ) :   2.9664 B( 21-C , 22-C ) :   1.1829
B( 21-C , 86-H ) :   0.9278 B( 22-C , 23-C ) :   1.4130 B( 22-C , 26-S ) :   1.0837
B( 23-C , 24-C ) :   1.3342 B( 23-C , 87-H ) :   0.9744 B( 24-C , 25-C ) :   1.3987
B( 24-C , 29-C ) :   0.9924 B( 25-C , 26-S ) :   1.1651 B( 25-C , 27-C ) :   1.1948
B( 27-C , 28-C ) :   1.4225 B( 27-C , 37-S ) :   1.1373 B( 28-C , 29-C ) :   0.9954
B( 28-C , 35-C ) :   1.2713 B( 29-C , 30-C ) :   1.7242 B( 30-C , 31-C ) :   1.1361
B( 30-C , 33-C ) :   1.1326 B( 31-C , 32-N ) :   2.9944 B( 33-C , 34-N ) :   2.9943
B( 35-C , 36-C ) :   1.4724 B( 35-C , 88-H ) :   1.0044 B( 36-C , 37-S ) :   1.1138
B( 36-C , 38-C ) :   1.0363 B( 38-C , 39-N ) :   1.5783 B( 38-C , 43-N ) :   1.5923
B( 39-N , 40-C ) :   1.5666 B( 40-C , 41-N ) :   1.5891 B( 40-C , 44-C ) :   1.0275
B( 41-N , 42-C ) :   1.5084 B( 42-C , 43-N ) :   1.4958 B( 42-C , 89-H ) :   0.9764
B( 44-C , 45-C ) :   1.4718 B( 44-C , 48-S ) :   1.1170 B( 45-C , 46-C ) :   1.2728
B( 45-C , 90-H ) :   1.0069 B( 46-C , 47-C ) :   1.4189 B( 46-C , 51-C ) :   0.9965
B( 47-C , 48-S ) :   1.1414 B( 47-C , 49-C ) :   1.2009 B( 49-C , 50-C ) :   1.4079
B( 49-C , 59-S ) :   1.1619 B( 50-C , 51-C ) :   0.9923 B( 50-C , 57-C ) :   1.3023
B( 51-C , 52-C ) :   1.7216 B( 52-C , 53-C ) :   1.1325 B( 52-C , 55-C ) :   1.1325
B( 53-C , 54-N ) :   2.9920 B( 55-C , 56-N ) :   2.9995 B( 57-C , 58-C ) :   1.3980
B( 57-C , 91-H ) :   1.0021 B( 58-C , 59-S ) :   1.0918 B( 58-C , 60-C ) :   1.1439
B( 60-C , 61-C ) :   1.6456 B( 60-C , 92-H ) :   0.9447 B( 61-C , 62-C ) :   0.9365
B( 61-C , 76-C ) :   1.0295 B( 62-C , 63-O ) :   2.2759 B( 62-C , 64-C ) :   0.9187
B( 64-C , 65-C ) :   1.4744 B( 64-C , 75-C ) :   1.2205 B( 65-C , 66-C ) :   1.1937
B( 65-C , 93-H ) :   1.0173 B( 66-C , 67-C ) :   1.2567 B( 66-C , 71-C ) :   1.1929
B( 67-C , 68-C ) :   1.1872 B( 67-C , 74-C ) :   1.2154 B( 68-C , 69-C ) :   1.4416
B( 68-C , 71-C ) :   0.1087 B( 68-C , 94-H ) :   1.0080 B( 69-C , 70-C ) :   1.1900
B( 69-C , 73-F ) :   1.1362 B( 70-C , 71-C ) :   1.4426 B( 70-C , 72-F ) :   1.1351
B( 71-C , 95-H ) :   1.0079 B( 74-C , 75-C ) :   1.4543 B( 74-C , 96-H ) :   0.9955
B( 75-C , 76-C ) :   1.0013 B( 76-C , 77-C ) :   1.6639 B( 77-C , 78-C ) :   1.1532
B( 77-C , 80-C ) :   1.1302 B( 78-C , 79-N ) :   3.0225 B( 80-C , 81-N ) :   2.9940

-----------------------------------------------------------------------------
         ABSORPTION SPECTRUM VIA TRANSITION ELECTRIC DIPOLE MOMENTS
-----------------------------------------------------------------------------
State   Energy  Wavelength   fosc         T2         TX        TY        TZ
        (cm-1)    (nm)                  (au**2)     (au)      (au)      (au)
-----------------------------------------------------------------------------
   0   15855.5    630.7   0.304496602   6.32236  -0.26873  -0.53777  -2.44150
   1   16391.1    610.1   0.255583674   5.13335  -0.92921  -2.02308  -0.42082
   2   21697.2    460.9   0.689166168  10.45675   0.05491   0.22864   3.22513
   3   22454.8    445.3   1.104851174  16.19832  -1.72349  -3.54732  -0.80274
   4   23736.1    421.3   0.010828406   0.15019   0.18108   0.34258  -0.00627
   5   25068.3    398.9   0.005178536   0.06801   0.04182   0.08124   0.24425
   6   25604.1    390.6   0.063388307   0.81503  -0.45850   0.57849  -0.51976
   7   25941.1    385.5   0.124008542   1.57376   0.80408   0.96290   0.00695
   8   27186.4    367.8   0.031096277   0.37656  -0.11968  -0.58914  -0.12309
   9   27672.2    361.4   0.008017221   0.09538  -0.26417  -0.15980  -0.00752
  10   28561.4    350.1   0.042856580   0.49398  -0.14855  -0.61278  -0.31052
  11   29085.3    343.8   0.001091074   0.01235   0.01850  -0.10029  -0.04416
  12   29175.2    342.8   0.043999449   0.49649   0.32167  -0.09679  -0.61939
  13   29509.3    338.9   0.338390529   3.77516   0.41617   1.88707  -0.20230
  14   29686.6    336.9   0.284174338   3.15137  -0.74331   0.38680  -1.56501
  15   29952.1    333.9   0.564319000   6.20260  -1.55357  -1.34886  -1.40342
  16   30170.0    331.5   0.065860924   0.71867   0.11791   0.77766   0.31624
  17   30720.6    325.5   1.099795770  11.78577   1.05293   2.30337  -2.31768
  18   30991.2    322.7   0.100738099   1.07012   0.32726  -0.21508   0.95747
  19   31537.3    317.1   0.037981795   0.39648   0.50949  -0.27264  -0.25015
  20   32122.1    311.3   0.020263618   0.20768  -0.19171   0.07621   0.40635
  21   32257.3    310.0   0.068003878   0.69403  -0.37333   0.57991  -0.46730
  22   32270.8    309.9   0.070037071   0.71449   0.53608  -0.41627   0.50380
  23   32486.9    307.8   0.201998484   2.04699   0.15915  -0.94361   1.06360
  24   32844.0    304.5   0.164965675   1.65353  -0.98314  -0.81438   0.15412
  25   32907.8    303.9   0.247309958   2.47411   0.50650   1.28039   0.76037
  26   33262.6    300.6   0.228930517   2.26581   0.36162  -0.34307   1.42033
  27   33457.8    298.9   0.012256325   0.12060  -0.03424  -0.16125  -0.30565
  28   33514.9    298.4   0.455480114   4.47412   0.05034   2.03025   0.59134
  29   33857.1    295.4   0.054403754   0.52900  -0.11454  -0.71483  -0.06997
  30   34105.4    293.2   0.010282245   0.09925  -0.05279   0.10967  -0.29058
  31   34291.5    291.6   0.019897987   0.19103   0.06098   0.01991   0.43233
  32   34351.9    291.1   0.008167737   0.07828   0.03130  -0.26191   0.09326
  33   34379.3    290.9   0.041808343   0.40035   0.45911  -0.18600   0.39367
  34   34511.1    289.8   0.017065935   0.16280   0.00251   0.38711   0.11375
  35   34616.3    288.9   0.015367468   0.14615   0.06981   0.37587   0.00080
  36   34987.1    285.8   0.749596353   7.05334  -1.52157  -1.04065   1.91186
  37   35131.9    284.6   0.200241689   1.87641  -0.65248   0.77203  -0.92448
  38   35170.0    284.3   0.073444158   0.68748  -0.09896  -0.72729   0.38566
  39   35444.1    282.1   0.363515507   3.37640  -0.19939   0.15975  -1.81965
  40   35486.1    281.8   0.093821899   0.87041  -0.07009  -0.90764   0.20417
  41   35732.4    279.9   0.011449696   0.10549   0.23969  -0.21890  -0.01086
  42   35871.1    278.8   0.167405760   1.53639   0.74942  -0.57433   0.80306
  43   35998.8    277.8   0.051338953   0.46950   0.41253  -0.48561   0.25200
  44   36964.7    270.5   0.032226468   0.28701   0.02774  -0.53322  -0.04386
  45   37048.9    269.9   0.003357878   0.02984  -0.10947  -0.12096  -0.05677
  46   37243.0    268.5   0.045697394   0.40395  -0.42169   0.28781  -0.37854
  47   37713.4    265.2   0.017556030   0.15325   0.10916   0.19468   0.32161
  48   37818.2    264.4   0.003759144   0.03272   0.00439  -0.14506  -0.10799
  49   38239.8    261.5   0.074902309   0.64485   0.12822   0.40807   0.67962
  50   38302.3    261.1   0.040693384   0.34976  -0.20977   0.17299   0.52520
  51   38714.5    258.3   0.001684360   0.01432   0.01646  -0.00749  -0.11831
  52   38756.4    258.0   0.033376682   0.28351  -0.01433   0.19751   0.49426
  53   38856.2    257.4   0.016448061   0.13936  -0.00322  -0.22820  -0.29542
  54   39193.8    255.1   0.062684779   0.52653  -0.37939   0.07477   0.61400
  55   39276.7    254.6   0.066557351   0.55787  -0.07471  -0.02176   0.74285
  56   40002.6    250.0   0.040846625   0.33616  -0.12355  -0.39559  -0.40546
  57   40030.5    249.8   0.039304368   0.32324   0.07280   0.40419   0.39316
  58   40063.9    249.6   0.061440628   0.50487   0.04994  -0.41439  -0.57503
  59   40161.4    249.0   0.202205253   1.65752   0.68229   0.99157   0.45693
  60   40217.3    248.6   0.260090841   2.12906  -0.79412  -1.18649  -0.30113

FINAL SINGLE POINT ENERGY     -5073.407881408191

DIPOLE MOMENT
-------------
                                X             Y             Z
Electronic contribution:      6.77210      15.06183      -3.13946
Nuclear contribution   :     -7.14989     -14.80111       3.34985
                        -----------------------------------------
Total Dipole Moment    :     -0.37779       0.26072       0.21040
                        -----------------------------------------
Magnitude (a.u.)       :      0.50494
Magnitude (Debye)      :      1.28345

Rotational constants in cm-1:     0.000752     0.000220     0.000177
Rotational constants in MHz :    22.545825     6.586343     5.304005

                             ****ORCA TERMINATED NORMALLY****
TOTAL RUN TIME: 0 days 0 hours 11 minutes 26 seconds 732 msec
