                         Program Version 4.2.0 -  RELEASE  -
|  1> # ORCA input file
|  2> # SCF done       -217.294297958315          0.000639267864
|  3> ! CAM-B3LYP def2-SVP def2/J RIJCOSX Grid4 TightSCF
|  4> %maxcore 5000
|  5> %tddft
|  6>     Mode sTDDFT
|  7>     Ethresh 5.0
|  8>     maxcore 5000
|  9> end
| 10>
| 11> %pal
| 12>   nprocs 6
| 13>   end
| 14> * xyz 0 1
| 15>    C       -9.62177         2.01007         1.05509
| 16>    C      -10.97405         2.20436         1.02588
| 17>    F      -11.47913         3.44172         1.11688
| 18>    C      -11.85358         1.11025         0.89908
| 19>    F      -13.17519         1.33045         0.87266
| 20>    C      -11.36802        -0.16355         0.80308
| 21>    C       -9.97922        -0.39646         0.82955
| 22>    C       -9.08857         0.70876         0.95661
| 23>    C       -7.69106         0.49937         0.98150
| 24>    C       -7.19834        -0.77556         0.87562
| 25>    C       -8.09508        -1.87238         0.75277
| 26>    C       -9.44926        -1.70208         0.73370
| 27>    C       -7.32976        -3.13278         0.66585
| 28>    O       -7.79480        -4.24959         0.63650
| 29>    C       -5.89796        -2.73320         0.73168
| 30>    C       -5.83139        -1.28710         0.85839
| 31>    C       -4.69701        -0.52002         0.88727
| 32>    C       -3.37580        -1.01126         0.81861
| 33>    N       -2.27275        -1.32497         0.75962
| 34>    C       -4.69642         0.88830         0.97747
| 35>    N       -4.62879         2.03168         1.05285
| 36>    C       -4.85472        -3.59905         0.82069
| 37>    C       -4.89864        -5.01450         0.57298
| 38>    C       -5.63977        -5.57462        -0.49281
| 39>    O       -6.17278        -4.71794        -1.38792
| 40>    C       -6.91925        -5.23787        -2.46338
| 41>    C       -5.71165        -6.95605        -0.59404
| 42>    C       -5.04093        -7.79243         0.29091
| 43>    C       -4.17802        -7.23309         1.26183
| 44>    C       -4.12961        -5.85715         1.38379
| 45>    O       -3.40511        -8.09385         1.97043
| 46>    C       -2.56660        -7.57847         2.97855
| 47>    C       -5.21609        -9.23514         0.18746
| 48>    C       -5.39869       -10.03871         1.32611
| 49>    C       -5.47139       -11.47901         1.24608
| 50>    N       -5.56833       -12.20114         2.37920
| 51>    C       -5.63839       -11.58912         3.52847
| 52>    C       -5.67598       -10.15059         3.59495
| 53>    N       -5.56300        -9.42955         2.51533
| 54>    C       -5.84674        -9.50050         4.84322
| 55>    N       -5.96191        -9.00353         5.86877
| 56>    C       -5.74385       -12.36232         4.71229
| 57>    N       -5.85905       -12.96022         5.68239
| 58>    C       -5.41300       -12.15762         0.01574
| 59>    C       -5.34967       -11.34820        -1.12677
| 60>    C       -5.24771        -9.90479        -1.04412
| 61>    N       -5.19026        -9.34791        -2.26193
| 62>    S       -5.28471       -10.50271        -3.36552
| 63>    N       -5.39813       -11.76493        -2.39775
| 64>    C       -5.39609       -13.61313        -0.05554
| 65>    C       -4.47005       -14.27979        -0.89002
| 66>    O       -3.56754       -13.50993        -1.54275
| 67>    C       -2.60072       -14.13851        -2.35098
| 68>    C       -4.50974       -15.65941        -0.94867
| 69>    C       -5.36439       -16.41960        -0.13999
| 70>    C       -6.25855       -15.74446         0.72183
| 71>    C       -6.27197       -14.35828         0.72280
| 72>    O       -7.09324       -16.50467         1.47085
| 73>    C       -7.98501       -15.86957         2.36073
| 74>    C       -5.32132       -17.84637        -0.29074
| 75>    C       -5.61186       -18.86425         0.55842
| 76>    C       -5.82374       -20.22453        -0.01752
| 77>    O       -5.56043       -20.58229        -1.14215
| 78>    C       -6.46279       -21.00886         1.05762
| 79>    C       -6.97104       -22.27485         1.01018
| 80>    C       -7.57200       -22.81746         2.16812
| 81>    C       -7.63638       -22.03153         3.35527
| 82>    C       -8.24391       -22.57587         4.50476
| 83>    C       -8.76056       -23.84070         4.47760
| 84>    C       -8.69505       -24.61733         3.30341
| 85>    C       -8.11322       -24.11783         2.17218
| 86>    F       -9.21131       -25.85416         3.30513
| 87>    F       -9.33755       -24.35616         5.57126
| 88>    C       -7.09364       -20.72630         3.37631
| 89>    C       -6.50973       -20.22303         2.24435
| 90>    C       -5.85674       -18.94351         1.98194
| 91>    C       -5.38692       -18.08134         2.93579
| 92>    C       -4.54511       -16.98863         2.64860
| 93>    N       -3.83668       -16.10637         2.45707
| 94>    C       -5.63107       -18.23210         4.31629
| 95>    N       -5.82188       -18.30706         5.44548
| 96>    H       -8.96267         2.85865         1.15196
| 97>    H      -12.05424        -0.99045         0.70773
| 98>    H       -7.04514         1.35591         1.08633
| 99>    H      -10.10701        -2.55322         0.64330
|100>    H       -3.89691        -3.22000         1.15608
|101>    H       -7.21895        -4.37411        -3.05497
|102>    H       -7.81164        -5.75962        -2.10677
|103>    H       -6.31664        -5.91176        -3.08004
|104>    H       -6.32143        -7.41673        -1.35210
|105>    H       -3.52481        -5.39621         2.14844
|106>    H       -2.06287        -8.44201         3.41034
|107>    H       -3.14435        -7.07226         3.75758
|108>    H       -1.81848        -6.89360         2.56771
|109>    H       -1.97845       -13.33452        -2.74098
|110>    H       -3.06322       -14.67375        -3.18574
|111>    H       -1.97956       -14.82689        -1.76995
|112>    H       -3.83280       -16.19771        -1.59255
|113>    H       -6.97144       -13.82612         1.34375
|114>    H       -8.50134       -16.67553         2.88064
|115>    H       -8.71786       -15.25874         1.82581
|116>    H       -7.45029       -15.25280         3.08920
|117>    H       -5.04864       -18.18358        -1.28845
|118>    H       -6.91756       -22.85458         0.10123
|119>    H       -8.29921       -21.99628         5.41300
|120>    H       -8.07099       -24.72487         1.28143
|121>    H       -7.16093       -20.15263         4.28685
|122> *
|123>
|124>                          ****END OF INPUT****

CARTESIAN COORDINATES (ANGSTROEM)
---------------------------------
  C     -9.621770    2.010070    1.055090
  C    -10.974050    2.204360    1.025880
  F    -11.479130    3.441720    1.116880
  C    -11.853580    1.110250    0.899080
  F    -13.175190    1.330450    0.872660
  C    -11.368020   -0.163550    0.803080
  C     -9.979220   -0.396460    0.829550
  C     -9.088570    0.708760    0.956610
  C     -7.691060    0.499370    0.981500
  C     -7.198340   -0.775560    0.875620
  C     -8.095080   -1.872380    0.752770
  C     -9.449260   -1.702080    0.733700
  C     -7.329760   -3.132780    0.665850
  O     -7.794800   -4.249590    0.636500
  C     -5.897960   -2.733200    0.731680
  C     -5.831390   -1.287100    0.858390
  C     -4.697010   -0.520020    0.887270
  C     -3.375800   -1.011260    0.818610
  N     -2.272750   -1.324970    0.759620
  C     -4.696420    0.888300    0.977470
  N     -4.628790    2.031680    1.052850
  C     -4.854720   -3.599050    0.820690
  C     -4.898640   -5.014500    0.572980
  C     -5.639770   -5.574620   -0.492810
  O     -6.172780   -4.717940   -1.387920
  C     -6.919250   -5.237870   -2.463380
  C     -5.711650   -6.956050   -0.594040
  C     -5.040930   -7.792430    0.290910
  C     -4.178020   -7.233090    1.261830
  C     -4.129610   -5.857150    1.383790
  O     -3.405110   -8.093850    1.970430
  C     -2.566600   -7.578470    2.978550
  C     -5.216090   -9.235140    0.187460
  C     -5.398690  -10.038710    1.326110
  C     -5.471390  -11.479010    1.246080
  N     -5.568330  -12.201140    2.379200
  C     -5.638390  -11.589120    3.528470
  C     -5.675980  -10.150590    3.594950
  N     -5.563000   -9.429550    2.515330
  C     -5.846740   -9.500500    4.843220
  N     -5.961910   -9.003530    5.868770
  C     -5.743850  -12.362320    4.712290
  N     -5.859050  -12.960220    5.682390
  C     -5.413000  -12.157620    0.015740
  C     -5.349670  -11.348200   -1.126770
  C     -5.247710   -9.904790   -1.044120
  N     -5.190260   -9.347910   -2.261930
  S     -5.284710  -10.502710   -3.365520
  N     -5.398130  -11.764930   -2.397750
  C     -5.396090  -13.613130   -0.055540
  C     -4.470050  -14.279790   -0.890020
  O     -3.567540  -13.509930   -1.542750
  C     -2.600720  -14.138510   -2.350980
  C     -4.509740  -15.659410   -0.948670
  C     -5.364390  -16.419600   -0.139990
  C     -6.258550  -15.744460    0.721830
  C     -6.271970  -14.358280    0.722800
  O     -7.093240  -16.504670    1.470850
  C     -7.985010  -15.869570    2.360730
  C     -5.321320  -17.846370   -0.290740
  C     -5.611860  -18.864250    0.558420
  C     -5.823740  -20.224530   -0.017520
  O     -5.560430  -20.582290   -1.142150
  C     -6.462790  -21.008860    1.057620
  C     -6.971040  -22.274850    1.010180
  C     -7.572000  -22.817460    2.168120
  C     -7.636380  -22.031530    3.355270
  C     -8.243910  -22.575870    4.504760
  C     -8.760560  -23.840700    4.477600
  C     -8.695050  -24.617330    3.303410
  C     -8.113220  -24.117830    2.172180
  F     -9.211310  -25.854160    3.305130
  F     -9.337550  -24.356160    5.571260
  C     -7.093640  -20.726300    3.376310
  C     -6.509730  -20.223030    2.244350
  C     -5.856740  -18.943510    1.981940
  C     -5.386920  -18.081340    2.935790
  C     -4.545110  -16.988630    2.648600
  N     -3.836680  -16.106370    2.457070
  C     -5.631070  -18.232100    4.316290
  N     -5.821880  -18.307060    5.445480
  H     -8.962670    2.858650    1.151960
  H    -12.054240   -0.990450    0.707730
  H     -7.045140    1.355910    1.086330
  H    -10.107010   -2.553220    0.643300
  H     -3.896910   -3.220000    1.156080
  H     -7.218950   -4.374110   -3.054970
  H     -7.811640   -5.759620   -2.106770
  H     -6.316640   -5.911760   -3.080040
  H     -6.321430   -7.416730   -1.352100
  H     -3.524810   -5.396210    2.148440
  H     -2.062870   -8.442010    3.410340
  H     -3.144350   -7.072260    3.757580
  H     -1.818480   -6.893600    2.567710
  H     -1.978450  -13.334520   -2.740980
  H     -3.063220  -14.673750   -3.185740
  H     -1.979560  -14.826890   -1.769950
  H     -3.832800  -16.197710   -1.592550
  H     -6.971440  -13.826120    1.343750
  H     -8.501340  -16.675530    2.880640
  H     -8.717860  -15.258740    1.825810
  H     -7.450290  -15.252800    3.089200
  H     -5.048640  -18.183580   -1.288450
  H     -6.917560  -22.854580    0.101230
  H     -8.299210  -21.996280    5.413000
  H     -8.070990  -24.724870    1.281430
  H     -7.160930  -20.152630    4.286850

 Total Charge           Charge          ....    0
 Multiplicity           Mult            ....    1
 Number of Electrons    NEL             ....  556
 Basis Dimension        Dim             .... 1268

ORBITAL ENERGIES
----------------

  NO   OCC          E(Eh)            E(eV)
   0   2.0000     -89.052268     -2423.2354
   1   2.0000     -24.799395      -674.8258
   2   2.0000     -24.798127      -674.7913
   3   2.0000     -24.797031      -674.7615
   4   2.0000     -24.796263      -674.7406
   5   2.0000     -19.263655      -524.1907
   6   2.0000     -19.254218      -523.9339
   7   2.0000     -19.253782      -523.9220
   8   2.0000     -19.252544      -523.8884
   9   2.0000     -19.215742      -522.8869
  10   2.0000     -19.215635      -522.8840
  11   2.0000     -14.461872      -393.5275
  12   2.0000     -14.460793      -393.4982
  13   2.0000     -14.456095      -393.3703
  14   2.0000     -14.455627      -393.3576
  15   2.0000     -14.430891      -392.6845
  16   2.0000     -14.430801      -392.6821
  17   2.0000     -14.417863      -392.3300
  18   2.0000     -14.417071      -392.3084
  19   2.0000     -14.415004      -392.2522
  20   2.0000     -14.412249      -392.1772
  21   2.0000     -10.382941      -282.5342
  22   2.0000     -10.382517      -282.5227
  23   2.0000     -10.381524      -282.4956
  24   2.0000     -10.381106      -282.4843
  25   2.0000     -10.379818      -282.4492
  26   2.0000     -10.379493      -282.4404
  27   2.0000     -10.366479      -282.0862
  28   2.0000     -10.365562      -282.0613
  29   2.0000     -10.349681      -281.6291
  30   2.0000     -10.347182      -281.5611
  31   2.0000     -10.347070      -281.5581
  32   2.0000     -10.346670      -281.5472
  33   2.0000     -10.344480      -281.4876
  34   2.0000     -10.344424      -281.4861
  35   2.0000     -10.344254      -281.4815
  36   2.0000     -10.344244      -281.4812
  37   2.0000     -10.342498      -281.4337
  38   2.0000     -10.342393      -281.4308
  39   2.0000     -10.340196      -281.3710
  40   2.0000     -10.335304      -281.2379
  41   2.0000     -10.333554      -281.1903
  42   2.0000     -10.331799      -281.1425
  43   2.0000     -10.328735      -281.0592
  44   2.0000     -10.328424      -281.0507
  45   2.0000     -10.324273      -280.9378
  46   2.0000     -10.323763      -280.9239
  47   2.0000     -10.321039      -280.8497
  48   2.0000     -10.320551      -280.8365
  49   2.0000     -10.320407      -280.8326
  50   2.0000     -10.319921      -280.8193
  51   2.0000     -10.317241      -280.7464
  52   2.0000     -10.317173      -280.7446
  53   2.0000     -10.313059      -280.6326
  54   2.0000     -10.312902      -280.6283
  55   2.0000     -10.311400      -280.5875
  56   2.0000     -10.311020      -280.5771
  57   2.0000     -10.309076      -280.5242
  58   2.0000     -10.308584      -280.5108
  59   2.0000     -10.307837      -280.4905
  60   2.0000     -10.305604      -280.4297
  61   2.0000     -10.303228      -280.3651
  62   2.0000     -10.302541      -280.3464
  63   2.0000     -10.302107      -280.3346
  64   2.0000     -10.301755      -280.3250
  65   2.0000     -10.301661      -280.3225
  66   2.0000     -10.301289      -280.3123
  67   2.0000     -10.301274      -280.3119
  68   2.0000     -10.299984      -280.2768
  69   2.0000     -10.299596      -280.2662
  70   2.0000     -10.298896      -280.2472
  71   2.0000     -10.298631      -280.2400
  72   2.0000     -10.297883      -280.2197
  73   2.0000     -10.295178      -280.1460
  74   2.0000     -10.294631      -280.1311
  75   2.0000     -10.292983      -280.0863
  76   2.0000     -10.291817      -280.0546
  77   2.0000     -10.286203      -279.9018
  78   2.0000     -10.285469      -279.8818
  79   2.0000     -10.285360      -279.8789
  80   2.0000     -10.281797      -279.7819
  81   2.0000      -8.143434      -221.5941
  82   2.0000      -6.114257      -166.3774
  83   2.0000      -6.106776      -166.1738
  84   2.0000      -6.106528      -166.1671
  85   2.0000      -1.321630       -35.9634
  86   2.0000      -1.319488       -35.9051
  87   2.0000      -1.306747       -35.5584
  88   2.0000      -1.304663       -35.5017
  89   2.0000      -1.168372       -31.7930
  90   2.0000      -1.162257       -31.6266
  91   2.0000      -1.161754       -31.6129
  92   2.0000      -1.158881       -31.5348
  93   2.0000      -1.146099       -31.1869
  94   2.0000      -1.130686       -30.7675
  95   2.0000      -1.129823       -30.7441
  96   2.0000      -1.120861       -30.5002
  97   2.0000      -1.048175       -28.5223
  98   2.0000      -1.020790       -27.7771
  99   2.0000      -1.016768       -27.6677
 100   2.0000      -1.015201       -27.6250
 101   2.0000      -1.005566       -27.3629
 102   2.0000      -1.005245       -27.3541
 103   2.0000      -1.002056       -27.2673
 104   2.0000      -0.999553       -27.1992
 105   2.0000      -0.996018       -27.1030
 106   2.0000      -0.992611       -27.0103
 107   2.0000      -0.986860       -26.8538
 108   2.0000      -0.982107       -26.7245
 109   2.0000      -0.978830       -26.6353
 110   2.0000      -0.967446       -26.3256
 111   2.0000      -0.960615       -26.1397
 112   2.0000      -0.933033       -25.3891
 113   2.0000      -0.929699       -25.2984
 114   2.0000      -0.917917       -24.9778
 115   2.0000      -0.909927       -24.7604
 116   2.0000      -0.905222       -24.6323
 117   2.0000      -0.897372       -24.4187
 118   2.0000      -0.893663       -24.3178
 119   2.0000      -0.890569       -24.2336
 120   2.0000      -0.886473       -24.1221
 121   2.0000      -0.872217       -23.7342
 122   2.0000      -0.857810       -23.3422
 123   2.0000      -0.854778       -23.2597
 124   2.0000      -0.850693       -23.1485
 125   2.0000      -0.841191       -22.8900
 126   2.0000      -0.838934       -22.8286
 127   2.0000      -0.837399       -22.7868
 128   2.0000      -0.833181       -22.6720
 129   2.0000      -0.818972       -22.2854
 130   2.0000      -0.815254       -22.1842
 131   2.0000      -0.803300       -21.8589
 132   2.0000      -0.801068       -21.7982
 133   2.0000      -0.792986       -21.5783
 134   2.0000      -0.774741       -21.0818
 135   2.0000      -0.767610       -20.8877
 136   2.0000      -0.764966       -20.8158
 137   2.0000      -0.762132       -20.7387
 138   2.0000      -0.753907       -20.5149
 139   2.0000      -0.738346       -20.0914
 140   2.0000      -0.737183       -20.0598
 141   2.0000      -0.727621       -19.7996
 142   2.0000      -0.721269       -19.6267
 143   2.0000      -0.715700       -19.4752
 144   2.0000      -0.713263       -19.4089
 145   2.0000      -0.708772       -19.2867
 146   2.0000      -0.703381       -19.1400
 147   2.0000      -0.694841       -18.9076
 148   2.0000      -0.692640       -18.8477
 149   2.0000      -0.687552       -18.7092
 150   2.0000      -0.681347       -18.5404
 151   2.0000      -0.678037       -18.4503
 152   2.0000      -0.675524       -18.3819
 153   2.0000      -0.665577       -18.1113
 154   2.0000      -0.658062       -17.9068
 155   2.0000      -0.654896       -17.8206
 156   2.0000      -0.652272       -17.7492
 157   2.0000      -0.647812       -17.6279
 158   2.0000      -0.646063       -17.5803
 159   2.0000      -0.642008       -17.4699
 160   2.0000      -0.640048       -17.4166
 161   2.0000      -0.633629       -17.2419
 162   2.0000      -0.623508       -16.9665
 163   2.0000      -0.620579       -16.8868
 164   2.0000      -0.615408       -16.7461
 165   2.0000      -0.613629       -16.6977
 166   2.0000      -0.611144       -16.6301
 167   2.0000      -0.609950       -16.5976
 168   2.0000      -0.607513       -16.5313
 169   2.0000      -0.606721       -16.5097
 170   2.0000      -0.595494       -16.2042
 171   2.0000      -0.587657       -15.9910
 172   2.0000      -0.586252       -15.9527
 173   2.0000      -0.584153       -15.8956
 174   2.0000      -0.583823       -15.8866
 175   2.0000      -0.578984       -15.7549
 176   2.0000      -0.576931       -15.6991
 177   2.0000      -0.575292       -15.6545
 178   2.0000      -0.572984       -15.5917
 179   2.0000      -0.567891       -15.4531
 180   2.0000      -0.566224       -15.4077
 181   2.0000      -0.564721       -15.3669
 182   2.0000      -0.563821       -15.3423
 183   2.0000      -0.560004       -15.2385
 184   2.0000      -0.557251       -15.1636
 185   2.0000      -0.554725       -15.0948
 186   2.0000      -0.553109       -15.0509
 187   2.0000      -0.548815       -14.9340
 188   2.0000      -0.547903       -14.9092
 189   2.0000      -0.545778       -14.8514
 190   2.0000      -0.545703       -14.8493
 191   2.0000      -0.542580       -14.7643
 192   2.0000      -0.540789       -14.7156
 193   2.0000      -0.536990       -14.6122
 194   2.0000      -0.533917       -14.5286
 195   2.0000      -0.533477       -14.5166
 196   2.0000      -0.531242       -14.4558
 197   2.0000      -0.530767       -14.4429
 198   2.0000      -0.528048       -14.3689
 199   2.0000      -0.526528       -14.3276
 200   2.0000      -0.523772       -14.2526
 201   2.0000      -0.521796       -14.1988
 202   2.0000      -0.517093       -14.0708
 203   2.0000      -0.515561       -14.0291
 204   2.0000      -0.510970       -13.9042
 205   2.0000      -0.509276       -13.8581
 206   2.0000      -0.507587       -13.8121
 207   2.0000      -0.504548       -13.7294
 208   2.0000      -0.498193       -13.5565
 209   2.0000      -0.498057       -13.5528
 210   2.0000      -0.496155       -13.5011
 211   2.0000      -0.494737       -13.4625
 212   2.0000      -0.492144       -13.3919
 213   2.0000      -0.490767       -13.3545
 214   2.0000      -0.489228       -13.3126
 215   2.0000      -0.487029       -13.2527
 216   2.0000      -0.485223       -13.2036
 217   2.0000      -0.483571       -13.1586
 218   2.0000      -0.481557       -13.1038
 219   2.0000      -0.476999       -12.9798
 220   2.0000      -0.475199       -12.9308
 221   2.0000      -0.470034       -12.7903
 222   2.0000      -0.468866       -12.7585
 223   2.0000      -0.465452       -12.6656
 224   2.0000      -0.463061       -12.6005
 225   2.0000      -0.461500       -12.5581
 226   2.0000      -0.458460       -12.4753
 227   2.0000      -0.456762       -12.4291
 228   2.0000      -0.454704       -12.3731
 229   2.0000      -0.451034       -12.2733
 230   2.0000      -0.449685       -12.2366
 231   2.0000      -0.447383       -12.1739
 232   2.0000      -0.446104       -12.1391
 233   2.0000      -0.444765       -12.1027
 234   2.0000      -0.444341       -12.0911
 235   2.0000      -0.444267       -12.0891
 236   2.0000      -0.443044       -12.0558
 237   2.0000      -0.441079       -12.0024
 238   2.0000      -0.440395       -11.9838
 239   2.0000      -0.435609       -11.8535
 240   2.0000      -0.432650       -11.7730
 241   2.0000      -0.430874       -11.7247
 242   2.0000      -0.428575       -11.6621
 243   2.0000      -0.427837       -11.6420
 244   2.0000      -0.425742       -11.5850
 245   2.0000      -0.425046       -11.5661
 246   2.0000      -0.423852       -11.5336
 247   2.0000      -0.422474       -11.4961
 248   2.0000      -0.418010       -11.3746
 249   2.0000      -0.416701       -11.3390
 250   2.0000      -0.412639       -11.2285
 251   2.0000      -0.412554       -11.2262
 252   2.0000      -0.410990       -11.1836
 253   2.0000      -0.410054       -11.1581
 254   2.0000      -0.407706       -11.0942
 255   2.0000      -0.403954       -10.9922
 256   2.0000      -0.400665       -10.9027
 257   2.0000      -0.397931       -10.8283
 258   2.0000      -0.387450       -10.5430
 259   2.0000      -0.385587       -10.4924
 260   2.0000      -0.383036       -10.4229
 261   2.0000      -0.377370       -10.2688
 262   2.0000      -0.371010       -10.0957
 263   2.0000      -0.361457        -9.8357
 264   2.0000      -0.358139        -9.7455
 265   2.0000      -0.353491        -9.6190
 266   2.0000      -0.347592        -9.4585
 267   2.0000      -0.338150        -9.2015
 268   2.0000      -0.337264        -9.1774
 269   2.0000      -0.323622        -8.8062
 270   2.0000      -0.318813        -8.6754
 271   2.0000      -0.315847        -8.5946
 272   2.0000      -0.311735        -8.4827
 273   2.0000      -0.301197        -8.1960
 274   2.0000      -0.299213        -8.1420
 275   2.0000      -0.291765        -7.9393
 276   2.0000      -0.277359        -7.5473
 277   2.0000      -0.264869        -7.2075
 278   0.0000      -0.121454        -3.3049
 279   0.0000      -0.091121        -2.4795
 280   0.0000      -0.085127        -2.3164
 281   0.0000      -0.058381        -1.5886
 282   0.0000      -0.055309        -1.5050

MULLIKEN ATOMIC CHARGES
-----------------------
   0 C :   -0.106455
   1 C :    0.240117
   2 F :   -0.171171
   3 C :    0.237322
   4 F :   -0.172574
   5 C :   -0.104651
   6 C :    0.117539
   7 C :    0.111893
   8 C :   -0.083080
   9 C :    0.053195
  10 C :   -0.011367
  11 C :   -0.081931
  12 C :    0.152295
  13 O :   -0.141139
  14 C :   -0.059602
  15 C :    0.307693
  16 C :   -0.341571
  17 C :   -0.197066
  18 N :    0.156339
  19 C :   -0.184758
  20 N :    0.148831
  21 C :   -0.037414
  22 C :    0.064675
  23 C :    0.252180
  24 O :   -0.305008
  25 C :    0.178215
  26 C :   -0.112244
  27 C :   -0.022203
  28 C :    0.247968
  29 C :   -0.155809
  30 O :   -0.314205
  31 C :    0.172781
  32 C :    0.102930
  33 C :   -0.066219
  34 C :   -0.049539
  35 N :    0.059656
  36 C :   -0.132152
  37 C :   -0.149607
  38 N :    0.083541
  39 C :   -0.212202
  40 N :    0.235782
  41 C :   -0.208859
  42 N :    0.239061
  43 C :    0.091880
  44 C :   -0.002187
  45 C :    0.003017
  46 N :   -0.282919
  47 S :    0.541709
  48 N :   -0.251337
  49 C :   -0.022264
  50 C :    0.261265
  51 O :   -0.307282
  52 C :    0.178614
  53 C :   -0.162075
  54 C :    0.080669
  55 C :    0.205017
  56 C :   -0.077010
  57 O :   -0.312835
  58 C :    0.172493
  59 C :   -0.000910
  60 C :   -0.100733
  61 C :    0.131016
  62 O :   -0.143353
  63 C :    0.016753
  64 C :   -0.089161
  65 C :    0.115503
  66 C :    0.116840
  67 C :   -0.111606
  68 C :    0.243029
  69 C :    0.240271
  70 C :   -0.107798
  71 F :   -0.172710
  72 F :   -0.171901
  73 C :   -0.096074
  74 C :    0.045779
  75 C :    0.312745
  76 C :   -0.332693
  77 C :   -0.207421
  78 N :    0.175256
  79 C :   -0.187022
  80 N :    0.153851
  81 H :    0.008907
  82 H :   -0.001485
  83 H :   -0.006910
  84 H :   -0.013267
  85 H :    0.031516
  86 H :    0.036765
  87 H :    0.030410
  88 H :    0.028589
  89 H :   -0.029241
  90 H :   -0.027775
  91 H :    0.039451
  92 H :    0.034596
  93 H :    0.028576
  94 H :    0.034893
  95 H :    0.025237
  96 H :    0.032509
  97 H :   -0.031813
  98 H :   -0.035573
  99 H :    0.042426
 100 H :    0.029527
 101 H :    0.046197
 102 H :    0.021613
 103 H :   -0.010715
 104 H :    0.006088
 105 H :   -0.001455
 106 H :   -0.006667
Sum of atomic charges:    0.0000000

LOEWDIN ATOMIC CHARGES
----------------------
   0 C :   -0.029034
   1 C :    0.065954
   2 F :   -0.049090
   3 C :    0.067773
   4 F :   -0.049855
   5 C :   -0.034162
   6 C :   -0.008303
   7 C :   -0.007200
   8 C :    0.017783
   9 C :   -0.023680
  10 C :   -0.050431
  11 C :    0.026916
  12 C :    0.083155
  13 O :   -0.134133
  14 C :   -0.084167
  15 C :    0.076393
  16 C :   -0.136621
  17 C :   -0.022103
  18 N :   -0.049975
  19 C :   -0.017030
  20 N :   -0.053044
  21 C :    0.087084
  22 C :   -0.044150
  23 C :    0.068413
  24 O :   -0.084233
  25 C :    0.078692
  26 C :   -0.036925
  27 C :   -0.017104
  28 C :    0.053189
  29 C :   -0.041411
  30 O :   -0.099965
  31 C :    0.077445
  32 C :    0.001422
  33 C :   -0.004555
  34 C :   -0.004796
  35 N :    0.009133
  36 C :   -0.028059
  37 C :   -0.032889
  38 N :    0.019671
  39 C :   -0.036555
  40 N :   -0.008335
  41 C :   -0.037943
  42 N :   -0.002748
  43 C :    0.000587
  44 C :   -0.040494
  45 C :   -0.037938
  46 N :   -0.293100
  47 S :    0.686132
  48 N :   -0.270845
  49 C :   -0.016216
  50 C :    0.060104
  51 O :   -0.094024
  52 C :    0.078288
  53 C :   -0.042152
  54 C :   -0.044481
  55 C :    0.056545
  56 C :   -0.028990
  57 O :   -0.081804
  58 C :    0.078845
  59 C :    0.074043
  60 C :   -0.083976
  61 C :    0.085230
  62 O :   -0.142506
  63 C :   -0.055016
  64 C :    0.030143
  65 C :   -0.010984
  66 C :   -0.005339
  67 C :   -0.031275
  68 C :    0.066701
  69 C :    0.065638
  70 C :   -0.033243
  71 F :   -0.050705
  72 F :   -0.049505
  73 C :    0.009226
  74 C :   -0.017094
  75 C :    0.068949
  76 C :   -0.130352
  77 C :   -0.018037
  78 N :   -0.045008
  79 C :   -0.020078
  80 N :   -0.051342
  81 H :    0.047949
  82 H :    0.044309
  83 H :    0.039733
  84 H :    0.038798
  85 H :    0.045628
  86 H :    0.029304
  87 H :    0.018832
  88 H :    0.017596
  89 H :    0.029976
  90 H :    0.033570
  91 H :    0.030410
  92 H :    0.019659
  93 H :    0.017500
  94 H :    0.028806
  95 H :    0.016211
  96 H :    0.019551
  97 H :    0.032231
  98 H :    0.029014
  99 H :    0.031571
 100 H :    0.018273
 101 H :    0.024597
 102 H :    0.045968
 103 H :    0.039979
 104 H :    0.047144
 105 H :    0.044348
 106 H :    0.038591

  Mayer bond orders larger than 0.100000
B(  0-C ,  1-C ) :   1.4445 B(  0-C ,  5-C ) :   0.1083 B(  0-C ,  7-C ) :   1.1869
B(  0-C , 81-H ) :   1.0064 B(  1-C ,  2-F ) :   1.1354 B(  1-C ,  3-C ) :   1.1894
B(  3-C ,  4-F ) :   1.1324 B(  3-C ,  5-C ) :   1.4451 B(  5-C ,  6-C ) :   1.1927
B(  5-C , 82-H ) :   1.0066 B(  6-C ,  7-C ) :   1.2525 B(  6-C , 11-C ) :   1.1895
B(  7-C ,  8-C ) :   1.2225 B(  8-C ,  9-C ) :   1.4451 B(  8-C , 83-H ) :   0.9890
B(  9-C , 10-C ) :   1.2191 B(  9-C , 15-C ) :   0.9899 B( 10-C , 11-C ) :   1.4767
B( 10-C , 12-C ) :   0.9389 B( 11-C , 84-H ) :   1.0156 B( 12-C , 13-O ) :   2.2316
B( 12-C , 14-C ) :   0.9337 B( 14-C , 15-C ) :   1.0647 B( 14-C , 21-C ) :   1.6530
B( 15-C , 16-C ) :   1.6403 B( 16-C , 17-C ) :   1.1409 B( 16-C , 19-C ) :   1.1448
B( 17-C , 18-N ) :   2.9771 B( 19-C , 20-N ) :   2.9625 B( 21-C , 22-C ) :   1.0766
B( 21-C , 85-H ) :   0.9416 B( 22-C , 23-C ) :   1.3362 B( 22-C , 29-C ) :   1.2845
B( 23-C , 24-O ) :   1.1738 B( 23-C , 26-C ) :   1.2785 B( 24-O , 25-C ) :   0.9536
B( 25-C , 86-H ) :   0.9778 B( 25-C , 87-H ) :   0.9684 B( 25-C , 88-H ) :   0.9684
B( 26-C , 27-C ) :   1.3690 B( 26-C , 89-H ) :   0.9907 B( 27-C , 28-C ) :   1.3497
B( 27-C , 32-C ) :   0.9656 B( 28-C , 29-C ) :   1.3039 B( 28-C , 30-O ) :   1.1603
B( 29-C , 90-H ) :   1.0024 B( 30-O , 31-C ) :   0.9552 B( 31-C , 91-H ) :   0.9781
B( 31-C , 92-H ) :   0.9682 B( 31-C , 93-H ) :   0.9683 B( 32-C , 33-C ) :   1.3333
B( 32-C , 43-C ) :   0.1399 B( 32-C , 45-C ) :   1.2753 B( 33-C , 34-C ) :   1.0945
B( 33-C , 38-N ) :   1.4145 B( 34-C , 35-N ) :   1.4068 B( 34-C , 43-C ) :   1.3475
B( 35-N , 36-C ) :   1.7693 B( 36-C , 37-C ) :   1.1724 B( 36-C , 41-C ) :   1.1461
B( 37-C , 38-N ) :   1.7672 B( 37-C , 39-C ) :   1.1508 B( 39-C , 40-N ) :   3.0510
B( 41-C , 42-N ) :   3.0434 B( 43-C , 44-C ) :   1.2610 B( 43-C , 49-C ) :   0.9622
B( 44-C , 45-C ) :   1.0921 B( 44-C , 48-N ) :   1.4938 B( 45-C , 46-N ) :   1.4793
B( 46-N , 47-S ) :   1.2933 B( 46-N , 48-N ) :   0.1622 B( 47-S , 48-N ) :   1.3181
B( 49-C , 50-C ) :   1.3476 B( 49-C , 56-C ) :   1.3755 B( 50-C , 51-O ) :   1.1691
B( 50-C , 53-C ) :   1.2972 B( 51-O , 52-C ) :   0.9596 B( 52-C , 94-H ) :   0.9781
B( 52-C , 95-H ) :   0.9681 B( 52-C , 96-H ) :   0.9689 B( 53-C , 54-C ) :   1.2816
B( 53-C , 97-H ) :   1.0025 B( 54-C , 55-C ) :   1.3230 B( 54-C , 59-C ) :   1.0739
B( 55-C , 56-C ) :   1.2925 B( 55-C , 57-O ) :   1.1638 B( 56-C , 98-H ) :   0.9853
B( 57-O , 58-C ) :   0.9394 B( 58-C , 99-H ) :   0.9759 B( 58-C ,100-H ) :   0.9696
B( 58-C ,101-H ) :   0.9687 B( 59-C , 60-C ) :   1.6823 B( 59-C ,102-H ) :   0.9340
B( 60-C , 61-C ) :   0.9358 B( 60-C , 75-C ) :   1.0328 B( 61-C , 62-O ) :   2.2621
B( 61-C , 63-C ) :   0.9204 B( 63-C , 64-C ) :   1.4715 B( 63-C , 74-C ) :   1.2178
B( 64-C , 65-C ) :   1.1928 B( 64-C ,103-H ) :   1.0167 B( 65-C , 66-C ) :   1.2588
B( 65-C , 70-C ) :   1.1914 B( 66-C , 67-C ) :   1.1892 B( 66-C , 73-C ) :   1.2114
B( 67-C , 68-C ) :   1.4411 B( 67-C , 70-C ) :   0.1091 B( 67-C ,104-H ) :   1.0071
B( 68-C , 69-C ) :   1.1913 B( 68-C , 72-F ) :   1.1336 B( 69-C , 70-C ) :   1.4433
B( 69-C , 71-F ) :   1.1327 B( 70-C ,105-H ) :   1.0072 B( 73-C , 74-C ) :   1.4531
B( 73-C ,106-H ) :   0.9938 B( 74-C , 75-C ) :   1.0022 B( 75-C , 76-C ) :   1.6530
B( 76-C , 77-C ) :   1.1688 B( 76-C , 79-C ) :   1.1369 B( 77-C , 78-N ) :   3.0042
B( 79-C , 80-N ) :   2.9771

-----------------------------------------------------------------------------
         ABSORPTION SPECTRUM VIA TRANSITION ELECTRIC DIPOLE MOMENTS
-----------------------------------------------------------------------------
State   Energy  Wavelength   fosc         T2         TX        TY        TZ
        (cm-1)    (nm)                  (au**2)     (au)      (au)      (au)
-----------------------------------------------------------------------------
   0   13363.6    748.3   0.334622357   8.24340   0.02306   2.86708   0.15066
   1   15860.9    630.5   0.022625981   0.46963  -0.18040   0.65862  -0.05754
   2   20240.9    494.0   0.452150680   7.35408  -0.02898  -2.70590   0.17708
   3   20747.1    482.0   0.174561160   2.76991   0.23340  -1.60081  -0.39095
   4   22495.7    444.5   0.275440742   4.03093   0.03105   1.91536  -0.60113
   5   24201.5    413.2   0.003484185   0.04740  -0.12027   0.18030  -0.02056
   6   25858.7    386.7   0.011556585   0.14713   0.21246   0.11751   0.29695
   7   26502.8    377.3   0.019076555   0.23696   0.12250  -0.35652   0.30798
   8   26981.1    370.6   0.025553455   0.31179   0.16073   0.48536  -0.22446
   9   27502.7    363.6   0.019647838   0.23519  -0.08641  -0.46255  -0.11734
  10   27560.8    362.8   0.077126291   0.92127   0.50024  -0.75906   0.30799
  11   27823.4    359.4   0.074125307   0.87707   0.41394   0.82068  -0.17944
  12   28219.2    354.4   0.046418414   0.54153  -0.65634   0.14643   0.29884
  13   28838.1    346.8   0.014060693   0.16051  -0.25371   0.13793  -0.27770
  14   28993.5    344.9   0.154322627   1.75229  -0.10893   1.30065  -0.22073
  15   29324.5    341.0   0.018469420   0.20735  -0.04519  -0.20035  -0.40640
  16   29554.6    338.4   0.058309715   0.64952   0.63012  -0.50222   0.01553
  17   30054.2    332.7   0.033019715   0.36170   0.42991  -0.41316   0.07854
  18   30392.9    329.0   0.026901164   0.29139   0.11917   0.37109   0.37347
  19   30572.0    327.1   0.116309665   1.25247  -0.97171   0.15523   0.53305
  20   30717.0    325.6   0.085083426   0.91189  -0.29384  -0.15714  -0.89490
  21   30883.7    323.8   0.033873088   0.36108   0.33541   0.25930  -0.42584
  22   31062.0    321.9   0.082807475   0.87764   0.07266   0.41317   0.83764
  23   31519.6    317.3   0.189013136   1.97418   0.02680  -1.03226   0.95284
  24   31907.7    313.4   0.150397490   1.55174   0.85920  -0.52512  -0.73333
  25   31985.4    312.6   0.017896989   0.18421   0.23987  -0.26493   0.23765
  26   32738.0    305.5   0.176316866   1.77303   0.55274   1.21140   0.00391
  27   32983.9    303.2   0.073240414   0.73101   0.33567  -0.45471   0.64154
  28   33111.5    302.0   0.042148816   0.41907   0.60320  -0.17580  -0.15593
  29   33254.7    300.7   0.060024321   0.59422  -0.25901   0.37604  -0.62107
  30   33783.3    296.0   0.012667485   0.12344  -0.34280  -0.04015   0.06573
  31   34004.8    294.1   0.107525345   1.04099   0.08916  -0.45410   0.90931
  32   34187.1    292.5   0.357160517   3.43935  -0.64951  -1.56565  -0.75247
  33   34534.9    289.6   0.042034748   0.40071   0.13478  -0.36931  -0.49614
  34   34883.8    286.7   0.198237444   1.87085  -0.88151  -1.02691  -0.19810
  35   35051.3    285.3   0.315384236   2.96218  -1.63087   0.42054   0.35440
  36   35277.8    283.5   0.142073574   1.32583   0.84041  -0.01421   0.78698
  37   35489.6    281.8   0.498191782   4.62137   1.45422  -1.57851  -0.12214
  38   35709.5    280.0   0.748097681   6.89684   1.72641   1.91511  -0.49872
  39   36105.2    277.0   0.026853988   0.24486   0.30882   0.33708  -0.18938
  40   36440.7    274.4   0.130079592   1.17516  -0.61609  -0.84635   0.28159
  41   36677.3    272.6   0.113374717   1.01764  -0.69566  -0.72574  -0.08363
  42   36855.5    271.3   0.084663403   0.75626   0.05012   0.66395  -0.55939
  43   37168.3    269.0   0.277484583   2.45778   0.06329   0.01953  -1.56633
  44   37473.1    266.9   0.159388370   1.40027  -0.20508  -0.36119  -1.10804
  45   37894.6    263.9   0.223811998   1.94438  -0.36326   0.15543   1.33726
  46   38362.5    260.7   0.076475187   0.65628  -0.67211  -0.20716  -0.40203
  47   38533.3    259.5   0.011745417   0.10035   0.19990  -0.03565   0.24314
  48   38668.0    258.6   0.005635091   0.04798  -0.11115   0.00354  -0.18870
  49   38848.2    257.4   0.065183357   0.55238   0.27679  -0.62792  -0.28547
  50   39579.7    252.7   0.157096279   1.30668   0.02425   1.04939  -0.45262
  51   39723.1    251.7   0.012069472   0.10003   0.19914  -0.04102   0.24226
  52   39967.5    250.2   0.033031737   0.27208  -0.17335   0.03651   0.49061
  53   40044.7    249.7   0.061339509   0.50428  -0.07412   0.66517   0.23734
  54   40192.3    248.8   0.132140818   1.08236   0.02485   0.93825   0.44880

FINAL SINGLE POINT ENERGY     -4093.631312362044

DIPOLE MOMENT
-------------
                                X             Y             Z
Electronic contribution:    -25.54796       0.04085      15.35946
Nuclear contribution   :     24.21820      -1.18807     -19.11944
                        -----------------------------------------
Total Dipole Moment    :     -1.32976      -1.14722      -3.75998
                        -----------------------------------------
Magnitude (a.u.)       :      4.14992
Magnitude (Debye)      :     10.54825

Rotational constants in cm-1:     0.001740     0.000222     0.000215
Rotational constants in MHz :    52.155143     6.668550     6.440409

                             ****ORCA TERMINATED NORMALLY****
TOTAL RUN TIME: 0 days 0 hours 12 minutes 26 seconds 520 msec
