                         Program Version 4.2.0 -  RELEASE  -
|  1> # ORCA input file
|  2> # SCF done       -207.227129212109          0.000326337718
|  3> ! CAM-B3LYP def2-SVP def2/J RIJCOSX Grid4 TightSCF
|  4> %maxcore 5000
|  5> %tddft
|  6>     Mode sTDDFT
|  7>     Ethresh 5.0
|  8>     maxcore 5000
|  9> end
| 10>
| 11> %pal
| 12>   nprocs 6
| 13>   end
| 14> * xyz 0 1
| 15>    C       -3.23241         3.30876         1.80273
| 16>    C       -2.61843         4.13766         0.90634
| 17>    F       -2.47507         5.44035         1.18292
| 18>    C       -2.12922         3.63637        -0.31698
| 19>    F       -1.53266         4.47317        -1.17629
| 20>    C       -2.26035         2.31172        -0.62667
| 21>    C       -2.88803         1.43226         0.27673
| 22>    C       -3.38375         1.93736         1.51380
| 23>    C       -4.01673         1.07387         2.43703
| 24>    C       -4.14882        -0.25650         2.13403
| 25>    C       -3.65063        -0.74850         0.89787
| 26>    C       -3.03705         0.05893        -0.01572
| 27>    C       -3.90699        -2.19709         0.80163
| 28>    O       -3.62573        -2.89890        -0.14645
| 29>    C       -4.59608        -2.57028         2.06009
| 30>    C       -4.73622        -1.37160         2.87276
| 31>    C       -5.28853        -1.27033         4.12406
| 32>    C       -5.83306        -2.32096         4.89265
| 33>    N       -6.28863        -3.10826         5.59474
| 34>    C       -5.38722        -0.06203         4.84760
| 35>    N       -5.50705         0.87993         5.49264
| 36>    C       -5.09699        -3.79474         2.41744
| 37>    C       -5.00856        -5.05508         1.79819
| 38>    C       -4.30028        -5.52433         0.69716
| 39>    C       -4.51577        -6.87483         0.47102
| 40>    C       -5.40440        -7.46232         1.40305
| 41>    S       -5.95125        -6.34957         2.56286
| 42>    C       -5.58054        -8.82185         1.05790
| 43>    C       -4.80965        -9.10157        -0.08502
| 44>    C       -4.10294        -7.89167        -0.48203
| 45>    C       -3.23051        -7.75851        -1.52017
| 46>    C       -2.92473        -8.83921        -2.37638
| 47>    N       -2.68008        -9.71639        -3.07254
| 48>    C       -2.55375        -6.55390        -1.81437
| 49>    N       -1.97512        -5.59891        -2.07139
| 50>    C       -4.93643       -10.41973        -0.51553
| 51>    C       -5.79786       -11.14703         0.28846
| 52>    S       -6.45493       -10.18757         1.60325
| 53>    C       -6.18117       -12.50146         0.12204
| 54>    C       -7.03709       -13.25438         0.90282
| 55>    C       -7.22171       -14.54901         0.42718
| 56>    C       -6.51092       -14.81416        -0.72761
| 57>    S       -5.58573       -13.42733        -1.22597
| 58>    C       -6.49341       -16.00370        -1.49859
| 59>    C       -5.77488       -16.23510        -2.65893
| 60>    C       -6.02865       -17.49931        -3.18493
| 61>    C       -6.94556       -18.24091        -2.41750
| 62>    S       -7.48738       -17.37843        -1.04471
| 63>    C       -7.15710       -19.49296        -3.04494
| 64>    C       -6.37523       -19.53558        -4.21880
| 65>    C       -5.62597       -18.29734        -4.33240
| 66>    C       -4.71476       -17.98002        -5.29569
| 67>    C       -4.41438       -18.87842        -6.34196
| 68>    N       -4.19001       -19.62064        -7.18661
| 69>    C       -4.02428       -16.74950        -5.30325
| 70>    N       -3.47094       -15.74579        -5.30722
| 71>    C       -6.50998       -20.72541        -4.91752
| 72>    C       -7.37915       -21.60912        -4.29151
| 73>    S       -8.05795       -20.91855        -2.81945
| 74>    C       -7.79737       -22.88587        -4.71844
| 75>    C       -7.24359       -23.68654        -5.67348
| 76>    C       -8.08947       -24.74752        -6.29149
| 77>    O       -9.15096       -25.15384        -5.88019
| 78>    C       -7.38327       -25.13141        -7.52983
| 79>    C       -7.79828       -25.95476        -8.53654
| 80>    C       -6.96706       -26.13037        -9.66580
| 81>    C       -5.72038       -25.44230        -9.73211
| 82>    C       -4.90546       -25.60784       -10.86992
| 83>    C       -5.30711       -26.42116       -11.89217
| 84>    C       -6.53818       -27.10432       -11.82392
| 85>    C       -7.35150       -26.96336       -10.73459
| 86>    F       -6.90688       -27.89439       -12.84098
| 87>    F       -4.53254       -26.57696       -12.97320
| 88>    C       -5.31081       -24.60634        -8.66801
| 89>    C       -6.12804       -24.46088        -7.57975
| 90>    C       -5.96465       -23.68780        -6.35059
| 91>    C       -4.75927       -23.28265        -5.83894
| 92>    C       -4.60051       -22.72876        -4.55406
| 93>    N       -4.43179       -22.28836        -3.50719
| 94>    C       -3.52744       -23.45893        -6.50426
| 95>    N       -2.50107       -23.58631        -7.00057
| 96>    H       -3.60048         3.70928         2.73442
| 97>    H       -1.88069         1.94230        -1.56639
| 98>    H       -4.38107         1.49166         3.36112
| 99>    H       -2.66982        -0.34817        -0.94549
|100>    H       -5.67242        -3.82049         3.33524
|101>    H       -3.67573        -4.88497         0.09933
|102>    H       -4.44168       -10.84757        -1.36886
|103>    H       -7.51023       -12.86336         1.78610
|104>    H       -7.85493       -15.27987         0.89809
|105>    H       -5.11094       -15.50513        -3.08630
|106>    H       -6.04565       -20.93207        -5.86403
|107>    H       -8.72674       -23.25538        -4.29594
|108>    H       -8.74979       -26.46065        -8.47599
|109>    H       -3.95889       -25.09462       -10.93619
|110>    H       -8.29105       -27.49219       -10.69849
|111>    H       -4.36857       -24.08782        -8.74669
|112> *
|113>
|114>                          ****END OF INPUT****

CARTESIAN COORDINATES (ANGSTROEM)
---------------------------------
  C     -3.232410    3.308760    1.802730
  C     -2.618430    4.137660    0.906340
  F     -2.475070    5.440350    1.182920
  C     -2.129220    3.636370   -0.316980
  F     -1.532660    4.473170   -1.176290
  C     -2.260350    2.311720   -0.626670
  C     -2.888030    1.432260    0.276730
  C     -3.383750    1.937360    1.513800
  C     -4.016730    1.073870    2.437030
  C     -4.148820   -0.256500    2.134030
  C     -3.650630   -0.748500    0.897870
  C     -3.037050    0.058930   -0.015720
  C     -3.906990   -2.197090    0.801630
  O     -3.625730   -2.898900   -0.146450
  C     -4.596080   -2.570280    2.060090
  C     -4.736220   -1.371600    2.872760
  C     -5.288530   -1.270330    4.124060
  C     -5.833060   -2.320960    4.892650
  N     -6.288630   -3.108260    5.594740
  C     -5.387220   -0.062030    4.847600
  N     -5.507050    0.879930    5.492640
  C     -5.096990   -3.794740    2.417440
  C     -5.008560   -5.055080    1.798190
  C     -4.300280   -5.524330    0.697160
  C     -4.515770   -6.874830    0.471020
  C     -5.404400   -7.462320    1.403050
  S     -5.951250   -6.349570    2.562860
  C     -5.580540   -8.821850    1.057900
  C     -4.809650   -9.101570   -0.085020
  C     -4.102940   -7.891670   -0.482030
  C     -3.230510   -7.758510   -1.520170
  C     -2.924730   -8.839210   -2.376380
  N     -2.680080   -9.716390   -3.072540
  C     -2.553750   -6.553900   -1.814370
  N     -1.975120   -5.598910   -2.071390
  C     -4.936430  -10.419730   -0.515530
  C     -5.797860  -11.147030    0.288460
  S     -6.454930  -10.187570    1.603250
  C     -6.181170  -12.501460    0.122040
  C     -7.037090  -13.254380    0.902820
  C     -7.221710  -14.549010    0.427180
  C     -6.510920  -14.814160   -0.727610
  S     -5.585730  -13.427330   -1.225970
  C     -6.493410  -16.003700   -1.498590
  C     -5.774880  -16.235100   -2.658930
  C     -6.028650  -17.499310   -3.184930
  C     -6.945560  -18.240910   -2.417500
  S     -7.487380  -17.378430   -1.044710
  C     -7.157100  -19.492960   -3.044940
  C     -6.375230  -19.535580   -4.218800
  C     -5.625970  -18.297340   -4.332400
  C     -4.714760  -17.980020   -5.295690
  C     -4.414380  -18.878420   -6.341960
  N     -4.190010  -19.620640   -7.186610
  C     -4.024280  -16.749500   -5.303250
  N     -3.470940  -15.745790   -5.307220
  C     -6.509980  -20.725410   -4.917520
  C     -7.379150  -21.609120   -4.291510
  S     -8.057950  -20.918550   -2.819450
  C     -7.797370  -22.885870   -4.718440
  C     -7.243590  -23.686540   -5.673480
  C     -8.089470  -24.747520   -6.291490
  O     -9.150960  -25.153840   -5.880190
  C     -7.383270  -25.131410   -7.529830
  C     -7.798280  -25.954760   -8.536540
  C     -6.967060  -26.130370   -9.665800
  C     -5.720380  -25.442300   -9.732110
  C     -4.905460  -25.607840  -10.869920
  C     -5.307110  -26.421160  -11.892170
  C     -6.538180  -27.104320  -11.823920
  C     -7.351500  -26.963360  -10.734590
  F     -6.906880  -27.894390  -12.840980
  F     -4.532540  -26.576960  -12.973200
  C     -5.310810  -24.606340   -8.668010
  C     -6.128040  -24.460880   -7.579750
  C     -5.964650  -23.687800   -6.350590
  C     -4.759270  -23.282650   -5.838940
  C     -4.600510  -22.728760   -4.554060
  N     -4.431790  -22.288360   -3.507190
  C     -3.527440  -23.458930   -6.504260
  N     -2.501070  -23.586310   -7.000570
  H     -3.600480    3.709280    2.734420
  H     -1.880690    1.942300   -1.566390
  H     -4.381070    1.491660    3.361120
  H     -2.669820   -0.348170   -0.945490
  H     -5.672420   -3.820490    3.335240
  H     -3.675730   -4.884970    0.099330
  H     -4.441680  -10.847570   -1.368860
  H     -7.510230  -12.863360    1.786100
  H     -7.854930  -15.279870    0.898090
  H     -5.110940  -15.505130   -3.086300
  H     -6.045650  -20.932070   -5.864030
  H     -8.726740  -23.255380   -4.295940
  H     -8.749790  -26.460650   -8.475990
  H     -3.958890  -25.094620  -10.936190
  H     -8.291050  -27.492190  -10.698490
  H     -4.368570  -24.087820   -8.746690

 Total Charge           Charge          ....    0
 Multiplicity           Mult            ....    1
 Number of Electrons    NEL             ....  576
 Basis Dimension        Dim             .... 1234

ORBITAL ENERGIES
----------------

  NO   OCC          E(Eh)            E(eV)
   0   2.0000     -89.003972     -2421.9212
   1   2.0000     -89.003686     -2421.9134
   2   2.0000     -89.002653     -2421.8853
   3   2.0000     -89.001402     -2421.8513
   4   2.0000     -88.985215     -2421.4108
   5   2.0000     -24.799222      -674.8211
   6   2.0000     -24.798786      -674.8093
   7   2.0000     -24.798221      -674.7939
   8   2.0000     -24.797838      -674.7835
   9   2.0000     -19.222641      -523.0747
  10   2.0000     -19.219889      -522.9998
  11   2.0000     -14.439612      -392.9218
  12   2.0000     -14.437879      -392.8746
  13   2.0000     -14.437743      -392.8709
  14   2.0000     -14.434396      -392.7799
  15   2.0000     -14.422366      -392.4525
  16   2.0000     -14.422293      -392.4505
  17   2.0000     -14.417502      -392.3202
  18   2.0000     -14.416861      -392.3027
  19   2.0000     -10.382411      -282.5198
  20   2.0000     -10.382153      -282.5127
  21   2.0000     -10.381891      -282.5056
  22   2.0000     -10.381370      -282.4915
  23   2.0000     -10.375093      -282.3206
  24   2.0000     -10.374856      -282.3142
  25   2.0000     -10.373854      -282.2869
  26   2.0000     -10.371633      -282.2265
  27   2.0000     -10.361393      -281.9478
  28   2.0000     -10.360484      -281.9231
  29   2.0000     -10.353304      -281.7277
  30   2.0000     -10.350908      -281.6625
  31   2.0000     -10.348076      -281.5855
  32   2.0000     -10.346928      -281.5542
  33   2.0000     -10.346406      -281.5400
  34   2.0000     -10.346025      -281.5296
  35   2.0000     -10.345507      -281.5155
  36   2.0000     -10.344219      -281.4805
  37   2.0000     -10.344111      -281.4776
  38   2.0000     -10.343540      -281.4620
  39   2.0000     -10.339595      -281.3547
  40   2.0000     -10.337586      -281.3000
  41   2.0000     -10.337363      -281.2939
  42   2.0000     -10.336368      -281.2669
  43   2.0000     -10.335789      -281.2511
  44   2.0000     -10.334071      -281.2044
  45   2.0000     -10.333544      -281.1900
  46   2.0000     -10.333156      -281.1795
  47   2.0000     -10.332661      -281.1660
  48   2.0000     -10.330631      -281.1108
  49   2.0000     -10.325382      -280.9679
  50   2.0000     -10.323272      -280.9105
  51   2.0000     -10.321068      -280.8505
  52   2.0000     -10.320819      -280.8438
  53   2.0000     -10.319204      -280.7998
  54   2.0000     -10.319036      -280.7953
  55   2.0000     -10.318654      -280.7848
  56   2.0000     -10.314043      -280.6594
  57   2.0000     -10.313993      -280.6580
  58   2.0000     -10.313935      -280.6564
  59   2.0000     -10.313888      -280.6552
  60   2.0000     -10.312069      -280.6057
  61   2.0000     -10.311798      -280.5983
  62   2.0000     -10.311505      -280.5903
  63   2.0000     -10.311358      -280.5863
  64   2.0000     -10.311104      -280.5794
  65   2.0000     -10.309955      -280.5481
  66   2.0000     -10.308852      -280.5181
  67   2.0000     -10.306308      -280.4489
  68   2.0000     -10.305254      -280.4202
  69   2.0000     -10.305149      -280.4174
  70   2.0000     -10.305061      -280.4150
  71   2.0000     -10.304533      -280.4006
  72   2.0000     -10.303899      -280.3833
  73   2.0000     -10.303742      -280.3791
  74   2.0000     -10.302952      -280.3576
  75   2.0000     -10.302235      -280.3381
  76   2.0000     -10.301634      -280.3217
  77   2.0000     -10.301150      -280.3085
  78   2.0000     -10.301111      -280.3075
  79   2.0000     -10.296425      -280.1800
  80   2.0000     -10.293848      -280.1098
  81   2.0000      -8.098590      -220.3738
  82   2.0000      -8.098270      -220.3651
  83   2.0000      -8.097393      -220.3413
  84   2.0000      -8.096197      -220.3087
  85   2.0000      -8.080546      -219.8828
  86   2.0000      -6.067921      -165.1165
  87   2.0000      -6.067571      -165.1070
  88   2.0000      -6.066554      -165.0793
  89   2.0000      -6.065281      -165.0447
  90   2.0000      -6.063725      -165.0024
  91   2.0000      -6.063412      -164.9938
  92   2.0000      -6.062400      -164.9663
  93   2.0000      -6.061171      -164.9328
  94   2.0000      -6.060770      -164.9219
  95   2.0000      -6.060486      -164.9142
  96   2.0000      -6.059858      -164.8971
  97   2.0000      -6.058727      -164.8663
  98   2.0000      -6.049951      -164.6275
  99   2.0000      -6.045819      -164.5151
 100   2.0000      -6.042388      -164.4217
 101   2.0000      -1.321815       -35.9684
 102   2.0000      -1.321324       -35.9550
 103   2.0000      -1.306917       -35.5630
 104   2.0000      -1.306411       -35.5492
 105   2.0000      -1.138557       -30.9817
 106   2.0000      -1.135726       -30.9047
 107   2.0000      -1.057813       -28.7846
 108   2.0000      -1.057236       -28.7689
 109   2.0000      -1.031249       -28.0617
 110   2.0000      -1.029267       -28.0078
 111   2.0000      -1.025660       -27.9096
 112   2.0000      -1.024021       -27.8650
 113   2.0000      -1.022146       -27.8140
 114   2.0000      -1.016275       -27.6542
 115   2.0000      -1.013173       -27.5698
 116   2.0000      -1.011215       -27.5166
 117   2.0000      -1.007181       -27.4068
 118   2.0000      -1.007014       -27.4022
 119   2.0000      -1.000410       -27.2225
 120   2.0000      -0.998171       -27.1616
 121   2.0000      -0.996851       -27.1257
 122   2.0000      -0.984270       -26.7833
 123   2.0000      -0.983575       -26.7644
 124   2.0000      -0.971371       -26.4324
 125   2.0000      -0.966858       -26.3095
 126   2.0000      -0.937730       -25.5169
 127   2.0000      -0.936601       -25.4862
 128   2.0000      -0.928911       -25.2770
 129   2.0000      -0.924368       -25.1533
 130   2.0000      -0.907447       -24.6929
 131   2.0000      -0.904140       -24.6029
 132   2.0000      -0.894661       -24.3450
 133   2.0000      -0.893806       -24.3217
 134   2.0000      -0.888112       -24.1667
 135   2.0000      -0.886339       -24.1185
 136   2.0000      -0.885083       -24.0843
 137   2.0000      -0.877678       -23.8828
 138   2.0000      -0.870841       -23.6968
 139   2.0000      -0.868668       -23.6377
 140   2.0000      -0.858702       -23.3665
 141   2.0000      -0.854610       -23.2551
 142   2.0000      -0.842439       -22.9239
 143   2.0000      -0.841730       -22.9046
 144   2.0000      -0.827385       -22.5143
 145   2.0000      -0.820163       -22.3178
 146   2.0000      -0.802290       -21.8314
 147   2.0000      -0.788190       -21.4478
 148   2.0000      -0.785997       -21.3881
 149   2.0000      -0.776872       -21.1398
 150   2.0000      -0.770709       -20.9721
 151   2.0000      -0.768730       -20.9182
 152   2.0000      -0.754552       -20.5324
 153   2.0000      -0.745451       -20.2847
 154   2.0000      -0.733031       -19.9468
 155   2.0000      -0.724694       -19.7199
 156   2.0000      -0.720883       -19.6162
 157   2.0000      -0.717574       -19.5262
 158   2.0000      -0.715297       -19.4642
 159   2.0000      -0.710444       -19.3322
 160   2.0000      -0.700591       -19.0641
 161   2.0000      -0.699346       -19.0302
 162   2.0000      -0.694065       -18.8865
 163   2.0000      -0.692164       -18.8348
 164   2.0000      -0.685449       -18.6520
 165   2.0000      -0.684270       -18.6199
 166   2.0000      -0.671609       -18.2754
 167   2.0000      -0.666044       -18.1240
 168   2.0000      -0.657932       -17.9032
 169   2.0000      -0.656358       -17.8604
 170   2.0000      -0.648766       -17.6538
 171   2.0000      -0.645801       -17.5731
 172   2.0000      -0.644008       -17.5244
 173   2.0000      -0.643464       -17.5096
 174   2.0000      -0.643101       -17.4997
 175   2.0000      -0.637450       -17.3459
 176   2.0000      -0.632496       -17.2111
 177   2.0000      -0.628259       -17.0958
 178   2.0000      -0.624144       -16.9838
 179   2.0000      -0.620724       -16.8908
 180   2.0000      -0.618390       -16.8272
 181   2.0000      -0.613997       -16.7077
 182   2.0000      -0.609721       -16.5914
 183   2.0000      -0.594214       -16.1694
 184   2.0000      -0.592160       -16.1135
 185   2.0000      -0.588389       -16.0109
 186   2.0000      -0.586245       -15.9525
 187   2.0000      -0.585880       -15.9426
 188   2.0000      -0.584580       -15.9072
 189   2.0000      -0.579063       -15.7571
 190   2.0000      -0.578048       -15.7295
 191   2.0000      -0.562571       -15.3083
 192   2.0000      -0.559882       -15.2352
 193   2.0000      -0.559159       -15.2155
 194   2.0000      -0.556125       -15.1329
 195   2.0000      -0.554598       -15.0914
 196   2.0000      -0.551775       -15.0146
 197   2.0000      -0.547818       -14.9069
 198   2.0000      -0.547461       -14.8972
 199   2.0000      -0.546613       -14.8741
 200   2.0000      -0.546073       -14.8594
 201   2.0000      -0.542725       -14.7683
 202   2.0000      -0.540705       -14.7133
 203   2.0000      -0.537472       -14.6254
 204   2.0000      -0.534437       -14.5428
 205   2.0000      -0.531380       -14.4596
 206   2.0000      -0.530225       -14.4281
 207   2.0000      -0.527941       -14.3660
 208   2.0000      -0.524674       -14.2771
 209   2.0000      -0.522681       -14.2229
 210   2.0000      -0.521640       -14.1945
 211   2.0000      -0.517431       -14.0800
 212   2.0000      -0.516739       -14.0612
 213   2.0000      -0.514379       -13.9970
 214   2.0000      -0.513592       -13.9755
 215   2.0000      -0.512358       -13.9420
 216   2.0000      -0.510629       -13.8949
 217   2.0000      -0.510044       -13.8790
 218   2.0000      -0.505212       -13.7475
 219   2.0000      -0.504189       -13.7197
 220   2.0000      -0.501320       -13.6416
 221   2.0000      -0.500346       -13.6151
 222   2.0000      -0.497793       -13.5456
 223   2.0000      -0.497312       -13.5325
 224   2.0000      -0.494572       -13.4580
 225   2.0000      -0.489780       -13.3276
 226   2.0000      -0.489229       -13.3126
 227   2.0000      -0.487980       -13.2786
 228   2.0000      -0.485540       -13.2122
 229   2.0000      -0.479734       -13.0542
 230   2.0000      -0.476903       -12.9772
 231   2.0000      -0.470882       -12.8133
 232   2.0000      -0.469680       -12.7806
 233   2.0000      -0.469185       -12.7672
 234   2.0000      -0.466720       -12.7001
 235   2.0000      -0.466600       -12.6968
 236   2.0000      -0.465510       -12.6672
 237   2.0000      -0.464450       -12.6383
 238   2.0000      -0.463989       -12.6258
 239   2.0000      -0.460384       -12.5277
 240   2.0000      -0.456328       -12.4173
 241   2.0000      -0.454968       -12.3803
 242   2.0000      -0.454162       -12.3584
 243   2.0000      -0.453252       -12.3336
 244   2.0000      -0.450204       -12.2507
 245   2.0000      -0.450046       -12.2464
 246   2.0000      -0.448486       -12.2039
 247   2.0000      -0.448398       -12.2015
 248   2.0000      -0.447325       -12.1723
 249   2.0000      -0.446522       -12.1505
 250   2.0000      -0.445569       -12.1245
 251   2.0000      -0.445394       -12.1198
 252   2.0000      -0.445031       -12.1099
 253   2.0000      -0.443662       -12.0727
 254   2.0000      -0.439373       -11.9559
 255   2.0000      -0.435131       -11.8405
 256   2.0000      -0.434152       -11.8139
 257   2.0000      -0.433446       -11.7947
 258   2.0000      -0.432516       -11.7694
 259   2.0000      -0.431195       -11.7334
 260   2.0000      -0.429071       -11.6756
 261   2.0000      -0.428157       -11.6508
 262   2.0000      -0.426513       -11.6060
 263   2.0000      -0.423826       -11.5329
 264   2.0000      -0.415396       -11.3035
 265   2.0000      -0.411065       -11.1856
 266   2.0000      -0.409559       -11.1447
 267   2.0000      -0.405899       -11.0451
 268   2.0000      -0.397964       -10.8292
 269   2.0000      -0.389821       -10.6076
 270   2.0000      -0.386942       -10.5292
 271   2.0000      -0.377872       -10.2824
 272   2.0000      -0.365684        -9.9508
 273   2.0000      -0.363015        -9.8781
 274   2.0000      -0.360403        -9.8071
 275   2.0000      -0.352095        -9.5810
 276   2.0000      -0.346697        -9.4341
 277   2.0000      -0.344033        -9.3616
 278   2.0000      -0.339234        -9.2310
 279   2.0000      -0.333437        -9.0733
 280   2.0000      -0.331493        -9.0204
 281   2.0000      -0.320103        -8.7105
 282   2.0000      -0.319272        -8.6878
 283   2.0000      -0.314718        -8.5639
 284   2.0000      -0.303698        -8.2640
 285   2.0000      -0.300898        -8.1879
 286   2.0000      -0.281118        -7.6496
 287   2.0000      -0.253818        -6.9067
 288   0.0000      -0.123817        -3.3692
 289   0.0000      -0.116574        -3.1721
 290   0.0000      -0.096263        -2.6195
 291   0.0000      -0.094896        -2.5823
 292   0.0000      -0.066210        -1.8017

MULLIKEN ATOMIC CHARGES
-----------------------
   0 C :   -0.108325
   1 C :    0.241384
   2 F :   -0.170897
   3 C :    0.238772
   4 F :   -0.171009
   5 C :   -0.103864
   6 C :    0.118921
   7 C :    0.115359
   8 C :   -0.085418
   9 C :    0.048885
  10 C :   -0.001580
  11 C :   -0.082791
  12 C :    0.155228
  13 O :   -0.148256
  14 C :   -0.091504
  15 C :    0.329818
  16 C :   -0.366214
  17 C :   -0.182466
  18 N :    0.146761
  19 C :   -0.179977
  20 N :    0.143983
  21 C :    0.041201
  22 C :   -0.116406
  23 C :   -0.005433
  24 C :   -0.008996
  25 C :   -0.076739
  26 S :    0.205823
  27 C :   -0.109122
  28 C :    0.028215
  29 C :    0.308972
  30 C :   -0.289324
  31 C :   -0.191813
  32 N :    0.177239
  33 C :   -0.189511
  34 N :    0.195816
  35 C :   -0.068798
  36 C :   -0.022207
  37 S :    0.197974
  38 C :   -0.053346
  39 C :   -0.003828
  40 C :   -0.006969
  41 C :   -0.050403
  42 S :    0.148795
  43 C :   -0.027336
  44 C :   -0.066268
  45 C :    0.026992
  46 C :   -0.108374
  47 S :    0.197000
  48 C :   -0.069895
  49 C :   -0.009560
  50 C :    0.302556
  51 C :   -0.282027
  52 C :   -0.180990
  53 N :    0.170686
  54 C :   -0.191411
  55 N :    0.185106
  56 C :    0.001430
  57 C :   -0.109772
  58 S :    0.215264
  59 C :    0.086898
  60 C :   -0.145253
  61 C :    0.136207
  62 O :   -0.141708
  63 C :    0.019417
  64 C :   -0.083392
  65 C :    0.112679
  66 C :    0.110088
  67 C :   -0.104828
  68 C :    0.242175
  69 C :    0.238323
  70 C :   -0.102936
  71 F :   -0.171638
  72 F :   -0.170274
  73 C :   -0.076530
  74 C :    0.028060
  75 C :    0.268934
  76 C :   -0.328065
  77 C :   -0.203005
  78 N :    0.168254
  79 C :   -0.168948
  80 N :    0.159880
  81 H :    0.007401
  82 H :    0.000497
  83 H :   -0.006362
  84 H :   -0.006114
  85 H :    0.001673
  86 H :    0.039083
  87 H :    0.019808
  88 H :   -0.004322
  89 H :   -0.004119
  90 H :    0.020543
  91 H :    0.026046
  92 H :    0.020350
  93 H :   -0.009629
  94 H :    0.007158
  95 H :   -0.000608
  96 H :    0.002900
Sum of atomic charges:   -0.0000000

LOEWDIN ATOMIC CHARGES
----------------------
   0 C :   -0.029161
   1 C :    0.066748
   2 F :   -0.048749
   3 C :    0.068090
   4 F :   -0.048691
   5 C :   -0.032361
   6 C :   -0.008190
   7 C :   -0.006605
   8 C :    0.017974
   9 C :   -0.024135
  10 C :   -0.052300
  11 C :    0.031751
  12 C :    0.086499
  13 O :   -0.136495
  14 C :   -0.098996
  15 C :    0.077434
  16 C :   -0.143699
  17 C :   -0.023161
  18 N :   -0.054528
  19 C :   -0.016832
  20 N :   -0.054718
  21 C :    0.043220
  22 C :   -0.177095
  23 C :    0.019681
  24 C :   -0.075957
  25 C :   -0.156307
  26 S :    0.496220
  27 C :   -0.192948
  28 C :   -0.048070
  29 C :    0.073694
  30 C :   -0.088953
  31 C :   -0.016708
  32 N :   -0.024615
  33 C :   -0.022841
  34 N :   -0.011494
  35 C :   -0.038249
  36 C :   -0.163972
  37 S :    0.481922
  38 C :   -0.184128
  39 C :   -0.051721
  40 C :   -0.054789
  41 C :   -0.180494
  42 S :    0.463593
  43 C :   -0.168864
  44 C :   -0.034995
  45 C :   -0.053342
  46 C :   -0.185902
  47 S :    0.482996
  48 C :   -0.157868
  49 C :   -0.066957
  50 C :    0.080440
  51 C :   -0.092963
  52 C :   -0.011918
  53 N :   -0.029270
  54 C :   -0.018747
  55 N :   -0.022270
  56 C :    0.011745
  57 C :   -0.181838
  58 S :    0.499208
  59 C :    0.043737
  60 C :   -0.092395
  61 C :    0.082974
  62 O :   -0.143298
  63 C :   -0.054737
  64 C :    0.030676
  65 C :   -0.009440
  66 C :   -0.005225
  67 C :   -0.028872
  68 C :    0.067415
  69 C :    0.067173
  70 C :   -0.033021
  71 F :   -0.049161
  72 F :   -0.047872
  73 C :    0.017501
  74 C :   -0.020101
  75 C :    0.064281
  76 C :   -0.135941
  77 C :   -0.015962
  78 N :   -0.045712
  79 C :   -0.018954
  80 N :   -0.044704
  81 H :    0.047696
  82 H :    0.045477
  83 H :    0.039871
  84 H :    0.041859
  85 H :    0.042220
  86 H :    0.043321
  87 H :    0.038499
  88 H :    0.030188
  89 H :    0.030082
  90 H :    0.039001
  91 H :    0.042754
  92 H :    0.045965
  93 H :    0.040578
  94 H :    0.048147
  95 H :    0.044766
  96 H :    0.041891

  Mayer bond orders larger than 0.100000
B(  0-C ,  1-C ) :   1.4419 B(  0-C ,  5-C ) :   0.1084 B(  0-C ,  7-C ) :   1.1877
B(  0-C , 81-H ) :   1.0064 B(  1-C ,  2-F ) :   1.1346 B(  1-C ,  3-C ) :   1.1915
B(  3-C ,  4-F ) :   1.1337 B(  3-C ,  5-C ) :   1.4434 B(  5-C ,  6-C ) :   1.1919
B(  5-C , 82-H ) :   1.0071 B(  6-C ,  7-C ) :   1.2543 B(  6-C , 11-C ) :   1.1854
B(  7-C ,  8-C ) :   1.2194 B(  8-C ,  9-C ) :   1.4474 B(  8-C , 83-H ) :   0.9884
B(  9-C , 10-C ) :   1.2222 B(  9-C , 15-C ) :   0.9781 B( 10-C , 11-C ) :   1.4715
B( 10-C , 12-C ) :   0.9505 B( 11-C , 84-H ) :   1.0171 B( 12-C , 13-O ) :   2.1697
B( 12-C , 14-C ) :   0.9395 B( 14-C , 15-C ) :   1.0894 B( 14-C , 21-C ) :   1.5787
B( 15-C , 16-C ) :   1.6122 B( 16-C , 17-C ) :   1.1403 B( 16-C , 19-C ) :   1.1529
B( 17-C , 18-N ) :   2.9557 B( 19-C , 20-N ) :   2.9558 B( 21-C , 22-C ) :   1.2320
B( 21-C , 85-H ) :   0.9038 B( 22-C , 23-C ) :   1.3885 B( 22-C , 26-S ) :   1.0727
B( 23-C , 24-C ) :   1.3188 B( 23-C , 86-H ) :   0.9694 B( 24-C , 25-C ) :   1.3701
B( 24-C , 29-C ) :   0.9968 B( 25-C , 26-S ) :   1.1682 B( 25-C , 27-C ) :   1.2109
B( 27-C , 28-C ) :   1.4343 B( 27-C , 37-S ) :   1.1052 B( 28-C , 29-C ) :   0.9910
B( 28-C , 35-C ) :   1.3089 B( 29-C , 30-C ) :   1.7207 B( 30-C , 31-C ) :   1.1329
B( 30-C , 33-C ) :   1.1342 B( 31-C , 32-N ) :   2.9885 B( 33-C , 34-N ) :   2.9963
B( 35-C , 36-C ) :   1.4423 B( 35-C , 87-H ) :   0.9883 B( 36-C , 37-S ) :   1.1176
B( 36-C , 38-C ) :   1.1648 B( 38-C , 39-C ) :   1.4869 B( 38-C , 41-C ) :   0.1024
B( 38-C , 42-S ) :   1.1271 B( 39-C , 40-C ) :   1.2829 B( 39-C , 88-H ) :   0.9931
B( 40-C , 41-C ) :   1.4876 B( 40-C , 89-H ) :   0.9927 B( 41-C , 42-S ) :   1.1301
B( 41-C , 43-C ) :   1.1641 B( 43-C , 44-C ) :   1.4469 B( 43-C , 47-S ) :   1.1137
B( 44-C , 45-C ) :   1.3081 B( 44-C , 90-H ) :   0.9879 B( 45-C , 46-C ) :   1.4400
B( 45-C , 50-C ) :   0.9922 B( 46-C , 47-S ) :   1.1124 B( 46-C , 48-C ) :   1.1995
B( 48-C , 49-C ) :   1.4058 B( 48-C , 58-S ) :   1.1557 B( 49-C , 50-C ) :   0.9997
B( 49-C , 56-C ) :   1.3662 B( 50-C , 51-C ) :   1.7214 B( 51-C , 52-C ) :   1.1331
B( 51-C , 54-C ) :   1.1315 B( 52-C , 53-N ) :   2.9802 B( 54-C , 55-N ) :   2.9942
B( 56-C , 57-C ) :   1.3885 B( 56-C , 91-H ) :   0.9768 B( 57-C , 58-S ) :   1.0859
B( 57-C , 59-C ) :   1.1488 B( 59-C , 60-C ) :   1.6566 B( 59-C , 92-H ) :   0.9299
B( 60-C , 61-C ) :   0.9463 B( 60-C , 75-C ) :   1.0392 B( 61-C , 62-O ) :   2.2690
B( 61-C , 63-C ) :   0.9168 B( 63-C , 64-C ) :   1.4732 B( 63-C , 74-C ) :   1.2233
B( 64-C , 65-C ) :   1.1933 B( 64-C , 93-H ) :   1.0162 B( 65-C , 66-C ) :   1.2581
B( 65-C , 70-C ) :   1.1933 B( 66-C , 67-C ) :   1.1895 B( 66-C , 73-C ) :   1.2147
B( 67-C , 68-C ) :   1.4417 B( 67-C , 70-C ) :   0.1087 B( 67-C , 94-H ) :   1.0069
B( 68-C , 69-C ) :   1.1928 B( 68-C , 72-F ) :   1.1349 B( 69-C , 70-C ) :   1.4426
B( 69-C , 71-F ) :   1.1336 B( 70-C , 95-H ) :   1.0065 B( 73-C , 74-C ) :   1.4605
B( 73-C , 96-H ) :   0.9942 B( 74-C , 75-C ) :   0.9923 B( 75-C , 76-C ) :   1.6513
B( 76-C , 77-C ) :   1.1705 B( 76-C , 79-C ) :   1.1284 B( 77-C , 78-N ) :   2.9964
B( 79-C , 80-N ) :   2.9919

-----------------------------------------------------------------------------
         ABSORPTION SPECTRUM VIA TRANSITION ELECTRIC DIPOLE MOMENTS
-----------------------------------------------------------------------------
State   Energy  Wavelength   fosc         T2         TX        TY        TZ
        (cm-1)    (nm)                  (au**2)     (au)      (au)      (au)
-----------------------------------------------------------------------------
   0   12217.0    818.5   0.805514381  21.70628  -0.35358  -4.30456  -1.74700
   1   13341.3    749.6   0.070912236   1.74984   0.24171   1.29352   0.13497
   2   18902.6    529.0   1.771102989  30.84588   0.06272   5.09510   2.20950
   3   20594.6    485.6   0.234302267   3.74540   0.52041   1.84885   0.23731
   4   21328.6    468.9   0.029254256   0.45155  -0.31194  -0.58865   0.08794
   5   22620.0    442.1   0.114147229   1.66130   0.31830  -1.12876  -0.53469
   6   25603.6    390.6   0.011994955   0.15423  -0.00300   0.32415  -0.22169
   7   26053.7    383.8   0.026641511   0.33664   0.11311   0.28355  -0.49340
   8   26664.7    375.0   0.385937667   4.76492  -0.84114  -1.89671  -0.67817
   9   27741.6    360.5   0.003017858   0.03581  -0.17982   0.03439   0.04792
  10   27906.2    358.3   0.003653194   0.04310  -0.11306  -0.17120   0.03169
  11   28069.8    356.3   0.059080354   0.69291   0.59084   0.53475  -0.24054
  12   28220.1    354.4   0.006023492   0.07027  -0.03803   0.26181   0.01675
  13   28412.0    352.0   0.036812754   0.42655  -0.21571  -0.14003  -0.60034
  14   28767.0    347.6   0.033488148   0.38324  -0.06761   0.15443   0.59567
  15   29104.9    343.6   0.156277049   1.76768  -0.31836  -1.28905  -0.06835
  16   29509.7    338.9   0.114152917   1.27350  -0.14830  -1.07608  -0.30586
  17   29629.3    337.5   0.039399521   0.43777   0.34423   0.15860  -0.54233
  18   29738.4    336.3   0.089233333   0.98784   0.60483  -0.71797  -0.32639
  19   30287.0    330.2   0.459003609   4.98925  -0.22443   0.83770   2.05843
  20   30875.7    323.9   0.288778345   3.07910  -0.69039  -1.55069   0.44478
  21   31037.6    322.2   0.702097523   7.44705   1.80030   0.79587  -1.89013
  22   31085.2    321.7   0.020524937   0.21737   0.24099  -0.39695   0.04154
  23   32307.3    309.5   0.077239578   0.78707   0.09533  -0.27032  -0.83959
  24   32507.2    307.6   0.068770943   0.69647  -0.02904   0.65251   0.51948
  25   32693.7    305.9   0.033132507   0.33363   0.23773  -0.11932  -0.51272
  26   32995.1    303.1   0.230475485   2.29959  -0.22018  -1.47024  -0.29916
  27   33353.4    299.8   0.100678133   0.99373  -0.16065   0.49208   0.85193
  28   33694.7    296.8   0.158787517   1.55142   0.39585   0.33178  -1.13342
  29   34134.5    293.0   0.003125234   0.03014  -0.08045  -0.04542  -0.14699
  30   34169.0    292.7   0.039149618   0.37720  -0.13575  -0.55649   0.22157
  31   34234.3    292.1   0.140097564   1.34724  -0.11844  -0.49141  -1.04486
  32   34484.9    290.0   0.132417000   1.26413  -0.91281  -0.65458  -0.04928
  33   34739.4    287.9   0.109738766   1.03995   0.55844   0.79250   0.31629
  34   34815.8    287.2   0.180018131   1.70222   0.72426   0.80851  -0.72387
  35   35006.3    285.7   0.251685115   2.36694   0.57358   1.23127  -0.72244
  36   35103.6    284.9   0.255216614   2.39350  -1.26228  -0.63790   0.62708
  37   35384.9    282.6   0.385037370   3.58229   0.49264   0.08567  -1.82545
  38   35484.0    281.8   0.192291960   1.78404   0.06992   0.71754   1.12441
  39   35806.0    279.3   0.095826335   0.88106  -0.52936  -0.49122  -0.59962
  40   35938.1    278.3   0.041998390   0.38473   0.22775   0.38952   0.42560
  41   36193.4    276.3   0.011932870   0.10854   0.26734   0.15476   0.11453
  42   36345.6    275.1   0.031466788   0.28502  -0.07858  -0.16228  -0.50251
  43   36792.5    271.8   0.006104305   0.05462   0.04420   0.16177   0.16278
  44   37039.2    270.0   0.040635270   0.36117   0.50557   0.09698  -0.31011
  45   37196.3    268.8   0.053643602   0.47478  -0.19403   0.02298   0.66076
  46   37365.7    267.6   0.136371254   1.20150   0.57710  -0.08567  -0.92797
  47   37454.9    267.0   0.038206911   0.33582   0.34803   0.36715  -0.28265
  48   37735.5    265.0   0.039925869   0.34832  -0.21040  -0.42466  -0.35174
  49   37948.3    263.5   0.015744835   0.13659  -0.10739   0.35029  -0.04851
  50   38049.5    262.8   0.009826437   0.08502  -0.03939   0.24192   0.15793
  51   38277.1    261.3   0.078872195   0.67836   0.30599  -0.42300  -0.63703
  52   38893.8    257.1   0.053353132   0.45160   0.47952   0.46986   0.02990
  53   39313.3    254.4   0.160440001   1.34353   0.41830  -0.74580  -0.78252
  54   39731.2    251.7   0.012520861   0.10375  -0.22746   0.03649  -0.22512
  55   40209.9    248.7   0.002887111   0.02364  -0.07987  -0.05659   0.11856

FINAL SINGLE POINT ENERGY     -5346.053395605315

DIPOLE MOMENT
-------------
                                X             Y             Z
Electronic contribution:      4.74722       4.22767      -9.10014
Nuclear contribution   :     -7.80213      -5.39217       9.72936
                        -----------------------------------------
Total Dipole Moment    :     -3.05491      -1.16451       0.62922
                        -----------------------------------------
Magnitude (a.u.)       :      3.32934
Magnitude (Debye)      :      8.46251

Rotational constants in cm-1:     0.002060     0.000128     0.000122
Rotational constants in MHz :    61.771509     3.827206     3.649858

                             ****ORCA TERMINATED NORMALLY****
TOTAL RUN TIME: 0 days 0 hours 9 minutes 56 seconds 564 msec
