                         Program Version 4.2.0 -  RELEASE  -
|  1> # ORCA input file
|  2> # SCF done       -199.685979875505          0.000523269594
|  3> ! CAM-B3LYP def2-SVP def2/J RIJCOSX Grid4 TightSCF
|  4> %maxcore 5000
|  5> %tddft
|  6>     Mode sTDDFT
|  7>     Ethresh 5.0
|  8>     maxcore 5000
|  9> end
| 10>
| 11> %pal
| 12>   nprocs 6
| 13>   end
| 14> * xyz 0 1
| 15>    C       -6.07087         2.57114         0.92460
| 16>    C       -7.11817         3.09065         0.21624
| 17>    F       -7.35182         4.40883         0.22961
| 18>    C       -7.96406         2.24964        -0.53460
| 19>    F       -8.98298         2.78597        -1.21867
| 20>    C       -7.75105         0.89983        -0.56617
| 21>    C       -6.68155         0.33457         0.15483
| 22>    C       -5.82462         1.18364         0.91353
| 23>    C       -4.74452         0.63895         1.64625
| 24>    C       -4.53070        -0.71387         1.62495
| 25>    C       -5.39651        -1.55328         0.86926
| 26>    C       -6.44324        -1.05762         0.14687
| 27>    C       -4.96935        -2.95200         1.02941
| 28>    O       -5.48022        -3.92753         0.50479
| 29>    C       -3.82831        -2.93189         1.94964
| 30>    C       -3.52132        -1.55019         2.27207
| 31>    C       -2.46451        -1.08330         3.00853
| 32>    C       -1.45180        -1.87727         3.58769
| 33>    N       -0.58744        -2.45369         4.07662
| 34>    C       -2.22845         0.28368         3.26835
| 35>    N       -1.98354         1.37730         3.51582
| 36>    C       -3.21113        -4.03985         2.47455
| 37>    C       -3.44271        -5.40288         2.23924
| 38>    C       -2.75010        -6.40015         2.93945
| 39>    C       -3.12494        -7.67301         2.55825
| 40>    C       -4.10722        -7.65736         1.53679
| 41>    S       -4.57937        -6.08832         1.07624
| 42>    C       -4.42340        -8.99780         1.21612
| 43>    C       -3.65625        -9.85961         2.02570
| 44>    C       -2.81489        -9.05328         2.89663
| 45>    C       -1.93308        -9.50314         3.83436
| 46>    C       -1.73437       -10.88023         4.06844
| 47>    N       -1.58054       -12.00111         4.25498
| 48>    C       -1.17007        -8.62702         4.63572
| 49>    N       -0.55172        -7.92091         5.29349
| 50>    C       -3.90603       -11.20578         1.77896
| 51>    C       -4.85573       -11.38547         0.78264
| 52>    S       -5.44179        -9.85413         0.14923
| 53>    C       -5.38030       -12.58506         0.23998
| 54>    C       -5.06557       -13.83326         0.67002
| 55>    C       -5.58765       -15.02737         0.11244
| 56>    C       -6.44135       -15.19358        -0.96979
| 57>    C       -6.72272       -16.53329        -1.21357
| 58>    C       -6.08330       -17.40569        -0.31041
| 59>    S       -5.13351       -16.56555         0.83054
| 60>    C       -6.42660       -18.73700        -0.64666
| 61>    C       -7.28444       -18.70558        -1.76728
| 62>    C       -7.49030       -17.32458        -2.16347
| 63>    C       -8.22002       -16.87634        -3.22502
| 64>    C       -8.89106       -17.77100        -4.08544
| 65>    N       -9.43355       -18.51156        -4.77240
| 66>    C       -8.34460       -15.50296        -3.52114
| 67>    N       -8.44605       -14.38381        -3.74840
| 68>    C       -7.65348       -19.97032        -2.20212
| 69>    C       -7.08911       -20.97730        -1.43051
| 70>    S       -6.10831       -20.32267        -0.12132
| 71>    C       -7.24238       -22.37444        -1.54276
| 72>    C       -7.67727       -23.10836        -2.60661
| 73>    C       -8.16371       -24.49563        -2.35818
| 74>    O       -8.03013       -25.13318        -1.33981
| 75>    C       -8.87858       -24.88384        -3.58924
| 76>    C       -9.60763       -26.01044        -3.83985
| 77>    C      -10.23539       -26.15591        -5.09727
| 78>    C      -10.10336       -25.12150        -6.06902
| 79>    C      -10.73839       -25.26966        -7.31844
| 80>    C      -11.46584       -26.39380        -7.59214
| 81>    C      -11.59441       -27.41687        -6.63102
| 82>    C      -10.99311       -27.30157        -5.40909
| 83>    F      -12.31457       -28.50704        -6.92629
| 84>    F      -12.06587       -26.53495        -8.78076
| 85>    C       -9.33822       -23.96776        -5.78226
| 86>    C       -8.72524       -23.85648        -4.56320
| 87>    C       -7.85593       -22.81803        -4.01274
| 88>    C       -7.14997       -21.91660        -4.76711
| 89>    C       -6.13730       -21.08150        -4.25814
| 90>    N       -5.28859       -20.40033        -3.89192
| 91>    C       -7.28554       -21.78588        -6.16559
| 92>    N       -7.35185       -21.64006        -7.30157
| 93>    H       -5.43277         3.22940         1.49328
| 94>    H       -8.40751         0.26944        -1.14530
| 95>    H       -4.11749         1.30954         2.21080
| 96>    H       -7.08191        -1.71858        -0.41909
| 97>    H       -2.43057        -3.86538         3.20544
| 98>    H       -2.01411        -6.16648         3.68849
| 99>    H       -3.42369       -12.01932         2.28788
|100>    H       -6.08430       -12.46310        -0.57090
|101>    H       -4.37709       -13.95786         1.49365
|102>    H       -6.82807       -14.37585        -1.54879
|103>    H       -8.33422       -20.16481        -3.01078
|104>    H       -7.05156       -22.95172        -0.64278
|105>    H       -9.70396       -26.78044        -3.08968
|106>    H      -10.64701       -24.49761        -8.06634
|107>    H      -11.10144       -28.09330        -4.68444
|108>    H       -9.26458       -23.19514        -6.53073
|109> *
|110>
|111>                          ****END OF INPUT****

CARTESIAN COORDINATES (ANGSTROEM)
---------------------------------
  C     -6.070870    2.571140    0.924600
  C     -7.118170    3.090650    0.216240
  F     -7.351820    4.408830    0.229610
  C     -7.964060    2.249640   -0.534600
  F     -8.982980    2.785970   -1.218670
  C     -7.751050    0.899830   -0.566170
  C     -6.681550    0.334570    0.154830
  C     -5.824620    1.183640    0.913530
  C     -4.744520    0.638950    1.646250
  C     -4.530700   -0.713870    1.624950
  C     -5.396510   -1.553280    0.869260
  C     -6.443240   -1.057620    0.146870
  C     -4.969350   -2.952000    1.029410
  O     -5.480220   -3.927530    0.504790
  C     -3.828310   -2.931890    1.949640
  C     -3.521320   -1.550190    2.272070
  C     -2.464510   -1.083300    3.008530
  C     -1.451800   -1.877270    3.587690
  N     -0.587440   -2.453690    4.076620
  C     -2.228450    0.283680    3.268350
  N     -1.983540    1.377300    3.515820
  C     -3.211130   -4.039850    2.474550
  C     -3.442710   -5.402880    2.239240
  C     -2.750100   -6.400150    2.939450
  C     -3.124940   -7.673010    2.558250
  C     -4.107220   -7.657360    1.536790
  S     -4.579370   -6.088320    1.076240
  C     -4.423400   -8.997800    1.216120
  C     -3.656250   -9.859610    2.025700
  C     -2.814890   -9.053280    2.896630
  C     -1.933080   -9.503140    3.834360
  C     -1.734370  -10.880230    4.068440
  N     -1.580540  -12.001110    4.254980
  C     -1.170070   -8.627020    4.635720
  N     -0.551720   -7.920910    5.293490
  C     -3.906030  -11.205780    1.778960
  C     -4.855730  -11.385470    0.782640
  S     -5.441790   -9.854130    0.149230
  C     -5.380300  -12.585060    0.239980
  C     -5.065570  -13.833260    0.670020
  C     -5.587650  -15.027370    0.112440
  C     -6.441350  -15.193580   -0.969790
  C     -6.722720  -16.533290   -1.213570
  C     -6.083300  -17.405690   -0.310410
  S     -5.133510  -16.565550    0.830540
  C     -6.426600  -18.737000   -0.646660
  C     -7.284440  -18.705580   -1.767280
  C     -7.490300  -17.324580   -2.163470
  C     -8.220020  -16.876340   -3.225020
  C     -8.891060  -17.771000   -4.085440
  N     -9.433550  -18.511560   -4.772400
  C     -8.344600  -15.502960   -3.521140
  N     -8.446050  -14.383810   -3.748400
  C     -7.653480  -19.970320   -2.202120
  C     -7.089110  -20.977300   -1.430510
  S     -6.108310  -20.322670   -0.121320
  C     -7.242380  -22.374440   -1.542760
  C     -7.677270  -23.108360   -2.606610
  C     -8.163710  -24.495630   -2.358180
  O     -8.030130  -25.133180   -1.339810
  C     -8.878580  -24.883840   -3.589240
  C     -9.607630  -26.010440   -3.839850
  C    -10.235390  -26.155910   -5.097270
  C    -10.103360  -25.121500   -6.069020
  C    -10.738390  -25.269660   -7.318440
  C    -11.465840  -26.393800   -7.592140
  C    -11.594410  -27.416870   -6.631020
  C    -10.993110  -27.301570   -5.409090
  F    -12.314570  -28.507040   -6.926290
  F    -12.065870  -26.534950   -8.780760
  C     -9.338220  -23.967760   -5.782260
  C     -8.725240  -23.856480   -4.563200
  C     -7.855930  -22.818030   -4.012740
  C     -7.149970  -21.916600   -4.767110
  C     -6.137300  -21.081500   -4.258140
  N     -5.288590  -20.400330   -3.891920
  C     -7.285540  -21.785880   -6.165590
  N     -7.351850  -21.640060   -7.301570
  H     -5.432770    3.229400    1.493280
  H     -8.407510    0.269440   -1.145300
  H     -4.117490    1.309540    2.210800
  H     -7.081910   -1.718580   -0.419090
  H     -2.430570   -3.865380    3.205440
  H     -2.014110   -6.166480    3.688490
  H     -3.423690  -12.019320    2.287880
  H     -6.084300  -12.463100   -0.570900
  H     -4.377090  -13.957860    1.493650
  H     -6.828070  -14.375850   -1.548790
  H     -8.334220  -20.164810   -3.010780
  H     -7.051560  -22.951720   -0.642780
  H     -9.703960  -26.780440   -3.089680
  H    -10.647010  -24.497610   -8.066340
  H    -11.101440  -28.093300   -4.684440
  H     -9.264580  -23.195140   -6.530730

 Total Charge           Charge          ....    0
 Multiplicity           Mult            ....    1
 Number of Electrons    NEL             ....  548
 Basis Dimension        Dim             .... 1188

ORBITAL ENERGIES
----------------

  NO   OCC          E(Eh)            E(eV)
   0   2.0000     -89.003397     -2421.9056
   1   2.0000     -89.002813     -2421.8897
   2   2.0000     -89.001565     -2421.8557
   3   2.0000     -88.997043     -2421.7327
   4   2.0000     -24.802220      -674.9027
   5   2.0000     -24.801208      -674.8752
   6   2.0000     -24.800118      -674.8455
   7   2.0000     -24.799357      -674.8248
   8   2.0000     -19.231644      -523.3196
   9   2.0000     -19.220902      -523.0273
  10   2.0000     -14.440921      -392.9574
  11   2.0000     -14.440494      -392.9458
  12   2.0000     -14.439571      -392.9207
  13   2.0000     -14.436862      -392.8470
  14   2.0000     -14.423752      -392.4902
  15   2.0000     -14.421761      -392.4361
  16   2.0000     -14.419192      -392.3662
  17   2.0000     -14.418788      -392.3552
  18   2.0000     -10.385712      -282.6096
  19   2.0000     -10.384973      -282.5895
  20   2.0000     -10.383484      -282.5490
  21   2.0000     -10.382905      -282.5332
  22   2.0000     -10.379490      -282.4403
  23   2.0000     -10.375786      -282.3395
  24   2.0000     -10.373760      -282.2844
  25   2.0000     -10.372334      -282.2456
  26   2.0000     -10.363095      -281.9941
  27   2.0000     -10.362060      -281.9660
  28   2.0000     -10.351672      -281.6833
  29   2.0000     -10.349436      -281.6225
  30   2.0000     -10.348603      -281.5998
  31   2.0000     -10.347974      -281.5827
  32   2.0000     -10.347349      -281.5657
  33   2.0000     -10.343837      -281.4701
  34   2.0000     -10.342220      -281.4261
  35   2.0000     -10.341478      -281.4059
  36   2.0000     -10.341180      -281.3978
  37   2.0000     -10.340576      -281.3814
  38   2.0000     -10.340170      -281.3703
  39   2.0000     -10.339933      -281.3639
  40   2.0000     -10.339576      -281.3542
  41   2.0000     -10.336464      -281.2695
  42   2.0000     -10.334686      -281.2211
  43   2.0000     -10.334316      -281.2110
  44   2.0000     -10.333614      -281.1919
  45   2.0000     -10.331805      -281.1427
  46   2.0000     -10.324939      -280.9559
  47   2.0000     -10.324153      -280.9345
  48   2.0000     -10.322136      -280.8796
  49   2.0000     -10.321227      -280.8549
  50   2.0000     -10.320615      -280.8382
  51   2.0000     -10.320257      -280.8285
  52   2.0000     -10.320128      -280.8250
  53   2.0000     -10.319735      -280.8143
  54   2.0000     -10.316448      -280.7248
  55   2.0000     -10.315392      -280.6961
  56   2.0000     -10.315285      -280.6932
  57   2.0000     -10.315000      -280.6854
  58   2.0000     -10.314984      -280.6850
  59   2.0000     -10.313916      -280.6559
  60   2.0000     -10.313288      -280.6388
  61   2.0000     -10.313174      -280.6357
  62   2.0000     -10.312927      -280.6290
  63   2.0000     -10.312905      -280.6284
  64   2.0000     -10.312582      -280.6196
  65   2.0000     -10.311241      -280.5831
  66   2.0000     -10.308724      -280.5146
  67   2.0000     -10.307103      -280.4705
  68   2.0000     -10.306454      -280.4529
  69   2.0000     -10.306164      -280.4450
  70   2.0000     -10.306090      -280.4430
  71   2.0000     -10.305646      -280.4309
  72   2.0000     -10.305224      -280.4194
  73   2.0000     -10.304563      -280.4014
  74   2.0000     -10.303415      -280.3702
  75   2.0000     -10.302340      -280.3409
  76   2.0000     -10.299349      -280.2595
  77   2.0000     -10.297355      -280.2053
  78   2.0000      -8.098050      -220.3591
  79   2.0000      -8.097471      -220.3434
  80   2.0000      -8.096248      -220.3101
  81   2.0000      -8.089240      -220.1194
  82   2.0000      -6.067210      -165.0972
  83   2.0000      -6.066657      -165.0821
  84   2.0000      -6.065406      -165.0481
  85   2.0000      -6.063061      -164.9843
  86   2.0000      -6.062482      -164.9685
  87   2.0000      -6.061226      -164.9343
  88   2.0000      -6.060542      -164.9157
  89   2.0000      -6.059974      -164.9003
  90   2.0000      -6.058803      -164.8684
  91   2.0000      -6.058672      -164.8648
  92   2.0000      -6.053910      -164.7353
  93   2.0000      -6.051815      -164.6783
  94   2.0000      -1.324864       -36.0514
  95   2.0000      -1.322805       -35.9954
  96   2.0000      -1.309978       -35.6463
  97   2.0000      -1.307923       -35.5904
  98   2.0000      -1.147308       -31.2198
  99   2.0000      -1.136750       -30.9325
 100   2.0000      -1.058067       -28.7915
 101   2.0000      -1.055125       -28.7114
 102   2.0000      -1.032681       -28.1007
 103   2.0000      -1.030374       -28.0379
 104   2.0000      -1.025883       -27.9157
 105   2.0000      -1.025431       -27.9034
 106   2.0000      -1.018452       -27.7135
 107   2.0000      -1.015872       -27.6433
 108   2.0000      -1.012137       -27.5416
 109   2.0000      -1.009708       -27.4755
 110   2.0000      -1.008600       -27.4454
 111   2.0000      -1.008057       -27.4306
 112   2.0000      -0.999121       -27.1875
 113   2.0000      -0.998930       -27.1823
 114   2.0000      -0.987214       -26.8635
 115   2.0000      -0.985559       -26.8184
 116   2.0000      -0.973496       -26.4902
 117   2.0000      -0.969681       -26.3864
 118   2.0000      -0.941273       -25.6134
 119   2.0000      -0.938739       -25.5444
 120   2.0000      -0.934624       -25.4324
 121   2.0000      -0.926753       -25.2182
 122   2.0000      -0.914439       -24.8831
 123   2.0000      -0.907065       -24.6825
 124   2.0000      -0.901036       -24.5184
 125   2.0000      -0.896761       -24.4021
 126   2.0000      -0.895399       -24.3651
 127   2.0000      -0.886471       -24.1221
 128   2.0000      -0.886185       -24.1143
 129   2.0000      -0.876429       -23.8489
 130   2.0000      -0.869459       -23.6592
 131   2.0000      -0.867072       -23.5942
 132   2.0000      -0.864708       -23.5299
 133   2.0000      -0.845655       -23.0114
 134   2.0000      -0.843593       -22.9553
 135   2.0000      -0.835278       -22.7291
 136   2.0000      -0.821872       -22.3643
 137   2.0000      -0.809164       -22.0185
 138   2.0000      -0.789167       -21.4743
 139   2.0000      -0.787078       -21.4175
 140   2.0000      -0.777817       -21.1655
 141   2.0000      -0.774353       -21.0712
 142   2.0000      -0.770356       -20.9624
 143   2.0000      -0.760147       -20.6846
 144   2.0000      -0.743296       -20.2261
 145   2.0000      -0.737403       -20.0658
 146   2.0000      -0.724671       -19.7193
 147   2.0000      -0.722878       -19.6705
 148   2.0000      -0.719232       -19.5713
 149   2.0000      -0.715812       -19.4782
 150   2.0000      -0.711508       -19.3611
 151   2.0000      -0.704386       -19.1673
 152   2.0000      -0.697364       -18.9762
 153   2.0000      -0.693870       -18.8812
 154   2.0000      -0.692708       -18.8496
 155   2.0000      -0.686102       -18.6698
 156   2.0000      -0.679892       -18.5008
 157   2.0000      -0.674342       -18.3498
 158   2.0000      -0.664853       -18.0916
 159   2.0000      -0.658967       -17.9314
 160   2.0000      -0.656528       -17.8650
 161   2.0000      -0.652358       -17.7516
 162   2.0000      -0.646921       -17.6036
 163   2.0000      -0.645497       -17.5649
 164   2.0000      -0.644501       -17.5378
 165   2.0000      -0.640573       -17.4309
 166   2.0000      -0.634203       -17.2575
 167   2.0000      -0.629183       -17.1209
 168   2.0000      -0.628178       -17.0936
 169   2.0000      -0.621184       -16.9033
 170   2.0000      -0.619356       -16.8535
 171   2.0000      -0.616206       -16.7678
 172   2.0000      -0.605828       -16.4854
 173   2.0000      -0.599043       -16.3008
 174   2.0000      -0.592606       -16.1256
 175   2.0000      -0.590228       -16.0609
 176   2.0000      -0.589376       -16.0377
 177   2.0000      -0.587352       -15.9826
 178   2.0000      -0.583758       -15.8849
 179   2.0000      -0.580118       -15.7858
 180   2.0000      -0.575593       -15.6627
 181   2.0000      -0.567305       -15.4372
 182   2.0000      -0.560828       -15.2609
 183   2.0000      -0.559787       -15.2326
 184   2.0000      -0.558384       -15.1944
 185   2.0000      -0.557333       -15.1658
 186   2.0000      -0.555837       -15.1251
 187   2.0000      -0.550882       -14.9903
 188   2.0000      -0.548974       -14.9383
 189   2.0000      -0.547888       -14.9088
 190   2.0000      -0.547452       -14.8969
 191   2.0000      -0.542340       -14.7578
 192   2.0000      -0.541496       -14.7349
 193   2.0000      -0.540002       -14.6942
 194   2.0000      -0.536031       -14.5861
 195   2.0000      -0.534328       -14.5398
 196   2.0000      -0.532963       -14.5027
 197   2.0000      -0.527305       -14.3487
 198   2.0000      -0.524311       -14.2672
 199   2.0000      -0.520443       -14.1620
 200   2.0000      -0.519116       -14.1259
 201   2.0000      -0.518159       -14.0998
 202   2.0000      -0.516584       -14.0570
 203   2.0000      -0.514515       -14.0007
 204   2.0000      -0.513858       -13.9828
 205   2.0000      -0.511951       -13.9309
 206   2.0000      -0.509734       -13.8706
 207   2.0000      -0.507110       -13.7992
 208   2.0000      -0.505427       -13.7534
 209   2.0000      -0.503385       -13.6978
 210   2.0000      -0.501273       -13.6403
 211   2.0000      -0.498078       -13.5534
 212   2.0000      -0.497147       -13.5281
 213   2.0000      -0.491672       -13.3791
 214   2.0000      -0.489519       -13.3205
 215   2.0000      -0.487297       -13.2600
 216   2.0000      -0.485620       -13.2144
 217   2.0000      -0.483507       -13.1569
 218   2.0000      -0.475612       -12.9421
 219   2.0000      -0.474160       -12.9026
 220   2.0000      -0.471485       -12.8298
 221   2.0000      -0.470413       -12.8006
 222   2.0000      -0.469550       -12.7771
 223   2.0000      -0.468962       -12.7611
 224   2.0000      -0.468000       -12.7349
 225   2.0000      -0.465736       -12.6733
 226   2.0000      -0.465097       -12.6559
 227   2.0000      -0.461872       -12.5682
 228   2.0000      -0.457280       -12.4432
 229   2.0000      -0.456326       -12.4173
 230   2.0000      -0.454834       -12.3767
 231   2.0000      -0.454219       -12.3599
 232   2.0000      -0.453322       -12.3355
 233   2.0000      -0.451365       -12.2823
 234   2.0000      -0.450834       -12.2678
 235   2.0000      -0.448892       -12.2150
 236   2.0000      -0.448544       -12.2055
 237   2.0000      -0.448295       -12.1987
 238   2.0000      -0.448117       -12.1939
 239   2.0000      -0.446728       -12.1561
 240   2.0000      -0.446463       -12.1489
 241   2.0000      -0.441081       -12.0024
 242   2.0000      -0.439539       -11.9605
 243   2.0000      -0.436854       -11.8874
 244   2.0000      -0.436378       -11.8744
 245   2.0000      -0.434851       -11.8329
 246   2.0000      -0.434275       -11.8172
 247   2.0000      -0.431571       -11.7436
 248   2.0000      -0.430507       -11.7147
 249   2.0000      -0.426662       -11.6101
 250   2.0000      -0.422733       -11.5031
 251   2.0000      -0.416642       -11.3374
 252   2.0000      -0.412707       -11.2303
 253   2.0000      -0.410434       -11.1685
 254   2.0000      -0.409270       -11.1368
 255   2.0000      -0.405721       -11.0402
 256   2.0000      -0.394202       -10.7268
 257   2.0000      -0.390000       -10.6124
 258   2.0000      -0.382162       -10.3992
 259   2.0000      -0.370389       -10.0788
 260   2.0000      -0.359990        -9.7958
 261   2.0000      -0.359490        -9.7822
 262   2.0000      -0.352735        -9.5984
 263   2.0000      -0.347797        -9.4640
 264   2.0000      -0.342140        -9.3101
 265   2.0000      -0.334588        -9.1046
 266   2.0000      -0.332369        -9.0442
 267   2.0000      -0.323085        -8.7916
 268   2.0000      -0.322463        -8.7747
 269   2.0000      -0.319649        -8.6981
 270   2.0000      -0.306275        -8.3342
 271   2.0000      -0.303527        -8.2594
 272   2.0000      -0.285877        -7.7791
 273   2.0000      -0.254776        -6.9328
 274   0.0000      -0.125033        -3.4023
 275   0.0000      -0.114173        -3.1068
 276   0.0000      -0.097998        -2.6667
 277   0.0000      -0.096072        -2.6142
 278   0.0000      -0.070279        -1.9124

MULLIKEN ATOMIC CHARGES
-----------------------
   0 C :   -0.108757
   1 C :    0.243889
   2 F :   -0.169854
   3 C :    0.238331
   4 F :   -0.171173
   5 C :   -0.105718
   6 C :    0.118083
   7 C :    0.114244
   8 C :   -0.084052
   9 C :    0.045666
  10 C :   -0.000713
  11 C :   -0.082032
  12 C :    0.168909
  13 O :   -0.189589
  14 C :   -0.095846
  15 C :    0.325034
  16 C :   -0.351115
  17 C :   -0.198668
  18 N :    0.160079
  19 C :   -0.180902
  20 N :    0.148214
  21 C :   -0.029369
  22 C :   -0.053305
  23 C :   -0.058758
  24 C :    0.045788
  25 C :   -0.067897
  26 S :    0.245383
  27 C :   -0.108401
  28 C :    0.010688
  29 C :    0.304990
  30 C :   -0.295292
  31 C :   -0.182784
  32 N :    0.166751
  33 C :   -0.194309
  34 N :    0.190146
  35 C :   -0.032613
  36 C :   -0.073045
  37 S :    0.208081
  38 C :    0.044442
  39 C :    0.047557
  40 C :   -0.076944
  41 C :   -0.030802
  42 C :    0.013129
  43 C :   -0.108197
  44 S :    0.207428
  45 C :   -0.069740
  46 C :   -0.006088
  47 C :    0.304914
  48 C :   -0.285696
  49 C :   -0.184532
  50 N :    0.174349
  51 C :   -0.182231
  52 N :    0.168649
  53 C :   -0.000852
  54 C :   -0.112372
  55 S :    0.218195
  56 C :    0.081918
  57 C :   -0.138422
  58 C :    0.134932
  59 O :   -0.141326
  60 C :    0.019653
  61 C :   -0.088671
  62 C :    0.116765
  63 C :    0.114974
  64 C :   -0.109983
  65 C :    0.243026
  66 C :    0.240097
  67 C :   -0.107592
  68 F :   -0.170759
  69 F :   -0.169605
  70 C :   -0.082028
  71 C :    0.030254
  72 C :    0.273844
  73 C :   -0.329631
  74 C :   -0.201195
  75 N :    0.165160
  76 C :   -0.170083
  77 N :    0.159048
  78 H :    0.008817
  79 H :    0.000629
  80 H :   -0.004735
  81 H :   -0.010047
  82 H :    0.021208
  83 H :    0.028760
  84 H :    0.008298
  85 H :   -0.004008
  86 H :   -0.003361
  87 H :    0.008684
  88 H :    0.026128
  89 H :    0.023275
  90 H :   -0.007770
  91 H :    0.008775
  92 H :    0.000625
  93 H :    0.003056
Sum of atomic charges:   -0.0000000

LOEWDIN ATOMIC CHARGES
----------------------
   0 C :   -0.028570
   1 C :    0.067499
   2 F :   -0.047501
   3 C :    0.068045
   4 F :   -0.048429
   5 C :   -0.033154
   6 C :   -0.009243
   7 C :   -0.005979
   8 C :    0.018627
   9 C :   -0.021684
  10 C :   -0.052939
  11 C :    0.030503
  12 C :    0.085635
  13 O :   -0.175866
  14 C :   -0.112237
  15 C :    0.075618
  16 C :   -0.139863
  17 C :   -0.024067
  18 N :   -0.046468
  19 C :   -0.017326
  20 N :   -0.052402
  21 C :    0.057721
  22 C :   -0.183816
  23 C :    0.014451
  24 C :   -0.078831
  25 C :   -0.164211
  26 S :    0.549696
  27 C :   -0.192558
  28 C :   -0.050893
  29 C :    0.078115
  30 C :   -0.099590
  31 C :   -0.014469
  32 N :   -0.034213
  33 C :   -0.020659
  34 N :   -0.021433
  35 C :   -0.028920
  36 C :   -0.152349
  37 S :    0.490871
  38 C :   -0.034962
  39 C :   -0.031494
  40 C :   -0.156161
  41 C :   -0.025559
  42 C :   -0.053232
  43 C :   -0.189472
  44 S :    0.490584
  45 C :   -0.155868
  46 C :   -0.067523
  47 C :    0.082458
  48 C :   -0.096768
  49 C :   -0.013637
  50 N :   -0.029312
  51 C :   -0.014883
  52 N :   -0.031699
  53 C :    0.011345
  54 C :   -0.181430
  55 S :    0.502004
  56 C :    0.044412
  57 C :   -0.092998
  58 C :    0.082763
  59 O :   -0.142798
  60 C :   -0.054782
  61 C :    0.030979
  62 C :   -0.009128
  63 C :   -0.005083
  64 C :   -0.029051
  65 C :    0.067436
  66 C :    0.067529
  67 C :   -0.033031
  68 F :   -0.048846
  69 F :   -0.047884
  70 C :    0.017071
  71 C :   -0.020379
  72 C :    0.065384
  73 C :   -0.136447
  74 C :   -0.015319
  75 N :   -0.046822
  76 C :   -0.018811
  77 N :   -0.045698
  78 H :    0.048260
  79 H :    0.044944
  80 H :    0.040490
  81 H :    0.040176
  82 H :    0.054329
  83 H :    0.048501
  84 H :    0.039496
  85 H :    0.033080
  86 H :    0.033597
  87 H :    0.039712
  88 H :    0.043291
  89 H :    0.046445
  90 H :    0.040911
  91 H :    0.048239
  92 H :    0.045005
  93 H :    0.041519

  Mayer bond orders larger than 0.100000
B(  0-C ,  1-C ) :   1.4390 B(  0-C ,  5-C ) :   0.1081 B(  0-C ,  7-C ) :   1.1916
B(  0-C , 78-H ) :   1.0070 B(  1-C ,  2-F ) :   1.1359 B(  1-C ,  3-C ) :   1.1915
B(  3-C ,  4-F ) :   1.1344 B(  3-C ,  5-C ) :   1.4427 B(  5-C ,  6-C ) :   1.1915
B(  5-C , 79-H ) :   1.0073 B(  6-C ,  7-C ) :   1.2566 B(  6-C , 11-C ) :   1.1878
B(  7-C ,  8-C ) :   1.2128 B(  8-C ,  9-C ) :   1.4570 B(  8-C , 80-H ) :   0.9898
B(  9-C , 10-C ) :   1.2214 B(  9-C , 15-C ) :   0.9814 B( 10-C , 11-C ) :   1.4670
B( 10-C , 12-C ) :   0.9620 B( 11-C , 81-H ) :   1.0173 B( 12-C , 13-O ) :   2.1116
B( 12-C , 14-C ) :   0.9879 B( 14-C , 15-C ) :   1.0791 B( 14-C , 21-C ) :   1.4802
B( 15-C , 16-C ) :   1.6304 B( 16-C , 17-C ) :   1.1438 B( 16-C , 19-C ) :   1.1471
B( 17-C , 18-N ) :   2.9703 B( 19-C , 20-N ) :   2.9611 B( 21-C , 22-C ) :   1.2784
B( 21-C , 82-H ) :   0.9424 B( 22-C , 23-C ) :   1.3201 B( 22-C , 26-S ) :   1.0652
B( 23-C , 24-C ) :   1.3378 B( 23-C , 83-H ) :   1.0095 B( 24-C , 25-C ) :   1.3488
B( 24-C , 29-C ) :   0.9892 B( 25-C , 26-S ) :   1.1308 B( 25-C , 27-C ) :   1.2143
B( 27-C , 28-C ) :   1.4170 B( 27-C , 37-S ) :   1.1158 B( 28-C , 29-C ) :   1.0004
B( 28-C , 35-C ) :   1.3190 B( 29-C , 30-C ) :   1.7161 B( 30-C , 31-C ) :   1.1340
B( 30-C , 33-C ) :   1.1347 B( 31-C , 32-N ) :   2.9848 B( 33-C , 34-N ) :   2.9971
B( 35-C , 36-C ) :   1.4356 B( 35-C , 84-H ) :   0.9893 B( 36-C , 37-S ) :   1.1206
B( 36-C , 38-C ) :   1.1322 B( 38-C , 39-C ) :   1.6990 B( 38-C , 85-H ) :   0.9586
B( 39-C , 40-C ) :   1.1324 B( 39-C , 86-H ) :   0.9598 B( 40-C , 41-C ) :   1.4375
B( 40-C , 44-S ) :   1.1178 B( 41-C , 42-C ) :   1.3213 B( 41-C , 87-H ) :   0.9887
B( 42-C , 43-C ) :   1.4239 B( 42-C , 47-C ) :   0.9970 B( 43-C , 44-S ) :   1.1184
B( 43-C , 45-C ) :   1.2050 B( 45-C , 46-C ) :   1.4047 B( 45-C , 55-S ) :   1.1587
B( 46-C , 47-C ) :   1.0025 B( 46-C , 53-C ) :   1.3612 B( 47-C , 48-C ) :   1.7167
B( 48-C , 49-C ) :   1.1340 B( 48-C , 51-C ) :   1.1329 B( 49-C , 50-N ) :   2.9841
B( 51-C , 52-N ) :   2.9859 B( 53-C , 54-C ) :   1.3905 B( 53-C , 88-H ) :   0.9806
B( 54-C , 55-S ) :   1.0860 B( 54-C , 56-C ) :   1.1422 B( 56-C , 57-C ) :   1.6602
B( 56-C , 89-H ) :   0.9270 B( 57-C , 58-C ) :   0.9448 B( 57-C , 72-C ) :   1.0409
B( 58-C , 59-O ) :   2.2692 B( 58-C , 60-C ) :   0.9187 B( 60-C , 61-C ) :   1.4735
B( 60-C , 71-C ) :   1.2218 B( 61-C , 62-C ) :   1.1935 B( 61-C , 90-H ) :   1.0163
B( 62-C , 63-C ) :   1.2558 B( 62-C , 67-C ) :   1.1929 B( 63-C , 64-C ) :   1.1897
B( 63-C , 70-C ) :   1.2156 B( 64-C , 65-C ) :   1.4420 B( 64-C , 67-C ) :   0.1089
B( 64-C , 91-H ) :   1.0068 B( 65-C , 66-C ) :   1.1910 B( 65-C , 69-F ) :   1.1365
B( 66-C , 67-C ) :   1.4443 B( 66-C , 68-F ) :   1.1344 B( 67-C , 92-H ) :   1.0065
B( 70-C , 71-C ) :   1.4584 B( 70-C , 93-H ) :   0.9931 B( 71-C , 72-C ) :   0.9942
B( 72-C , 73-C ) :   1.6467 B( 73-C , 74-C ) :   1.1724 B( 73-C , 76-C ) :   1.1268
B( 74-C , 75-N ) :   2.9931 B( 76-C , 77-N ) :   2.9889

-----------------------------------------------------------------------------
         ABSORPTION SPECTRUM VIA TRANSITION ELECTRIC DIPOLE MOMENTS
-----------------------------------------------------------------------------
State   Energy  Wavelength   fosc         T2         TX        TY        TZ
        (cm-1)    (nm)                  (au**2)     (au)      (au)      (au)
-----------------------------------------------------------------------------
   0   12196.6    819.9   0.781216733  21.08662  -0.91854  -4.31869  -1.26169
   1   13659.3    732.1   0.098429334   2.37231  -0.16309  -1.52535  -0.13795
   2   18493.2    540.7   1.798449817  32.01563   0.87558   5.32614   1.69741
   3   20605.5    485.3   0.304503843   4.86504  -0.03428   2.08860  -0.70825
   4   21729.7    460.2   0.013154446   0.19929   0.05942  -0.15110   0.41585
   5   23703.2    421.9   0.014728857   0.20457  -0.20821   0.38423   0.11656
   6   25720.1    388.8   0.005714982   0.07315   0.03448  -0.20477  -0.17329
   7   26279.5    380.5   0.049099732   0.61509   0.49586   0.56307   0.22839
   8   26833.6    372.7   0.275376703   3.37850  -0.68733  -1.64007  -0.46503
   9   27543.7    363.1   0.217784880   2.60304  -1.33297  -0.27634  -0.86595
  10   28052.5    356.5   0.010981799   0.12888   0.26704   0.19546   0.13916
  11   28182.7    354.8   0.033262672   0.38855  -0.45989  -0.40067   0.12850
  12   28391.9    352.2   0.014828504   0.17194  -0.27587  -0.28612  -0.11821
  13   28574.9    350.0   0.016406392   0.18902   0.01617   0.32621  -0.28695
  14   29080.6    343.9   0.052908278   0.59896  -0.22103   0.60670  -0.42664
  15   29196.5    342.5   0.036461314   0.41113   0.02005  -0.62566  -0.13883
  16   29645.2    337.3   0.227068859   2.52162  -0.57374   1.46736  -0.19824
  17   30017.4    333.1   0.193095540   2.11775  -0.73469  -0.07393  -1.25400
  18   30230.8    330.8   0.399600600   4.35163  -1.59103  -0.47289  -1.26358
  19   30340.2    329.6   0.270781794   2.93817  -0.47358   1.52951  -0.61195
  20   31189.2    320.6   0.077973423   0.82304   0.33852  -0.68822   0.48455
  21   31383.5    318.6   0.183159837   1.92134   0.11561  -1.26629   0.55181
  22   32240.0    310.2   0.072379976   0.73909  -0.25294   0.81212   0.12478
  23   32331.9    309.3   0.118552710   1.20714  -0.51309  -0.73721  -0.63276
  24   32601.3    306.7   0.471596855   4.76224   1.66632   0.25242   1.38633
  25   32890.1    304.0   0.005177634   0.05183  -0.11805   0.00705  -0.19453
  26   33183.0    301.4   0.483439619   4.79625   1.18161  -1.71023   0.68931
  27   33633.9    297.3   0.043523524   0.42601  -0.28522   0.54484  -0.21866
  28   34121.7    293.1   0.216718727   2.09094   1.07219   0.93514   0.25857
  29   34399.2    290.7   0.007145475   0.06838  -0.01300  -0.25933  -0.03102
  30   34507.2    289.8   0.427848128   4.08184  -0.69679   1.62274  -0.98135
  31   34581.9    289.2   0.143592844   1.36697   0.36321  -0.78331   0.78834
  32   34665.4    288.5   0.245266033   2.32925  -1.02883   0.56906  -0.97310
  33   35175.6    284.3   0.040371489   0.37784   0.45605   0.40839   0.05545
  34   35195.7    284.1   0.278235425   2.60254  -0.71803  -1.43148  -0.19449
  35   35494.5    281.7   0.108464220   1.00601  -0.88186   0.24159  -0.41226
  36   35630.6    280.7   0.085842194   0.79315  -0.61596   0.28192  -0.57815
  37   35843.7    279.0   0.012787461   0.11745   0.30381   0.03878   0.15376
  38   36001.9    277.8   0.061893040   0.56597  -0.62735  -0.15516  -0.38512
  39   36161.5    276.5   0.059406824   0.54084   0.45152   0.54687   0.19467
  40   36521.3    273.8   0.088088357   0.79405   0.82092  -0.05286   0.34256
  41   36685.8    272.6   0.037001022   0.33204  -0.33118  -0.47000   0.03826
  42   36989.2    270.3   0.011602858   0.10327   0.30649  -0.02708   0.09271
  43   37171.3    269.0   0.152240810   1.34834  -0.71154  -0.43111  -0.81006
  44   37414.2    267.3   0.060804771   0.53503  -0.57876  -0.27165  -0.35535
  45   37918.8    263.7   0.040771321   0.35398   0.09399   0.45223  -0.37500
  46   38041.3    262.9   0.026775503   0.23172  -0.26762  -0.36962  -0.15321
  47   38211.9    261.7   0.004344503   0.03743  -0.17468  -0.08245   0.01099
  48   38280.0    261.2   0.087659398   0.75388   0.56292   0.53964   0.38183
  49   38608.9    259.0   0.097037377   0.82742   0.19618   0.68695   0.56306
  50   38932.4    256.9   0.073963605   0.62544  -0.02878  -0.75492   0.23389
  51   39420.5    253.7   0.044825773   0.37435   0.13543   0.22174   0.55394
  52   39743.0    251.6   0.112845796   0.93476   0.32564   0.79327   0.44659
  53   39938.9    250.4   0.008618581   0.07104   0.25030   0.08289   0.03897
  54   40078.5    249.5   0.055052657   0.45221   0.38620  -0.11132   0.53914
  55   40325.1    248.0   0.097395464   0.79513   0.12667  -0.58500   0.66095

FINAL SINGLE POINT ENERGY     -4871.852523815661

DIPOLE MOMENT
-------------
                                X             Y             Z
Electronic contribution:    -10.51234       3.45771      -9.99981
Nuclear contribution   :      8.17384      -4.70779      10.38812
                        -----------------------------------------
Total Dipole Moment    :     -2.33851      -1.25008       0.38831
                        -----------------------------------------
Magnitude (a.u.)       :      2.67994
Magnitude (Debye)      :      6.81187

Rotational constants in cm-1:     0.001690     0.000149     0.000139
Rotational constants in MHz :    50.668799     4.471384     4.154424

                             ****ORCA TERMINATED NORMALLY****
TOTAL RUN TIME: 0 days 0 hours 9 minutes 35 seconds 393 msec
