                         Program Version 4.2.0 -  RELEASE  -
|  1> # ORCA input file
|  2> # SCF done       -231.660620207292          0.000985805319
|  3> ! CAM-B3LYP def2-SVP def2/J RIJCOSX Grid4 TightSCF
|  4> %maxcore 5000
|  5> %tddft
|  6>     Mode sTDDFT
|  7>     Ethresh 5.0
|  8>     maxcore 5000
|  9> end
| 10>
| 11> %pal
| 12>   nprocs 6
| 13>   end
| 14> * xyz 0 1
| 15>    C       -4.17243        -4.46205       -12.23862
| 16>    C       -4.04391        -3.12092       -12.46687
| 17>    F       -4.03051        -2.64907       -13.71969
| 18>    C       -3.92482        -2.21777       -11.39069
| 19>    F       -3.80014        -0.90862       -11.64442
| 20>    C       -3.93641        -2.66900       -10.10080
| 21>    C       -4.06816        -4.04560        -9.83282
| 22>    C       -4.18942        -4.95988       -10.91968
| 23>    C       -4.32790        -6.34459       -10.67475
| 24>    C       -4.35187        -6.80211        -9.38231
| 25>    C       -4.22523        -5.88250        -8.30404
| 26>    C       -4.08266        -4.54008        -8.51032
| 27>    C       -4.27086        -6.61005        -7.02156
| 28>    O       -4.11940        -6.13583        -5.91898
| 29>    C       -4.43762        -8.04668        -7.38566
| 30>    C       -4.50339        -8.14649        -8.83641
| 31>    C       -4.74512        -9.28002        -9.56217
| 32>    C       -4.97520       -10.56259        -9.01677
| 33>    N       -5.19101       -11.63043        -8.65582
| 34>    C       -4.82416        -9.31390       -10.97156
| 35>    N       -4.89516        -9.40307       -12.11357
| 36>    C       -4.37750        -9.07023        -6.50278
| 37>    C       -4.42852        -8.93390        -5.06264
| 38>    C       -3.52384        -9.66443        -4.28884
| 39>    F       -2.62484       -10.40869        -4.97026
| 40>    C       -3.47119        -9.59273        -2.90082
| 41>    O       -2.54875       -10.15227        -2.09905
| 42>    C       -1.87509       -11.33357        -2.50342
| 43>    C       -4.43729        -8.77252        -2.27481
| 44>    C       -5.34701        -8.04625        -3.04710
| 45>    C       -5.39073        -8.11059        -4.43530
| 46>    O       -6.30346        -7.54681        -5.24706
| 47>    C       -7.18837        -6.55548        -4.76189
| 48>    F       -6.25171        -7.29909        -2.36714
| 49>    C       -4.52728        -8.74760        -0.83039
| 50>    C       -4.45769        -9.84871         0.02215
| 51>    C       -4.63955        -9.48733         1.40577
| 52>    N       -4.52421       -10.39820         2.37478
| 53>    C       -4.31651       -11.64031         2.01231
| 54>    C       -4.24087       -12.64926         3.09783
| 55>    O       -4.40096       -12.36676         4.26648
| 56>    C       -4.00924       -14.03340         2.64458
| 57>    C       -3.90434       -14.38284         1.35864
| 58>    C       -3.97664       -13.42516         0.23906
| 59>    O       -3.80451       -13.76400        -0.91257
| 60>    C       -4.22042       -12.01412         0.63286
| 61>    N       -4.28881       -11.12807        -0.33157
| 62>    C       -4.86905        -8.12128         1.58365
| 63>    S       -4.79697        -7.30579         0.07340
| 64>    C       -5.03903        -7.45451         2.84399
| 65>    C       -5.63704        -8.12011         3.91843
| 66>    F       -6.36021        -9.22249         3.64150
| 67>    C       -5.57388        -7.64612         5.22422
| 68>    O       -6.02970        -8.28432         6.31827
| 69>    C       -6.40698        -9.65271         6.24929
| 70>    C       -5.01993        -6.35843         5.42405
| 71>    C       -4.58923        -5.62271         4.30939
| 72>    C       -4.54318        -6.14198         3.02610
| 73>    O       -4.08673        -5.54013         1.90672
| 74>    C       -3.31175        -4.35750         1.98507
| 75>    F       -4.14991        -4.36675         4.55054
| 76>    C       -4.98605        -5.71139         6.70932
| 77>    C       -4.84583        -6.21328         7.95868
| 78>    C       -5.21897        -5.34786         9.11901
| 79>    O       -5.43724        -4.16057         9.09353
| 80>    C       -5.31570        -6.26537        10.27100
| 81>    C       -5.74545        -6.00337        11.54006
| 82>    C       -5.78636        -7.05540        12.48203
| 83>    C       -5.38483        -8.36444        12.08551
| 84>    C       -5.43734        -9.41141        13.02792
| 85>    C       -5.86444        -9.16966        14.30336
| 86>    C       -6.25912        -7.87416        14.69468
| 87>    C       -6.22135        -6.83824        13.80409
| 88>    F       -6.67423        -7.66677        15.95140
| 89>    F       -5.91283       -10.16564        15.19724
| 90>    C       -4.93709        -8.60368        10.76617
| 91>    C       -4.89594        -7.56661         9.87213
| 92>    C       -4.46463        -7.51113         8.47859
| 93>    C       -3.66858        -8.43255         7.85476
| 94>    C       -3.09335        -8.22955         6.58433
| 95>    N       -2.58777        -8.08047         5.56511
| 96>    C       -3.27415        -9.65277         8.44331
| 97>    N       -2.94075       -10.65805         8.88462
| 98>    H       -4.26361        -5.13916       -13.07353
| 99>    H       -3.84374        -1.96528        -9.28846
|100>    H       -4.41048        -7.01024       -11.51852
|101>    H       -3.98705        -3.86465        -7.67371
|102>    H       -4.22950       -10.08030        -6.86496
|103>    H       -1.35516       -11.68017        -1.61224
|104>    H       -1.14769       -11.14010        -3.29452
|105>    H       -2.58503       -12.09918        -2.82127
|106>    H       -7.70724        -6.18384        -5.64441
|107>    H       -6.64327        -5.73661        -4.28876
|108>    H       -7.91714        -6.96970        -4.06175
|109>    H       -3.94003       -14.76885         3.43489
|110>    H       -3.74394       -15.41243         1.06742
|111>    H       -6.49963        -9.97213         7.28678
|112>    H       -5.65062       -10.25784         5.74444
|113>    H       -7.36817        -9.77678         5.74757
|114>    H       -2.94843        -4.19020         0.97259
|115>    H       -2.46501        -4.47988         2.66345
|116>    H       -3.91384        -3.50303         2.30070
|117>    H       -5.13519        -4.63459         6.68077
|118>    H       -6.05213        -5.00735        11.82113
|119>    H       -5.13563       -10.40822        12.74639
|120>    H       -6.52702        -5.85269        14.11881
|121>    H       -4.64522        -9.60502        10.49218
|122> *
|123>
|124>                          ****END OF INPUT****

CARTESIAN COORDINATES (ANGSTROEM)
---------------------------------
  C     -4.172430   -4.462050  -12.238620
  C     -4.043910   -3.120920  -12.466870
  F     -4.030510   -2.649070  -13.719690
  C     -3.924820   -2.217770  -11.390690
  F     -3.800140   -0.908620  -11.644420
  C     -3.936410   -2.669000  -10.100800
  C     -4.068160   -4.045600   -9.832820
  C     -4.189420   -4.959880  -10.919680
  C     -4.327900   -6.344590  -10.674750
  C     -4.351870   -6.802110   -9.382310
  C     -4.225230   -5.882500   -8.304040
  C     -4.082660   -4.540080   -8.510320
  C     -4.270860   -6.610050   -7.021560
  O     -4.119400   -6.135830   -5.918980
  C     -4.437620   -8.046680   -7.385660
  C     -4.503390   -8.146490   -8.836410
  C     -4.745120   -9.280020   -9.562170
  C     -4.975200  -10.562590   -9.016770
  N     -5.191010  -11.630430   -8.655820
  C     -4.824160   -9.313900  -10.971560
  N     -4.895160   -9.403070  -12.113570
  C     -4.377500   -9.070230   -6.502780
  C     -4.428520   -8.933900   -5.062640
  C     -3.523840   -9.664430   -4.288840
  F     -2.624840  -10.408690   -4.970260
  C     -3.471190   -9.592730   -2.900820
  O     -2.548750  -10.152270   -2.099050
  C     -1.875090  -11.333570   -2.503420
  C     -4.437290   -8.772520   -2.274810
  C     -5.347010   -8.046250   -3.047100
  C     -5.390730   -8.110590   -4.435300
  O     -6.303460   -7.546810   -5.247060
  C     -7.188370   -6.555480   -4.761890
  F     -6.251710   -7.299090   -2.367140
  C     -4.527280   -8.747600   -0.830390
  C     -4.457690   -9.848710    0.022150
  C     -4.639550   -9.487330    1.405770
  N     -4.524210  -10.398200    2.374780
  C     -4.316510  -11.640310    2.012310
  C     -4.240870  -12.649260    3.097830
  O     -4.400960  -12.366760    4.266480
  C     -4.009240  -14.033400    2.644580
  C     -3.904340  -14.382840    1.358640
  C     -3.976640  -13.425160    0.239060
  O     -3.804510  -13.764000   -0.912570
  C     -4.220420  -12.014120    0.632860
  N     -4.288810  -11.128070   -0.331570
  C     -4.869050   -8.121280    1.583650
  S     -4.796970   -7.305790    0.073400
  C     -5.039030   -7.454510    2.843990
  C     -5.637040   -8.120110    3.918430
  F     -6.360210   -9.222490    3.641500
  C     -5.573880   -7.646120    5.224220
  O     -6.029700   -8.284320    6.318270
  C     -6.406980   -9.652710    6.249290
  C     -5.019930   -6.358430    5.424050
  C     -4.589230   -5.622710    4.309390
  C     -4.543180   -6.141980    3.026100
  O     -4.086730   -5.540130    1.906720
  C     -3.311750   -4.357500    1.985070
  F     -4.149910   -4.366750    4.550540
  C     -4.986050   -5.711390    6.709320
  C     -4.845830   -6.213280    7.958680
  C     -5.218970   -5.347860    9.119010
  O     -5.437240   -4.160570    9.093530
  C     -5.315700   -6.265370   10.271000
  C     -5.745450   -6.003370   11.540060
  C     -5.786360   -7.055400   12.482030
  C     -5.384830   -8.364440   12.085510
  C     -5.437340   -9.411410   13.027920
  C     -5.864440   -9.169660   14.303360
  C     -6.259120   -7.874160   14.694680
  C     -6.221350   -6.838240   13.804090
  F     -6.674230   -7.666770   15.951400
  F     -5.912830  -10.165640   15.197240
  C     -4.937090   -8.603680   10.766170
  C     -4.895940   -7.566610    9.872130
  C     -4.464630   -7.511130    8.478590
  C     -3.668580   -8.432550    7.854760
  C     -3.093350   -8.229550    6.584330
  N     -2.587770   -8.080470    5.565110
  C     -3.274150   -9.652770    8.443310
  N     -2.940750  -10.658050    8.884620
  H     -4.263610   -5.139160  -13.073530
  H     -3.843740   -1.965280   -9.288460
  H     -4.410480   -7.010240  -11.518520
  H     -3.987050   -3.864650   -7.673710
  H     -4.229500  -10.080300   -6.864960
  H     -1.355160  -11.680170   -1.612240
  H     -1.147690  -11.140100   -3.294520
  H     -2.585030  -12.099180   -2.821270
  H     -7.707240   -6.183840   -5.644410
  H     -6.643270   -5.736610   -4.288760
  H     -7.917140   -6.969700   -4.061750
  H     -3.940030  -14.768850    3.434890
  H     -3.743940  -15.412430    1.067420
  H     -6.499630   -9.972130    7.286780
  H     -5.650620  -10.257840    5.744440
  H     -7.368170   -9.776780    5.747570
  H     -2.948430   -4.190200    0.972590
  H     -2.465010   -4.479880    2.663450
  H     -3.913840   -3.503030    2.300700
  H     -5.135190   -4.634590    6.680770
  H     -6.052130   -5.007350   11.821130
  H     -5.135630  -10.408220   12.746390
  H     -6.527020   -5.852690   14.118810
  H     -4.645220   -9.605020   10.492180

 Total Charge           Charge          ....    0
 Multiplicity           Mult            ....    1
 Number of Electrons    NEL             ....  578
 Basis Dimension        Dim             .... 1286

ORBITAL ENERGIES
----------------

  NO   OCC          E(Eh)            E(eV)
   0   2.0000     -88.992202     -2421.6009
   1   2.0000     -24.802009      -674.8970
   2   2.0000     -24.801795      -674.8912
   3   2.0000     -24.800863      -674.8658
   4   2.0000     -24.799517      -674.8292
   5   2.0000     -24.798114      -674.7910
   6   2.0000     -24.797563      -674.7760
   7   2.0000     -24.797432      -674.7724
   8   2.0000     -24.788814      -674.5379
   9   2.0000     -19.270343      -524.3727
  10   2.0000     -19.265652      -524.2450
  11   2.0000     -19.259615      -524.0808
  12   2.0000     -19.246984      -523.7371
  13   2.0000     -19.225693      -523.1577
  14   2.0000     -19.225480      -523.1519
  15   2.0000     -19.221494      -523.0434
  16   2.0000     -19.216665      -522.9120
  17   2.0000     -14.437521      -392.8649
  18   2.0000     -14.436555      -392.8386
  19   2.0000     -14.420238      -392.3946
  20   2.0000     -14.418809      -392.3557
  21   2.0000     -14.416713      -392.2987
  22   2.0000     -14.415044      -392.2533
  23   2.0000     -10.385409      -282.6013
  24   2.0000     -10.384519      -282.5771
  25   2.0000     -10.381065      -282.4831
  26   2.0000     -10.380713      -282.4736
  27   2.0000     -10.374111      -282.2939
  28   2.0000     -10.374022      -282.2915
  29   2.0000     -10.373520      -282.2778
  30   2.0000     -10.372028      -282.2372
  31   2.0000     -10.370673      -282.2004
  32   2.0000     -10.370132      -282.1856
  33   2.0000     -10.369787      -282.1763
  34   2.0000     -10.366867      -282.0968
  35   2.0000     -10.360518      -281.9240
  36   2.0000     -10.358907      -281.8802
  37   2.0000     -10.358697      -281.8745
  38   2.0000     -10.352259      -281.6993
  39   2.0000     -10.348439      -281.5953
  40   2.0000     -10.345297      -281.5098
  41   2.0000     -10.342837      -281.4429
  42   2.0000     -10.338753      -281.3318
  43   2.0000     -10.332891      -281.1723
  44   2.0000     -10.332572      -281.1636
  45   2.0000     -10.331787      -281.1422
  46   2.0000     -10.326262      -280.9919
  47   2.0000     -10.323745      -280.9234
  48   2.0000     -10.323279      -280.9107
  49   2.0000     -10.322935      -280.9013
  50   2.0000     -10.322644      -280.8934
  51   2.0000     -10.322487      -280.8892
  52   2.0000     -10.322204      -280.8815
  53   2.0000     -10.321690      -280.8675
  54   2.0000     -10.320822      -280.8438
  55   2.0000     -10.318939      -280.7926
  56   2.0000     -10.316502      -280.7263
  57   2.0000     -10.315881      -280.7094
  58   2.0000     -10.314683      -280.6768
  59   2.0000     -10.314372      -280.6683
  60   2.0000     -10.314355      -280.6679
  61   2.0000     -10.312081      -280.6060
  62   2.0000     -10.311564      -280.5919
  63   2.0000     -10.311097      -280.5792
  64   2.0000     -10.310541      -280.5641
  65   2.0000     -10.310053      -280.5508
  66   2.0000     -10.307730      -280.4876
  67   2.0000     -10.307552      -280.4828
  68   2.0000     -10.307463      -280.4803
  69   2.0000     -10.306851      -280.4637
  70   2.0000     -10.306659      -280.4584
  71   2.0000     -10.306401      -280.4514
  72   2.0000     -10.305046      -280.4146
  73   2.0000     -10.304346      -280.3955
  74   2.0000     -10.304056      -280.3876
  75   2.0000     -10.303818      -280.3811
  76   2.0000     -10.302843      -280.3546
  77   2.0000     -10.301703      -280.3236
  78   2.0000     -10.301111      -280.3075
  79   2.0000     -10.300200      -280.2827
  80   2.0000     -10.298009      -280.2231
  81   2.0000     -10.297063      -280.1973
  82   2.0000     -10.293294      -280.0948
  83   2.0000      -8.085705      -220.0232
  84   2.0000      -6.054418      -164.7491
  85   2.0000      -6.050100      -164.6316
  86   2.0000      -6.049300      -164.6098
  87   2.0000      -1.324596       -36.0441
  88   2.0000      -1.320886       -35.9431
  89   2.0000      -1.315240       -35.7895
  90   2.0000      -1.312470       -35.7141
  91   2.0000      -1.310688       -35.6656
  92   2.0000      -1.309688       -35.6384
  93   2.0000      -1.306034       -35.5390
  94   2.0000      -1.305375       -35.5211
  95   2.0000      -1.173852       -31.9421
  96   2.0000      -1.168769       -31.8038
  97   2.0000      -1.166320       -31.7372
  98   2.0000      -1.153962       -31.4009
  99   2.0000      -1.141681       -31.0667
 100   2.0000      -1.137732       -30.9593
 101   2.0000      -1.135711       -30.9043
 102   2.0000      -1.132477       -30.8163
 103   2.0000      -1.090559       -29.6756
 104   2.0000      -1.023431       -27.8490
 105   2.0000      -1.018960       -27.7273
 106   2.0000      -1.016465       -27.6594
 107   2.0000      -1.007990       -27.4288
 108   2.0000      -1.003783       -27.3143
 109   2.0000      -1.002667       -27.2840
 110   2.0000      -0.997929       -27.1550
 111   2.0000      -0.994975       -27.0746
 112   2.0000      -0.985684       -26.8218
 113   2.0000      -0.981214       -26.7002
 114   2.0000      -0.977839       -26.6083
 115   2.0000      -0.971513       -26.4362
 116   2.0000      -0.936653       -25.4876
 117   2.0000      -0.935453       -25.4550
 118   2.0000      -0.931864       -25.3573
 119   2.0000      -0.919089       -25.0097
 120   2.0000      -0.910872       -24.7861
 121   2.0000      -0.899374       -24.4732
 122   2.0000      -0.895950       -24.3800
 123   2.0000      -0.892618       -24.2894
 124   2.0000      -0.889062       -24.1926
 125   2.0000      -0.869075       -23.6487
 126   2.0000      -0.867630       -23.6094
 127   2.0000      -0.862726       -23.4760
 128   2.0000      -0.859190       -23.3798
 129   2.0000      -0.849322       -23.1112
 130   2.0000      -0.844344       -22.9758
 131   2.0000      -0.840347       -22.8670
 132   2.0000      -0.829297       -22.5663
 133   2.0000      -0.818768       -22.2798
 134   2.0000      -0.810822       -22.0636
 135   2.0000      -0.805506       -21.9189
 136   2.0000      -0.800252       -21.7760
 137   2.0000      -0.786834       -21.4108
 138   2.0000      -0.782736       -21.2993
 139   2.0000      -0.775847       -21.1119
 140   2.0000      -0.771086       -20.9823
 141   2.0000      -0.768189       -20.9035
 142   2.0000      -0.765361       -20.8265
 143   2.0000      -0.758715       -20.6457
 144   2.0000      -0.750911       -20.4333
 145   2.0000      -0.733891       -19.9702
 146   2.0000      -0.731525       -19.9058
 147   2.0000      -0.719564       -19.5803
 148   2.0000      -0.717313       -19.5191
 149   2.0000      -0.710386       -19.3306
 150   2.0000      -0.710267       -19.3273
 151   2.0000      -0.709960       -19.3190
 152   2.0000      -0.696850       -18.9623
 153   2.0000      -0.689825       -18.7711
 154   2.0000      -0.683427       -18.5970
 155   2.0000      -0.682346       -18.5676
 156   2.0000      -0.678617       -18.4661
 157   2.0000      -0.669782       -18.2257
 158   2.0000      -0.663865       -18.0647
 159   2.0000      -0.660964       -17.9857
 160   2.0000      -0.657329       -17.8868
 161   2.0000      -0.653864       -17.7926
 162   2.0000      -0.650027       -17.6881
 163   2.0000      -0.648521       -17.6472
 164   2.0000      -0.646660       -17.5965
 165   2.0000      -0.643626       -17.5140
 166   2.0000      -0.641500       -17.4561
 167   2.0000      -0.639208       -17.3937
 168   2.0000      -0.629612       -17.1326
 169   2.0000      -0.624322       -16.9887
 170   2.0000      -0.619372       -16.8540
 171   2.0000      -0.616991       -16.7892
 172   2.0000      -0.613967       -16.7069
 173   2.0000      -0.612345       -16.6628
 174   2.0000      -0.607912       -16.5421
 175   2.0000      -0.603564       -16.4238
 176   2.0000      -0.598317       -16.2810
 177   2.0000      -0.596776       -16.2391
 178   2.0000      -0.593172       -16.1410
 179   2.0000      -0.589081       -16.0297
 180   2.0000      -0.588368       -16.0103
 181   2.0000      -0.587902       -15.9976
 182   2.0000      -0.586027       -15.9466
 183   2.0000      -0.585326       -15.9275
 184   2.0000      -0.580452       -15.7949
 185   2.0000      -0.577466       -15.7137
 186   2.0000      -0.575667       -15.6647
 187   2.0000      -0.574712       -15.6387
 188   2.0000      -0.572081       -15.5671
 189   2.0000      -0.566508       -15.4155
 190   2.0000      -0.563481       -15.3331
 191   2.0000      -0.559131       -15.2147
 192   2.0000      -0.558908       -15.2087
 193   2.0000      -0.557498       -15.1703
 194   2.0000      -0.555249       -15.1091
 195   2.0000      -0.553842       -15.0708
 196   2.0000      -0.552241       -15.0272
 197   2.0000      -0.550664       -14.9843
 198   2.0000      -0.550385       -14.9767
 199   2.0000      -0.548348       -14.9213
 200   2.0000      -0.546999       -14.8846
 201   2.0000      -0.544666       -14.8211
 202   2.0000      -0.543163       -14.7802
 203   2.0000      -0.539480       -14.6800
 204   2.0000      -0.537777       -14.6336
 205   2.0000      -0.536664       -14.6034
 206   2.0000      -0.535453       -14.5704
 207   2.0000      -0.533917       -14.5286
 208   2.0000      -0.531277       -14.4568
 209   2.0000      -0.529610       -14.4114
 210   2.0000      -0.525190       -14.2911
 211   2.0000      -0.525081       -14.2882
 212   2.0000      -0.521841       -14.2000
 213   2.0000      -0.521086       -14.1795
 214   2.0000      -0.519512       -14.1366
 215   2.0000      -0.517920       -14.0933
 216   2.0000      -0.515199       -14.0193
 217   2.0000      -0.512175       -13.9370
 218   2.0000      -0.510640       -13.8952
 219   2.0000      -0.509855       -13.8739
 220   2.0000      -0.506241       -13.7755
 221   2.0000      -0.503511       -13.7012
 222   2.0000      -0.501000       -13.6329
 223   2.0000      -0.500890       -13.6299
 224   2.0000      -0.498120       -13.5545
 225   2.0000      -0.495246       -13.4763
 226   2.0000      -0.494447       -13.4546
 227   2.0000      -0.492908       -13.4127
 228   2.0000      -0.489814       -13.3285
 229   2.0000      -0.488907       -13.3038
 230   2.0000      -0.487746       -13.2722
 231   2.0000      -0.486558       -13.2399
 232   2.0000      -0.485869       -13.2212
 233   2.0000      -0.483126       -13.1465
 234   2.0000      -0.482481       -13.1290
 235   2.0000      -0.476043       -12.9538
 236   2.0000      -0.474004       -12.8983
 237   2.0000      -0.468125       -12.7383
 238   2.0000      -0.466216       -12.6864
 239   2.0000      -0.465330       -12.6623
 240   2.0000      -0.461220       -12.5504
 241   2.0000      -0.454661       -12.3720
 242   2.0000      -0.453329       -12.3357
 243   2.0000      -0.453062       -12.3284
 244   2.0000      -0.449955       -12.2439
 245   2.0000      -0.449110       -12.2209
 246   2.0000      -0.446874       -12.1601
 247   2.0000      -0.445995       -12.1361
 248   2.0000      -0.443720       -12.0742
 249   2.0000      -0.443164       -12.0591
 250   2.0000      -0.434177       -11.8146
 251   2.0000      -0.432183       -11.7603
 252   2.0000      -0.430231       -11.7072
 253   2.0000      -0.429421       -11.6851
 254   2.0000      -0.427978       -11.6459
 255   2.0000      -0.427329       -11.6282
 256   2.0000      -0.426531       -11.6065
 257   2.0000      -0.421874       -11.4798
 258   2.0000      -0.416852       -11.3431
 259   2.0000      -0.415286       -11.3005
 260   2.0000      -0.413137       -11.2420
 261   2.0000      -0.412778       -11.2323
 262   2.0000      -0.411984       -11.2107
 263   2.0000      -0.407681       -11.0936
 264   2.0000      -0.401731       -10.9317
 265   2.0000      -0.398875       -10.8539
 266   2.0000      -0.392382       -10.6773
 267   2.0000      -0.388454       -10.5704
 268   2.0000      -0.386484       -10.5168
 269   2.0000      -0.376809       -10.2535
 270   2.0000      -0.372145       -10.1266
 271   2.0000      -0.371043       -10.0966
 272   2.0000      -0.362847        -9.8736
 273   2.0000      -0.358086        -9.7440
 274   2.0000      -0.354071        -9.6348
 275   2.0000      -0.344468        -9.3734
 276   2.0000      -0.344128        -9.3642
 277   2.0000      -0.337977        -9.1968
 278   2.0000      -0.333981        -9.0881
 279   2.0000      -0.326325        -8.8797
 280   2.0000      -0.325781        -8.8650
 281   2.0000      -0.320875        -8.7314
 282   2.0000      -0.317091        -8.6285
 283   2.0000      -0.311664        -8.4808
 284   2.0000      -0.302572        -8.2334
 285   2.0000      -0.300079        -8.1656
 286   2.0000      -0.288790        -7.8584
 287   2.0000      -0.281512        -7.6603
 288   2.0000      -0.260854        -7.0982
 289   0.0000      -0.100781        -2.7424
 290   0.0000      -0.092719        -2.5230
 291   0.0000      -0.082664        -2.2494
 292   0.0000      -0.077589        -2.1113
 293   0.0000      -0.061807        -1.6819

MULLIKEN ATOMIC CHARGES
-----------------------
   0 C :   -0.106434
   1 C :    0.240806
   2 F :   -0.169928
   3 C :    0.237484
   4 F :   -0.171025
   5 C :   -0.104367
   6 C :    0.117048
   7 C :    0.113072
   8 C :   -0.082923
   9 C :    0.053941
  10 C :   -0.011976
  11 C :   -0.079972
  12 C :    0.155217
  13 O :   -0.144709
  14 C :   -0.057332
  15 C :    0.306492
  16 C :   -0.333814
  17 C :   -0.200525
  18 N :    0.167771
  19 C :   -0.184826
  20 N :    0.149943
  21 C :   -0.019824
  22 C :   -0.053954
  23 C :    0.139205
  24 F :   -0.182446
  25 C :    0.161677
  26 O :   -0.299697
  27 C :    0.181767
  28 C :   -0.051178
  29 C :    0.130643
  30 C :    0.181263
  31 O :   -0.303927
  32 C :    0.185434
  33 F :   -0.193936
  34 C :   -0.191872
  35 C :    0.067072
  36 C :    0.032909
  37 N :    0.081000
  38 C :   -0.127360
  39 C :    0.149566
  40 O :   -0.109879
  41 C :   -0.015331
  42 C :   -0.011615
  43 C :    0.139012
  44 O :   -0.113334
  45 C :   -0.126259
  46 N :    0.079612
  47 C :   -0.187973
  48 S :    0.289954
  49 C :   -0.007967
  50 C :    0.137568
  51 F :   -0.176990
  52 C :    0.141516
  53 O :   -0.309454
  54 C :    0.172353
  55 C :   -0.053579
  56 C :    0.147238
  57 C :    0.161212
  58 O :   -0.325974
  59 C :    0.182151
  60 F :   -0.184822
  61 C :    0.014175
  62 C :   -0.099521
  63 C :    0.133020
  64 O :   -0.137412
  65 C :    0.013819
  66 C :   -0.083976
  67 C :    0.113617
  68 C :    0.114978
  69 C :   -0.108205
  70 C :    0.242300
  71 C :    0.237297
  72 C :   -0.103704
  73 F :   -0.172244
  74 F :   -0.171425
  75 C :   -0.091066
  76 C :    0.043117
  77 C :    0.315990
  78 C :   -0.340529
  79 C :   -0.195500
  80 N :    0.170168
  81 C :   -0.184891
  82 N :    0.156426
  83 H :    0.009856
  84 H :   -0.000490
  85 H :   -0.005497
  86 H :   -0.012352
  87 H :    0.046061
  88 H :    0.026027
  89 H :    0.028771
  90 H :    0.043042
  91 H :    0.031624
  92 H :    0.032990
  93 H :    0.032705
  94 H :    0.018670
  95 H :    0.017211
  96 H :    0.028906
  97 H :    0.057077
  98 H :    0.035302
  99 H :    0.036551
 100 H :    0.040711
 101 H :    0.035783
 102 H :    0.033937
 103 H :   -0.009499
 104 H :    0.005129
 105 H :   -0.000546
 106 H :   -0.006126
Sum of atomic charges:   -0.0000000

LOEWDIN ATOMIC CHARGES
----------------------
   0 C :   -0.028824
   1 C :    0.066840
   2 F :   -0.047712
   3 C :    0.068073
   4 F :   -0.048538
   5 C :   -0.033802
   6 C :   -0.008436
   7 C :   -0.006239
   8 C :    0.018324
   9 C :   -0.023009
  10 C :   -0.052460
  11 C :    0.028716
  12 C :    0.085413
  13 O :   -0.135126
  14 C :   -0.076045
  15 C :    0.074298
  16 C :   -0.129479
  17 C :   -0.023529
  18 N :   -0.040886
  19 C :   -0.016407
  20 N :   -0.049591
  21 C :    0.090349
  22 C :   -0.070381
  23 C :    0.069188
  24 F :   -0.055518
  25 C :    0.031392
  26 O :   -0.088126
  27 C :    0.079526
  28 C :   -0.065432
  29 C :    0.048970
  30 C :    0.044309
  31 O :   -0.084672
  32 C :    0.079304
  33 F :   -0.068020
  34 C :   -0.178633
  35 C :   -0.039631
  36 C :   -0.042206
  37 N :    0.009792
  38 C :   -0.048346
  39 C :    0.061471
  40 O :   -0.106081
  41 C :   -0.011901
  42 C :   -0.013513
  43 C :    0.059263
  44 O :   -0.105573
  45 C :   -0.048820
  46 N :    0.009528
  47 C :   -0.180576
  48 S :    0.588272
  49 C :   -0.055841
  50 C :    0.061973
  51 F :   -0.043299
  52 C :    0.040817
  53 O :   -0.079714
  54 C :    0.078800
  55 C :   -0.074314
  56 C :    0.065960
  57 C :    0.023295
  58 O :   -0.105626
  59 C :    0.082632
  60 F :   -0.056727
  61 C :    0.075200
  62 C :   -0.078520
  63 C :    0.085158
  64 O :   -0.137156
  65 C :   -0.054524
  66 C :    0.031040
  67 C :   -0.010194
  68 C :   -0.005431
  69 C :   -0.030887
  70 C :    0.066804
  71 C :    0.066128
  72 C :   -0.032851
  73 F :   -0.049724
  74 F :   -0.048855
  75 C :    0.011185
  76 C :   -0.017887
  77 C :    0.072303
  78 C :   -0.130182
  79 C :   -0.015016
  80 N :   -0.045676
  81 C :   -0.018755
  82 N :   -0.050666
  83 H :    0.048339
  84 H :    0.044632
  85 H :    0.040139
  86 H :    0.039242
  87 H :    0.048246
  88 H :    0.024102
  89 H :    0.013310
  90 H :    0.023092
  91 H :    0.025557
  92 H :    0.019722
  93 H :    0.017450
  94 H :    0.045435
  95 H :    0.045070
  96 H :    0.023806
  97 H :    0.027278
  98 H :    0.019829
  99 H :    0.027641
 100 H :    0.023677
 101 H :    0.019390
 102 H :    0.048211
 103 H :    0.040439
 104 H :    0.046942
 105 H :    0.044721
 106 H :    0.038756

  Mayer bond orders larger than 0.100000
B(  0-C ,  1-C ) :   1.4447 B(  0-C ,  5-C ) :   0.1081 B(  0-C ,  7-C ) :   1.1871
B(  0-C , 83-H ) :   1.0063 B(  1-C ,  2-F ) :   1.1365 B(  1-C ,  3-C ) :   1.1881
B(  3-C ,  4-F ) :   1.1340 B(  3-C ,  5-C ) :   1.4465 B(  5-C ,  6-C ) :   1.1914
B(  5-C , 84-H ) :   1.0063 B(  6-C ,  7-C ) :   1.2509 B(  6-C , 11-C ) :   1.1922
B(  7-C ,  8-C ) :   1.2237 B(  8-C ,  9-C ) :   1.4447 B(  8-C , 85-H ) :   0.9891
B(  9-C , 10-C ) :   1.2199 B(  9-C , 15-C ) :   0.9923 B( 10-C , 11-C ) :   1.4725
B( 10-C , 12-C ) :   0.9427 B( 11-C , 86-H ) :   1.0157 B( 12-C , 13-O ) :   2.2249
B( 12-C , 14-C ) :   0.9272 B( 14-C , 15-C ) :   1.0520 B( 14-C , 21-C ) :   1.7031
B( 15-C , 16-C ) :   1.6566 B( 16-C , 17-C ) :   1.1375 B( 16-C , 19-C ) :   1.1425
B( 17-C , 18-N ) :   2.9878 B( 19-C , 20-N ) :   2.9641 B( 21-C , 22-C ) :   1.0405
B( 21-C , 87-H ) :   0.9368 B( 22-C , 23-C ) :   1.3230 B( 22-C , 28-C ) :   0.1139
B( 22-C , 30-C ) :   1.3285 B( 23-C , 24-F ) :   1.1366 B( 23-C , 25-C ) :   1.2554
B( 25-C , 26-O ) :   1.2261 B( 25-C , 28-C ) :   1.3462 B( 26-O , 27-C ) :   0.9155
B( 27-C , 88-H ) :   0.9804 B( 27-C , 89-H ) :   0.9736 B( 27-C , 90-H ) :   0.9698
B( 28-C , 29-C ) :   1.3301 B( 28-C , 34-C ) :   1.0013 B( 29-C , 30-C ) :   1.2747
B( 29-C , 33-F ) :   1.1204 B( 30-C , 31-O ) :   1.2054 B( 31-O , 32-C ) :   0.9248
B( 32-C , 91-H ) :   0.9792 B( 32-C , 92-H ) :   0.9738 B( 32-C , 93-H ) :   0.9765
B( 34-C , 35-C ) :   1.3620 B( 34-C , 47-C ) :   0.1322 B( 34-C , 48-S ) :   1.2068
B( 35-C , 36-C ) :   1.2029 B( 35-C , 46-N ) :   1.4279 B( 36-C , 37-N ) :   1.4301
B( 36-C , 47-C ) :   1.3412 B( 37-N , 38-C ) :   1.7183 B( 38-C , 39-C ) :   0.8956
B( 38-C , 45-C ) :   1.0968 B( 39-C , 40-O ) :   2.2120 B( 39-C , 41-C ) :   1.0229
B( 41-C , 42-C ) :   1.6895 B( 41-C , 94-H ) :   0.9970 B( 42-C , 43-C ) :   1.0226
B( 42-C , 95-H ) :   0.9974 B( 43-C , 44-O ) :   2.2214 B( 43-C , 45-C ) :   0.8936
B( 45-C , 46-N ) :   1.7179 B( 47-C , 48-S ) :   1.2209 B( 47-C , 49-C ) :   1.0499
B( 49-C , 50-C ) :   1.3353 B( 49-C , 55-C ) :   0.1162 B( 49-C , 57-C ) :   1.3003
B( 50-C , 51-F ) :   1.1413 B( 50-C , 52-C ) :   1.2612 B( 52-C , 53-O ) :   1.2124
B( 52-C , 55-C ) :   1.3036 B( 53-O , 54-C ) :   0.9004 B( 54-C , 96-H ) :   0.9755
B( 54-C , 97-H ) :   0.9671 B( 54-C , 98-H ) :   0.9775 B( 55-C , 56-C ) :   1.2980
B( 55-C , 61-C ) :   1.0716 B( 56-C , 57-C ) :   1.3043 B( 56-C , 60-F ) :   1.1355
B( 57-C , 58-O ) :   1.1745 B( 58-O , 59-C ) :   0.9200 B( 59-C , 99-H ) :   0.9785
B( 59-C ,100-H ) :   0.9761 B( 59-C ,101-H ) :   0.9769 B( 61-C , 62-C ) :   1.7006
B( 61-C ,102-H ) :   0.9305 B( 62-C , 63-C ) :   0.9337 B( 62-C , 77-C ) :   1.0255
B( 63-C , 64-O ) :   2.2710 B( 63-C , 65-C ) :   0.9206 B( 65-C , 66-C ) :   1.4714
B( 65-C , 76-C ) :   1.2187 B( 66-C , 67-C ) :   1.1951 B( 66-C ,103-H ) :   1.0163
B( 67-C , 68-C ) :   1.2566 B( 67-C , 72-C ) :   1.1918 B( 68-C , 69-C ) :   1.1892
B( 68-C , 75-C ) :   1.2140 B( 69-C , 70-C ) :   1.4422 B( 69-C , 72-C ) :   0.1085
B( 69-C ,104-H ) :   1.0071 B( 70-C , 71-C ) :   1.1907 B( 70-C , 74-F ) :   1.1335
B( 71-C , 72-C ) :   1.4445 B( 71-C , 73-F ) :   1.1327 B( 72-C ,105-H ) :   1.0069
B( 75-C , 76-C ) :   1.4520 B( 75-C ,106-H ) :   0.9944 B( 76-C , 77-C ) :   1.0017
B( 77-C , 78-C ) :   1.6612 B( 78-C , 79-C ) :   1.1673 B( 78-C , 81-C ) :   1.1348
B( 79-C , 80-N ) :   3.0058 B( 81-C , 82-N ) :   2.9814

-----------------------------------------------------------------------------
         ABSORPTION SPECTRUM VIA TRANSITION ELECTRIC DIPOLE MOMENTS
-----------------------------------------------------------------------------
State   Energy  Wavelength   fosc         T2         TX        TY        TZ
        (cm-1)    (nm)                  (au**2)     (au)      (au)      (au)
-----------------------------------------------------------------------------
   0   17923.5    557.9   0.881501175  16.19106  -0.24359   0.31117   4.00436
   1   20207.2    494.9   0.131952905   2.14975  -0.32173  -1.06735  -0.95237
   2   21793.6    458.9   0.052833087   0.79809   0.09647  -0.39179  -0.79705
   3   22121.3    452.1   0.084243861   1.25372  -0.36373   0.41308  -0.97508
   4   23210.7    430.8   0.204857991   2.90563   0.10760  -0.36045   1.66257
   5   23831.1    419.6   0.140843569   1.94567  -0.09506   0.69237  -1.20717
   6   25128.2    398.0   0.009370138   0.12276  -0.29760   0.18492   0.00194
   7   25568.2    391.1   0.010082441   0.12982  -0.00267   0.27916  -0.22778
   8   26049.5    383.9   0.033014347   0.41723   0.07065  -0.27928   0.57814
   9   26589.2    376.1   0.002672703   0.03309   0.15632   0.07312  -0.05753
  10   26773.9    373.5   0.005766845   0.07091  -0.19060  -0.16190   0.09150
  11   26931.9    371.3   0.001356520   0.01658  -0.03186   0.12320  -0.01972
  12   27509.0    363.5   0.007517172   0.08996  -0.05219  -0.21617  -0.20126
  13   28190.2    354.7   0.018928950   0.22106  -0.16856  -0.42197  -0.12076
  14   28500.6    350.9   0.086232890   0.99608  -0.38427  -0.73594   0.55390
  15   28548.4    350.3   0.041215520   0.47529  -0.51231   0.20054   0.41546
  16   29182.4    342.7   0.014907864   0.16818   0.02745  -0.33288   0.23794
  17   29431.4    339.8   0.012530592   0.14016  -0.00556   0.37136  -0.04716
  18   29778.8    335.8   0.034720177   0.38384   0.08040   0.59908   0.13595
  19   30108.7    332.1   0.065745034   0.71886  -0.18490  -0.22694   0.79572
  20   30300.9    330.0   0.018085499   0.19649   0.13237   0.39944  -0.13935
  21   30515.1    327.7   0.071759494   0.77418  -0.10868   0.54841   0.67942
  22   30600.8    326.8   0.042254334   0.45458   0.04529  -0.64704  -0.18405
  23   31630.4    316.2   0.301503288   3.13807   0.29693  -0.83290   1.53499
  24   32195.4    310.6   0.081122378   0.82951  -0.26984   0.57107   0.65618
  25   32847.8    304.4   0.182680302   1.83089   0.15487   0.84424  -1.04602
  26   33357.9    299.8   0.103737094   1.02379   0.36873  -0.93558  -0.11191
  27   33569.6    297.9   0.620031591   6.08055   0.86898  -0.53012  -2.24597
  28   33741.4    296.4   0.254161825   2.47983  -0.35700  -0.29808   1.50450
  29   34154.4    292.8   0.166305073   1.60300  -0.04214  -0.96078   0.82349
  30   34237.5    292.1   0.019765616   0.19006   0.06119   0.33904   0.26715
  31   34345.0    291.2   0.029069671   0.27865  -0.17369  -0.39197   0.30796
  32   34645.3    288.6   0.036859031   0.35025   0.31185  -0.50215  -0.02898
  33   34719.0    288.0   0.480347806   4.55474  -0.27669  -2.11588   0.03530
  34   34969.7    286.0   0.124870751   1.17556  -0.02985  -0.90991   0.58884
  35   35145.6    284.5   0.058361984   0.54668  -0.07568  -0.71536   0.17093
  36   35453.2    282.1   0.374919203   3.48143  -0.30677  -1.32210   1.28038
  37   35659.4    280.4   0.332392540   3.06868  -0.59978   0.91595   1.36748
  38   35946.0    278.2   0.106696538   0.97718   0.09966   0.80200   0.56925
  39   36305.7    275.4   0.004885574   0.04430  -0.00090  -0.01431  -0.20999
  40   36796.2    271.8   0.076336017   0.68297  -0.00248  -0.82611  -0.02238
  41   36999.6    270.3   0.003925207   0.03493  -0.14123  -0.10359  -0.06519
  42   37160.3    269.1   0.009138178   0.08096  -0.14111  -0.23047   0.08904
  43   37238.6    268.5   0.012812913   0.11327   0.27766   0.11197  -0.15376
  44   37771.6    264.7   0.033482087   0.29183   0.18518   0.17015  -0.47810
  45   37843.8    264.2   0.001137065   0.00989   0.07640   0.05486  -0.03234
  46   38048.5    262.8   0.001694331   0.01466   0.07313   0.09610   0.00875
  47   38249.5    261.4   0.026606067   0.22900  -0.09979  -0.22585  -0.40992
  48   38513.9    259.6   0.174320441   1.49007  -0.34101   0.69025   0.94727
  49   38950.3    256.7   0.012189376   0.10303  -0.29707  -0.11522   0.03873
  50   39210.0    255.0   0.110018704   0.92373  -0.15001   0.86106   0.39975
  51   39236.2    254.9   0.111547775   0.93594   0.18334   0.22222   0.92355
  52   39649.3    252.2   0.006487755   0.05387   0.02079  -0.20401  -0.10870
  53   39835.3    251.0   0.100486638   0.83045   0.31686   0.09110  -0.84956
  54   39876.8    250.8   0.005689024   0.04697   0.05461   0.06443  -0.19958
  55   40079.7    249.5   0.020558992   0.16887  -0.14548  -0.09782  -0.37167
  56   40212.9    248.7   0.001026974   0.00841  -0.03497   0.06844   0.05000

FINAL SINGLE POINT ENERGY     -4422.954111102153

DIPOLE MOMENT
-------------
                                X             Y             Z
Electronic contribution:     -2.44124      11.16245       0.53445
Nuclear contribution   :      1.74899      -9.17313       0.31741
                        -----------------------------------------
Total Dipole Moment    :     -0.69225       1.98932       0.85185
                        -----------------------------------------
Magnitude (a.u.)       :      2.27206
Magnitude (Debye)      :      5.77511

Rotational constants in cm-1:     0.001771     0.000227     0.000207
Rotational constants in MHz :    53.102098     6.812002     6.191919

                             ****ORCA TERMINATED NORMALLY****
TOTAL RUN TIME: 0 days 0 hours 13 minutes 12 seconds 280 msec
