                         Program Version 4.2.0 -  RELEASE  -
|  1> # ORCA input file
|  2> # SCF done       -221.344315563872          0.000755315227
|  3> ! CAM-B3LYP def2-SVP def2/J RIJCOSX Grid4 TightSCF
|  4> %maxcore 5000
|  5> %tddft
|  6>     Mode sTDDFT
|  7>     Ethresh 5.0
|  8>     maxcore 5000
|  9> end
| 10>
| 11> %pal
| 12>   nprocs 6
| 13>   end
| 14> * xyz 0 1
| 15>    C      -15.97486        -2.69057         0.00258
| 16>    C      -16.63438        -2.67367         1.19970
| 17>    F      -17.62945        -1.80277         1.40770
| 18>    C      -16.27711        -3.56879         2.22838
| 19>    F      -16.93989        -3.52870         3.39126
| 20>    C      -15.26481        -4.46891         2.04551
| 21>    C      -14.56539        -4.50970         0.82375
| 22>    C      -14.92575        -3.60551        -0.21729
| 23>    C      -14.23680        -3.62589        -1.45195
| 24>    C      -13.21556        -4.51968        -1.63862
| 25>    C      -12.86036        -5.41507        -0.59066
| 26>    C      -13.51015        -5.42396         0.61004
| 27>    C      -11.73109        -6.24769        -1.03257
| 28>    O      -11.18382        -7.12749        -0.39006
| 29>    C      -11.38775        -5.79242        -2.38467
| 30>    C      -12.33430        -4.76339        -2.77875
| 31>    C      -12.42652        -4.14143        -3.99541
| 32>    C      -11.60808        -4.39969        -5.11607
| 33>    N      -10.99185        -4.55788        -6.07182
| 34>    C      -13.38422        -3.15128        -4.30415
| 35>    N      -14.13321        -2.33948        -4.61560
| 36>    C      -10.30466        -6.21407        -3.11110
| 37>    C       -9.32523        -7.17325        -2.80591
| 38>    C       -8.22745        -7.39215        -3.64781
| 39>    C       -7.37396        -8.36331        -3.16158
| 40>    C       -7.83331        -8.91518        -1.94234
| 41>    S       -9.28548        -8.22067        -1.38861
| 42>    C       -6.88556        -9.88323        -1.52290
| 43>    C       -5.83884        -9.94116        -2.45789
| 44>    C       -6.11177        -8.99168        -3.52359
| 45>    C       -5.34146        -8.74054        -4.61985
| 46>    C       -4.12837        -9.42332        -4.85230
| 47>    N       -3.14251        -9.97871        -5.03711
| 48>    C       -5.70105        -7.78114        -5.59083
| 49>    N       -5.98390        -6.99976        -6.38010
| 50>    C       -4.84771       -10.85959        -2.10703
| 51>    C       -5.14296       -11.51536        -0.92929
| 52>    S       -6.66103       -10.97163        -0.22767
| 53>    C       -4.30469       -12.45676        -0.25797
| 54>    C       -4.63653       -13.40464         0.68403
| 55>    C       -3.48408       -14.07991         1.20811
| 56>    C       -3.42623       -15.10852         2.14595
| 57>    C       -2.19068       -15.63265         2.49568
| 58>    C       -1.00450       -15.14905         1.91754
| 59>    C       -1.05054       -14.14590         0.97666
| 60>    C       -2.28667       -13.61921         0.62518
| 61>    S       -2.57844       -12.37162        -0.54493
| 62>    C       -2.12303       -16.68129         3.44390
| 63>    N       -2.06822       -17.53537         4.20582
| 64>    C       -5.98431       -13.77010         1.05613
| 65>    C       -6.48821       -13.92607         2.32455
| 66>    C       -7.82145       -14.35687         2.30929
| 67>    C       -8.31554       -14.53960         1.01047
| 68>    S       -7.15228       -14.18903        -0.18769
| 69>    C       -9.66666       -14.96220         1.09398
| 70>    C      -10.02485       -15.05497         2.45228
| 71>    C       -8.87364       -14.67859         3.26026
| 72>    C       -8.79249       -14.64550         4.62058
| 73>    C       -9.88077       -14.99746         5.44782
| 74>    N      -10.76005       -15.28844         6.12288
| 75>    C       -7.60753       -14.26370         5.28594
| 76>    N       -6.64086       -13.95485         5.81899
| 77>    C      -11.33754       -15.47611         2.63280
| 78>    C      -11.99984       -15.66932         1.42856
| 79>    S      -10.94147       -15.37368         0.04946
| 80>    C      -13.32161       -16.14707         1.28339
| 81>    C      -14.13375       -16.13894         0.19109
| 82>    C      -15.25650       -17.11641         0.11111
| 83>    O      -15.70938       -17.77413         1.01711
| 84>    C      -15.63422       -17.14801        -1.31714
| 85>    C      -16.51560       -17.97353        -1.95347
| 86>    C      -16.69359       -17.84277        -3.34925
| 87>    C      -15.94982       -16.85691        -4.06146
| 88>    C      -16.12624       -16.73941        -5.45479
| 89>    C      -17.00137       -17.55954        -6.11000
| 90>    C      -17.73792       -18.53277        -5.40452
| 91>    C      -17.58859       -18.67198        -4.05301
| 92>    F      -18.58688       -19.32353        -6.07270
| 93>    F      -17.16711       -17.44642        -7.43346
| 94>    C      -15.05137       -16.00907        -3.37414
| 95>    C      -14.90023       -16.15056        -2.02104
| 96>    C      -14.08736       -15.41207        -1.05916
| 97>    C      -13.62096       -14.13540        -1.23455
| 98>    C      -13.09722       -13.35337        -0.18457
| 99>    N      -12.70153       -12.67966         0.65643
|100>    C      -13.69057       -13.43382        -2.45460
|101>    N      -13.70340       -12.82616        -3.42827
|102>    H      -16.26146        -1.99901        -0.77426
|103>    H      -15.00348        -5.14730         2.84249
|104>    H      -14.53365        -2.92696        -2.21675
|105>    H      -13.22081        -6.11642         1.38582
|106>    H      -10.13581        -5.73084        -4.06605
|107>    H       -8.08835        -6.84278        -4.56218
|108>    H       -3.95698       -11.05851        -2.67550
|109>    H       -4.32871       -15.49767         2.59231
|110>    H       -0.06003       -15.57800         2.21478
|111>    H       -0.14971       -13.77247         0.51637
|112>    H       -5.92368       -13.69985         3.21098
|113>    H      -11.81905       -15.61559         3.58389
|114>    H      -13.71747       -16.67517         2.14631
|115>    H      -17.06883       -18.71731        -1.40064
|116>    H      -15.57347       -15.99738        -6.00949
|117>    H      -18.15939       -19.42170        -3.52785
|118>    H      -14.49446       -15.27569        -3.93576
|119> *
|120>
|121>                          ****END OF INPUT****

CARTESIAN COORDINATES (ANGSTROEM)
---------------------------------
  C    -15.974860   -2.690570    0.002580
  C    -16.634380   -2.673670    1.199700
  F    -17.629450   -1.802770    1.407700
  C    -16.277110   -3.568790    2.228380
  F    -16.939890   -3.528700    3.391260
  C    -15.264810   -4.468910    2.045510
  C    -14.565390   -4.509700    0.823750
  C    -14.925750   -3.605510   -0.217290
  C    -14.236800   -3.625890   -1.451950
  C    -13.215560   -4.519680   -1.638620
  C    -12.860360   -5.415070   -0.590660
  C    -13.510150   -5.423960    0.610040
  C    -11.731090   -6.247690   -1.032570
  O    -11.183820   -7.127490   -0.390060
  C    -11.387750   -5.792420   -2.384670
  C    -12.334300   -4.763390   -2.778750
  C    -12.426520   -4.141430   -3.995410
  C    -11.608080   -4.399690   -5.116070
  N    -10.991850   -4.557880   -6.071820
  C    -13.384220   -3.151280   -4.304150
  N    -14.133210   -2.339480   -4.615600
  C    -10.304660   -6.214070   -3.111100
  C     -9.325230   -7.173250   -2.805910
  C     -8.227450   -7.392150   -3.647810
  C     -7.373960   -8.363310   -3.161580
  C     -7.833310   -8.915180   -1.942340
  S     -9.285480   -8.220670   -1.388610
  C     -6.885560   -9.883230   -1.522900
  C     -5.838840   -9.941160   -2.457890
  C     -6.111770   -8.991680   -3.523590
  C     -5.341460   -8.740540   -4.619850
  C     -4.128370   -9.423320   -4.852300
  N     -3.142510   -9.978710   -5.037110
  C     -5.701050   -7.781140   -5.590830
  N     -5.983900   -6.999760   -6.380100
  C     -4.847710  -10.859590   -2.107030
  C     -5.142960  -11.515360   -0.929290
  S     -6.661030  -10.971630   -0.227670
  C     -4.304690  -12.456760   -0.257970
  C     -4.636530  -13.404640    0.684030
  C     -3.484080  -14.079910    1.208110
  C     -3.426230  -15.108520    2.145950
  C     -2.190680  -15.632650    2.495680
  C     -1.004500  -15.149050    1.917540
  C     -1.050540  -14.145900    0.976660
  C     -2.286670  -13.619210    0.625180
  S     -2.578440  -12.371620   -0.544930
  C     -2.123030  -16.681290    3.443900
  N     -2.068220  -17.535370    4.205820
  C     -5.984310  -13.770100    1.056130
  C     -6.488210  -13.926070    2.324550
  C     -7.821450  -14.356870    2.309290
  C     -8.315540  -14.539600    1.010470
  S     -7.152280  -14.189030   -0.187690
  C     -9.666660  -14.962200    1.093980
  C    -10.024850  -15.054970    2.452280
  C     -8.873640  -14.678590    3.260260
  C     -8.792490  -14.645500    4.620580
  C     -9.880770  -14.997460    5.447820
  N    -10.760050  -15.288440    6.122880
  C     -7.607530  -14.263700    5.285940
  N     -6.640860  -13.954850    5.818990
  C    -11.337540  -15.476110    2.632800
  C    -11.999840  -15.669320    1.428560
  S    -10.941470  -15.373680    0.049460
  C    -13.321610  -16.147070    1.283390
  C    -14.133750  -16.138940    0.191090
  C    -15.256500  -17.116410    0.111110
  O    -15.709380  -17.774130    1.017110
  C    -15.634220  -17.148010   -1.317140
  C    -16.515600  -17.973530   -1.953470
  C    -16.693590  -17.842770   -3.349250
  C    -15.949820  -16.856910   -4.061460
  C    -16.126240  -16.739410   -5.454790
  C    -17.001370  -17.559540   -6.110000
  C    -17.737920  -18.532770   -5.404520
  C    -17.588590  -18.671980   -4.053010
  F    -18.586880  -19.323530   -6.072700
  F    -17.167110  -17.446420   -7.433460
  C    -15.051370  -16.009070   -3.374140
  C    -14.900230  -16.150560   -2.021040
  C    -14.087360  -15.412070   -1.059160
  C    -13.620960  -14.135400   -1.234550
  C    -13.097220  -13.353370   -0.184570
  N    -12.701530  -12.679660    0.656430
  C    -13.690570  -13.433820   -2.454600
  N    -13.703400  -12.826160   -3.428270
  H    -16.261460   -1.999010   -0.774260
  H    -15.003480   -5.147300    2.842490
  H    -14.533650   -2.926960   -2.216750
  H    -13.220810   -6.116420    1.385820
  H    -10.135810   -5.730840   -4.066050
  H     -8.088350   -6.842780   -4.562180
  H     -3.956980  -11.058510   -2.675500
  H     -4.328710  -15.497670    2.592310
  H     -0.060030  -15.578000    2.214780
  H     -0.149710  -13.772470    0.516370
  H     -5.923680  -13.699850    3.210980
  H    -11.819050  -15.615590    3.583890
  H    -13.717470  -16.675170    2.146310
  H    -17.068830  -18.717310   -1.400640
  H    -15.573470  -15.997380   -6.009490
  H    -18.159390  -19.421700   -3.527850
  H    -14.494460  -15.275690   -3.935760

 Total Charge           Charge          ....    0
 Multiplicity           Mult            ....    1
 Number of Electrons    NEL             ....  614
 Basis Dimension        Dim             .... 1323

ORBITAL ENERGIES
----------------

  NO   OCC          E(Eh)            E(eV)
   0   2.0000     -89.008397     -2422.0416
   1   2.0000     -89.007935     -2422.0291
   2   2.0000     -89.007515     -2422.0176
   3   2.0000     -88.999339     -2421.7951
   4   2.0000     -88.985120     -2421.4082
   5   2.0000     -24.804897      -674.9756
   6   2.0000     -24.804478      -674.9642
   7   2.0000     -24.802077      -674.8988
   8   2.0000     -24.801250      -674.8763
   9   2.0000     -19.233000      -523.3565
  10   2.0000     -19.225961      -523.1650
  11   2.0000     -14.443042      -393.0152
  12   2.0000     -14.442540      -393.0015
  13   2.0000     -14.440344      -392.9417
  14   2.0000     -14.437984      -392.8775
  15   2.0000     -14.428932      -392.6312
  16   2.0000     -14.428285      -392.6136
  17   2.0000     -14.423103      -392.4726
  18   2.0000     -14.420473      -392.4010
  19   2.0000     -14.410250      -392.1228
  20   2.0000     -10.388814      -282.6940
  21   2.0000     -10.388426      -282.6834
  22   2.0000     -10.385666      -282.6083
  23   2.0000     -10.385136      -282.5939
  24   2.0000     -10.380491      -282.4675
  25   2.0000     -10.379951      -282.4528
  26   2.0000     -10.378219      -282.4057
  27   2.0000     -10.375284      -282.3258
  28   2.0000     -10.366899      -282.0977
  29   2.0000     -10.363327      -282.0005
  30   2.0000     -10.357168      -281.8329
  31   2.0000     -10.356567      -281.8165
  32   2.0000     -10.355938      -281.7994
  33   2.0000     -10.349926      -281.6358
  34   2.0000     -10.349507      -281.6244
  35   2.0000     -10.348794      -281.6050
  36   2.0000     -10.348779      -281.6046
  37   2.0000     -10.347746      -281.5765
  38   2.0000     -10.347522      -281.5704
  39   2.0000     -10.346014      -281.5293
  40   2.0000     -10.342815      -281.4423
  41   2.0000     -10.342715      -281.4396
  42   2.0000     -10.342132      -281.4237
  43   2.0000     -10.341009      -281.3932
  44   2.0000     -10.340471      -281.3785
  45   2.0000     -10.337543      -281.2989
  46   2.0000     -10.337417      -281.2954
  47   2.0000     -10.336097      -281.2595
  48   2.0000     -10.335550      -281.2446
  49   2.0000     -10.334897      -281.2268
  50   2.0000     -10.331252      -281.1277
  51   2.0000     -10.330134      -281.0972
  52   2.0000     -10.327633      -281.0292
  53   2.0000     -10.326137      -280.9885
  54   2.0000     -10.325326      -280.9664
  55   2.0000     -10.324141      -280.9342
  56   2.0000     -10.323474      -280.9160
  57   2.0000     -10.323264      -280.9103
  58   2.0000     -10.321406      -280.8597
  59   2.0000     -10.321353      -280.8583
  60   2.0000     -10.320817      -280.8437
  61   2.0000     -10.320013      -280.8218
  62   2.0000     -10.320000      -280.8215
  63   2.0000     -10.319317      -280.8029
  64   2.0000     -10.318790      -280.7885
  65   2.0000     -10.318151      -280.7712
  66   2.0000     -10.316570      -280.7281
  67   2.0000     -10.315396      -280.6962
  68   2.0000     -10.315186      -280.6905
  69   2.0000     -10.315122      -280.6887
  70   2.0000     -10.313507      -280.6448
  71   2.0000     -10.313090      -280.6335
  72   2.0000     -10.312442      -280.6158
  73   2.0000     -10.311798      -280.5983
  74   2.0000     -10.311481      -280.5897
  75   2.0000     -10.310214      -280.5552
  76   2.0000     -10.309707      -280.5414
  77   2.0000     -10.309339      -280.5314
  78   2.0000     -10.308803      -280.5168
  79   2.0000     -10.308496      -280.5084
  80   2.0000     -10.308326      -280.5038
  81   2.0000     -10.308025      -280.4956
  82   2.0000     -10.307383      -280.4781
  83   2.0000     -10.305322      -280.4221
  84   2.0000     -10.304518      -280.4002
  85   2.0000     -10.303621      -280.3758
  86   2.0000     -10.299807      -280.2720
  87   2.0000      -8.102663      -220.4847
  88   2.0000      -8.102402      -220.4776
  89   2.0000      -8.101510      -220.4533
  90   2.0000      -8.091498      -220.1809
  91   2.0000      -8.080892      -219.8923
  92   2.0000      -6.071888      -165.2245
  93   2.0000      -6.071667      -165.2185
  94   2.0000      -6.070796      -165.1948
  95   2.0000      -6.067661      -165.1094
  96   2.0000      -6.067370      -165.1015
  97   2.0000      -6.066464      -165.0769
  98   2.0000      -6.065094      -165.0396
  99   2.0000      -6.064809      -165.0318
 100   2.0000      -6.063975      -165.0091
 101   2.0000      -6.060905      -164.9256
 102   2.0000      -6.056111      -164.7951
 103   2.0000      -6.054132      -164.7413
 104   2.0000      -6.050443      -164.6409
 105   2.0000      -6.046372      -164.5301
 106   2.0000      -6.042241      -164.4177
 107   2.0000      -1.327928       -36.1348
 108   2.0000      -1.324866       -36.0514
 109   2.0000      -1.313038       -35.7296
 110   2.0000      -1.309964       -35.6459
 111   2.0000      -1.148620       -31.2555
 112   2.0000      -1.142140       -31.0792
 113   2.0000      -1.063648       -28.9433
 114   2.0000      -1.058488       -28.8029
 115   2.0000      -1.036898       -28.2154
 116   2.0000      -1.035246       -28.1705
 117   2.0000      -1.032204       -28.0877
 118   2.0000      -1.030303       -28.0360
 119   2.0000      -1.026433       -27.9307
 120   2.0000      -1.020307       -27.7640
 121   2.0000      -1.016728       -27.6666
 122   2.0000      -1.014724       -27.6120
 123   2.0000      -1.014279       -27.5999
 124   2.0000      -1.010534       -27.4980
 125   2.0000      -1.010283       -27.4912
 126   2.0000      -1.006422       -27.3861
 127   2.0000      -1.000314       -27.2199
 128   2.0000      -0.997240       -27.1363
 129   2.0000      -0.991787       -26.9879
 130   2.0000      -0.987763       -26.8784
 131   2.0000      -0.976427       -26.5699
 132   2.0000      -0.972619       -26.4663
 133   2.0000      -0.959454       -26.1081
 134   2.0000      -0.944059       -25.6892
 135   2.0000      -0.939671       -25.5698
 136   2.0000      -0.933815       -25.4104
 137   2.0000      -0.927656       -25.2428
 138   2.0000      -0.915488       -24.9117
 139   2.0000      -0.908920       -24.7330
 140   2.0000      -0.903432       -24.5836
 141   2.0000      -0.901189       -24.5226
 142   2.0000      -0.897553       -24.4237
 143   2.0000      -0.891309       -24.2538
 144   2.0000      -0.887854       -24.1597
 145   2.0000      -0.886355       -24.1190
 146   2.0000      -0.878673       -23.9099
 147   2.0000      -0.873523       -23.7698
 148   2.0000      -0.869678       -23.6651
 149   2.0000      -0.863586       -23.4994
 150   2.0000      -0.852887       -23.2082
 151   2.0000      -0.849542       -23.1172
 152   2.0000      -0.845852       -23.0168
 153   2.0000      -0.830612       -22.6021
 154   2.0000      -0.826027       -22.4773
 155   2.0000      -0.802163       -21.8280
 156   2.0000      -0.793252       -21.5855
 157   2.0000      -0.789618       -21.4866
 158   2.0000      -0.788909       -21.4673
 159   2.0000      -0.776346       -21.1255
 160   2.0000      -0.775164       -21.0933
 161   2.0000      -0.763299       -20.7704
 162   2.0000      -0.754179       -20.5222
 163   2.0000      -0.738818       -20.1043
 164   2.0000      -0.736073       -20.0296
 165   2.0000      -0.729361       -19.8469
 166   2.0000      -0.727524       -19.7969
 167   2.0000      -0.724995       -19.7281
 168   2.0000      -0.720188       -19.5973
 169   2.0000      -0.715868       -19.4797
 170   2.0000      -0.710444       -19.3322
 171   2.0000      -0.703793       -19.1512
 172   2.0000      -0.701522       -19.0894
 173   2.0000      -0.694995       -18.9118
 174   2.0000      -0.694660       -18.9027
 175   2.0000      -0.694165       -18.8892
 176   2.0000      -0.685365       -18.6497
 177   2.0000      -0.673958       -18.3393
 178   2.0000      -0.668683       -18.1958
 179   2.0000      -0.665657       -18.1135
 180   2.0000      -0.662408       -18.0250
 181   2.0000      -0.656396       -17.8614
 182   2.0000      -0.651342       -17.7239
 183   2.0000      -0.648354       -17.6426
 184   2.0000      -0.644696       -17.5431
 185   2.0000      -0.643688       -17.5156
 186   2.0000      -0.639139       -17.3918
 187   2.0000      -0.636885       -17.3305
 188   2.0000      -0.632818       -17.2199
 189   2.0000      -0.631690       -17.1892
 190   2.0000      -0.625429       -17.0188
 191   2.0000      -0.620505       -16.8848
 192   2.0000      -0.616595       -16.7784
 193   2.0000      -0.611502       -16.6398
 194   2.0000      -0.600797       -16.3485
 195   2.0000      -0.598688       -16.2911
 196   2.0000      -0.594641       -16.1810
 197   2.0000      -0.592390       -16.1198
 198   2.0000      -0.589293       -16.0355
 199   2.0000      -0.589141       -16.0313
 200   2.0000      -0.585253       -15.9255
 201   2.0000      -0.582676       -15.8554
 202   2.0000      -0.579191       -15.7606
 203   2.0000      -0.568282       -15.4637
 204   2.0000      -0.566007       -15.4018
 205   2.0000      -0.564234       -15.3536
 206   2.0000      -0.562240       -15.2993
 207   2.0000      -0.560631       -15.2556
 208   2.0000      -0.559239       -15.2177
 209   2.0000      -0.557610       -15.1733
 210   2.0000      -0.553828       -15.0704
 211   2.0000      -0.550767       -14.9871
 212   2.0000      -0.549965       -14.9653
 213   2.0000      -0.548844       -14.9348
 214   2.0000      -0.548107       -14.9148
 215   2.0000      -0.546564       -14.8728
 216   2.0000      -0.543185       -14.7808
 217   2.0000      -0.542141       -14.7524
 218   2.0000      -0.538702       -14.6588
 219   2.0000      -0.536167       -14.5898
 220   2.0000      -0.536041       -14.5864
 221   2.0000      -0.533031       -14.5045
 222   2.0000      -0.527640       -14.3578
 223   2.0000      -0.526964       -14.3394
 224   2.0000      -0.524351       -14.2683
 225   2.0000      -0.522732       -14.2243
 226   2.0000      -0.520953       -14.1758
 227   2.0000      -0.520802       -14.1717
 228   2.0000      -0.516654       -14.0589
 229   2.0000      -0.515647       -14.0315
 230   2.0000      -0.513578       -13.9752
 231   2.0000      -0.511905       -13.9296
 232   2.0000      -0.511210       -13.9107
 233   2.0000      -0.508381       -13.8338
 234   2.0000      -0.506590       -13.7850
 235   2.0000      -0.505209       -13.7474
 236   2.0000      -0.502921       -13.6852
 237   2.0000      -0.500540       -13.6204
 238   2.0000      -0.497292       -13.5320
 239   2.0000      -0.496191       -13.5020
 240   2.0000      -0.492870       -13.4117
 241   2.0000      -0.490905       -13.3582
 242   2.0000      -0.488264       -13.2863
 243   2.0000      -0.481050       -13.0900
 244   2.0000      -0.478692       -13.0259
 245   2.0000      -0.475718       -12.9450
 246   2.0000      -0.474401       -12.9091
 247   2.0000      -0.472795       -12.8654
 248   2.0000      -0.471842       -12.8395
 249   2.0000      -0.470435       -12.8012
 250   2.0000      -0.470150       -12.7934
 251   2.0000      -0.469866       -12.7857
 252   2.0000      -0.469112       -12.7652
 253   2.0000      -0.466876       -12.7043
 254   2.0000      -0.463663       -12.6169
 255   2.0000      -0.462459       -12.5841
 256   2.0000      -0.459354       -12.4997
 257   2.0000      -0.458043       -12.4640
 258   2.0000      -0.455992       -12.4082
 259   2.0000      -0.455151       -12.3853
 260   2.0000      -0.454419       -12.3654
 261   2.0000      -0.452457       -12.3120
 262   2.0000      -0.451996       -12.2994
 263   2.0000      -0.451759       -12.2930
 264   2.0000      -0.449995       -12.2450
 265   2.0000      -0.449107       -12.2208
 266   2.0000      -0.449017       -12.2184
 267   2.0000      -0.446843       -12.1592
 268   2.0000      -0.442564       -12.0428
 269   2.0000      -0.441908       -12.0249
 270   2.0000      -0.441413       -12.0115
 271   2.0000      -0.440378       -11.9833
 272   2.0000      -0.438956       -11.9446
 273   2.0000      -0.437696       -11.9103
 274   2.0000      -0.437618       -11.9082
 275   2.0000      -0.437239       -11.8979
 276   2.0000      -0.435011       -11.8373
 277   2.0000      -0.432577       -11.7710
 278   2.0000      -0.431013       -11.7284
 279   2.0000      -0.423940       -11.5360
 280   2.0000      -0.421509       -11.4698
 281   2.0000      -0.415785       -11.3141
 282   2.0000      -0.415113       -11.2958
 283   2.0000      -0.413531       -11.2528
 284   2.0000      -0.411873       -11.2076
 285   2.0000      -0.409661       -11.1474
 286   2.0000      -0.398802       -10.8520
 287   2.0000      -0.394708       -10.7405
 288   2.0000      -0.392806       -10.6888
 289   2.0000      -0.383783       -10.4433
 290   2.0000      -0.382138       -10.3985
 291   2.0000      -0.370627       -10.0853
 292   2.0000      -0.359075        -9.7709
 293   2.0000      -0.355957        -9.6861
 294   2.0000      -0.354632        -9.6500
 295   2.0000      -0.348880        -9.4935
 296   2.0000      -0.344303        -9.3689
 297   2.0000      -0.337378        -9.1805
 298   2.0000      -0.331554        -9.0220
 299   2.0000      -0.326332        -8.8799
 300   2.0000      -0.323474        -8.8022
 301   2.0000      -0.323125        -8.7927
 302   2.0000      -0.315922        -8.5967
 303   2.0000      -0.310088        -8.4379
 304   2.0000      -0.304785        -8.2936
 305   2.0000      -0.285970        -7.7816
 306   2.0000      -0.270250        -7.3539
 307   0.0000      -0.127401        -3.4668
 308   0.0000      -0.119113        -3.2412
 309   0.0000      -0.101651        -2.7661
 310   0.0000      -0.097311        -2.6480
 311   0.0000      -0.070833        -1.9275

MULLIKEN ATOMIC CHARGES
-----------------------
   0 C :   -0.109660
   1 C :    0.243780
   2 F :   -0.169360
   3 C :    0.240012
   4 F :   -0.170010
   5 C :   -0.104140
   6 C :    0.115965
   7 C :    0.114043
   8 C :   -0.082515
   9 C :    0.045050
  10 C :   -0.001116
  11 C :   -0.080177
  12 C :    0.175081
  13 O :   -0.187544
  14 C :   -0.094457
  15 C :    0.329511
  16 C :   -0.345496
  17 C :   -0.195055
  18 N :    0.157768
  19 C :   -0.181647
  20 N :    0.148385
  21 C :   -0.025647
  22 C :   -0.053714
  23 C :   -0.057375
  24 C :    0.044877
  25 C :   -0.067276
  26 S :    0.257138
  27 C :   -0.105382
  28 C :    0.024233
  29 C :    0.305041
  30 C :   -0.292239
  31 C :   -0.189264
  32 N :    0.176163
  33 C :   -0.193773
  34 N :    0.185420
  35 C :   -0.038477
  36 C :   -0.117511
  37 S :    0.216333
  38 C :   -0.093687
  39 C :    0.132065
  40 C :    0.116805
  41 C :   -0.044479
  42 C :   -0.093854
  43 C :    0.043882
  44 C :    0.010904
  45 C :   -0.063531
  46 S :    0.165786
  47 C :   -0.143397
  48 N :    0.110008
  49 C :   -0.235152
  50 C :    0.010330
  51 C :    0.009025
  52 C :   -0.104764
  53 S :    0.227227
  54 C :   -0.079239
  55 C :    0.029296
  56 C :    0.294192
  57 C :   -0.285916
  58 C :   -0.188719
  59 N :    0.182205
  60 C :   -0.189481
  61 N :    0.181979
  62 C :    0.002183
  63 C :   -0.088858
  64 S :    0.209372
  65 C :    0.049110
  66 C :   -0.139311
  67 C :    0.141868
  68 O :   -0.135224
  69 C :    0.012505
  70 C :   -0.079253
  71 C :    0.110800
  72 C :    0.112701
  73 C :   -0.104929
  74 C :    0.241405
  75 C :    0.239425
  76 C :   -0.102779
  77 F :   -0.169120
  78 F :   -0.169185
  79 C :   -0.080132
  80 C :    0.037901
  81 C :    0.245844
  82 C :   -0.327185
  83 C :   -0.210419
  84 N :    0.173546
  85 C :   -0.171551
  86 N :    0.155542
  87 H :    0.008652
  88 H :    0.001541
  89 H :   -0.004864
  90 H :   -0.007660
  91 H :    0.019309
  92 H :    0.028895
  93 H :    0.018067
  94 H :   -0.004387
  95 H :    0.005616
  96 H :   -0.006055
  97 H :    0.019314
  98 H :    0.020801
  99 H :    0.035914
 100 H :   -0.005400
 101 H :    0.006708
 102 H :    0.002673
 103 H :   -0.001834
Sum of atomic charges:   -0.0000000

LOEWDIN ATOMIC CHARGES
----------------------
   0 C :   -0.028880
   1 C :    0.067944
   2 F :   -0.047058
   3 C :    0.068259
   4 F :   -0.047797
   5 C :   -0.032306
   6 C :   -0.008808
   7 C :   -0.005591
   8 C :    0.018969
   9 C :   -0.021948
  10 C :   -0.053019
  11 C :    0.032529
  12 C :    0.087293
  13 O :   -0.171491
  14 C :   -0.106800
  15 C :    0.075796
  16 C :   -0.136955
  17 C :   -0.023629
  18 N :   -0.044778
  19 C :   -0.017088
  20 N :   -0.050574
  21 C :    0.058756
  22 C :   -0.180827
  23 C :    0.012527
  24 C :   -0.074937
  25 C :   -0.171322
  26 S :    0.558433
  27 C :   -0.179605
  28 C :   -0.059988
  29 C :    0.076829
  30 C :   -0.098278
  31 C :   -0.016712
  32 N :   -0.030040
  33 C :   -0.020588
  34 N :   -0.020644
  35 C :   -0.027531
  36 C :   -0.189205
  37 S :    0.498398
  38 C :   -0.163412
  39 C :   -0.085291
  40 C :   -0.035366
  41 C :    0.016530
  42 C :   -0.067292
  43 C :    0.011400
  44 C :   -0.027248
  45 C :   -0.142050
  46 S :    0.441032
  47 C :   -0.030478
  48 N :   -0.050964
  49 C :   -0.172517
  50 C :   -0.026094
  51 C :   -0.059875
  52 C :   -0.184411
  53 S :    0.492155
  54 C :   -0.154044
  55 C :   -0.070661
  56 C :    0.077358
  57 C :   -0.092845
  58 C :   -0.017838
  59 N :   -0.022459
  60 C :   -0.017338
  61 N :   -0.023976
  62 C :    0.016232
  63 C :   -0.177178
  64 S :    0.515057
  65 C :    0.053827
  66 C :   -0.100530
  67 C :    0.083406
  68 O :   -0.137485
  69 C :   -0.054246
  70 C :    0.032597
  71 C :   -0.008594
  72 C :   -0.005487
  73 C :   -0.030040
  74 C :    0.068453
  75 C :    0.068482
  76 C :   -0.031972
  77 F :   -0.047025
  78 F :   -0.046718
  79 C :    0.014627
  80 C :   -0.021427
  81 C :    0.060940
  82 C :   -0.145225
  83 C :   -0.037810
  84 N :   -0.048171
  85 C :   -0.020725
  86 N :   -0.048950
  87 H :    0.048338
  88 H :    0.045563
  89 H :    0.040629
  90 H :    0.041416
  91 H :    0.054296
  92 H :    0.048554
  93 H :    0.039421
  94 H :    0.040191
  95 H :    0.043080
  96 H :    0.038130
  97 H :    0.044748
  98 H :    0.048268
  99 H :    0.056471
 100 H :    0.041995
 101 H :    0.047519
 102 H :    0.045846
 103 H :    0.039847

  Mayer bond orders larger than 0.100000
B(  0-C ,  1-C ) :   1.4393 B(  0-C ,  5-C ) :   0.1084 B(  0-C ,  7-C ) :   1.1891
B(  0-C , 87-H ) :   1.0069 B(  1-C ,  2-F ) :   1.1368 B(  1-C ,  3-C ) :   1.1920
B(  3-C ,  4-F ) :   1.1354 B(  3-C ,  5-C ) :   1.4408 B(  5-C ,  6-C ) :   1.1925
B(  5-C , 88-H ) :   1.0071 B(  6-C ,  7-C ) :   1.2564 B(  6-C , 11-C ) :   1.1864
B(  7-C ,  8-C ) :   1.2149 B(  8-C ,  9-C ) :   1.4540 B(  8-C , 89-H ) :   0.9891
B(  9-C , 10-C ) :   1.2213 B(  9-C , 15-C ) :   0.9829 B( 10-C , 11-C ) :   1.4666
B( 10-C , 12-C ) :   0.9613 B( 11-C , 90-H ) :   1.0173 B( 12-C , 13-O ) :   2.1107
B( 12-C , 14-C ) :   0.9824 B( 14-C , 15-C ) :   1.0713 B( 14-C , 21-C ) :   1.5012
B( 15-C , 16-C ) :   1.6351 B( 16-C , 17-C ) :   1.1426 B( 16-C , 19-C ) :   1.1443
B( 17-C , 18-N ) :   2.9660 B( 19-C , 20-N ) :   2.9610 B( 21-C , 22-C ) :   1.2610
B( 21-C , 91-H ) :   0.9412 B( 22-C , 23-C ) :   1.3300 B( 22-C , 26-S ) :   1.0771
B( 23-C , 24-C ) :   1.3316 B( 23-C , 92-H ) :   1.0087 B( 24-C , 25-C ) :   1.3581
B( 24-C , 29-C ) :   0.9877 B( 25-C , 26-S ) :   1.1302 B( 25-C , 27-C ) :   1.1928
B( 27-C , 28-C ) :   1.4286 B( 27-C , 37-S ) :   1.1291 B( 28-C , 29-C ) :   0.9953
B( 28-C , 35-C ) :   1.2903 B( 29-C , 30-C ) :   1.7169 B( 30-C , 31-C ) :   1.1329
B( 30-C , 33-C ) :   1.1340 B( 31-C , 32-N ) :   2.9901 B( 33-C , 34-N ) :   2.9944
B( 35-C , 36-C ) :   1.4481 B( 35-C , 93-H ) :   0.9915 B( 36-C , 37-S ) :   1.1209
B( 36-C , 38-C ) :   1.1186 B( 38-C , 39-C ) :   1.5548 B( 38-C , 46-S ) :   1.1024
B( 39-C , 40-C ) :   1.1516 B( 39-C , 49-C ) :   1.0041 B( 40-C , 41-C ) :   1.3036
B( 40-C , 45-C ) :   1.3126 B( 41-C , 42-C ) :   1.4216 B( 41-C , 94-H ) :   0.9911
B( 42-C , 43-C ) :   1.3248 B( 42-C , 47-C ) :   1.0593 B( 43-C , 44-C ) :   1.4303
B( 43-C , 95-H ) :   0.9930 B( 44-C , 45-C ) :   1.3365 B( 44-C , 96-H ) :   0.9955
B( 45-C , 46-S ) :   1.0646 B( 47-C , 48-N ) :   3.0548 B( 49-C , 50-C ) :   1.4878
B( 49-C , 53-S ) :   1.1332 B( 50-C , 51-C ) :   1.2640 B( 50-C , 97-H ) :   1.0002
B( 51-C , 52-C ) :   1.4497 B( 51-C , 56-C ) :   0.9919 B( 52-C , 53-S ) :   1.1147
B( 52-C , 54-C ) :   1.1966 B( 54-C , 55-C ) :   1.4076 B( 54-C , 64-S ) :   1.1619
B( 55-C , 56-C ) :   0.9883 B( 55-C , 62-C ) :   1.3016 B( 56-C , 57-C ) :   1.7240
B( 57-C , 58-C ) :   1.1322 B( 57-C , 60-C ) :   1.1343 B( 58-C , 59-N ) :   2.9926
B( 60-C , 61-N ) :   2.9890 B( 62-C , 63-C ) :   1.3969 B( 62-C , 98-H ) :   1.0028
B( 63-C , 64-S ) :   1.0858 B( 63-C , 65-C ) :   1.1493 B( 65-C , 66-C ) :   1.6339
B( 65-C , 99-H ) :   0.9457 B( 66-C , 67-C ) :   0.9369 B( 66-C , 81-C ) :   1.0371
B( 67-C , 68-O ) :   2.2779 B( 67-C , 69-C ) :   0.9176 B( 69-C , 70-C ) :   1.4770
B( 69-C , 80-C ) :   1.2210 B( 70-C , 71-C ) :   1.1955 B( 70-C ,100-H ) :   1.0163
B( 71-C , 72-C ) :   1.2566 B( 71-C , 76-C ) :   1.1937 B( 72-C , 73-C ) :   1.1895
B( 72-C , 79-C ) :   1.2159 B( 73-C , 74-C ) :   1.4432 B( 73-C , 76-C ) :   0.1080
B( 73-C ,101-H ) :   1.0066 B( 74-C , 75-C ) :   1.1909 B( 74-C , 78-F ) :   1.1363
B( 75-C , 76-C ) :   1.4438 B( 75-C , 77-F ) :   1.1365 B( 76-C ,102-H ) :   1.0071
B( 79-C , 80-C ) :   1.4576 B( 79-C ,103-H ) :   0.9945 B( 80-C , 81-C ) :   1.0023
B( 81-C , 82-C ) :   1.6532 B( 82-C , 83-C ) :   1.1537 B( 82-C , 85-C ) :   1.1329
B( 83-C , 84-N ) :   3.0224 B( 85-C , 86-N ) :   2.9898

-----------------------------------------------------------------------------
         ABSORPTION SPECTRUM VIA TRANSITION ELECTRIC DIPOLE MOMENTS
-----------------------------------------------------------------------------
State   Energy  Wavelength   fosc         T2         TX        TY        TZ
        (cm-1)    (nm)                  (au**2)     (au)      (au)      (au)
-----------------------------------------------------------------------------
   0   14243.6    702.1   0.123066005   2.84441  -0.42544  -1.63159   0.03632
   1   15335.9    652.1   0.289260339   6.20946   2.19026  -1.03122   0.59060
   2   19537.2    511.8   0.028267812   0.47633   0.42860  -0.51272   0.17247
   3   20755.5    481.8   0.253873831   4.02681  -0.46455  -1.87496  -0.54362
   4   21750.3    459.8   0.990552628  14.99299  -3.25459   1.59073  -1.36755
   5   22346.2    447.5   0.667901110   9.83973   2.52190  -1.82527   0.38490
   6   25283.2    395.5   0.067746297   0.88212   0.47603   0.54296   0.60059
   7   25975.0    385.0   0.014556312   0.18449   0.33622   0.21150  -0.16344
   8   26304.5    380.2   0.064833622   0.81142  -0.77968   0.43531   0.11846
   9   26700.5    374.5   0.033891441   0.41787   0.00775  -0.08177  -0.64119
  10   27579.7    362.6   0.025362074   0.30274  -0.09567  -0.50215   0.20356
  11   27659.2    361.5   0.003372872   0.04015   0.07970   0.14676  -0.11070
  12   27939.1    357.9   0.038975914   0.45926  -0.21773   0.63719   0.07645
  13   28057.8    356.4   0.024102372   0.28280   0.24615  -0.42282  -0.20841
  14   28783.0    347.4   0.036339703   0.41564   0.64345  -0.02832   0.02850
  15   28879.8    346.3   0.019247266   0.21941  -0.11382  -0.17530  -0.41919
  16   29018.3    344.6   0.088686074   1.00614   0.40440   0.41529  -0.81862
  17   29148.4    343.1   0.065944503   0.74480   0.58750   0.16741   0.60960
  18   29624.3    337.6   0.172740187   1.91965  -1.01776   0.69428   0.63386
  19   29783.4    335.8   0.271348700   2.99936   1.01884   0.69787  -1.21421
  20   30088.5    332.4   0.328747118   3.59698  -0.48889  -0.27201  -1.81218
  21   30195.5    331.2   0.781932830   8.52517  -1.85829  -1.57582   1.60895
  22   30669.3    326.1   0.432783348   4.64561   1.63545   0.00424   1.40389
  23   31033.2    322.2   0.057228698   0.60710  -0.32382   0.08770  -0.70324
  24   31139.0    321.1   0.240794930   2.54576  -0.08754  -0.54453  -1.49719
  25   31634.3    316.1   0.022920757   0.23853   0.37881  -0.14890  -0.26993
  26   32020.3    312.3   0.037033654   0.38076   0.39146  -0.40555  -0.25109
  27   32103.5    311.5   0.161328713   1.65438   0.49152  -0.93084   0.73913
  28   32235.0    310.2   0.100684359   1.02828  -0.55529   0.44456  -0.72270
  29   32479.7    307.9   0.074476246   0.75489   0.60954   0.58897   0.19094
  30   32813.0    304.8   0.267240879   2.68122  -1.15373   0.42687   1.08070
  31   33070.3    302.4   0.491272951   4.89058  -0.64225  -0.73086  -1.98594
  32   33367.2    299.7   0.304413933   3.00345  -1.33943   0.12032   1.09312
  33   33467.1    298.8   0.150273049   1.47822   0.70229  -0.03142  -0.99198
  34   33699.9    296.7   0.045063564   0.44022  -0.40598   0.00054   0.52479
  35   33945.6    294.6   0.047148493   0.45726  -0.04280   0.60958   0.28955
  36   34024.1    293.9   0.173507155   1.67883  -0.76416   0.04342   1.04547
  37   34122.1    293.1   0.170788960   1.64778   1.23110   0.19537  -0.30662
  38   34617.0    288.9   0.046439636   0.44165  -0.58895   0.12241   0.28248
  39   34870.2    286.8   0.179011949   1.69006   0.58299   0.25924  -1.13269
  40   35237.3    283.8   0.251345030   2.34824   0.26062   1.09966   1.03493
  41   35279.5    283.5   0.124304220   1.15995   0.72222   0.31392   0.73471
  42   35463.7    282.0   0.154532331   1.43453  -0.81903  -0.85952  -0.15791
  43   35480.5    281.8   0.264551628   2.45469  -0.88877  -0.05160   1.28923
  44   35512.0    281.6   0.050176924   0.46516  -0.37095  -0.11720  -0.56020
  45   35843.4    279.0   0.035560767   0.32662  -0.19066  -0.07795  -0.53309
  46   35956.7    278.1   0.042071198   0.38519  -0.46367  -0.18360  -0.36946
  47   36207.4    276.2   0.027191937   0.24724  -0.04757   0.44450  -0.21772
  48   36470.0    274.2   0.075948998   0.68559  -0.59227   0.29694  -0.49662
  49   36647.9    272.9   0.059935533   0.53841   0.58887  -0.01118  -0.43763
  50   36719.9    272.3   0.071950521   0.64507   0.30276   0.54909   0.50190
  51   36823.2    271.6   0.035561554   0.31793   0.25105  -0.38647   0.32488
  52   37016.4    270.2   0.017571864   0.15628   0.17842  -0.28801   0.20371
  53   37580.3    266.1   0.006564933   0.05751   0.17377  -0.15209   0.06468
  54   37582.6    266.1   0.204354944   1.79009  -0.99162   0.57042  -0.69382
  55   37613.9    265.9   0.129197581   1.13079   0.95895  -0.45246  -0.08046
  56   37746.6    264.9   0.066411489   0.57922   0.70448  -0.21453   0.19209
  57   37998.6    263.2   0.018287398   0.15844  -0.14986   0.32208  -0.17957
  58   38091.5    262.5   0.043247151   0.37377  -0.34750   0.21890  -0.45287
  59   38360.3    260.7   0.097264315   0.83473  -0.20271   0.71235  -0.53497
  60   38384.2    260.5   0.005259491   0.04511  -0.20467  -0.03607   0.04380
  61   38713.2    258.3   0.024148605   0.20536  -0.42106   0.15107  -0.07240
  62   38897.0    257.1   0.017823031   0.15085  -0.33746   0.11747   0.15223
  63   38960.1    256.7   0.129828361   1.09705   0.40554  -0.77371   0.57788
  64   39248.6    254.8   0.040451490   0.33930  -0.03782   0.34829  -0.46537
  65   39377.0    254.0   0.018866233   0.15773   0.28107  -0.28058  -0.00258
  66   39582.2    252.6   0.045812008   0.38103   0.53285  -0.23701   0.20229
  67   39677.7    252.0   0.003816104   0.03166   0.14326   0.06010  -0.08675
  68   40214.5    248.7   0.012724768   0.10417  -0.11456  -0.14637  -0.26386

FINAL SINGLE POINT ENERGY     -5591.627947514087

DIPOLE MOMENT
-------------
                                X             Y             Z
Electronic contribution:    -20.47471       6.58470      -7.50594
Nuclear contribution   :     20.75614      -8.09716       7.85759
                        -----------------------------------------
Total Dipole Moment    :      0.28143      -1.51247       0.35164
                        -----------------------------------------
Magnitude (a.u.)       :      1.57811
Magnitude (Debye)      :      4.01122

Rotational constants in cm-1:     0.000455     0.000394     0.000283
Rotational constants in MHz :    13.633389    11.801249     8.480353

                             ****ORCA TERMINATED NORMALLY****
TOTAL RUN TIME: 0 days 0 hours 12 minutes 28 seconds 649 msec
