                         Program Version 4.2.0 -  RELEASE  -
|  1> # ORCA input file
|  2> # SCF done       -196.105259820401          0.000728912037
|  3> ! CAM-B3LYP def2-SVP def2/J RIJCOSX Grid4 TightSCF
|  4> %maxcore 5000
|  5> %tddft
|  6>     Mode sTDDFT
|  7>     Ethresh 5.0
|  8>     maxcore 5000
|  9> end
| 10>
| 11> %pal
| 12>   nprocs 6
| 13>   end
| 14> * xyz 0 1
| 15>    C       -5.36224         3.45973         2.11699
| 16>    C       -5.59171         4.18806         3.25014
| 17>    F       -5.59086         5.52704         3.20222
| 18>    C       -5.83142         3.54397         4.48079
| 19>    F       -6.05390         4.28385         5.57613
| 20>    C       -5.83775         2.17980         4.56129
| 21>    C       -5.60434         1.40127         3.41091
| 22>    C       -5.36217         2.05079         2.16588
| 23>    C       -5.12460         1.29128         0.99781
| 24>    C       -5.12808        -0.07780         1.07050
| 25>    C       -5.37339        -0.71443         2.31585
| 26>    C       -5.60562        -0.00972         3.46196
| 27>    C       -5.33396        -2.17906         2.14276
| 28>    O       -5.49895        -2.98212         3.04044
| 29>    C       -5.06984        -2.41410         0.70412
| 30>    C       -4.91497        -1.11109         0.06108
| 31>    C       -4.59371        -0.85536        -1.24663
| 32>    C       -4.33440        -1.78961        -2.27481
| 33>    N       -4.09211        -2.43133        -3.19688
| 34>    C       -4.45117         0.44453        -1.78057
| 35>    N       -4.31699         1.46545        -2.28820
| 36>    C       -4.99786        -3.57744        -0.01283
| 37>    C       -5.05973        -4.96572         0.30577
| 38>    C       -4.94061        -5.87669        -0.78862
| 39>    O       -4.83555        -5.33621        -2.01914
| 40>    C       -4.64774        -6.16905        -3.14075
| 41>    C       -4.93524        -7.23519        -0.53635
| 42>    C       -5.05390        -7.75092         0.75662
| 43>    C       -5.20165        -6.85386         1.84741
| 44>    C       -5.19466        -5.49303         1.59496
| 45>    O       -5.33306        -7.38870         3.07322
| 46>    C       -5.48965        -6.52695         4.17992
| 47>    C       -5.00962        -9.16672         0.96704
| 48>    N       -5.10118        -9.76288         2.11100
| 49>    C       -4.99599       -11.08443         1.99187
| 50>    C       -4.81062       -11.58118         0.68818
| 51>    S       -4.77684       -10.28044        -0.42828
| 52>    N       -4.68596       -12.90017         0.56718
| 53>    C       -4.76684       -13.48313         1.73215
| 54>    S       -5.01257       -12.39238         3.10600
| 55>    C       -4.64632       -14.90090         1.90136
| 56>    C       -4.69600       -15.50317         3.17967
| 57>    O       -4.89087       -14.67059         4.22815
| 58>    C       -5.00422       -15.20618         5.52684
| 59>    C       -4.52997       -16.86896         3.27751
| 60>    C       -4.37540       -17.68804         2.14974
| 61>    C       -4.32929       -17.07640         0.87150
| 62>    C       -4.45379       -15.70159         0.77590
| 63>    O       -4.11547       -17.88805        -0.19049
| 64>    C       -3.99912       -17.31536        -1.47522
| 65>    C       -4.18415       -19.08850         2.38176
| 66>    C       -4.38872       -20.19481         1.61893
| 67>    C       -3.72611       -21.46367         2.04093
| 68>    O       -3.17766       -21.67528         3.09781
| 69>    C       -3.84574       -22.37324         0.88443
| 70>    C       -3.31549       -23.61934         0.71404
| 71>    C       -3.54881       -24.30496        -0.49930
| 72>    C       -4.32774       -23.67977        -1.51588
| 73>    C       -4.55403       -24.36772        -2.72501
| 74>    C       -4.03399       -25.61720        -2.91491
| 75>    C       -3.26431       -26.23442        -1.90873
| 76>    C       -3.02617       -25.59313        -0.72550
| 77>    F       -2.76545       -27.45972        -2.12293
| 78>    F       -4.25183       -26.26934        -4.06481
| 79>    C       -4.86908       -22.39026        -1.30747
| 80>    C       -4.63567       -21.74700        -0.12129
| 81>    C       -5.08648       -20.45140         0.38049
| 82>    C       -6.12787       -19.72209        -0.12987
| 83>    C       -6.70219       -18.62300         0.53739
| 84>    N       -7.21288       -17.74095         1.06485
| 85>    C       -6.78255       -20.02247        -1.34071
| 86>    N       -7.32577       -20.20533        -2.33547
| 87>    H       -5.17959         3.96834         1.18321
| 88>    H       -6.02269         1.70203         5.51075
| 89>    H       -4.94755         1.81731         0.07435
| 90>    H       -5.78783        -0.52375         4.39365
| 91>    H       -4.85109        -3.43285        -1.07604
| 92>    H       -4.54384        -5.48681        -3.98257
| 93>    H       -5.50886        -6.82431        -3.30123
| 94>    H       -3.74023        -6.77141        -3.04366
| 95>    H       -4.83506        -7.93727        -1.34896
| 96>    H       -5.29253        -4.79655         2.40876
| 97>    H       -5.59547        -7.18385         5.04124
| 98>    H       -6.38264        -5.90347         4.08241
| 99>    H       -4.61596        -5.88329         4.31587
|100>    H       -5.20442       -14.35486         6.17476
|101>    H       -4.07516       -15.69095         5.84096
|102>    H       -5.83279       -15.91684         5.59185
|103>    H       -4.55358       -17.35158         4.24156
|104>    H       -4.42030       -15.19687        -0.17457
|105>    H       -3.81748       -18.15016        -2.15083
|106>    H       -3.16018       -16.61637        -1.52601
|107>    H       -4.92077       -16.80493        -1.76841
|108>    H       -3.73574       -19.31987         3.34595
|109>    H       -2.72639       -24.07698         1.49420
|110>    H       -5.14388       -23.91157        -3.50467
|111>    H       -2.43534       -26.07919         0.03502
|112>    H       -5.45088       -21.94015        -2.09598
|113> *
|114>
|115>                          ****END OF INPUT****

CARTESIAN COORDINATES (ANGSTROEM)
---------------------------------
  C     -5.362240    3.459730    2.116990
  C     -5.591710    4.188060    3.250140
  F     -5.590860    5.527040    3.202220
  C     -5.831420    3.543970    4.480790
  F     -6.053900    4.283850    5.576130
  C     -5.837750    2.179800    4.561290
  C     -5.604340    1.401270    3.410910
  C     -5.362170    2.050790    2.165880
  C     -5.124600    1.291280    0.997810
  C     -5.128080   -0.077800    1.070500
  C     -5.373390   -0.714430    2.315850
  C     -5.605620   -0.009720    3.461960
  C     -5.333960   -2.179060    2.142760
  O     -5.498950   -2.982120    3.040440
  C     -5.069840   -2.414100    0.704120
  C     -4.914970   -1.111090    0.061080
  C     -4.593710   -0.855360   -1.246630
  C     -4.334400   -1.789610   -2.274810
  N     -4.092110   -2.431330   -3.196880
  C     -4.451170    0.444530   -1.780570
  N     -4.316990    1.465450   -2.288200
  C     -4.997860   -3.577440   -0.012830
  C     -5.059730   -4.965720    0.305770
  C     -4.940610   -5.876690   -0.788620
  O     -4.835550   -5.336210   -2.019140
  C     -4.647740   -6.169050   -3.140750
  C     -4.935240   -7.235190   -0.536350
  C     -5.053900   -7.750920    0.756620
  C     -5.201650   -6.853860    1.847410
  C     -5.194660   -5.493030    1.594960
  O     -5.333060   -7.388700    3.073220
  C     -5.489650   -6.526950    4.179920
  C     -5.009620   -9.166720    0.967040
  N     -5.101180   -9.762880    2.111000
  C     -4.995990  -11.084430    1.991870
  C     -4.810620  -11.581180    0.688180
  S     -4.776840  -10.280440   -0.428280
  N     -4.685960  -12.900170    0.567180
  C     -4.766840  -13.483130    1.732150
  S     -5.012570  -12.392380    3.106000
  C     -4.646320  -14.900900    1.901360
  C     -4.696000  -15.503170    3.179670
  O     -4.890870  -14.670590    4.228150
  C     -5.004220  -15.206180    5.526840
  C     -4.529970  -16.868960    3.277510
  C     -4.375400  -17.688040    2.149740
  C     -4.329290  -17.076400    0.871500
  C     -4.453790  -15.701590    0.775900
  O     -4.115470  -17.888050   -0.190490
  C     -3.999120  -17.315360   -1.475220
  C     -4.184150  -19.088500    2.381760
  C     -4.388720  -20.194810    1.618930
  C     -3.726110  -21.463670    2.040930
  O     -3.177660  -21.675280    3.097810
  C     -3.845740  -22.373240    0.884430
  C     -3.315490  -23.619340    0.714040
  C     -3.548810  -24.304960   -0.499300
  C     -4.327740  -23.679770   -1.515880
  C     -4.554030  -24.367720   -2.725010
  C     -4.033990  -25.617200   -2.914910
  C     -3.264310  -26.234420   -1.908730
  C     -3.026170  -25.593130   -0.725500
  F     -2.765450  -27.459720   -2.122930
  F     -4.251830  -26.269340   -4.064810
  C     -4.869080  -22.390260   -1.307470
  C     -4.635670  -21.747000   -0.121290
  C     -5.086480  -20.451400    0.380490
  C     -6.127870  -19.722090   -0.129870
  C     -6.702190  -18.623000    0.537390
  N     -7.212880  -17.740950    1.064850
  C     -6.782550  -20.022470   -1.340710
  N     -7.325770  -20.205330   -2.335470
  H     -5.179590    3.968340    1.183210
  H     -6.022690    1.702030    5.510750
  H     -4.947550    1.817310    0.074350
  H     -5.787830   -0.523750    4.393650
  H     -4.851090   -3.432850   -1.076040
  H     -4.543840   -5.486810   -3.982570
  H     -5.508860   -6.824310   -3.301230
  H     -3.740230   -6.771410   -3.043660
  H     -4.835060   -7.937270   -1.348960
  H     -5.292530   -4.796550    2.408760
  H     -5.595470   -7.183850    5.041240
  H     -6.382640   -5.903470    4.082410
  H     -4.615960   -5.883290    4.315870
  H     -5.204420  -14.354860    6.174760
  H     -4.075160  -15.690950    5.840960
  H     -5.832790  -15.916840    5.591850
  H     -4.553580  -17.351580    4.241560
  H     -4.420300  -15.196870   -0.174570
  H     -3.817480  -18.150160   -2.150830
  H     -3.160180  -16.616370   -1.526010
  H     -4.920770  -16.804930   -1.768410
  H     -3.735740  -19.319870    3.345950
  H     -2.726390  -24.076980    1.494200
  H     -5.143880  -23.911570   -3.504670
  H     -2.435340  -26.079190    0.035020
  H     -5.450880  -21.940150   -2.095980

 Total Charge           Charge          ....    0
 Multiplicity           Mult            ....    1
 Number of Electrons    NEL             ....  508
 Basis Dimension        Dim             .... 1146

ORBITAL ENERGIES
----------------

  NO   OCC          E(Eh)            E(eV)
   0   2.0000     -88.965552     -2420.8758
   1   2.0000     -88.963624     -2420.8233
   2   2.0000     -24.797732      -674.7806
   3   2.0000     -24.797462      -674.7732
   4   2.0000     -24.797090      -674.7631
   5   2.0000     -24.796783      -674.7548
   6   2.0000     -19.267778      -524.3029
   7   2.0000     -19.265835      -524.2500
   8   2.0000     -19.258647      -524.0544
   9   2.0000     -19.240398      -523.5578
  10   2.0000     -19.220823      -523.0252
  11   2.0000     -19.215834      -522.8894
  12   2.0000     -14.420108      -392.3911
  13   2.0000     -14.417266      -392.3138
  14   2.0000     -14.415519      -392.2662
  15   2.0000     -14.414485      -392.2381
  16   2.0000     -14.413062      -392.1993
  17   2.0000     -14.412510      -392.1843
  18   2.0000     -10.380805      -282.4761
  19   2.0000     -10.380367      -282.4642
  20   2.0000     -10.380039      -282.4552
  21   2.0000     -10.379955      -282.4529
  22   2.0000     -10.371858      -282.2326
  23   2.0000     -10.365709      -282.0653
  24   2.0000     -10.350494      -281.6513
  25   2.0000     -10.349415      -281.6219
  26   2.0000     -10.348536      -281.5980
  27   2.0000     -10.345187      -281.5069
  28   2.0000     -10.344203      -281.4801
  29   2.0000     -10.340683      -281.3843
  30   2.0000     -10.339967      -281.3648
  31   2.0000     -10.339380      -281.3488
  32   2.0000     -10.338692      -281.3301
  33   2.0000     -10.338354      -281.3209
  34   2.0000     -10.335937      -281.2551
  35   2.0000     -10.334088      -281.2048
  36   2.0000     -10.327597      -281.0282
  37   2.0000     -10.326572      -281.0003
  38   2.0000     -10.319818      -280.8165
  39   2.0000     -10.319638      -280.8116
  40   2.0000     -10.317040      -280.7409
  41   2.0000     -10.316067      -280.7144
  42   2.0000     -10.315998      -280.7126
  43   2.0000     -10.314016      -280.6586
  44   2.0000     -10.313924      -280.6561
  45   2.0000     -10.312937      -280.6293
  46   2.0000     -10.309644      -280.5397
  47   2.0000     -10.309525      -280.5364
  48   2.0000     -10.309136      -280.5259
  49   2.0000     -10.309040      -280.5232
  50   2.0000     -10.306150      -280.4446
  51   2.0000     -10.305440      -280.4253
  52   2.0000     -10.304043      -280.3873
  53   2.0000     -10.302556      -280.3468
  54   2.0000     -10.302060      -280.3333
  55   2.0000     -10.301373      -280.3146
  56   2.0000     -10.300511      -280.2911
  57   2.0000     -10.300476      -280.2902
  58   2.0000     -10.300427      -280.2889
  59   2.0000     -10.300228      -280.2834
  60   2.0000     -10.300008      -280.2775
  61   2.0000     -10.299515      -280.2641
  62   2.0000     -10.299448      -280.2622
  63   2.0000     -10.298665      -280.2409
  64   2.0000     -10.295487      -280.1545
  65   2.0000     -10.294492      -280.1274
  66   2.0000     -10.292161      -280.0639
  67   2.0000     -10.291558      -280.0475
  68   2.0000     -10.290361      -280.0150
  69   2.0000     -10.285979      -279.8957
  70   2.0000     -10.283297      -279.8227
  71   2.0000     -10.273571      -279.5581
  72   2.0000      -8.060038      -219.3248
  73   2.0000      -8.059234      -219.3029
  74   2.0000      -6.029222      -164.0635
  75   2.0000      -6.028264      -164.0374
  76   2.0000      -6.025230      -163.9548
  77   2.0000      -6.024831      -163.9440
  78   2.0000      -6.022145      -163.8709
  79   2.0000      -6.021092      -163.8422
  80   2.0000      -1.320079       -35.9212
  81   2.0000      -1.319985       -35.9186
  82   2.0000      -1.305267       -35.5181
  83   2.0000      -1.305118       -35.5141
  84   2.0000      -1.173910       -31.9437
  85   2.0000      -1.170416       -31.8486
  86   2.0000      -1.165637       -31.7186
  87   2.0000      -1.151305       -31.3286
  88   2.0000      -1.135132       -30.8885
  89   2.0000      -1.130960       -30.7750
  90   2.0000      -1.089885       -29.6573
  91   2.0000      -1.049855       -28.5680
  92   2.0000      -1.018018       -27.7017
  93   2.0000      -1.017985       -27.7008
  94   2.0000      -1.003097       -27.2957
  95   2.0000      -1.003077       -27.2951
  96   2.0000      -0.994311       -27.0566
  97   2.0000      -0.991558       -26.9817
  98   2.0000      -0.980168       -26.6717
  99   2.0000      -0.979629       -26.6571
 100   2.0000      -0.969795       -26.3895
 101   2.0000      -0.964520       -26.2459
 102   2.0000      -0.930971       -25.3330
 103   2.0000      -0.930680       -25.3251
 104   2.0000      -0.917533       -24.9673
 105   2.0000      -0.911995       -24.8166
 106   2.0000      -0.901634       -24.5347
 107   2.0000      -0.895157       -24.3585
 108   2.0000      -0.892410       -24.2837
 109   2.0000      -0.888899       -24.1882
 110   2.0000      -0.886053       -24.1107
 111   2.0000      -0.877220       -23.8704
 112   2.0000      -0.861145       -23.4329
 113   2.0000      -0.856871       -23.3166
 114   2.0000      -0.853867       -23.2349
 115   2.0000      -0.847240       -23.0546
 116   2.0000      -0.839357       -22.8401
 117   2.0000      -0.839186       -22.8354
 118   2.0000      -0.822955       -22.3937
 119   2.0000      -0.817638       -22.2491
 120   2.0000      -0.810934       -22.0666
 121   2.0000      -0.801897       -21.8207
 122   2.0000      -0.790872       -21.5207
 123   2.0000      -0.776566       -21.1314
 124   2.0000      -0.767071       -20.8731
 125   2.0000      -0.765552       -20.8317
 126   2.0000      -0.761115       -20.7110
 127   2.0000      -0.754230       -20.5237
 128   2.0000      -0.736520       -20.0417
 129   2.0000      -0.728549       -19.8248
 130   2.0000      -0.720103       -19.5950
 131   2.0000      -0.716470       -19.4961
 132   2.0000      -0.713768       -19.4226
 133   2.0000      -0.705824       -19.2064
 134   2.0000      -0.695401       -18.9228
 135   2.0000      -0.689135       -18.7523
 136   2.0000      -0.686798       -18.6887
 137   2.0000      -0.681696       -18.5499
 138   2.0000      -0.674265       -18.3477
 139   2.0000      -0.669268       -18.2117
 140   2.0000      -0.659662       -17.9503
 141   2.0000      -0.656507       -17.8645
 142   2.0000      -0.655597       -17.8397
 143   2.0000      -0.652633       -17.7590
 144   2.0000      -0.647293       -17.6137
 145   2.0000      -0.642578       -17.4854
 146   2.0000      -0.640794       -17.4369
 147   2.0000      -0.637500       -17.3473
 148   2.0000      -0.624890       -17.0041
 149   2.0000      -0.620832       -16.8937
 150   2.0000      -0.614994       -16.7348
 151   2.0000      -0.614553       -16.7228
 152   2.0000      -0.611475       -16.6391
 153   2.0000      -0.610222       -16.6050
 154   2.0000      -0.601502       -16.3677
 155   2.0000      -0.595793       -16.2123
 156   2.0000      -0.584977       -15.9180
 157   2.0000      -0.584679       -15.9099
 158   2.0000      -0.584575       -15.9071
 159   2.0000      -0.584044       -15.8926
 160   2.0000      -0.578137       -15.7319
 161   2.0000      -0.576054       -15.6752
 162   2.0000      -0.573685       -15.6108
 163   2.0000      -0.570354       -15.5201
 164   2.0000      -0.568847       -15.4791
 165   2.0000      -0.565117       -15.3776
 166   2.0000      -0.560750       -15.2588
 167   2.0000      -0.555353       -15.1119
 168   2.0000      -0.553520       -15.0621
 169   2.0000      -0.551972       -15.0199
 170   2.0000      -0.551694       -15.0124
 171   2.0000      -0.548866       -14.9354
 172   2.0000      -0.546333       -14.8665
 173   2.0000      -0.546261       -14.8645
 174   2.0000      -0.544232       -14.8093
 175   2.0000      -0.540999       -14.7213
 176   2.0000      -0.538699       -14.6588
 177   2.0000      -0.537623       -14.6295
 178   2.0000      -0.536501       -14.5989
 179   2.0000      -0.533908       -14.5284
 180   2.0000      -0.531348       -14.4587
 181   2.0000      -0.530309       -14.4304
 182   2.0000      -0.527999       -14.3676
 183   2.0000      -0.523346       -14.2410
 184   2.0000      -0.522285       -14.2121
 185   2.0000      -0.518336       -14.1046
 186   2.0000      -0.515560       -14.0291
 187   2.0000      -0.515129       -14.0174
 188   2.0000      -0.511362       -13.9149
 189   2.0000      -0.509485       -13.8638
 190   2.0000      -0.504485       -13.7277
 191   2.0000      -0.501464       -13.6455
 192   2.0000      -0.500910       -13.6304
 193   2.0000      -0.498488       -13.5646
 194   2.0000      -0.496209       -13.5025
 195   2.0000      -0.493300       -13.4234
 196   2.0000      -0.492577       -13.4037
 197   2.0000      -0.491730       -13.3806
 198   2.0000      -0.489333       -13.3154
 199   2.0000      -0.486082       -13.2270
 200   2.0000      -0.485029       -13.1983
 201   2.0000      -0.484334       -13.1794
 202   2.0000      -0.480004       -13.0616
 203   2.0000      -0.469172       -12.7668
 204   2.0000      -0.468216       -12.7408
 205   2.0000      -0.467301       -12.7159
 206   2.0000      -0.462725       -12.5914
 207   2.0000      -0.462487       -12.5849
 208   2.0000      -0.457204       -12.4412
 209   2.0000      -0.451766       -12.2932
 210   2.0000      -0.450806       -12.2671
 211   2.0000      -0.447035       -12.1644
 212   2.0000      -0.446343       -12.1456
 213   2.0000      -0.445309       -12.1175
 214   2.0000      -0.445260       -12.1161
 215   2.0000      -0.442382       -12.0378
 216   2.0000      -0.441680       -12.0187
 217   2.0000      -0.439501       -11.9594
 218   2.0000      -0.431960       -11.7542
 219   2.0000      -0.430085       -11.7032
 220   2.0000      -0.429198       -11.6791
 221   2.0000      -0.426830       -11.6146
 222   2.0000      -0.424575       -11.5533
 223   2.0000      -0.420542       -11.4435
 224   2.0000      -0.419262       -11.4087
 225   2.0000      -0.418767       -11.3952
 226   2.0000      -0.417820       -11.3695
 227   2.0000      -0.412613       -11.2278
 228   2.0000      -0.411642       -11.2014
 229   2.0000      -0.407462       -11.0876
 230   2.0000      -0.401837       -10.9345
 231   2.0000      -0.400117       -10.8877
 232   2.0000      -0.396407       -10.7868
 233   2.0000      -0.392106       -10.6697
 234   2.0000      -0.388375       -10.5682
 235   2.0000      -0.386775       -10.5247
 236   2.0000      -0.384923       -10.4743
 237   2.0000      -0.375336       -10.2134
 238   2.0000      -0.368197       -10.0191
 239   2.0000      -0.367907       -10.0113
 240   2.0000      -0.357850        -9.7376
 241   2.0000      -0.339766        -9.2455
 242   2.0000      -0.338543        -9.2122
 243   2.0000      -0.331012        -9.0073
 244   2.0000      -0.326032        -8.8718
 245   2.0000      -0.321287        -8.7427
 246   2.0000      -0.318272        -8.6606
 247   2.0000      -0.315604        -8.5880
 248   2.0000      -0.311713        -8.4822
 249   2.0000      -0.301015        -8.1910
 250   2.0000      -0.296286        -8.0624
 251   2.0000      -0.291973        -7.9450
 252   2.0000      -0.278945        -7.5905
 253   2.0000      -0.252088        -6.8597
 254   0.0000      -0.098967        -2.6930
 255   0.0000      -0.087795        -2.3890
 256   0.0000      -0.061508        -1.6737
 257   0.0000      -0.057198        -1.5564
 258   0.0000      -0.044093        -1.1998

MULLIKEN ATOMIC CHARGES
-----------------------
   0 C :   -0.107612
   1 C :    0.242652
   2 F :   -0.171891
   3 C :    0.237986
   4 F :   -0.172637
   5 C :   -0.104883
   6 C :    0.118024
   7 C :    0.112991
   8 C :   -0.081807
   9 C :    0.044220
  10 C :    0.009270
  11 C :   -0.085270
  12 C :    0.162927
  13 O :   -0.160319
  14 C :   -0.045315
  15 C :    0.324577
  16 C :   -0.361601
  17 C :   -0.194590
  18 N :    0.158842
  19 C :   -0.188010
  20 N :    0.141418
  21 C :   -0.030917
  22 C :    0.032448
  23 C :    0.247730
  24 O :   -0.302047
  25 C :    0.175303
  26 C :   -0.169775
  27 C :    0.137370
  28 C :    0.200182
  29 C :   -0.162708
  30 O :   -0.272513
  31 C :    0.186912
  32 C :   -0.156876
  33 N :    0.021819
  34 C :   -0.062562
  35 C :   -0.038759
  36 S :    0.070063
  37 N :   -0.035387
  38 C :   -0.120300
  39 S :    0.154571
  40 C :    0.106175
  41 C :    0.242321
  42 O :   -0.334313
  43 C :    0.178061
  44 C :   -0.152007
  45 C :    0.081375
  46 C :    0.239845
  47 C :   -0.150384
  48 O :   -0.312272
  49 C :    0.174509
  50 C :   -0.004348
  51 C :   -0.102817
  52 C :    0.132888
  53 O :   -0.143808
  54 C :    0.014071
  55 C :   -0.087410
  56 C :    0.113343
  57 C :    0.117789
  58 C :   -0.111429
  59 C :    0.240723
  60 C :    0.238603
  61 C :   -0.105046
  62 F :   -0.172539
  63 F :   -0.171590
  64 C :   -0.096685
  65 C :    0.048461
  66 C :    0.313293
  67 C :   -0.336379
  68 C :   -0.211923
  69 N :    0.177919
  70 C :   -0.188768
  71 N :    0.148872
  72 H :    0.006810
  73 H :   -0.001848
  74 H :   -0.007095
  75 H :   -0.013951
  76 H :    0.027534
  77 H :    0.058211
  78 H :    0.026903
  79 H :    0.027188
  80 H :   -0.015944
  81 H :   -0.032914
  82 H :    0.033824
  83 H :    0.030598
  84 H :    0.028183
  85 H :    0.045316
  86 H :    0.031275
  87 H :    0.037189
  88 H :   -0.029817
  89 H :   -0.018442
  90 H :    0.042486
  91 H :    0.036076
  92 H :    0.041456
  93 H :    0.021169
  94 H :   -0.010342
  95 H :    0.005761
  96 H :   -0.001244
  97 H :   -0.008437
Sum of atomic charges:   -0.0000000

LOEWDIN ATOMIC CHARGES
----------------------
   0 C :   -0.028844
   1 C :    0.066267
   2 F :   -0.049499
   3 C :    0.067302
   4 F :   -0.050309
   5 C :   -0.033996
   6 C :   -0.009140
   7 C :   -0.006504
   8 C :    0.017247
   9 C :   -0.023248
  10 C :   -0.051458
  11 C :    0.028560
  12 C :    0.090174
  13 O :   -0.147242
  14 C :   -0.100581
  15 C :    0.077758
  16 C :   -0.140750
  17 C :   -0.025134
  18 N :   -0.049738
  19 C :   -0.015592
  20 N :   -0.058350
  21 C :    0.089901
  22 C :   -0.059989
  23 C :    0.071159
  24 O :   -0.082510
  25 C :    0.082175
  26 C :   -0.073069
  27 C :   -0.036081
  28 C :    0.051147
  29 C :   -0.030363
  30 O :   -0.075833
  31 C :    0.080087
  32 C :   -0.106611
  33 N :   -0.071192
  34 C :   -0.223424
  35 C :   -0.208220
  36 S :    0.388360
  37 N :   -0.102408
  38 C :   -0.111210
  39 S :    0.449820
  40 C :   -0.042048
  41 C :    0.047701
  42 O :   -0.104525
  43 C :    0.082730
  44 C :   -0.038594
  45 C :   -0.046221
  46 C :    0.062548
  47 C :   -0.030973
  48 O :   -0.078205
  49 C :    0.080369
  50 C :    0.073093
  51 C :   -0.086673
  52 C :    0.085054
  53 O :   -0.143039
  54 C :   -0.054976
  55 C :    0.030385
  56 C :   -0.011056
  57 C :   -0.005403
  58 C :   -0.031785
  59 C :    0.066548
  60 C :    0.065545
  61 C :   -0.032994
  62 F :   -0.050587
  63 F :   -0.049578
  64 C :    0.008378
  65 C :   -0.017047
  66 C :    0.068397
  67 C :   -0.132544
  68 C :   -0.019387
  69 N :   -0.047935
  70 C :   -0.019651
  71 N :   -0.057079
  72 H :    0.047727
  73 H :    0.044247
  74 H :    0.039747
  75 H :    0.038657
  76 H :    0.046195
  77 H :    0.037809
  78 H :    0.017288
  79 H :    0.018073
  80 H :    0.020877
  81 H :    0.028305
  82 H :    0.028984
  83 H :    0.019467
  84 H :    0.018503
  85 H :    0.033087
  86 H :    0.019143
  87 H :    0.021987
  88 H :    0.033293
  89 H :    0.036109
  90 H :    0.031126
  91 H :    0.021794
  92 H :    0.023288
  93 H :    0.045718
  94 H :    0.040100
  95 H :    0.046806
  96 H :    0.044437
  97 H :    0.038131

  Mayer bond orders larger than 0.100000
B(  0-C ,  1-C ) :   1.4411 B(  0-C ,  5-C ) :   0.1087 B(  0-C ,  7-C ) :   1.1881
B(  0-C , 72-H ) :   1.0073 B(  1-C ,  2-F ) :   1.1342 B(  1-C ,  3-C ) :   1.1898
B(  3-C ,  4-F ) :   1.1328 B(  3-C ,  5-C ) :   1.4452 B(  5-C ,  6-C ) :   1.1890
B(  5-C , 73-H ) :   1.0072 B(  6-C ,  7-C ) :   1.2558 B(  6-C , 11-C ) :   1.1879
B(  7-C ,  8-C ) :   1.2189 B(  8-C ,  9-C ) :   1.4469 B(  8-C , 74-H ) :   0.9887
B(  9-C , 10-C ) :   1.2254 B(  9-C , 15-C ) :   0.9748 B( 10-C , 11-C ) :   1.4653
B( 10-C , 12-C ) :   0.9604 B( 11-C , 75-H ) :   1.0172 B( 12-C , 13-O ) :   2.1379
B( 12-C , 14-C ) :   0.9264 B( 13-O , 81-H ) :   0.1283 B( 14-C , 15-C ) :   1.0879
B( 14-C , 21-C ) :   1.5196 B( 15-C , 16-C ) :   1.6141 B( 16-C , 17-C ) :   1.1349
B( 16-C , 19-C ) :   1.1546 B( 17-C , 18-N ) :   2.9796 B( 19-C , 20-N ) :   2.9561
B( 21-C , 22-C ) :   1.2223 B( 21-C , 76-H ) :   0.9178 B( 22-C , 23-C ) :   1.2542
B( 22-C , 29-C ) :   1.2750 B( 23-C , 24-O ) :   1.1734 B( 23-C , 26-C ) :   1.3363
B( 24-O , 25-C ) :   0.9455 B( 25-C , 77-H ) :   0.9738 B( 25-C , 78-H ) :   0.9698
B( 25-C , 79-H ) :   0.9690 B( 26-C , 27-C ) :   1.3026 B( 26-C , 80-H ) :   0.9811
B( 27-C , 28-C ) :   1.2882 B( 27-C , 32-C ) :   1.0639 B( 28-C , 29-C ) :   1.2914
B( 28-C , 30-O ) :   1.2349 B( 29-C , 81-H ) :   0.9697 B( 30-O , 31-C ) :   0.9551
B( 31-C , 82-H ) :   0.9751 B( 31-C , 83-H ) :   0.9680 B( 31-C , 84-H ) :   0.9683
B( 32-C , 33-N ) :   1.7510 B( 32-C , 36-S ) :   1.0613 B( 33-N , 34-C ) :   1.3921
B( 33-N , 36-S ) :   0.1078 B( 34-C , 35-C ) :   1.2760 B( 34-C , 39-S ) :   1.0704
B( 35-C , 36-S ) :   1.1040 B( 35-C , 37-N ) :   1.4107 B( 37-N , 38-C ) :   1.6945
B( 37-N , 39-S ) :   0.1023 B( 38-C , 39-S ) :   1.1054 B( 38-C , 40-C ) :   1.0655
B( 40-C , 41-C ) :   1.2922 B( 40-C , 47-C ) :   1.3633 B( 41-C , 42-O ) :   1.1323
B( 41-C , 44-C ) :   1.3202 B( 42-O , 43-C ) :   0.9437 B( 43-C , 85-H ) :   0.9770
B( 43-C , 86-H ) :   0.9708 B( 43-C , 87-H ) :   0.9709 B( 44-C , 45-C ) :   1.2758
B( 44-C , 88-H ) :   1.0032 B( 45-C , 46-C ) :   1.3051 B( 45-C , 50-C ) :   1.0912
B( 46-C , 47-C ) :   1.2579 B( 46-C , 48-O ) :   1.1690 B( 47-C , 89-H ) :   1.0009
B( 48-O , 49-C ) :   0.9388 B( 49-C , 90-H ) :   0.9761 B( 49-C , 91-H ) :   0.9710
B( 49-C , 92-H ) :   0.9696 B( 50-C , 51-C ) :   1.6607 B( 50-C , 93-H ) :   0.9321
B( 51-C , 52-C ) :   0.9377 B( 51-C , 66-C ) :   1.0403 B( 52-C , 53-O ) :   2.2580
B( 52-C , 54-C ) :   0.9206 B( 54-C , 55-C ) :   1.4744 B( 54-C , 65-C ) :   1.2172
B( 55-C , 56-C ) :   1.1914 B( 55-C , 94-H ) :   1.0165 B( 56-C , 57-C ) :   1.2581
B( 56-C , 61-C ) :   1.1925 B( 57-C , 58-C ) :   1.1893 B( 57-C , 64-C ) :   1.2123
B( 58-C , 59-C ) :   1.4414 B( 58-C , 61-C ) :   0.1091 B( 58-C , 95-H ) :   1.0067
B( 59-C , 60-C ) :   1.1927 B( 59-C , 63-F ) :   1.1342 B( 60-C , 61-C ) :   1.4429
B( 60-C , 62-F ) :   1.1320 B( 61-C , 96-H ) :   1.0068 B( 64-C , 65-C ) :   1.4541
B( 64-C , 97-H ) :   0.9932 B( 65-C , 66-C ) :   1.0000 B( 66-C , 67-C ) :   1.6453
B( 67-C , 68-C ) :   1.1711 B( 67-C , 70-C ) :   1.1407 B( 68-C , 69-N ) :   3.0045
B( 70-C , 71-N ) :   2.9744

-----------------------------------------------------------------------------
         ABSORPTION SPECTRUM VIA TRANSITION ELECTRIC DIPOLE MOMENTS
-----------------------------------------------------------------------------
State   Energy  Wavelength   fosc         T2         TX        TY        TZ
        (cm-1)    (nm)                  (au**2)     (au)      (au)      (au)
-----------------------------------------------------------------------------
   0   17959.5    556.8   1.975257719  36.20810   0.01521  -6.01339  -0.21693
   1   21222.5    471.2   0.213094073   3.30561  -0.20279  -1.79304  -0.22245
   2   24869.1    402.1   0.254587303   3.37018   0.06429  -1.66778   0.76455
   3   25338.6    394.7   0.031412417   0.40813  -0.10103  -0.38785  -0.49749
   4   26756.3    373.7   0.020537186   0.25269  -0.26129   0.25103   0.34843
   5   27729.1    360.6   0.092843736   1.10228   0.27594  -0.70150  -0.73078
   6   28589.7    349.8   0.090394733   1.04090  -0.63357   0.72962   0.32733
   7   28827.8    346.9   0.133548685   1.52512   0.41262  -0.63007   0.97871
   8   28978.5    345.1   0.003149947   0.03579  -0.01509   0.18857   0.00081
   9   29651.9    337.2   0.011177731   0.12410   0.15333  -0.27655  -0.15527
  10   29674.5    337.0   0.023449978   0.26016   0.01384  -0.43176   0.27120
  11   30406.0    328.9   0.016804141   0.18194  -0.21515   0.31732  -0.18698
  12   30531.0    327.5   0.033874625   0.36527   0.02270   0.03995   0.60262
  13   30839.9    324.3   0.156215188   1.66758  -0.04774   1.26842   0.23749
  14   32021.5    312.3   0.007777920   0.07996  -0.05175   0.26687   0.07791
  15   32042.0    312.1   0.477655947   4.90762  -0.13334   2.11765   0.63670
  16   32503.7    307.7   0.060319219   0.61094   0.54997   0.42688  -0.35531
  17   33513.4    298.4   0.173069908   1.70012   0.69067  -1.10328  -0.07652
  18   33861.8    295.3   0.199228266   1.93694   0.32946   0.08887   1.34926
  19   33966.8    294.4   0.455165982   4.41154  -0.64236   1.89301   0.64453
  20   34117.4    293.1   0.294973789   2.84632   0.35442  -1.24404  -1.08309
  21   34719.4    288.0   0.058289264   0.55270   0.07466  -0.20990   0.70927
  22   34959.8    286.0   0.255902764   2.40980   0.51888  -1.06475  -1.00343
  23   35277.8    283.5   0.211662183   1.97523   0.09612  -0.60889  -1.26303
  24   35610.0    280.8   0.385152754   3.56071   0.60671  -1.61784  -0.75842
  25   35901.8    278.5   0.146078497   1.33951  -0.55795   1.00266   0.15122
  26   36386.6    274.8   0.047859315   0.43301   0.13373  -0.47619  -0.43402
  27   37188.3    268.9   0.040708860   0.36038  -0.05926   0.00300   0.59738
  28   37519.8    266.5   0.002547400   0.02235  -0.03005   0.14322   0.03062
  29   38050.8    262.8   0.110772776   0.95840   0.31425  -0.91668   0.13905
  30   38199.2    261.8   0.010883546   0.09380  -0.11614  -0.28335  -0.00469
  31   38433.3    260.2   0.002172267   0.01861   0.09133   0.04100   0.09266
  32   38702.3    258.4   0.114659296   0.97532  -0.11958  -0.08202   0.97688
  33   38896.4    257.1   0.129730168   1.09801   0.22496   0.83347  -0.59391
  34   38990.4    256.5   0.042414969   0.35813  -0.51090  -0.16465  -0.26457
  35   39648.3    252.2   0.014404121   0.11960  -0.10557  -0.32686  -0.04022
  36   40171.9    248.9   0.023947551   0.19625   0.20740  -0.01868   0.39101

FINAL SINGLE POINT ENERGY     -4044.699541215585

DIPOLE MOMENT
-------------
                                X             Y             Z
Electronic contribution:     -1.67423       2.99522      -5.94669
Nuclear contribution   :      2.56844      -4.23392       7.91581
                        -----------------------------------------
Total Dipole Moment    :      0.89421      -1.23869       1.96912
                        -----------------------------------------
Magnitude (a.u.)       :      2.49227
Magnitude (Debye)      :      6.33484

Rotational constants in cm-1:     0.003242     0.000183     0.000176
Rotational constants in MHz :    97.204315     5.500119     5.268642

                             ****ORCA TERMINATED NORMALLY****
TOTAL RUN TIME: 0 days 0 hours 8 minutes 50 seconds 506 msec
