                         Program Version 4.2.0 -  RELEASE  -
|  1> # ORCA input file
|  2> # SCF done       -233.591238972662          0.000545263790
|  3> ! CAM-B3LYP def2-SVP def2/J RIJCOSX Grid4 TightSCF
|  4> %maxcore 5000
|  5> %tddft
|  6>     Mode sTDDFT
|  7>     Ethresh 5.0
|  8>     maxcore 5000
|  9> end
| 10>
| 11> %pal
| 12>   nprocs 6
| 13>   end
| 14> * xyz 0 1
| 15>    C       -8.18525         2.33011         0.96571
| 16>    C       -8.67715         2.94413         2.08280
| 17>    F       -9.03260         4.23431         2.04115
| 18>    C       -8.81739         2.23052         3.29070
| 19>    F       -9.30230         2.85833         4.36989
| 20>    C       -8.46350         0.91254         3.36443
| 21>    C       -7.95347         0.25100         2.23023
| 22>    C       -7.81257         0.97108         1.00820
| 23>    C       -7.30841         0.32735        -0.14378
| 24>    C       -6.96119        -0.99749        -0.07841
| 25>    C       -7.09865        -1.70740         1.14717
| 26>    C       -7.57709        -1.10951         2.27783
| 27>    C       -6.64530        -3.10152         0.96838
| 28>    O       -6.55191        -3.94661         1.82753
| 29>    C       -6.22591        -3.20078        -0.45871
| 30>    C       -6.44379        -1.90851        -1.09266
| 31>    C       -6.27923        -1.61680        -2.41871
| 32>    C       -5.86082        -2.53217        -3.40984
| 33>    N       -5.54744        -3.21443        -4.27787
| 34>    C       -6.53566        -0.35016        -2.98768
| 35>    N       -6.72185         0.65624        -3.50664
| 36>    C       -5.59934        -4.26674        -1.00772
| 37>    C       -5.50783        -5.59550        -0.44606
| 38>    C       -4.30002        -6.28780        -0.59453
| 39>    F       -3.28988        -5.59375        -1.17134
| 40>    C       -4.11455        -7.59602        -0.17094
| 41>    O       -3.01721        -8.37000        -0.32512
| 42>    C       -1.81250        -7.81042        -0.81215
| 43>    C       -5.22277        -8.21878         0.43605
| 44>    C       -6.42615        -7.54339         0.58746
| 45>    C       -6.62424        -6.23667         0.13593
| 46>    O       -7.77918        -5.55477         0.11752
| 47>    C       -8.97827        -6.14624         0.57916
| 48>    F       -7.40922        -8.19791         1.24433
| 49>    C       -5.11230        -9.62812         0.82819
| 50>    C       -5.98475       -10.58215         0.29409
| 51>    C       -5.84055       -11.98282         0.58495
| 52>    N       -6.73890       -12.87225         0.08877
| 53>    C       -7.67811       -12.43778        -0.67570
| 54>    C       -7.77175       -11.05486        -1.03335
| 55>    N       -6.95799       -10.17691        -0.56271
| 56>    F       -8.71468       -10.64171        -1.87438
| 57>    F       -8.57235       -13.30727        -1.12888
| 58>    C       -4.78827       -12.46380         1.37060
| 59>    C       -3.93907       -11.51234         1.94162
| 60>    C       -4.10688       -10.09724         1.67931
| 61>    N       -3.19066        -9.36776         2.32801
| 62>    S       -2.22943       -10.34909         3.14134
| 63>    N       -2.89031       -11.74469         2.74054
| 64>    C       -4.62196       -13.91048         1.56511
| 65>    C       -4.70327       -14.43242         2.85404
| 66>    F       -4.89944       -13.53745         3.85064
| 67>    C       -4.63994       -15.79449         3.13419
| 68>    O       -4.71065       -16.37634         4.34967
| 69>    C       -4.85659       -15.60163         5.52554
| 70>    C       -4.53008       -16.68075         2.03367
| 71>    C       -4.46416       -16.14309         0.74678
| 72>    C       -4.45710       -14.77791         0.47626
| 73>    O       -4.29094       -14.41172        -0.81660
| 74>    C       -3.48184       -13.29242        -1.11839
| 75>    F       -4.33878       -16.98931        -0.28601
| 76>    C       -4.54049       -18.11632         2.15433
| 77>    C       -4.09139       -18.95817         3.11396
| 78>    C       -4.55797       -20.37989         3.06937
| 79>    O       -5.14736       -20.91662         2.16339
| 80>    C       -4.18587       -20.95521         4.37581
| 81>    C       -4.46961       -22.19331         4.87605
| 82>    C       -4.01843       -22.53033         6.17144
| 83>    C       -3.28516       -21.56934         6.92681
| 84>    C       -2.83876       -21.91122         8.21951
| 85>    C       -3.10502       -23.14821         8.73565
| 86>    C       -3.83023       -24.09759         7.98729
| 87>    C       -4.27819       -23.79624         6.73179
| 88>    F       -4.07745       -25.30142         8.51972
| 89>    F       -2.67781       -23.47131         9.96301
| 90>    C       -3.00460       -20.29613         6.38057
| 91>    C       -3.44287       -19.99367         5.11800
| 92>    C       -3.26747       -18.79988         4.29492
| 93>    C       -2.34431       -17.81494         4.51972
| 94>    C       -2.02044       -16.80794         3.58908
| 95>    N       -1.70820       -15.97909         2.85917
| 96>    C       -1.56221       -17.71845         5.68957
| 97>    N       -0.92184       -17.57174         6.63063
| 98>    H       -8.08556         2.88979         0.04880
| 99>    H       -8.57640         0.38135         4.29651
|100>    H       -7.20733         0.90066        -1.05099
|101>    H       -7.67049        -1.66961         3.19584
|102>    H       -5.07927        -4.13949        -1.94971
|103>    H       -1.91110        -7.47510        -1.84702
|104>    H       -1.08487        -8.61901        -0.76323
|105>    H       -1.47474        -6.98031        -0.18841
|106>    H       -9.75330        -5.40872         0.37559
|107>    H       -8.93849        -6.34336         1.65217
|108>    H       -9.20392        -7.06986         0.04156
|109>    H       -4.86010       -16.32445         6.34064
|110>    H       -5.79672       -15.04702         5.52960
|111>    H       -4.02192       -14.90961         5.65686
|112>    H       -4.07736       -12.38412        -1.25031
|113>    H       -2.98739       -13.52926        -2.06131
|114>    H       -2.72831       -13.12306        -0.34660
|115>    H       -5.02674       -18.62415         1.32383
|116>    H       -5.02898       -22.90635         4.28984
|117>    H       -2.27938       -21.19837         8.80502
|118>    H       -4.83139       -24.53338         6.17121
|119>    H       -2.45265       -19.58865         6.97851
|120> *
|121>
|122>                          ****END OF INPUT****

CARTESIAN COORDINATES (ANGSTROEM)
---------------------------------
  C     -8.185250    2.330110    0.965710
  C     -8.677150    2.944130    2.082800
  F     -9.032600    4.234310    2.041150
  C     -8.817390    2.230520    3.290700
  F     -9.302300    2.858330    4.369890
  C     -8.463500    0.912540    3.364430
  C     -7.953470    0.251000    2.230230
  C     -7.812570    0.971080    1.008200
  C     -7.308410    0.327350   -0.143780
  C     -6.961190   -0.997490   -0.078410
  C     -7.098650   -1.707400    1.147170
  C     -7.577090   -1.109510    2.277830
  C     -6.645300   -3.101520    0.968380
  O     -6.551910   -3.946610    1.827530
  C     -6.225910   -3.200780   -0.458710
  C     -6.443790   -1.908510   -1.092660
  C     -6.279230   -1.616800   -2.418710
  C     -5.860820   -2.532170   -3.409840
  N     -5.547440   -3.214430   -4.277870
  C     -6.535660   -0.350160   -2.987680
  N     -6.721850    0.656240   -3.506640
  C     -5.599340   -4.266740   -1.007720
  C     -5.507830   -5.595500   -0.446060
  C     -4.300020   -6.287800   -0.594530
  F     -3.289880   -5.593750   -1.171340
  C     -4.114550   -7.596020   -0.170940
  O     -3.017210   -8.370000   -0.325120
  C     -1.812500   -7.810420   -0.812150
  C     -5.222770   -8.218780    0.436050
  C     -6.426150   -7.543390    0.587460
  C     -6.624240   -6.236670    0.135930
  O     -7.779180   -5.554770    0.117520
  C     -8.978270   -6.146240    0.579160
  F     -7.409220   -8.197910    1.244330
  C     -5.112300   -9.628120    0.828190
  C     -5.984750  -10.582150    0.294090
  C     -5.840550  -11.982820    0.584950
  N     -6.738900  -12.872250    0.088770
  C     -7.678110  -12.437780   -0.675700
  C     -7.771750  -11.054860   -1.033350
  N     -6.957990  -10.176910   -0.562710
  F     -8.714680  -10.641710   -1.874380
  F     -8.572350  -13.307270   -1.128880
  C     -4.788270  -12.463800    1.370600
  C     -3.939070  -11.512340    1.941620
  C     -4.106880  -10.097240    1.679310
  N     -3.190660   -9.367760    2.328010
  S     -2.229430  -10.349090    3.141340
  N     -2.890310  -11.744690    2.740540
  C     -4.621960  -13.910480    1.565110
  C     -4.703270  -14.432420    2.854040
  F     -4.899440  -13.537450    3.850640
  C     -4.639940  -15.794490    3.134190
  O     -4.710650  -16.376340    4.349670
  C     -4.856590  -15.601630    5.525540
  C     -4.530080  -16.680750    2.033670
  C     -4.464160  -16.143090    0.746780
  C     -4.457100  -14.777910    0.476260
  O     -4.290940  -14.411720   -0.816600
  C     -3.481840  -13.292420   -1.118390
  F     -4.338780  -16.989310   -0.286010
  C     -4.540490  -18.116320    2.154330
  C     -4.091390  -18.958170    3.113960
  C     -4.557970  -20.379890    3.069370
  O     -5.147360  -20.916620    2.163390
  C     -4.185870  -20.955210    4.375810
  C     -4.469610  -22.193310    4.876050
  C     -4.018430  -22.530330    6.171440
  C     -3.285160  -21.569340    6.926810
  C     -2.838760  -21.911220    8.219510
  C     -3.105020  -23.148210    8.735650
  C     -3.830230  -24.097590    7.987290
  C     -4.278190  -23.796240    6.731790
  F     -4.077450  -25.301420    8.519720
  F     -2.677810  -23.471310    9.963010
  C     -3.004600  -20.296130    6.380570
  C     -3.442870  -19.993670    5.118000
  C     -3.267470  -18.799880    4.294920
  C     -2.344310  -17.814940    4.519720
  C     -2.020440  -16.807940    3.589080
  N     -1.708200  -15.979090    2.859170
  C     -1.562210  -17.718450    5.689570
  N     -0.921840  -17.571740    6.630630
  H     -8.085560    2.889790    0.048800
  H     -8.576400    0.381350    4.296510
  H     -7.207330    0.900660   -1.050990
  H     -7.670490   -1.669610    3.195840
  H     -5.079270   -4.139490   -1.949710
  H     -1.911100   -7.475100   -1.847020
  H     -1.084870   -8.619010   -0.763230
  H     -1.474740   -6.980310   -0.188410
  H     -9.753300   -5.408720    0.375590
  H     -8.938490   -6.343360    1.652170
  H     -9.203920   -7.069860    0.041560
  H     -4.860100  -16.324450    6.340640
  H     -5.796720  -15.047020    5.529600
  H     -4.021920  -14.909610    5.656860
  H     -4.077360  -12.384120   -1.250310
  H     -2.987390  -13.529260   -2.061310
  H     -2.728310  -13.123060   -0.346600
  H     -5.026740  -18.624150    1.323830
  H     -5.028980  -22.906350    4.289840
  H     -2.279380  -21.198370    8.805020
  H     -4.831390  -24.533380    6.171210
  H     -2.452650  -19.588650    6.978510

 Total Charge           Charge          ....    0
 Multiplicity           Mult            ....    1
 Number of Electrons    NEL             ....  580
 Basis Dimension        Dim             .... 1276

ORBITAL ENERGIES
----------------

  NO   OCC          E(Eh)            E(eV)
   0   2.0000     -89.042948     -2422.9818
   1   2.0000     -24.816662      -675.2957
   2   2.0000     -24.815761      -675.2712
   3   2.0000     -24.801143      -674.8734
   4   2.0000     -24.800772      -674.8633
   5   2.0000     -24.800102      -674.8451
   6   2.0000     -24.798459      -674.8004
   7   2.0000     -24.797985      -674.7875
   8   2.0000     -24.794958      -674.7051
   9   2.0000     -24.793588      -674.6678
  10   2.0000     -24.787029      -674.4894
  11   2.0000     -19.268776      -524.3300
  12   2.0000     -19.260873      -524.1150
  13   2.0000     -19.260012      -524.0916
  14   2.0000     -19.249333      -523.8010
  15   2.0000     -19.219071      -522.9775
  16   2.0000     -19.216248      -522.9007
  17   2.0000     -14.453928      -393.3114
  18   2.0000     -14.453255      -393.2931
  19   2.0000     -14.447209      -393.1285
  20   2.0000     -14.447002      -393.1229
  21   2.0000     -14.420071      -392.3901
  22   2.0000     -14.419554      -392.3760
  23   2.0000     -14.419268      -392.3682
  24   2.0000     -14.415880      -392.2761
  25   2.0000     -10.432432      -283.8809
  26   2.0000     -10.432056      -283.8707
  27   2.0000     -10.384517      -282.5771
  28   2.0000     -10.383617      -282.5526
  29   2.0000     -10.381349      -282.4909
  30   2.0000     -10.381006      -282.4815
  31   2.0000     -10.372870      -282.2602
  32   2.0000     -10.370190      -282.1872
  33   2.0000     -10.369432      -282.1666
  34   2.0000     -10.367677      -282.1188
  35   2.0000     -10.365930      -282.0713
  36   2.0000     -10.364204      -282.0243
  37   2.0000     -10.359981      -281.9094
  38   2.0000     -10.359925      -281.9079
  39   2.0000     -10.356056      -281.8026
  40   2.0000     -10.348133      -281.5870
  41   2.0000     -10.347140      -281.5600
  42   2.0000     -10.347071      -281.5581
  43   2.0000     -10.346770      -281.5499
  44   2.0000     -10.344836      -281.4973
  45   2.0000     -10.343879      -281.4713
  46   2.0000     -10.339034      -281.3394
  47   2.0000     -10.337941      -281.3097
  48   2.0000     -10.337659      -281.3020
  49   2.0000     -10.331158      -281.1251
  50   2.0000     -10.328372      -281.0493
  51   2.0000     -10.326204      -280.9903
  52   2.0000     -10.326082      -280.9870
  53   2.0000     -10.322475      -280.8888
  54   2.0000     -10.322020      -280.8765
  55   2.0000     -10.321577      -280.8644
  56   2.0000     -10.321418      -280.8601
  57   2.0000     -10.318750      -280.7875
  58   2.0000     -10.317850      -280.7630
  59   2.0000     -10.316817      -280.7349
  60   2.0000     -10.315867      -280.7090
  61   2.0000     -10.313684      -280.6496
  62   2.0000     -10.313290      -280.6389
  63   2.0000     -10.310794      -280.5710
  64   2.0000     -10.310471      -280.5622
  65   2.0000     -10.310180      -280.5543
  66   2.0000     -10.309481      -280.5352
  67   2.0000     -10.308947      -280.5207
  68   2.0000     -10.307725      -280.4874
  69   2.0000     -10.305572      -280.4289
  70   2.0000     -10.305535      -280.4279
  71   2.0000     -10.305143      -280.4172
  72   2.0000     -10.303993      -280.3859
  73   2.0000     -10.303614      -280.3756
  74   2.0000     -10.303211      -280.3646
  75   2.0000     -10.302920      -280.3567
  76   2.0000     -10.302789      -280.3532
  77   2.0000     -10.301962      -280.3306
  78   2.0000     -10.301275      -280.3119
  79   2.0000     -10.300573      -280.2928
  80   2.0000     -10.297660      -280.2136
  81   2.0000     -10.295983      -280.1680
  82   2.0000     -10.293008      -280.0870
  83   2.0000      -8.134224      -221.3435
  84   2.0000      -6.105065      -166.1273
  85   2.0000      -6.097520      -165.9219
  86   2.0000      -6.097307      -165.9162
  87   2.0000      -1.345417       -36.6107
  88   2.0000      -1.331068       -36.2202
  89   2.0000      -1.323791       -36.0222
  90   2.0000      -1.321298       -35.9544
  91   2.0000      -1.313511       -35.7425
  92   2.0000      -1.308902       -35.6170
  93   2.0000      -1.308821       -35.6148
  94   2.0000      -1.306833       -35.5607
  95   2.0000      -1.306457       -35.5505
  96   2.0000      -1.302928       -35.4545
  97   2.0000      -1.171781       -31.8858
  98   2.0000      -1.168055       -31.7844
  99   2.0000      -1.164451       -31.6863
 100   2.0000      -1.154888       -31.4261
 101   2.0000      -1.138415       -30.9778
 102   2.0000      -1.133405       -30.8415
 103   2.0000      -1.132345       -30.8127
 104   2.0000      -1.112968       -30.2854
 105   2.0000      -1.039311       -28.2811
 106   2.0000      -1.023205       -27.8428
 107   2.0000      -1.020102       -27.7584
 108   2.0000      -1.007412       -27.4131
 109   2.0000      -1.004656       -27.3381
 110   2.0000      -0.998196       -27.1623
 111   2.0000      -0.996823       -27.1249
 112   2.0000      -0.992657       -27.0116
 113   2.0000      -0.987755       -26.8782
 114   2.0000      -0.984115       -26.7791
 115   2.0000      -0.980777       -26.6883
 116   2.0000      -0.974353       -26.5135
 117   2.0000      -0.965120       -26.2622
 118   2.0000      -0.935738       -25.4627
 119   2.0000      -0.931575       -25.3495
 120   2.0000      -0.919316       -25.0158
 121   2.0000      -0.909571       -24.7507
 122   2.0000      -0.899686       -24.4817
 123   2.0000      -0.895675       -24.3726
 124   2.0000      -0.892868       -24.2962
 125   2.0000      -0.888912       -24.1885
 126   2.0000      -0.882182       -24.0054
 127   2.0000      -0.875151       -23.8141
 128   2.0000      -0.863127       -23.4869
 129   2.0000      -0.861172       -23.4337
 130   2.0000      -0.850505       -23.1434
 131   2.0000      -0.843437       -22.9511
 132   2.0000      -0.840647       -22.8752
 133   2.0000      -0.835187       -22.7266
 134   2.0000      -0.818383       -22.2693
 135   2.0000      -0.816807       -22.2265
 136   2.0000      -0.811429       -22.0801
 137   2.0000      -0.804117       -21.8811
 138   2.0000      -0.794556       -21.6210
 139   2.0000      -0.780801       -21.2467
 140   2.0000      -0.773447       -21.0466
 141   2.0000      -0.770158       -20.9571
 142   2.0000      -0.766981       -20.8706
 143   2.0000      -0.766059       -20.8455
 144   2.0000      -0.758377       -20.6365
 145   2.0000      -0.745535       -20.2870
 146   2.0000      -0.743118       -20.2213
 147   2.0000      -0.731553       -19.9066
 148   2.0000      -0.725510       -19.7421
 149   2.0000      -0.717756       -19.5311
 150   2.0000      -0.717500       -19.5242
 151   2.0000      -0.711578       -19.3630
 152   2.0000      -0.709507       -19.3067
 153   2.0000      -0.698669       -19.0117
 154   2.0000      -0.690010       -18.7761
 155   2.0000      -0.684480       -18.6257
 156   2.0000      -0.683639       -18.6028
 157   2.0000      -0.682502       -18.5718
 158   2.0000      -0.680469       -18.5165
 159   2.0000      -0.673179       -18.3181
 160   2.0000      -0.663791       -18.0627
 161   2.0000      -0.660744       -17.9798
 162   2.0000      -0.657152       -17.8820
 163   2.0000      -0.653942       -17.7947
 164   2.0000      -0.652012       -17.7421
 165   2.0000      -0.646531       -17.5930
 166   2.0000      -0.645632       -17.5685
 167   2.0000      -0.644241       -17.5307
 168   2.0000      -0.642903       -17.4943
 169   2.0000      -0.639471       -17.4009
 170   2.0000      -0.630340       -17.1524
 171   2.0000      -0.628213       -17.0945
 172   2.0000      -0.625946       -17.0328
 173   2.0000      -0.620717       -16.8906
 174   2.0000      -0.618278       -16.8242
 175   2.0000      -0.615290       -16.7429
 176   2.0000      -0.613663       -16.6986
 177   2.0000      -0.608293       -16.5525
 178   2.0000      -0.607284       -16.5250
 179   2.0000      -0.603559       -16.4237
 180   2.0000      -0.595696       -16.2097
 181   2.0000      -0.590887       -16.0788
 182   2.0000      -0.588196       -16.0056
 183   2.0000      -0.587890       -15.9973
 184   2.0000      -0.586967       -15.9722
 185   2.0000      -0.585707       -15.9379
 186   2.0000      -0.582391       -15.8477
 187   2.0000      -0.580495       -15.7961
 188   2.0000      -0.578311       -15.7366
 189   2.0000      -0.575236       -15.6530
 190   2.0000      -0.574951       -15.6452
 191   2.0000      -0.572131       -15.5685
 192   2.0000      -0.569468       -15.4960
 193   2.0000      -0.566256       -15.4086
 194   2.0000      -0.561945       -15.2913
 195   2.0000      -0.558153       -15.1881
 196   2.0000      -0.557284       -15.1645
 197   2.0000      -0.556724       -15.1492
 198   2.0000      -0.554486       -15.0883
 199   2.0000      -0.551753       -15.0140
 200   2.0000      -0.550275       -14.9737
 201   2.0000      -0.549770       -14.9600
 202   2.0000      -0.547415       -14.8959
 203   2.0000      -0.547176       -14.8894
 204   2.0000      -0.546077       -14.8595
 205   2.0000      -0.544655       -14.8208
 206   2.0000      -0.543205       -14.7814
 207   2.0000      -0.539232       -14.6732
 208   2.0000      -0.538749       -14.6601
 209   2.0000      -0.536818       -14.6076
 210   2.0000      -0.534152       -14.5350
 211   2.0000      -0.533762       -14.5244
 212   2.0000      -0.531069       -14.4511
 213   2.0000      -0.526077       -14.3153
 214   2.0000      -0.524773       -14.2798
 215   2.0000      -0.524057       -14.2603
 216   2.0000      -0.519581       -14.1385
 217   2.0000      -0.517473       -14.0812
 218   2.0000      -0.516431       -14.0528
 219   2.0000      -0.515884       -14.0379
 220   2.0000      -0.514403       -13.9976
 221   2.0000      -0.512679       -13.9507
 222   2.0000      -0.510386       -13.8883
 223   2.0000      -0.509242       -13.8572
 224   2.0000      -0.505504       -13.7555
 225   2.0000      -0.504299       -13.7227
 226   2.0000      -0.500468       -13.6184
 227   2.0000      -0.498699       -13.5703
 228   2.0000      -0.494412       -13.4536
 229   2.0000      -0.493741       -13.4354
 230   2.0000      -0.493220       -13.4212
 231   2.0000      -0.489570       -13.3219
 232   2.0000      -0.486244       -13.2314
 233   2.0000      -0.484987       -13.1972
 234   2.0000      -0.482811       -13.1380
 235   2.0000      -0.480557       -13.0766
 236   2.0000      -0.474937       -12.9237
 237   2.0000      -0.473063       -12.8727
 238   2.0000      -0.470503       -12.8030
 239   2.0000      -0.467472       -12.7206
 240   2.0000      -0.465722       -12.6730
 241   2.0000      -0.464350       -12.6356
 242   2.0000      -0.458654       -12.4806
 243   2.0000      -0.453091       -12.3292
 244   2.0000      -0.452994       -12.3266
 245   2.0000      -0.449821       -12.2403
 246   2.0000      -0.448841       -12.2136
 247   2.0000      -0.447063       -12.1652
 248   2.0000      -0.446747       -12.1566
 249   2.0000      -0.444513       -12.0958
 250   2.0000      -0.443588       -12.0706
 251   2.0000      -0.442195       -12.0327
 252   2.0000      -0.432750       -11.7757
 253   2.0000      -0.432556       -11.7705
 254   2.0000      -0.430146       -11.7049
 255   2.0000      -0.428544       -11.6613
 256   2.0000      -0.428339       -11.6557
 257   2.0000      -0.427214       -11.6251
 258   2.0000      -0.424526       -11.5519
 259   2.0000      -0.421589       -11.4720
 260   2.0000      -0.420304       -11.4370
 261   2.0000      -0.418569       -11.3898
 262   2.0000      -0.414678       -11.2840
 263   2.0000      -0.413627       -11.2554
 264   2.0000      -0.413198       -11.2437
 265   2.0000      -0.412617       -11.2279
 266   2.0000      -0.408450       -11.1145
 267   2.0000      -0.401093       -10.9143
 268   2.0000      -0.400948       -10.9103
 269   2.0000      -0.396410       -10.7869
 270   2.0000      -0.387517       -10.5449
 271   2.0000      -0.385500       -10.4900
 272   2.0000      -0.379054       -10.3146
 273   2.0000      -0.375718       -10.2238
 274   2.0000      -0.373312       -10.1583
 275   2.0000      -0.369127       -10.0445
 276   2.0000      -0.356470        -9.7000
 277   2.0000      -0.353396        -9.6164
 278   2.0000      -0.341661        -9.2971
 279   2.0000      -0.338923        -9.2226
 280   2.0000      -0.336866        -9.1666
 281   2.0000      -0.321864        -8.7584
 282   2.0000      -0.318273        -8.6606
 283   2.0000      -0.316758        -8.6194
 284   2.0000      -0.308976        -8.4077
 285   2.0000      -0.302291        -8.2258
 286   2.0000      -0.299488        -8.1495
 287   2.0000      -0.289970        -7.8905
 288   2.0000      -0.281459        -7.6589
 289   2.0000      -0.276906        -7.5350
 290   0.0000      -0.105770        -2.8781
 291   0.0000      -0.092807        -2.5254
 292   0.0000      -0.086954        -2.3661
 293   0.0000      -0.060278        -1.6402
 294   0.0000      -0.056239        -1.5303

MULLIKEN ATOMIC CHARGES
-----------------------
   0 C :   -0.110420
   1 C :    0.245056
   2 F :   -0.169804
   3 C :    0.240636
   4 F :   -0.171196
   5 C :   -0.108353
   6 C :    0.120278
   7 C :    0.116071
   8 C :   -0.088812
   9 C :    0.051959
  10 C :   -0.009626
  11 C :   -0.084815
  12 C :    0.153063
  13 O :   -0.135021
  14 C :   -0.053557
  15 C :    0.308320
  16 C :   -0.339253
  17 C :   -0.199947
  18 N :    0.163395
  19 C :   -0.180813
  20 N :    0.149737
  21 C :   -0.031736
  22 C :   -0.030615
  23 C :    0.112711
  24 F :   -0.187670
  25 C :    0.190527
  26 O :   -0.303694
  27 C :    0.182719
  28 C :   -0.129337
  29 C :    0.175539
  30 C :    0.163732
  31 O :   -0.297821
  32 C :    0.182099
  33 F :   -0.189791
  34 C :    0.043155
  35 C :   -0.036884
  36 C :   -0.073096
  37 N :    0.046072
  38 C :    0.132028
  39 C :    0.125226
  40 N :    0.029674
  41 F :   -0.138801
  42 F :   -0.134203
  43 C :   -0.032293
  44 C :    0.020955
  45 C :    0.024217
  46 N :   -0.260083
  47 S :    0.541282
  48 N :   -0.260254
  49 C :   -0.116613
  50 C :    0.191813
  51 F :   -0.190451
  52 C :    0.122587
  53 O :   -0.307993
  54 C :    0.181800
  55 C :   -0.042248
  56 C :    0.180343
  57 C :    0.161232
  58 O :   -0.308296
  59 C :    0.213849
  60 F :   -0.166619
  61 C :    0.008920
  62 C :   -0.099186
  63 C :    0.131188
  64 O :   -0.134464
  65 C :    0.014224
  66 C :   -0.084921
  67 C :    0.114700
  68 C :    0.117149
  69 C :   -0.109810
  70 C :    0.241716
  71 C :    0.237506
  72 C :   -0.105873
  73 F :   -0.171275
  74 F :   -0.170621
  75 C :   -0.096330
  76 C :    0.043562
  77 C :    0.322331
  78 C :   -0.338443
  79 C :   -0.200257
  80 N :    0.171024
  81 C :   -0.185449
  82 N :    0.149045
  83 H :    0.007428
  84 H :   -0.000620
  85 H :   -0.005458
  86 H :   -0.012055
  87 H :    0.042825
  88 H :    0.033234
  89 H :    0.032339
  90 H :    0.031601
  91 H :    0.033796
  92 H :    0.036369
  93 H :    0.033816
  94 H :    0.035730
  95 H :    0.036020
  96 H :    0.041787
  97 H :    0.017038
  98 H :    0.040630
  99 H :    0.031053
 100 H :    0.039228
 101 H :   -0.008359
 102 H :    0.005298
 103 H :    0.000588
 104 H :   -0.006984
Sum of atomic charges:    0.0000000

LOEWDIN ATOMIC CHARGES
----------------------
   0 C :   -0.029034
   1 C :    0.066529
   2 F :   -0.047981
   3 C :    0.068072
   4 F :   -0.048671
   5 C :   -0.033865
   6 C :   -0.008138
   7 C :   -0.006735
   8 C :    0.017892
   9 C :   -0.023864
  10 C :   -0.051453
  11 C :    0.028261
  12 C :    0.081918
  13 O :   -0.130377
  14 C :   -0.076893
  15 C :    0.075190
  16 C :   -0.131124
  17 C :   -0.023104
  18 N :   -0.044120
  19 C :   -0.016699
  20 N :   -0.050065
  21 C :    0.086159
  22 C :   -0.070096
  23 C :    0.063340
  24 F :   -0.059811
  25 C :    0.029800
  26 O :   -0.094990
  27 C :    0.078688
  28 C :   -0.040065
  29 C :    0.061543
  30 C :    0.048502
  31 O :   -0.077095
  32 C :    0.080162
  33 F :   -0.057236
  34 C :   -0.006993
  35 C :   -0.006375
  36 C :   -0.008560
  37 N :   -0.033084
  38 C :    0.057814
  39 C :    0.056701
  40 N :   -0.037451
  41 F :   -0.028213
  42 F :   -0.023619
  43 C :   -0.019530
  44 C :   -0.046625
  45 C :   -0.041145
  46 N :   -0.283587
  47 S :    0.688790
  48 N :   -0.284588
  49 C :   -0.046474
  50 C :    0.061953
  51 F :   -0.059642
  52 C :    0.037819
  53 O :   -0.078554
  54 C :    0.079349
  55 C :   -0.078017
  56 C :    0.089758
  57 C :    0.028721
  58 O :   -0.100215
  59 C :    0.082564
  60 F :   -0.045548
  61 C :    0.082138
  62 C :   -0.080982
  63 C :    0.084947
  64 O :   -0.133811
  65 C :   -0.054917
  66 C :    0.031498
  67 C :   -0.010177
  68 C :   -0.005501
  69 C :   -0.031486
  70 C :    0.066490
  71 C :    0.065962
  72 C :   -0.032765
  73 F :   -0.049249
  74 F :   -0.048889
  75 C :    0.009708
  76 C :   -0.018557
  77 C :    0.070822
  78 C :   -0.130339
  79 C :   -0.017229
  80 N :   -0.046115
  81 C :   -0.018730
  82 N :   -0.055234
  83 H :    0.047878
  84 H :    0.044739
  85 H :    0.040069
  86 H :    0.039598
  87 H :    0.046545
  88 H :    0.018310
  89 H :    0.025470
  90 H :    0.019375
  91 H :    0.026274
  92 H :    0.020554
  93 H :    0.019473
  94 H :    0.026568
  95 H :    0.020360
  96 H :    0.022234
  97 H :    0.011686
  98 H :    0.028753
  99 H :    0.022793
 100 H :    0.050925
 101 H :    0.040831
 102 H :    0.046720
 103 H :    0.045013
 104 H :    0.038359

  Mayer bond orders larger than 0.100000
B(  0-C ,  1-C ) :   1.4429 B(  0-C ,  5-C ) :   0.1088 B(  0-C ,  7-C ) :   1.1840
B(  0-C , 83-H ) :   1.0076 B(  1-C ,  2-F ) :   1.1365 B(  1-C ,  3-C ) :   1.1881
B(  3-C ,  4-F ) :   1.1339 B(  3-C ,  5-C ) :   1.4437 B(  5-C ,  6-C ) :   1.1906
B(  5-C , 84-H ) :   1.0074 B(  6-C ,  7-C ) :   1.2566 B(  6-C , 11-C ) :   1.1879
B(  7-C ,  8-C ) :   1.2222 B(  8-C ,  9-C ) :   1.4395 B(  8-C , 85-H ) :   0.9899
B(  9-C , 10-C ) :   1.2225 B(  9-C , 15-C ) :   0.9927 B( 10-C , 11-C ) :   1.4716
B( 10-C , 12-C ) :   0.9377 B( 11-C , 86-H ) :   1.0171 B( 12-C , 13-O ) :   2.2450
B( 12-C , 14-C ) :   0.9274 B( 14-C , 15-C ) :   1.0483 B( 14-C , 21-C ) :   1.6969
B( 15-C , 16-C ) :   1.6563 B( 16-C , 17-C ) :   1.1390 B( 16-C , 19-C ) :   1.1397
B( 17-C , 18-N ) :   2.9858 B( 19-C , 20-N ) :   2.9648 B( 21-C , 22-C ) :   1.0581
B( 21-C , 87-H ) :   0.9347 B( 22-C , 23-C ) :   1.3035 B( 22-C , 28-C ) :   0.1224
B( 22-C , 30-C ) :   1.3367 B( 23-C , 24-F ) :   1.1288 B( 23-C , 25-C ) :   1.2674
B( 25-C , 26-O ) :   1.2080 B( 25-C , 28-C ) :   1.3660 B( 26-O , 27-C ) :   0.9308
B( 27-C , 88-H ) :   0.9759 B( 27-C , 89-H ) :   0.9792 B( 27-C , 90-H ) :   0.9746
B( 28-C , 29-C ) :   1.3849 B( 28-C , 34-C ) :   0.9166 B( 29-C , 30-C ) :   1.2399
B( 29-C , 33-F ) :   1.1265 B( 30-C , 31-O ) :   1.2092 B( 31-O , 32-C ) :   0.9265
B( 32-C , 91-H ) :   0.9788 B( 32-C , 92-H ) :   0.9754 B( 32-C , 93-H ) :   0.9749
B( 34-C , 35-C ) :   1.4148 B( 34-C , 43-C ) :   0.1444 B( 34-C , 45-C ) :   1.2833
B( 35-C , 36-C ) :   1.1058 B( 35-C , 40-N ) :   1.3920 B( 36-C , 37-N ) :   1.4119
B( 36-C , 43-C ) :   1.4048 B( 37-N , 38-C ) :   1.7178 B( 38-C , 39-C ) :   1.0692
B( 38-C , 42-F ) :   1.1824 B( 39-C , 40-N ) :   1.7248 B( 39-C , 41-F ) :   1.1763
B( 43-C , 44-C ) :   1.2710 B( 43-C , 49-C ) :   0.9294 B( 44-C , 45-C ) :   1.1140
B( 44-C , 48-N ) :   1.4939 B( 45-C , 46-N ) :   1.4982 B( 46-N , 47-S ) :   1.3087
B( 46-N , 48-N ) :   0.1632 B( 47-S , 48-N ) :   1.3035 B( 49-C , 50-C ) :   1.3490
B( 49-C , 55-C ) :   0.1231 B( 49-C , 57-C ) :   1.3285 B( 50-C , 51-F ) :   1.1290
B( 50-C , 52-C ) :   1.2678 B( 52-C , 53-O ) :   1.1981 B( 52-C , 55-C ) :   1.2976
B( 53-O , 54-C ) :   0.9160 B( 54-C , 94-H ) :   0.9773 B( 54-C , 95-H ) :   0.9772
B( 54-C , 96-H ) :   0.9749 B( 55-C , 56-C ) :   1.3353 B( 55-C , 61-C ) :   1.0676
B( 56-C , 57-C ) :   1.3085 B( 56-C , 60-F ) :   1.1906 B( 57-C , 58-O ) :   1.2054
B( 58-O , 59-C ) :   0.9409 B( 59-C , 97-H ) :   0.9662 B( 59-C , 98-H ) :   0.9775
B( 59-C , 99-H ) :   0.9612 B( 61-C , 62-C ) :   1.7110 B( 61-C ,100-H ) :   0.9259
B( 62-C , 63-C ) :   0.9332 B( 62-C , 77-C ) :   1.0245 B( 63-C , 64-O ) :   2.2716
B( 63-C , 65-C ) :   0.9195 B( 65-C , 66-C ) :   1.4733 B( 65-C , 76-C ) :   1.2185
B( 66-C , 67-C ) :   1.1945 B( 66-C ,101-H ) :   1.0158 B( 67-C , 68-C ) :   1.2551
B( 67-C , 72-C ) :   1.1920 B( 68-C , 69-C ) :   1.1892 B( 68-C , 75-C ) :   1.2155
B( 69-C , 70-C ) :   1.4432 B( 69-C , 72-C ) :   0.1087 B( 69-C ,102-H ) :   1.0061
B( 70-C , 71-C ) :   1.1900 B( 70-C , 74-F ) :   1.1347 B( 71-C , 72-C ) :   1.4451
B( 71-C , 73-F ) :   1.1338 B( 72-C ,103-H ) :   1.0065 B( 75-C , 76-C ) :   1.4509
B( 75-C ,104-H ) :   0.9921 B( 76-C , 77-C ) :   1.0023 B( 77-C , 78-C ) :   1.6528
B( 78-C , 79-C ) :   1.1697 B( 78-C , 81-C ) :   1.1356 B( 79-C , 80-N ) :   3.0009
B( 81-C , 82-N ) :   2.9749

-----------------------------------------------------------------------------
         ABSORPTION SPECTRUM VIA TRANSITION ELECTRIC DIPOLE MOMENTS
-----------------------------------------------------------------------------
State   Energy  Wavelength   fosc         T2         TX        TY        TZ
        (cm-1)    (nm)                  (au**2)     (au)      (au)      (au)
-----------------------------------------------------------------------------
   0   18922.3    528.5   0.233447927   4.06155   0.02672  -1.95555   0.48648
   1   19867.9    503.3   0.022766399   0.37724  -0.20895   0.56329   0.12763
   2   22057.9    453.4   0.244886895   3.65492   0.07807  -1.84997   0.47585
   3   22854.1    437.6   0.559467453   8.05910   0.74504  -2.61336   0.82119
   4   23145.4    432.1   0.000885434   0.01259  -0.00813   0.06296  -0.09254
   5   26232.7    381.2   0.023475047   0.29460   0.00583   0.48321   0.24714
   6   27173.6    368.0   0.267069877   3.23559  -0.80569   1.14781  -1.12648
   7   27486.0    363.8   0.023920230   0.28650  -0.16077   0.37779  -0.34341
   8   28290.8    353.5   0.044664846   0.51975  -0.27494   0.61760  -0.25047
   9   28414.2    351.9   0.072304769   0.83774   0.28174  -0.60178  -0.62946
  10   28999.9    344.8   0.086299744   0.97969   0.28198   0.72495  -0.61207
  11   29578.6    338.1   0.094580001   1.05268   0.21424  -0.95493   0.30805
  12   29594.5    337.9   0.021006664   0.23368   0.01643  -0.33277  -0.35024
  13   29877.8    334.7   0.106978223   1.17875  -0.31340   0.57978   0.86278
  14   30420.2    328.7   0.035937347   0.38892   0.19729  -0.36294  -0.46719
  15   30558.6    327.2   0.068041201   0.73302   0.13982  -0.82695  -0.17213
  16   31582.5    316.6   0.037625068   0.39220   0.14132   0.18094  -0.58266
  17   31922.1    313.3   0.053142973   0.54806  -0.61113  -0.31638  -0.27293
  18   32086.1    311.7   0.067017422   0.68762   0.49810  -0.55752   0.35873
  19   32272.7    309.9   0.352754694   3.59843   1.56116   0.44723   0.98040
  20   32641.3    306.4   0.032781945   0.33063   0.43333   0.09937   0.36467
  21   32789.9    305.0   0.064100430   0.64357   0.35347  -0.14020   0.70638
  22   33157.9    301.6   0.010739128   0.10662   0.26918   0.08416  -0.16458
  23   33326.3    300.1   0.004763621   0.04706  -0.01984  -0.11850  -0.18061
  24   33474.1    298.7   0.074961379   0.73723  -0.32313   0.78907  -0.10092
  25   33778.9    296.0   0.079671203   0.77648  -0.34269  -0.80781  -0.08053
  26   33897.4    295.0   0.009803798   0.09521  -0.09960   0.27040  -0.11034
  27   34253.5    291.9   0.308098312   2.96115   0.60189  -1.25091  -1.01692
  28   34679.7    288.4   0.707489361   6.71614  -0.61805   2.12104   1.35474
  29   34771.9    287.6   1.048035130   9.92254   0.77060   2.17458  -2.14474
  30   35836.1    279.0   0.071815397   0.65974  -0.34940  -0.68169   0.27012
  31   35857.9    278.9   0.013995850   0.12850   0.07867   0.18777   0.29504
  32   36215.7    276.1   0.001890210   0.01718  -0.06588  -0.03784   0.10682
  33   37077.7    269.7   0.077782379   0.69063   0.38944   0.04262  -0.73290
  34   37105.1    269.5   0.212123088   1.88204  -0.33912  -1.32336   0.12558
  35   37413.2    267.3   0.014091802   0.12400   0.02638  -0.16010  -0.31252
  36   37734.8    265.0   0.005549907   0.04842  -0.06852   0.13549   0.15927
  37   38180.7    261.9   0.044784353   0.38615   0.03607   0.29206  -0.54731
  38   38354.1    260.7   0.032742987   0.28105   0.19303   0.16276  -0.46615
  39   38578.6    259.2   0.087407808   0.74590  -0.47993  -0.45079   0.55889
  40   38795.5    257.8   0.005390943   0.04575  -0.12531   0.15123   0.08470
  41   39137.8    255.5   0.023663667   0.19905  -0.02767  -0.38803   0.21843
  42   39530.8    253.0   0.034675250   0.28877  -0.29829  -0.43117   0.11784
  43   39602.9    252.5   0.037039814   0.30791  -0.02414   0.41540  -0.36711
  44   39684.3    252.0   0.001252798   0.01039  -0.07732   0.06529  -0.01231
  45   39731.8    251.7   0.045394654   0.37613  -0.22175   0.39332   0.41504
  46   39814.5    251.2   0.113519646   0.93865  -0.15327  -0.48542   0.82433
  47   39988.9    250.1   0.004873083   0.04012   0.02188  -0.18422   0.07553
  48   40017.5    249.9   0.049120472   0.40410   0.24470  -0.03331   0.58576
  49   40162.3    249.0   0.021637226   0.17736   0.01883  -0.40366   0.11859

FINAL SINGLE POINT ENERGY     -4504.219430831910

DIPOLE MOMENT
-------------
                                X             Y             Z
Electronic contribution:    -11.81917      -3.42431       5.58099
Nuclear contribution   :     11.25597       3.56743      -3.62148
                        -----------------------------------------
Total Dipole Moment    :     -0.56320       0.14312       1.95952
                        -----------------------------------------
Magnitude (a.u.)       :      2.04387
Magnitude (Debye)      :      5.19510

Rotational constants in cm-1:     0.001882     0.000209     0.000201
Rotational constants in MHz :    56.427652     6.273507     6.024079

                             ****ORCA TERMINATED NORMALLY****
TOTAL RUN TIME: 0 days 0 hours 11 minutes 48 seconds 974 msec
