                         Program Version 4.2.0 -  RELEASE  -
|  1> # ORCA input file
|  2> # SCF done       -217.505227894935          0.000278066847
|  3> ! CAM-B3LYP def2-SVP def2/J RIJCOSX Grid4 TightSCF
|  4> %maxcore 5000
|  5> %tddft
|  6>     Mode sTDDFT
|  7>     Ethresh 5.0
|  8>     maxcore 5000
|  9> end
| 10>
| 11> %pal
| 12>   nprocs 6
| 13>   end
| 14> * xyz 0 1
| 15>    C       -1.20113        -1.17313         9.76182
| 16>    C       -0.86940        -1.63517        11.00478
| 17>    F       -0.41613        -0.78962        11.93812
| 18>    C       -0.99903        -3.00299        11.32028
| 19>    F       -0.66636        -3.42726        12.54584
| 20>    C       -1.45876        -3.89025        10.38762
| 21>    C       -1.80810        -3.44466         9.09812
| 22>    C       -1.67817        -2.06201         8.77773
| 23>    C       -2.02287        -1.59092         7.48969
| 24>    C       -2.48186        -2.47535         6.54952
| 25>    C       -2.60362        -3.85461         6.87890
| 26>    C       -2.28203        -4.33975         8.11381
| 27>    C       -3.09954        -4.58683         5.70401
| 28>    O       -3.33381        -5.78195         5.64222
| 29>    C       -3.24302        -3.59737         4.63053
| 30>    C       -2.90563        -2.28852         5.16313
| 31>    C       -2.99114        -1.08213         4.52026
| 32>    C       -3.44243        -0.88369         3.19777
| 33>    N       -3.80549        -0.63957         2.13619
| 34>    C       -2.65326         0.15321         5.11415
| 35>    N       -2.39354         1.18746         5.53829
| 36>    C       -3.57890        -3.87990         3.33153
| 37>    C       -3.90562        -5.10306         2.72421
| 38>    C       -4.15946        -5.19573         1.34961
| 39>    C       -4.45670        -6.48511         0.95246
| 40>    C       -4.44670        -7.39255         2.03801
| 41>    S       -4.05405        -6.66694         3.52573
| 42>    C       -4.75045        -8.68106         1.52953
| 43>    C       -4.94824        -8.59317         0.14096
| 44>    C       -4.77658        -7.20922        -0.26927
| 45>    C       -4.89318        -6.70397        -1.53006
| 46>    C       -5.21987        -7.52218        -2.63251
| 47>    N       -5.49148        -8.19116        -3.52307
| 48>    C       -4.69897        -5.33526        -1.81524
| 49>    N       -4.53975        -4.22557        -2.05335
| 50>    C       -5.23853        -9.82694        -0.44280
| 51>    C       -5.27789       -10.84288         0.49281
| 52>    S       -4.93581       -10.27169         2.11928
| 53>    C       -5.49916       -12.22814         0.21951
| 54>    C       -5.77082       -13.26172         1.09006
| 55>    C       -5.92275       -13.09187         2.56504
| 56>    O       -5.17764       -13.57857         3.36334
| 57>    O       -6.97680       -12.34742         2.95013
| 58>    C       -5.81766       -14.53321         0.44543
| 59>    C       -5.60047       -14.42283        -0.90580
| 60>    S       -5.32076       -12.81774        -1.41301
| 61>    C       -6.09044       -15.78951         1.09991
| 62>    C       -5.67860       -17.03492         0.67926
| 63>    C       -6.14383       -18.04984         1.52106
| 64>    C       -6.92418       -17.55972         2.57998
| 65>    S       -7.07184       -15.86262         2.54687
| 66>    C       -7.34939       -18.65491         3.37791
| 67>    C       -6.83256       -19.83815         2.81451
| 68>    C       -6.05106       -19.49519         1.63703
| 69>    C       -5.36126       -20.35610         0.83500
| 70>    C       -5.34411       -21.74372         1.09010
| 71>    N       -5.34683       -22.86951         1.30770
| 72>    C       -4.63813       -19.91214        -0.29176
| 73>    N       -4.06570       -19.54477        -1.21471
| 74>    C       -7.17548       -20.97486         3.53380
| 75>    C       -7.95021       -20.67733         4.64702
| 76>    S       -8.27228       -18.95014         4.77268
| 77>    C       -8.52362       -21.54802         5.59668
| 78>    C       -8.21946       -22.84674         5.87813
| 79>    C       -9.23692       -23.66758         6.59535
| 80>    O      -10.23174       -23.25898         7.14762
| 81>    C       -8.79530       -25.06572         6.43121
| 82>    C       -9.43405       -26.21590         6.79540
| 83>    C       -8.82828       -27.45865         6.50431
| 84>    C       -7.57219       -27.48398         5.83099
| 85>    C       -6.97764       -28.72739         5.53639
| 86>    C       -7.59867       -29.89028         5.89664
| 87>    C       -8.84026       -29.86396         6.56353
| 88>    C       -9.44346       -28.67434         6.86156
| 89>    F       -9.42686       -31.01946         6.90312
| 90>    F       -7.03163       -31.07097         5.61828
| 91>    C       -6.93192       -26.27591         5.47093
| 92>    C       -7.53111       -25.08343         5.77625
| 93>    C       -7.09673       -23.70365         5.56353
| 94>    C       -5.79578       -23.32036         5.36409
| 95>    C       -5.35557       -21.98341         5.39845
| 96>    N       -4.95439       -20.90846         5.44055
| 97>    C       -4.72675       -24.22676         5.19998
| 98>    N       -3.82231       -24.92002         5.06754
| 99>    H       -1.09627        -0.12308         9.53756
|100>    H       -1.55201        -4.93388        10.64424
|101>    H       -1.91001        -0.53964         7.28092
|102>    H       -2.38600        -5.39111         8.33490
|103>    H       -3.58481        -3.05031         2.63470
|104>    H       -4.11574        -4.33919         0.70019
|105>    H       -5.41804        -9.99197        -1.49000
|106>    H       -7.51300       -12.03374         2.20969
|107>    H       -5.60726       -15.21253        -1.62988
|108>    H       -5.05240       -17.18973        -0.17993
|109>    H       -6.92242       -21.97928         3.24737
|110>    H       -9.37903       -21.15934         6.14201
|111>    H      -10.38847       -26.17848         7.29807
|112>    H       -6.02605       -28.76517         5.02960
|113>    H      -10.39376       -28.67113         7.37209
|114>    H       -5.98796       -26.32394         4.95201
|115> *
|116>
|117>                          ****END OF INPUT****

CARTESIAN COORDINATES (ANGSTROEM)
---------------------------------
  C     -1.201130   -1.173130    9.761820
  C     -0.869400   -1.635170   11.004780
  F     -0.416130   -0.789620   11.938120
  C     -0.999030   -3.002990   11.320280
  F     -0.666360   -3.427260   12.545840
  C     -1.458760   -3.890250   10.387620
  C     -1.808100   -3.444660    9.098120
  C     -1.678170   -2.062010    8.777730
  C     -2.022870   -1.590920    7.489690
  C     -2.481860   -2.475350    6.549520
  C     -2.603620   -3.854610    6.878900
  C     -2.282030   -4.339750    8.113810
  C     -3.099540   -4.586830    5.704010
  O     -3.333810   -5.781950    5.642220
  C     -3.243020   -3.597370    4.630530
  C     -2.905630   -2.288520    5.163130
  C     -2.991140   -1.082130    4.520260
  C     -3.442430   -0.883690    3.197770
  N     -3.805490   -0.639570    2.136190
  C     -2.653260    0.153210    5.114150
  N     -2.393540    1.187460    5.538290
  C     -3.578900   -3.879900    3.331530
  C     -3.905620   -5.103060    2.724210
  C     -4.159460   -5.195730    1.349610
  C     -4.456700   -6.485110    0.952460
  C     -4.446700   -7.392550    2.038010
  S     -4.054050   -6.666940    3.525730
  C     -4.750450   -8.681060    1.529530
  C     -4.948240   -8.593170    0.140960
  C     -4.776580   -7.209220   -0.269270
  C     -4.893180   -6.703970   -1.530060
  C     -5.219870   -7.522180   -2.632510
  N     -5.491480   -8.191160   -3.523070
  C     -4.698970   -5.335260   -1.815240
  N     -4.539750   -4.225570   -2.053350
  C     -5.238530   -9.826940   -0.442800
  C     -5.277890  -10.842880    0.492810
  S     -4.935810  -10.271690    2.119280
  C     -5.499160  -12.228140    0.219510
  C     -5.770820  -13.261720    1.090060
  C     -5.922750  -13.091870    2.565040
  O     -5.177640  -13.578570    3.363340
  O     -6.976800  -12.347420    2.950130
  C     -5.817660  -14.533210    0.445430
  C     -5.600470  -14.422830   -0.905800
  S     -5.320760  -12.817740   -1.413010
  C     -6.090440  -15.789510    1.099910
  C     -5.678600  -17.034920    0.679260
  C     -6.143830  -18.049840    1.521060
  C     -6.924180  -17.559720    2.579980
  S     -7.071840  -15.862620    2.546870
  C     -7.349390  -18.654910    3.377910
  C     -6.832560  -19.838150    2.814510
  C     -6.051060  -19.495190    1.637030
  C     -5.361260  -20.356100    0.835000
  C     -5.344110  -21.743720    1.090100
  N     -5.346830  -22.869510    1.307700
  C     -4.638130  -19.912140   -0.291760
  N     -4.065700  -19.544770   -1.214710
  C     -7.175480  -20.974860    3.533800
  C     -7.950210  -20.677330    4.647020
  S     -8.272280  -18.950140    4.772680
  C     -8.523620  -21.548020    5.596680
  C     -8.219460  -22.846740    5.878130
  C     -9.236920  -23.667580    6.595350
  O    -10.231740  -23.258980    7.147620
  C     -8.795300  -25.065720    6.431210
  C     -9.434050  -26.215900    6.795400
  C     -8.828280  -27.458650    6.504310
  C     -7.572190  -27.483980    5.830990
  C     -6.977640  -28.727390    5.536390
  C     -7.598670  -29.890280    5.896640
  C     -8.840260  -29.863960    6.563530
  C     -9.443460  -28.674340    6.861560
  F     -9.426860  -31.019460    6.903120
  F     -7.031630  -31.070970    5.618280
  C     -6.931920  -26.275910    5.470930
  C     -7.531110  -25.083430    5.776250
  C     -7.096730  -23.703650    5.563530
  C     -5.795780  -23.320360    5.364090
  C     -5.355570  -21.983410    5.398450
  N     -4.954390  -20.908460    5.440550
  C     -4.726750  -24.226760    5.199980
  N     -3.822310  -24.920020    5.067540
  H     -1.096270   -0.123080    9.537560
  H     -1.552010   -4.933880   10.644240
  H     -1.910010   -0.539640    7.280920
  H     -2.386000   -5.391110    8.334900
  H     -3.584810   -3.050310    2.634700
  H     -4.115740   -4.339190    0.700190
  H     -5.418040   -9.991970   -1.490000
  H     -7.513000  -12.033740    2.209690
  H     -5.607260  -15.212530   -1.629880
  H     -5.052400  -17.189730   -0.179930
  H     -6.922420  -21.979280    3.247370
  H     -9.379030  -21.159340    6.142010
  H    -10.388470  -26.178480    7.298070
  H     -6.026050  -28.765170    5.029600
  H    -10.393760  -28.671130    7.372090
  H     -5.987960  -26.323940    4.952010

 Total Charge           Charge          ....    0
 Multiplicity           Mult            ....    1
 Number of Electrons    NEL             ....  598
 Basis Dimension        Dim             .... 1276

ORBITAL ENERGIES
----------------

  NO   OCC          E(Eh)            E(eV)
   0   2.0000     -89.009532     -2422.0725
   1   2.0000     -89.001069     -2421.8422
   2   2.0000     -89.000962     -2421.8393
   3   2.0000     -89.000869     -2421.8368
   4   2.0000     -88.995421     -2421.6885
   5   2.0000     -24.803769      -674.9449
   6   2.0000     -24.803072      -674.9259
   7   2.0000     -24.799139      -674.8189
   8   2.0000     -24.798252      -674.7947
   9   2.0000     -19.287145      -524.8299
  10   2.0000     -19.235174      -523.4157
  11   2.0000     -19.229209      -523.2534
  12   2.0000     -19.219569      -522.9911
  13   2.0000     -14.442346      -392.9962
  14   2.0000     -14.439885      -392.9293
  15   2.0000     -14.437481      -392.8638
  16   2.0000     -14.437391      -392.8614
  17   2.0000     -14.425085      -392.5265
  18   2.0000     -14.422205      -392.4481
  19   2.0000     -14.421513      -392.4293
  20   2.0000     -14.417134      -392.3102
  21   2.0000     -10.432850      -283.8923
  22   2.0000     -10.387616      -282.6614
  23   2.0000     -10.386896      -282.6418
  24   2.0000     -10.382792      -282.5301
  25   2.0000     -10.382334      -282.5177
  26   2.0000     -10.381759      -282.5020
  27   2.0000     -10.377558      -282.3877
  28   2.0000     -10.372199      -282.2419
  29   2.0000     -10.370916      -282.2070
  30   2.0000     -10.365524      -282.0602
  31   2.0000     -10.359874      -281.9065
  32   2.0000     -10.351896      -281.6894
  33   2.0000     -10.351650      -281.6827
  34   2.0000     -10.351442      -281.6770
  35   2.0000     -10.350826      -281.6603
  36   2.0000     -10.348842      -281.6063
  37   2.0000     -10.348456      -281.5958
  38   2.0000     -10.347851      -281.5793
  39   2.0000     -10.346826      -281.5514
  40   2.0000     -10.344930      -281.4999
  41   2.0000     -10.342434      -281.4319
  42   2.0000     -10.341003      -281.3930
  43   2.0000     -10.339366      -281.3485
  44   2.0000     -10.338216      -281.3172
  45   2.0000     -10.337982      -281.3108
  46   2.0000     -10.337748      -281.3044
  47   2.0000     -10.337630      -281.3012
  48   2.0000     -10.337625      -281.3011
  49   2.0000     -10.332332      -281.1570
  50   2.0000     -10.329989      -281.0933
  51   2.0000     -10.329868      -281.0900
  52   2.0000     -10.327355      -281.0216
  53   2.0000     -10.326710      -281.0041
  54   2.0000     -10.324983      -280.9571
  55   2.0000     -10.323973      -280.9296
  56   2.0000     -10.323715      -280.9226
  57   2.0000     -10.323288      -280.9109
  58   2.0000     -10.322443      -280.8880
  59   2.0000     -10.321775      -280.8698
  60   2.0000     -10.319524      -280.8085
  61   2.0000     -10.318184      -280.7721
  62   2.0000     -10.317407      -280.7509
  63   2.0000     -10.317130      -280.7434
  64   2.0000     -10.316911      -280.7374
  65   2.0000     -10.315229      -280.6917
  66   2.0000     -10.314665      -280.6763
  67   2.0000     -10.312341      -280.6131
  68   2.0000     -10.311931      -280.6019
  69   2.0000     -10.311653      -280.5943
  70   2.0000     -10.311022      -280.5772
  71   2.0000     -10.310493      -280.5628
  72   2.0000     -10.310225      -280.5555
  73   2.0000     -10.309829      -280.5447
  74   2.0000     -10.309509      -280.5360
  75   2.0000     -10.307361      -280.4775
  76   2.0000     -10.306323      -280.4493
  77   2.0000     -10.304776      -280.4072
  78   2.0000     -10.304401      -280.3970
  79   2.0000     -10.303672      -280.3772
  80   2.0000     -10.302171      -280.3363
  81   2.0000     -10.301865      -280.3280
  82   2.0000     -10.301041      -280.3056
  83   2.0000     -10.295994      -280.1683
  84   2.0000      -8.103643      -220.5113
  85   2.0000      -8.095815      -220.2983
  86   2.0000      -8.095251      -220.2830
  87   2.0000      -8.093173      -220.2264
  88   2.0000      -8.091077      -220.1694
  89   2.0000      -6.072891      -165.2518
  90   2.0000      -6.068605      -165.1351
  91   2.0000      -6.066076      -165.0663
  92   2.0000      -6.064944      -165.0355
  93   2.0000      -6.064431      -165.0216
  94   2.0000      -6.062573      -164.9710
  95   2.0000      -6.060790      -164.9225
  96   2.0000      -6.060416      -164.9123
  97   2.0000      -6.060240      -164.9075
  98   2.0000      -6.058332      -164.8556
  99   2.0000      -6.057813      -164.8415
 100   2.0000      -6.057768      -164.8402
 101   2.0000      -6.055975      -164.7914
 102   2.0000      -6.055773      -164.7860
 103   2.0000      -6.053319      -164.7192
 104   2.0000      -1.326653       -36.1001
 105   2.0000      -1.321722       -35.9659
 106   2.0000      -1.311754       -35.6947
 107   2.0000      -1.306845       -35.5611
 108   2.0000      -1.211128       -32.9565
 109   2.0000      -1.150944       -31.3188
 110   2.0000      -1.135351       -30.8945
 111   2.0000      -1.127311       -30.6757
 112   2.0000      -1.060571       -28.8596
 113   2.0000      -1.055610       -28.7246
 114   2.0000      -1.035037       -28.1648
 115   2.0000      -1.031020       -28.0555
 116   2.0000      -1.028991       -28.0003
 117   2.0000      -1.028245       -27.9800
 118   2.0000      -1.023709       -27.8565
 119   2.0000      -1.018586       -27.7171
 120   2.0000      -1.015230       -27.6258
 121   2.0000      -1.012411       -27.5491
 122   2.0000      -1.012158       -27.5422
 123   2.0000      -1.006870       -27.3983
 124   2.0000      -1.004656       -27.3381
 125   2.0000      -1.002170       -27.2704
 126   2.0000      -0.996973       -27.1290
 127   2.0000      -0.989693       -26.9309
 128   2.0000      -0.983852       -26.7720
 129   2.0000      -0.973462       -26.4893
 130   2.0000      -0.967974       -26.3399
 131   2.0000      -0.942091       -25.6356
 132   2.0000      -0.936743       -25.4901
 133   2.0000      -0.932034       -25.3619
 134   2.0000      -0.925726       -25.1903
 135   2.0000      -0.911981       -24.8163
 136   2.0000      -0.906636       -24.6708
 137   2.0000      -0.899799       -24.4848
 138   2.0000      -0.895305       -24.3625
 139   2.0000      -0.892982       -24.2993
 140   2.0000      -0.891530       -24.2598
 141   2.0000      -0.886336       -24.1184
 142   2.0000      -0.883496       -24.0411
 143   2.0000      -0.875818       -23.8322
 144   2.0000      -0.870518       -23.6880
 145   2.0000      -0.865916       -23.5628
 146   2.0000      -0.861302       -23.4372
 147   2.0000      -0.847899       -23.0725
 148   2.0000      -0.842255       -22.9189
 149   2.0000      -0.831784       -22.6340
 150   2.0000      -0.821023       -22.3412
 151   2.0000      -0.800382       -21.7795
 152   2.0000      -0.792075       -21.5534
 153   2.0000      -0.786711       -21.4075
 154   2.0000      -0.779644       -21.2152
 155   2.0000      -0.777247       -21.1500
 156   2.0000      -0.768816       -20.9205
 157   2.0000      -0.759836       -20.6762
 158   2.0000      -0.745332       -20.2815
 159   2.0000      -0.742595       -20.2070
 160   2.0000      -0.733289       -19.9538
 161   2.0000      -0.727532       -19.7971
 162   2.0000      -0.725173       -19.7330
 163   2.0000      -0.720660       -19.6102
 164   2.0000      -0.717754       -19.5311
 165   2.0000      -0.715262       -19.4633
 166   2.0000      -0.708159       -19.2700
 167   2.0000      -0.704013       -19.1572
 168   2.0000      -0.697315       -18.9749
 169   2.0000      -0.694365       -18.8946
 170   2.0000      -0.692708       -18.8496
 171   2.0000      -0.689188       -18.7538
 172   2.0000      -0.683370       -18.5954
 173   2.0000      -0.675817       -18.3899
 174   2.0000      -0.670467       -18.2443
 175   2.0000      -0.663568       -18.0566
 176   2.0000      -0.656737       -17.8707
 177   2.0000      -0.653241       -17.7756
 178   2.0000      -0.649176       -17.6650
 179   2.0000      -0.645493       -17.5648
 180   2.0000      -0.644112       -17.5272
 181   2.0000      -0.641590       -17.4585
 182   2.0000      -0.635771       -17.3002
 183   2.0000      -0.633105       -17.2277
 184   2.0000      -0.627426       -17.0731
 185   2.0000      -0.622691       -16.9443
 186   2.0000      -0.621879       -16.9222
 187   2.0000      -0.617041       -16.7905
 188   2.0000      -0.615595       -16.7512
 189   2.0000      -0.599043       -16.3008
 190   2.0000      -0.597069       -16.2471
 191   2.0000      -0.591109       -16.0849
 192   2.0000      -0.591025       -16.0826
 193   2.0000      -0.586775       -15.9670
 194   2.0000      -0.586179       -15.9507
 195   2.0000      -0.583659       -15.8822
 196   2.0000      -0.578873       -15.7519
 197   2.0000      -0.574017       -15.6198
 198   2.0000      -0.570853       -15.5337
 199   2.0000      -0.565693       -15.3933
 200   2.0000      -0.562893       -15.3171
 201   2.0000      -0.559907       -15.2358
 202   2.0000      -0.558084       -15.1862
 203   2.0000      -0.556068       -15.1314
 204   2.0000      -0.555550       -15.1173
 205   2.0000      -0.552573       -15.0363
 206   2.0000      -0.551326       -15.0023
 207   2.0000      -0.549831       -14.9617
 208   2.0000      -0.547812       -14.9067
 209   2.0000      -0.545993       -14.8572
 210   2.0000      -0.543081       -14.7780
 211   2.0000      -0.541680       -14.7399
 212   2.0000      -0.540196       -14.6995
 213   2.0000      -0.538147       -14.6437
 214   2.0000      -0.533374       -14.5138
 215   2.0000      -0.531739       -14.4694
 216   2.0000      -0.529817       -14.4171
 217   2.0000      -0.528130       -14.3711
 218   2.0000      -0.523880       -14.2555
 219   2.0000      -0.522449       -14.2166
 220   2.0000      -0.521360       -14.1869
 221   2.0000      -0.517548       -14.0832
 222   2.0000      -0.516064       -14.0428
 223   2.0000      -0.515685       -14.0325
 224   2.0000      -0.512988       -13.9591
 225   2.0000      -0.511179       -13.9099
 226   2.0000      -0.509296       -13.8586
 227   2.0000      -0.507768       -13.8171
 228   2.0000      -0.505757       -13.7624
 229   2.0000      -0.504681       -13.7331
 230   2.0000      -0.503102       -13.6901
 231   2.0000      -0.499527       -13.5928
 232   2.0000      -0.496265       -13.5041
 233   2.0000      -0.493902       -13.4398
 234   2.0000      -0.491634       -13.3781
 235   2.0000      -0.490443       -13.3456
 236   2.0000      -0.487138       -13.2557
 237   2.0000      -0.486425       -13.2363
 238   2.0000      -0.481717       -13.1082
 239   2.0000      -0.480431       -13.0732
 240   2.0000      -0.477640       -12.9972
 241   2.0000      -0.471855       -12.8398
 242   2.0000      -0.471433       -12.8283
 243   2.0000      -0.469173       -12.7668
 244   2.0000      -0.468307       -12.7433
 245   2.0000      -0.467764       -12.7285
 246   2.0000      -0.465688       -12.6720
 247   2.0000      -0.464365       -12.6360
 248   2.0000      -0.463778       -12.6200
 249   2.0000      -0.460889       -12.5414
 250   2.0000      -0.457159       -12.4399
 251   2.0000      -0.454436       -12.3658
 252   2.0000      -0.454145       -12.3579
 253   2.0000      -0.453865       -12.3503
 254   2.0000      -0.451060       -12.2740
 255   2.0000      -0.450955       -12.2711
 256   2.0000      -0.450587       -12.2611
 257   2.0000      -0.449711       -12.2372
 258   2.0000      -0.448561       -12.2060
 259   2.0000      -0.447388       -12.1741
 260   2.0000      -0.445989       -12.1360
 261   2.0000      -0.445087       -12.1114
 262   2.0000      -0.444349       -12.0914
 263   2.0000      -0.443849       -12.0777
 264   2.0000      -0.440466       -11.9857
 265   2.0000      -0.437186       -11.8964
 266   2.0000      -0.435944       -11.8626
 267   2.0000      -0.433675       -11.8009
 268   2.0000      -0.433232       -11.7889
 269   2.0000      -0.432130       -11.7588
 270   2.0000      -0.428831       -11.6691
 271   2.0000      -0.425791       -11.5864
 272   2.0000      -0.424621       -11.5545
 273   2.0000      -0.421493       -11.4694
 274   2.0000      -0.415413       -11.3040
 275   2.0000      -0.414313       -11.2740
 276   2.0000      -0.411857       -11.2072
 277   2.0000      -0.404501       -11.0070
 278   2.0000      -0.400571       -10.9001
 279   2.0000      -0.393831       -10.7167
 280   2.0000      -0.389058       -10.5868
 281   2.0000      -0.385925       -10.5016
 282   2.0000      -0.378497       -10.2994
 283   2.0000      -0.367616       -10.0033
 284   2.0000      -0.362613        -9.8672
 285   2.0000      -0.361188        -9.8284
 286   2.0000      -0.355233        -9.6664
 287   2.0000      -0.351198        -9.5566
 288   2.0000      -0.343251        -9.3403
 289   2.0000      -0.338775        -9.2185
 290   2.0000      -0.333939        -9.0869
 291   2.0000      -0.328639        -8.9427
 292   2.0000      -0.325304        -8.8520
 293   2.0000      -0.322343        -8.7714
 294   2.0000      -0.318538        -8.6678
 295   2.0000      -0.307085        -8.3562
 296   2.0000      -0.302883        -8.2419
 297   2.0000      -0.279362        -7.6018
 298   2.0000      -0.267792        -7.2870
 299   0.0000      -0.122671        -3.3380
 300   0.0000      -0.115713        -3.1487
 301   0.0000      -0.099672        -2.7122
 302   0.0000      -0.094264        -2.5650
 303   0.0000      -0.072107        -1.9621

MULLIKEN ATOMIC CHARGES
-----------------------
   0 C :   -0.110571
   1 C :    0.245805
   2 F :   -0.168223
   3 C :    0.239449
   4 F :   -0.169388
   5 C :   -0.107978
   6 C :    0.118909
   7 C :    0.117344
   8 C :   -0.088687
   9 C :    0.048117
  10 C :    0.001818
  11 C :   -0.083262
  12 C :    0.170922
  13 O :   -0.188603
  14 C :   -0.093274
  15 C :    0.328707
  16 C :   -0.352623
  17 C :   -0.196741
  18 N :    0.161432
  19 C :   -0.181761
  20 N :    0.151816
  21 C :   -0.028901
  22 C :   -0.052801
  23 C :   -0.059195
  24 C :    0.046120
  25 C :   -0.063047
  26 S :    0.251072
  27 C :   -0.091468
  28 C :    0.030156
  29 C :    0.300923
  30 C :   -0.291654
  31 C :   -0.189100
  32 N :    0.174762
  33 C :   -0.191990
  34 N :    0.188938
  35 C :   -0.054614
  36 C :   -0.095301
  37 S :    0.202012
  38 C :   -0.107495
  39 C :   -0.060923
  40 C :    0.106180
  41 O :   -0.143140
  42 O :   -0.158498
  43 C :    0.136742
  44 C :   -0.115843
  45 S :    0.177329
  46 C :   -0.094830
  47 C :   -0.032215
  48 C :    0.018911
  49 C :   -0.096070
  50 S :    0.194738
  51 C :   -0.064757
  52 C :   -0.006207
  53 C :    0.303046
  54 C :   -0.283071
  55 C :   -0.184872
  56 N :    0.169381
  57 C :   -0.186056
  58 N :    0.172814
  59 C :    0.000863
  60 C :   -0.111276
  61 S :    0.218021
  62 C :    0.080576
  63 C :   -0.138035
  64 C :    0.133895
  65 O :   -0.143226
  66 C :    0.016988
  67 C :   -0.077941
  68 C :    0.108266
  69 C :    0.106819
  70 C :   -0.101811
  71 C :    0.240243
  72 C :    0.237679
  73 C :   -0.100157
  74 F :   -0.171269
  75 F :   -0.170134
  76 C :   -0.073102
  77 C :    0.026610
  78 C :    0.275238
  79 C :   -0.328552
  80 C :   -0.205004
  81 N :    0.169081
  82 C :   -0.169009
  83 N :    0.159889
  84 H :    0.009265
  85 H :    0.001440
  86 H :   -0.004596
  87 H :   -0.008470
  88 H :    0.018996
  89 H :    0.030196
  90 H :    0.019007
  91 H :    0.191602
  92 H :    0.043195
  93 H :    0.006091
  94 H :    0.024289
  95 H :    0.023057
  96 H :   -0.009887
  97 H :    0.007565
  98 H :   -0.001168
  99 H :    0.000478
Sum of atomic charges:   -0.0000000

LOEWDIN ATOMIC CHARGES
----------------------
   0 C :   -0.028528
   1 C :    0.067980
   2 F :   -0.046642
   3 C :    0.068616
   4 F :   -0.047289
   5 C :   -0.032667
   6 C :   -0.008847
   7 C :   -0.005568
   8 C :    0.019149
   9 C :   -0.022109
  10 C :   -0.053528
  11 C :    0.031873
  12 C :    0.086366
  13 O :   -0.173679
  14 C :   -0.108760
  15 C :    0.075543
  16 C :   -0.137639
  17 C :   -0.023842
  18 N :   -0.044763
  19 C :   -0.017197
  20 N :   -0.050156
  21 C :    0.058391
  22 C :   -0.182192
  23 C :    0.013126
  24 C :   -0.076464
  25 C :   -0.169392
  26 S :    0.555803
  27 C :   -0.183010
  28 C :   -0.056904
  29 C :    0.076734
  30 C :   -0.097410
  31 C :   -0.016450
  32 N :   -0.029654
  33 C :   -0.020650
  34 N :   -0.019661
  35 C :   -0.032266
  36 C :   -0.187667
  37 S :    0.513091
  38 C :   -0.179664
  39 C :   -0.116938
  40 C :    0.036993
  41 O :   -0.127098
  42 O :   -0.030551
  43 C :   -0.065451
  44 C :   -0.166364
  45 S :    0.486591
  46 C :   -0.155494
  47 C :   -0.026162
  48 C :   -0.058567
  49 C :   -0.185376
  50 S :    0.509131
  51 C :   -0.156557
  52 C :   -0.067314
  53 C :    0.083004
  54 C :   -0.098054
  55 C :   -0.013394
  56 N :   -0.031021
  57 C :   -0.015679
  58 N :   -0.031432
  59 C :    0.012692
  60 C :   -0.182160
  61 S :    0.503908
  62 C :    0.044564
  63 C :   -0.094015
  64 C :    0.083012
  65 O :   -0.143553
  66 C :   -0.054898
  67 C :    0.031085
  68 C :   -0.009562
  69 C :   -0.005330
  70 C :   -0.028908
  71 C :    0.067244
  72 C :    0.067235
  73 C :   -0.032954
  74 F :   -0.049134
  75 F :   -0.048068
  76 C :    0.017136
  77 C :   -0.020140
  78 C :    0.065062
  79 C :   -0.135718
  80 C :   -0.016054
  81 N :   -0.044020
  82 C :   -0.018534
  83 N :   -0.045473
  84 H :    0.048462
  85 H :    0.045416
  86 H :    0.040650
  87 H :    0.040904
  88 H :    0.054270
  89 H :    0.048786
  90 H :    0.038396
  91 H :    0.097556
  92 H :    0.033219
  93 H :    0.040939
  94 H :    0.042894
  95 H :    0.046146
  96 H :    0.040566
  97 H :    0.048109
  98 H :    0.044685
  99 H :    0.041247

  Mayer bond orders larger than 0.100000
B(  0-C ,  1-C ) :   1.4386 B(  0-C ,  5-C ) :   0.1085 B(  0-C ,  7-C ) :   1.1893
B(  0-C , 84-H ) :   1.0072 B(  1-C ,  2-F ) :   1.1382 B(  1-C ,  3-C ) :   1.1921
B(  3-C ,  4-F ) :   1.1361 B(  3-C ,  5-C ) :   1.4420 B(  5-C ,  6-C ) :   1.1898
B(  5-C , 85-H ) :   1.0077 B(  6-C ,  7-C ) :   1.2590 B(  6-C , 11-C ) :   1.1869
B(  7-C ,  8-C ) :   1.2127 B(  8-C ,  9-C ) :   1.4528 B(  8-C , 86-H ) :   0.9901
B(  9-C , 10-C ) :   1.2235 B(  9-C , 15-C ) :   0.9814 B( 10-C , 11-C ) :   1.4640
B( 10-C , 12-C ) :   0.9617 B( 11-C , 87-H ) :   1.0178 B( 12-C , 13-O ) :   2.1114
B( 12-C , 14-C ) :   0.9847 B( 14-C , 15-C ) :   1.0737 B( 14-C , 21-C ) :   1.4922
B( 15-C , 16-C ) :   1.6333 B( 16-C , 17-C ) :   1.1430 B( 16-C , 19-C ) :   1.1492
B( 17-C , 18-N ) :   2.9661 B( 19-C , 20-N ) :   2.9609 B( 21-C , 22-C ) :   1.2646
B( 21-C , 88-H ) :   0.9420 B( 22-C , 23-C ) :   1.3273 B( 22-C , 26-S ) :   1.0730
B( 23-C , 24-C ) :   1.3308 B( 23-C , 89-H ) :   1.0098 B( 24-C , 25-C ) :   1.3564
B( 24-C , 29-C ) :   0.9858 B( 25-C , 26-S ) :   1.1288 B( 25-C , 27-C ) :   1.1883
B( 27-C , 28-C ) :   1.4289 B( 27-C , 37-S ) :   1.1295 B( 28-C , 29-C ) :   0.9959
B( 28-C , 35-C ) :   1.2969 B( 29-C , 30-C ) :   1.7208 B( 30-C , 31-C ) :   1.1327
B( 30-C , 33-C ) :   1.1338 B( 31-C , 32-N ) :   2.9892 B( 33-C , 34-N ) :   2.9955
B( 35-C , 36-C ) :   1.4505 B( 35-C , 90-H ) :   0.9916 B( 36-C , 37-S ) :   1.1295
B( 36-C , 38-C ) :   1.1143 B( 38-C , 39-C ) :   1.5328 B( 38-C , 45-S ) :   1.1690
B( 39-C , 40-C ) :   0.8778 B( 39-C , 43-C ) :   1.2634 B( 40-C , 41-O ) :   2.2062
B( 40-C , 42-O ) :   1.2112 B( 42-O , 91-H ) :   0.9468 B( 43-C , 44-C ) :   1.5505
B( 43-C , 46-C ) :   1.0219 B( 44-C , 45-S ) :   1.1592 B( 44-C , 92-H ) :   0.9649
B( 46-C , 47-C ) :   1.5004 B( 46-C , 50-S ) :   1.1308 B( 47-C , 48-C ) :   1.2788
B( 47-C , 93-H ) :   0.9967 B( 48-C , 49-C ) :   1.4398 B( 48-C , 53-C ) :   0.9935
B( 49-C , 50-S ) :   1.1426 B( 49-C , 51-C ) :   1.1776 B( 51-C , 52-C ) :   1.4100
B( 51-C , 61-S ) :   1.1613 B( 52-C , 53-C ) :   0.9969 B( 52-C , 59-C ) :   1.3610
B( 53-C , 54-C ) :   1.7183 B( 54-C , 55-C ) :   1.1334 B( 54-C , 57-C ) :   1.1302
B( 55-C , 56-N ) :   2.9832 B( 57-C , 58-N ) :   2.9916 B( 59-C , 60-C ) :   1.3902
B( 59-C , 94-H ) :   0.9799 B( 60-C , 61-S ) :   1.0879 B( 60-C , 62-C ) :   1.1423
B( 62-C , 63-C ) :   1.6592 B( 62-C , 95-H ) :   0.9267 B( 63-C , 64-C ) :   0.9448
B( 63-C , 78-C ) :   1.0395 B( 64-C , 65-O ) :   2.2669 B( 64-C , 66-C ) :   0.9188
B( 66-C , 67-C ) :   1.4742 B( 66-C , 77-C ) :   1.2214 B( 67-C , 68-C ) :   1.1947
B( 67-C , 96-H ) :   1.0152 B( 68-C , 69-C ) :   1.2563 B( 68-C , 73-C ) :   1.1937
B( 69-C , 70-C ) :   1.1912 B( 69-C , 76-C ) :   1.2160 B( 70-C , 71-C ) :   1.4414
B( 70-C , 73-C ) :   0.1088 B( 70-C , 97-H ) :   1.0060 B( 71-C , 72-C ) :   1.1921
B( 71-C , 75-F ) :   1.1349 B( 72-C , 73-C ) :   1.4438 B( 72-C , 74-F ) :   1.1336
B( 73-C , 98-H ) :   1.0058 B( 76-C , 77-C ) :   1.4596 B( 76-C , 99-H ) :   0.9926
B( 77-C , 78-C ) :   0.9932 B( 78-C , 79-C ) :   1.6500 B( 79-C , 80-C ) :   1.1736
B( 79-C , 82-C ) :   1.1258 B( 80-C , 81-N ) :   2.9930 B( 82-C , 83-N ) :   2.9898

-----------------------------------------------------------------------------
         ABSORPTION SPECTRUM VIA TRANSITION ELECTRIC DIPOLE MOMENTS
-----------------------------------------------------------------------------
State   Energy  Wavelength   fosc         T2         TX        TY        TZ
        (cm-1)    (nm)                  (au**2)     (au)      (au)      (au)
-----------------------------------------------------------------------------
   0   14576.0    686.1   0.328942359   7.42945   0.56544   2.62506  -0.46774
   1   15144.6    660.3   0.184687367   4.01471  -0.41411  -1.47695  -1.28913
   2   20707.6    482.9   1.073890721  17.07287   0.42591   4.01815  -0.86369
   3   21642.2    462.1   0.852199850  12.96330   0.93651   2.19587   2.69526
   4   22499.0    444.5   0.184294683   2.69666  -0.45023  -1.20267  -1.02350
   5   24041.5    415.9   0.004738462   0.06489   0.12442  -0.17540  -0.13653
   6   26199.5    381.7   0.025027520   0.31448   0.38477   0.40024   0.07899
   7   26375.6    379.1   0.038018548   0.47454   0.26377   0.15472   0.61727
   8   27821.1    359.4   0.003609926   0.04272   0.13128  -0.08095   0.13759
   9   28112.6    355.7   0.094160019   1.10266  -0.25526  -0.53916  -0.86418
  10   28183.1    354.8   0.014614183   0.17071  -0.24894   0.32548  -0.05292
  11   28239.4    354.1   0.028465418   0.33185   0.25960   0.28786   0.42613
  12   28584.4    349.8   0.021243584   0.24467  -0.12754  -0.20844   0.43006
  13   29025.1    344.5   0.010621435   0.12047  -0.10628  -0.21508  -0.25083
  14   29346.9    340.8   0.042702915   0.47904  -0.33864  -0.53071   0.28759
  15   29660.3    337.2   0.171587320   1.90452  -0.60859  -0.56765  -1.10087
  16   29868.7    334.8   0.473085354   5.21434   1.09850   1.32088  -1.50430
  17   30353.7    329.4   0.490313181   5.31787  -0.21364  -2.29611   0.00957
  18   30935.9    323.2   0.572831791   6.09593   0.37160  -1.90480   1.52630
  19   31109.9    321.4   0.203043118   2.14865  -0.24293   1.16387   0.85735
  20   31267.8    319.8   0.152385626   1.60443  -0.96735  -0.06088   0.81545
  21   31466.4    317.8   0.181916985   1.90327  -0.14939   1.14954   0.74800
  22   31815.0    314.3   0.028738376   0.29738   0.19843  -0.39109   0.32412
  23   32343.4    309.2   0.267636033   2.72417   0.24259   1.60135  -0.31781
  24   32493.4    307.8   0.141554440   1.43418  -0.42561  -1.06693   0.33867
  25   32919.8    303.8   0.052185670   0.52188   0.09295  -0.59172   0.40386
  26   32993.6    303.1   0.534938201   5.33764   0.62090  -0.19948   2.21638
  27   33225.6    301.0   0.206104796   2.04216   0.45787   0.50075   1.25768
  28   33574.8    297.8   0.025769897   0.25268   0.06565   0.00188   0.49837
  29   33675.2    297.0   0.532927398   5.20995   0.27515   2.16504  -0.66847
  30   34190.8    292.5   0.062778954   0.60448   0.15105   0.02054   0.76239
  31   34377.5    290.9   0.204632400   1.95964  -0.11455   0.14609  -1.38751
  32   34490.3    289.9   0.166400693   1.58830   1.18525   0.31414  -0.29122
  33   34605.6    289.0   0.285388508   2.71498  -0.13586  -0.38076   1.59735
  34   34712.3    288.1   0.067979022   0.64471   0.49154   0.07194  -0.63082
  35   35132.6    284.6   0.397475343   3.72457  -0.92378  -1.56482   0.65004
  36   35500.1    281.7   0.161307995   1.49590  -0.23829   0.45952  -1.10813
  37   35628.8    280.7   0.146803210   1.35647  -0.16404   0.50529  -1.03646
  38   35753.6    279.7   0.038089568   0.35072   0.20665  -0.37491   0.40922
  39   36059.8    277.3   0.089785505   0.81971  -0.19151   0.30448  -0.83085
  40   36528.8    273.8   0.085426982   0.76990   0.18581   0.83537  -0.19375
  41   36668.5    272.7   0.016186976   0.14533   0.00660   0.27226   0.26676
  42   36758.1    272.0   0.004900166   0.04389  -0.01829   0.19500   0.07433
  43   37227.3    268.6   0.051449500   0.45498   0.28378   0.48805  -0.36913
  44   37254.0    268.4   0.066474672   0.58743  -0.36255   0.67051   0.08009
  45   37338.5    267.8   0.018245598   0.16087   0.01056  -0.22566  -0.33141
  46   37884.4    264.0   0.056079362   0.48732   0.14126   0.29117   0.61854
  47   38156.0    262.1   0.003976669   0.03431  -0.13252   0.00591   0.12928
  48   38460.4    260.0   0.173995339   1.48936  -0.17376  -1.14000  -0.39944
  49   38493.0    259.8   0.004995214   0.04272   0.18063   0.09336  -0.03710
  50   38869.3    257.3   0.063770347   0.54012   0.17362   0.71184  -0.05705
  51   38949.9    256.7   0.036825389   0.31125  -0.10324   0.53812   0.10499
  52   39271.3    254.6   0.056392602   0.47274   0.56764  -0.36081  -0.14262
  53   39385.2    253.9   0.056140081   0.46926  -0.32883   0.19428   0.56868
  54   39491.2    253.2   0.126262405   1.05256  -0.74243  -0.67783   0.20469
  55   39834.4    251.0   0.089589714   0.74042   0.11545  -0.83983   0.14757
  56   39966.6    250.2   0.018218937   0.15007   0.10814  -0.36071   0.09091
  57   40261.4    248.4   0.001125182   0.00920  -0.08791   0.03835  -0.00121

FINAL SINGLE POINT ENERGY     -5534.404678742728

DIPOLE MOMENT
-------------
                                X             Y             Z
Electronic contribution:      3.81902      -4.88373      11.56749
Nuclear contribution   :     -6.06267       4.38700     -10.86783
                        -----------------------------------------
Total Dipole Moment    :     -2.24365      -0.49673       0.69966
                        -----------------------------------------
Magnitude (a.u.)       :      2.40213
Magnitude (Debye)      :      6.10574

Rotational constants in cm-1:     0.001028     0.000156     0.000139
Rotational constants in MHz :    30.817762     4.664167     4.158783

                             ****ORCA TERMINATED NORMALLY****
TOTAL RUN TIME: 0 days 0 hours 24 minutes 8 seconds 857 msec
