                         Program Version 4.2.0 -  RELEASE  -
|  1> # ORCA input file
|  2> # SCF done       -243.909875942212          0.000720224013
|  3> ! CAM-B3LYP def2-SVP def2/J RIJCOSX Grid4 TightSCF
|  4> %maxcore 5000
|  5> %tddft
|  6>     Mode sTDDFT
|  7>     Ethresh 5.0
|  8>     maxcore 5000
|  9> end
| 10>
| 11> %pal
| 12>   nprocs 6
| 13>   end
| 14> * xyz 0 1
| 15>    C       -9.07669         3.14823        -0.99693
| 16>    C      -10.16910         3.51391        -1.73175
| 17>    F      -10.54205         4.79915        -1.79057
| 18>    C      -10.91675         2.54794        -2.43531
| 19>    F      -11.98394         2.93556        -3.14704
| 20>    C      -10.56144         1.22907        -2.39385
| 21>    C       -9.44101         0.82036        -1.64439
| 22>    C       -8.68328         1.79596        -0.93366
| 23>    C       -7.55361         1.41045        -0.17722
| 24>    C       -7.19227         0.08884        -0.13138
| 25>    C       -7.95869        -0.87694        -0.83703
| 26>    C       -9.05327        -0.53571        -1.57846
| 27>    C       -7.38711        -2.22113        -0.62425
| 28>    O       -7.82064        -3.24509        -1.11070
| 29>    C       -6.24656        -2.03226         0.30692
| 30>    C       -6.09870        -0.59923         0.54596
| 31>    C       -5.08800         0.02360         1.22833
| 32>    C       -5.00554         1.42206         1.40632
| 33>    N       -4.87779         2.54713         1.59504
| 34>    C       -3.96886        -0.59177         1.83299
| 35>    N       -3.01424        -0.97500         2.34375
| 36>    C       -5.51237        -2.96024         0.98631
| 37>    C       -5.41570        -4.38449         0.91228
| 38>    C       -4.75014        -5.03753         1.98759
| 39>    O       -4.35932        -4.26234         3.02243
| 40>    C       -3.56968        -4.82192         4.04707
| 41>    C       -4.55647        -6.40798         1.92674
| 42>    C       -4.98728        -7.15312         0.83370
| 43>    C       -5.68985        -6.52257        -0.21569
| 44>    C       -5.86974        -5.15257        -0.16475
| 45>    O       -6.17851        -7.32441        -1.18748
| 46>    C       -6.82208        -6.72407        -2.29364
| 47>    C       -4.73205        -8.57995         0.80107
| 48>    C       -4.23995        -9.34120        -0.23745
| 49>    C       -3.72354        -8.75279        -1.47138
| 50>    O       -3.46875        -7.57853        -1.62597
| 51>    C       -3.47323        -9.76391        -2.52485
| 52>    C       -3.52837       -11.15799        -2.26744
| 53>    C       -3.21622       -11.89471        -3.38567
| 54>    S       -2.87976       -10.91844        -4.75966
| 55>    C       -3.14034        -9.49583        -3.82973
| 56>    C       -3.00230        -8.15444        -4.47946
| 57>    F       -1.96034        -7.45814        -4.01813
| 58>    F       -2.80993        -8.28568        -5.80496
| 59>    F       -4.09351        -7.39545        -4.33500
| 60>    C       -3.12793       -13.38495        -3.51275
| 61>    F       -4.29615       -13.99797        -3.32473
| 62>    F       -2.71353       -13.72800        -4.74618
| 63>    F       -2.24207       -13.92090        -2.66318
| 64>    C       -3.87196       -11.74079        -0.94573
| 65>    O       -3.92035       -12.94537        -0.79597
| 66>    C       -4.17632       -10.73825         0.07352
| 67>    C       -4.57950       -11.00504         1.37694
| 68>    S       -5.11350        -9.56102         2.17046
| 69>    C       -4.57808       -12.24966         2.11021
| 70>    C       -5.54777       -12.49083         3.11072
| 71>    O       -6.42262       -11.48451         3.35522
| 72>    C       -7.46799       -11.69103         4.27796
| 73>    C       -5.54467       -13.70500         3.76918
| 74>    C       -4.64919       -14.72578         3.43598
| 75>    C       -3.65182       -14.46395         2.46867
| 76>    C       -3.60866       -13.21759         1.86755
| 77>    O       -2.76037       -15.44763         2.20743
| 78>    C       -1.81498       -15.25296         1.17445
| 79>    C       -4.74041       -15.96685         4.15928
| 80>    C       -4.43793       -17.23022         3.77888
| 81>    C       -4.24810       -18.28074         4.82066
| 82>    O       -4.57345       -18.21629         5.98275
| 83>    C       -3.52842       -19.37382         4.13600
| 84>    C       -2.99074       -20.51036         4.66786
| 85>    C       -2.30217       -21.40656         3.82004
| 86>    C       -2.18415       -21.10532         2.43178
| 87>    C       -1.48700       -21.99934         1.59414
| 88>    C       -0.93471       -23.13809         2.10949
| 89>    C       -1.05319       -23.43532         3.48219
| 90>    C       -1.72307       -22.58906         4.32046
| 91>    F       -0.49991       -24.55806         3.96033
| 92>    F       -0.27161       -23.98557         1.31201
| 93>    C       -2.76065       -19.92605         1.90718
| 94>    C       -3.42654       -19.07329         2.74688
| 95>    C       -4.12363       -17.81745         2.49143
| 96>    C       -4.57719       -17.37914         1.27818
| 97>    C       -5.47583       -16.30016         1.14046
| 98>    N       -6.25359       -15.46697         1.01118
| 99>    C       -4.26878       -18.00988         0.05527
|100>    N       -4.01763       -18.48919        -0.95655
|101>    H       -8.51440         3.90024        -0.46571
|102>    H      -11.14401         0.50204        -2.93767
|103>    H       -7.00611         2.17319         0.35177
|104>    H       -9.61462        -1.29150        -2.10664
|105>    H       -4.87491        -2.55990         1.76597
|106>    H       -3.30467        -3.98733         4.69373
|107>    H       -2.65793        -5.27299         3.64635
|108>    H       -4.12886        -5.56632         4.62204
|109>    H       -4.03847        -6.92834         2.71694
|110>    H       -6.37129        -4.64711        -0.96934
|111>    H       -7.16126        -7.55115        -2.91469
|112>    H       -6.12264        -6.10789        -2.86356
|113>    H       -7.67986        -6.12287        -1.98130
|114>    H       -8.05469       -10.77420         4.26244
|115>    H       -7.08240       -11.85704         5.28820
|116>    H       -8.09899       -12.53270         3.97986
|117>    H       -6.27895       -13.91519         4.53009
|118>    H       -2.82011       -12.98928         1.17428
|119>    H       -1.31633       -16.21346         1.05252
|120>    H       -1.07467       -14.49646         1.44979
|121>    H       -2.30052       -14.96974         0.23644
|122>    H       -5.05877       -15.87494         5.19448
|123>    H       -3.08559       -20.72180         5.72211
|124>    H       -1.38983       -21.78867         0.54058
|125>    H       -1.80472       -22.83074         5.36861
|126>    H       -2.65278       -19.71885         0.85435
|127> *
|128>
|129>                          ****END OF INPUT****

CARTESIAN COORDINATES (ANGSTROEM)
---------------------------------
  C     -9.076690    3.148230   -0.996930
  C    -10.169100    3.513910   -1.731750
  F    -10.542050    4.799150   -1.790570
  C    -10.916750    2.547940   -2.435310
  F    -11.983940    2.935560   -3.147040
  C    -10.561440    1.229070   -2.393850
  C     -9.441010    0.820360   -1.644390
  C     -8.683280    1.795960   -0.933660
  C     -7.553610    1.410450   -0.177220
  C     -7.192270    0.088840   -0.131380
  C     -7.958690   -0.876940   -0.837030
  C     -9.053270   -0.535710   -1.578460
  C     -7.387110   -2.221130   -0.624250
  O     -7.820640   -3.245090   -1.110700
  C     -6.246560   -2.032260    0.306920
  C     -6.098700   -0.599230    0.545960
  C     -5.088000    0.023600    1.228330
  C     -5.005540    1.422060    1.406320
  N     -4.877790    2.547130    1.595040
  C     -3.968860   -0.591770    1.832990
  N     -3.014240   -0.975000    2.343750
  C     -5.512370   -2.960240    0.986310
  C     -5.415700   -4.384490    0.912280
  C     -4.750140   -5.037530    1.987590
  O     -4.359320   -4.262340    3.022430
  C     -3.569680   -4.821920    4.047070
  C     -4.556470   -6.407980    1.926740
  C     -4.987280   -7.153120    0.833700
  C     -5.689850   -6.522570   -0.215690
  C     -5.869740   -5.152570   -0.164750
  O     -6.178510   -7.324410   -1.187480
  C     -6.822080   -6.724070   -2.293640
  C     -4.732050   -8.579950    0.801070
  C     -4.239950   -9.341200   -0.237450
  C     -3.723540   -8.752790   -1.471380
  O     -3.468750   -7.578530   -1.625970
  C     -3.473230   -9.763910   -2.524850
  C     -3.528370  -11.157990   -2.267440
  C     -3.216220  -11.894710   -3.385670
  S     -2.879760  -10.918440   -4.759660
  C     -3.140340   -9.495830   -3.829730
  C     -3.002300   -8.154440   -4.479460
  F     -1.960340   -7.458140   -4.018130
  F     -2.809930   -8.285680   -5.804960
  F     -4.093510   -7.395450   -4.335000
  C     -3.127930  -13.384950   -3.512750
  F     -4.296150  -13.997970   -3.324730
  F     -2.713530  -13.728000   -4.746180
  F     -2.242070  -13.920900   -2.663180
  C     -3.871960  -11.740790   -0.945730
  O     -3.920350  -12.945370   -0.795970
  C     -4.176320  -10.738250    0.073520
  C     -4.579500  -11.005040    1.376940
  S     -5.113500   -9.561020    2.170460
  C     -4.578080  -12.249660    2.110210
  C     -5.547770  -12.490830    3.110720
  O     -6.422620  -11.484510    3.355220
  C     -7.467990  -11.691030    4.277960
  C     -5.544670  -13.705000    3.769180
  C     -4.649190  -14.725780    3.435980
  C     -3.651820  -14.463950    2.468670
  C     -3.608660  -13.217590    1.867550
  O     -2.760370  -15.447630    2.207430
  C     -1.814980  -15.252960    1.174450
  C     -4.740410  -15.966850    4.159280
  C     -4.437930  -17.230220    3.778880
  C     -4.248100  -18.280740    4.820660
  O     -4.573450  -18.216290    5.982750
  C     -3.528420  -19.373820    4.136000
  C     -2.990740  -20.510360    4.667860
  C     -2.302170  -21.406560    3.820040
  C     -2.184150  -21.105320    2.431780
  C     -1.487000  -21.999340    1.594140
  C     -0.934710  -23.138090    2.109490
  C     -1.053190  -23.435320    3.482190
  C     -1.723070  -22.589060    4.320460
  F     -0.499910  -24.558060    3.960330
  F     -0.271610  -23.985570    1.312010
  C     -2.760650  -19.926050    1.907180
  C     -3.426540  -19.073290    2.746880
  C     -4.123630  -17.817450    2.491430
  C     -4.577190  -17.379140    1.278180
  C     -5.475830  -16.300160    1.140460
  N     -6.253590  -15.466970    1.011180
  C     -4.268780  -18.009880    0.055270
  N     -4.017630  -18.489190   -0.956550
  H     -8.514400    3.900240   -0.465710
  H    -11.144010    0.502040   -2.937670
  H     -7.006110    2.173190    0.351770
  H     -9.614620   -1.291500   -2.106640
  H     -4.874910   -2.559900    1.765970
  H     -3.304670   -3.987330    4.693730
  H     -2.657930   -5.272990    3.646350
  H     -4.128860   -5.566320    4.622040
  H     -4.038470   -6.928340    2.716940
  H     -6.371290   -4.647110   -0.969340
  H     -7.161260   -7.551150   -2.914690
  H     -6.122640   -6.107890   -2.863560
  H     -7.679860   -6.122870   -1.981300
  H     -8.054690  -10.774200    4.262440
  H     -7.082400  -11.857040    5.288200
  H     -8.098990  -12.532700    3.979860
  H     -6.278950  -13.915190    4.530090
  H     -2.820110  -12.989280    1.174280
  H     -1.316330  -16.213460    1.052520
  H     -1.074670  -14.496460    1.449790
  H     -2.300520  -14.969740    0.236440
  H     -5.058770  -15.874940    5.194480
  H     -3.085590  -20.721800    5.722110
  H     -1.389830  -21.788670    0.540580
  H     -1.804720  -22.830740    5.368610
  H     -2.652780  -19.718850    0.854350

 Total Charge           Charge          ....    0
 Multiplicity           Mult            ....    1
 Number of Electrons    NEL             ....  612
 Basis Dimension        Dim             .... 1342

ORBITAL ENERGIES
----------------

  NO   OCC          E(Eh)            E(eV)
   0   2.0000     -89.010054     -2422.0867
   1   2.0000     -88.981214     -2421.3019
   2   2.0000     -24.809575      -675.1029
   3   2.0000     -24.807776      -675.0539
   4   2.0000     -24.804846      -674.9742
   5   2.0000     -24.801545      -674.8844
   6   2.0000     -24.800210      -674.8480
   7   2.0000     -24.798990      -674.8148
   8   2.0000     -24.798262      -674.7950
   9   2.0000     -24.797960      -674.7868
  10   2.0000     -24.797558      -674.7758
  11   2.0000     -24.797191      -674.7659
  12   2.0000     -19.265904      -524.2519
  13   2.0000     -19.261301      -524.1266
  14   2.0000     -19.259881      -524.0880
  15   2.0000     -19.247012      -523.7378
  16   2.0000     -19.222157      -523.0615
  17   2.0000     -19.220224      -523.0089
  18   2.0000     -19.219003      -522.9757
  19   2.0000     -19.216566      -522.9094
  20   2.0000     -14.415849      -392.2752
  21   2.0000     -14.413828      -392.2202
  22   2.0000     -14.413667      -392.2158
  23   2.0000     -14.411233      -392.1496
  24   2.0000     -10.534322      -286.6535
  25   2.0000     -10.532865      -286.6138
  26   2.0000     -10.384348      -282.5725
  27   2.0000     -10.381388      -282.4919
  28   2.0000     -10.380980      -282.4808
  29   2.0000     -10.380653      -282.4719
  30   2.0000     -10.380547      -282.4690
  31   2.0000     -10.378384      -282.4102
  32   2.0000     -10.372007      -282.2367
  33   2.0000     -10.367077      -282.1025
  34   2.0000     -10.349611      -281.6272
  35   2.0000     -10.348270      -281.5907
  36   2.0000     -10.346081      -281.5312
  37   2.0000     -10.345862      -281.5252
  38   2.0000     -10.345326      -281.5106
  39   2.0000     -10.341060      -281.3945
  40   2.0000     -10.340981      -281.3924
  41   2.0000     -10.339872      -281.3622
  42   2.0000     -10.337784      -281.3054
  43   2.0000     -10.337735      -281.3041
  44   2.0000     -10.336747      -281.2772
  45   2.0000     -10.333805      -281.1971
  46   2.0000     -10.331946      -281.1466
  47   2.0000     -10.328320      -281.0479
  48   2.0000     -10.325342      -280.9668
  49   2.0000     -10.318570      -280.7826
  50   2.0000     -10.318091      -280.7695
  51   2.0000     -10.317600      -280.7562
  52   2.0000     -10.317217      -280.7458
  53   2.0000     -10.317016      -280.7403
  54   2.0000     -10.316635      -280.7299
  55   2.0000     -10.313968      -280.6573
  56   2.0000     -10.313934      -280.6564
  57   2.0000     -10.311983      -280.6033
  58   2.0000     -10.310417      -280.5607
  59   2.0000     -10.310277      -280.5569
  60   2.0000     -10.309938      -280.5477
  61   2.0000     -10.309898      -280.5466
  62   2.0000     -10.307075      -280.4698
  63   2.0000     -10.306274      -280.4480
  64   2.0000     -10.305494      -280.4267
  65   2.0000     -10.304262      -280.3932
  66   2.0000     -10.302737      -280.3517
  67   2.0000     -10.302353      -280.3413
  68   2.0000     -10.302178      -280.3365
  69   2.0000     -10.301463      -280.3171
  70   2.0000     -10.301194      -280.3097
  71   2.0000     -10.301087      -280.3068
  72   2.0000     -10.300999      -280.3044
  73   2.0000     -10.300122      -280.2806
  74   2.0000     -10.300017      -280.2777
  75   2.0000     -10.299455      -280.2624
  76   2.0000     -10.298616      -280.2396
  77   2.0000     -10.296737      -280.1885
  78   2.0000     -10.295935      -280.1666
  79   2.0000     -10.294212      -280.1197
  80   2.0000     -10.293384      -280.0972
  81   2.0000     -10.292381      -280.0699
  82   2.0000     -10.288427      -279.9623
  83   2.0000     -10.287470      -279.9363
  84   2.0000     -10.285046      -279.8703
  85   2.0000     -10.275814      -279.6191
  86   2.0000      -8.105021      -220.5488
  87   2.0000      -8.076100      -219.7618
  88   2.0000      -6.074135      -165.2856
  89   2.0000      -6.069689      -165.1646
  90   2.0000      -6.067691      -165.1103
  91   2.0000      -6.045186      -164.4979
  92   2.0000      -6.040711      -164.3761
  93   2.0000      -6.038838      -164.3251
  94   2.0000      -1.397364       -38.0242
  95   2.0000      -1.395401       -37.9708
  96   2.0000      -1.320703       -35.9382
  97   2.0000      -1.320636       -35.9363
  98   2.0000      -1.305866       -35.5344
  99   2.0000      -1.305763       -35.5316
 100   2.0000      -1.299854       -35.3708
 101   2.0000      -1.297438       -35.3051
 102   2.0000      -1.296520       -35.2801
 103   2.0000      -1.295094       -35.2413
 104   2.0000      -1.171742       -31.8847
 105   2.0000      -1.167451       -31.7680
 106   2.0000      -1.165053       -31.7027
 107   2.0000      -1.154515       -31.4160
 108   2.0000      -1.143451       -31.1149
 109   2.0000      -1.137071       -30.9413
 110   2.0000      -1.135282       -30.8926
 111   2.0000      -1.131831       -30.7987
 112   2.0000      -1.032593       -28.0983
 113   2.0000      -1.018553       -27.7162
 114   2.0000      -1.017570       -27.6895
 115   2.0000      -1.012216       -27.5438
 116   2.0000      -1.003527       -27.3074
 117   2.0000      -1.002748       -27.2862
 118   2.0000      -0.992618       -27.0105
 119   2.0000      -0.992229       -26.9999
 120   2.0000      -0.980873       -26.6909
 121   2.0000      -0.979884       -26.6640
 122   2.0000      -0.970636       -26.4123
 123   2.0000      -0.963431       -26.2163
 124   2.0000      -0.932369       -25.3710
 125   2.0000      -0.930995       -25.3337
 126   2.0000      -0.920598       -25.0507
 127   2.0000      -0.916155       -24.9299
 128   2.0000      -0.904019       -24.5996
 129   2.0000      -0.903757       -24.5925
 130   2.0000      -0.896614       -24.3981
 131   2.0000      -0.893284       -24.3075
 132   2.0000      -0.889825       -24.2134
 133   2.0000      -0.886300       -24.1174
 134   2.0000      -0.865505       -23.5516
 135   2.0000      -0.863218       -23.4894
 136   2.0000      -0.856785       -23.3143
 137   2.0000      -0.854818       -23.2608
 138   2.0000      -0.845289       -23.0015
 139   2.0000      -0.840073       -22.8595
 140   2.0000      -0.839844       -22.8533
 141   2.0000      -0.831504       -22.6264
 142   2.0000      -0.821344       -22.3499
 143   2.0000      -0.820150       -22.3174
 144   2.0000      -0.812857       -22.1190
 145   2.0000      -0.800488       -21.7824
 146   2.0000      -0.799135       -21.7456
 147   2.0000      -0.788062       -21.4443
 148   2.0000      -0.772226       -21.0133
 149   2.0000      -0.767280       -20.8787
 150   2.0000      -0.765457       -20.8292
 151   2.0000      -0.764558       -20.8047
 152   2.0000      -0.753895       -20.5145
 153   2.0000      -0.750626       -20.4256
 154   2.0000      -0.744313       -20.2538
 155   2.0000      -0.734221       -19.9792
 156   2.0000      -0.727236       -19.7891
 157   2.0000      -0.723344       -19.6832
 158   2.0000      -0.720038       -19.5932
 159   2.0000      -0.716607       -19.4999
 160   2.0000      -0.713780       -19.4230
 161   2.0000      -0.699726       -19.0405
 162   2.0000      -0.696535       -18.9537
 163   2.0000      -0.693707       -18.8767
 164   2.0000      -0.685824       -18.6622
 165   2.0000      -0.682038       -18.5592
 166   2.0000      -0.679458       -18.4890
 167   2.0000      -0.678996       -18.4764
 168   2.0000      -0.677969       -18.4485
 169   2.0000      -0.677048       -18.4234
 170   2.0000      -0.673600       -18.3296
 171   2.0000      -0.666238       -18.1293
 172   2.0000      -0.658375       -17.9153
 173   2.0000      -0.656507       -17.8645
 174   2.0000      -0.654323       -17.8050
 175   2.0000      -0.647171       -17.6104
 176   2.0000      -0.645754       -17.5719
 177   2.0000      -0.641487       -17.4558
 178   2.0000      -0.640412       -17.4265
 179   2.0000      -0.634060       -17.2536
 180   2.0000      -0.628484       -17.1019
 181   2.0000      -0.621962       -16.9244
 182   2.0000      -0.616916       -16.7871
 183   2.0000      -0.615816       -16.7572
 184   2.0000      -0.612264       -16.6605
 185   2.0000      -0.611357       -16.6359
 186   2.0000      -0.608032       -16.5454
 187   2.0000      -0.605512       -16.4768
 188   2.0000      -0.602043       -16.3824
 189   2.0000      -0.595093       -16.1933
 190   2.0000      -0.586066       -15.9477
 191   2.0000      -0.585262       -15.9258
 192   2.0000      -0.585202       -15.9242
 193   2.0000      -0.584092       -15.8940
 194   2.0000      -0.581663       -15.8278
 195   2.0000      -0.578761       -15.7489
 196   2.0000      -0.572897       -15.5893
 197   2.0000      -0.570440       -15.5225
 198   2.0000      -0.569413       -15.4945
 199   2.0000      -0.566823       -15.4240
 200   2.0000      -0.565021       -15.3750
 201   2.0000      -0.563133       -15.3236
 202   2.0000      -0.562532       -15.3073
 203   2.0000      -0.555763       -15.1231
 204   2.0000      -0.554910       -15.0999
 205   2.0000      -0.554217       -15.0810
 206   2.0000      -0.554081       -15.0773
 207   2.0000      -0.551907       -15.0181
 208   2.0000      -0.550206       -14.9719
 209   2.0000      -0.548523       -14.9261
 210   2.0000      -0.546925       -14.8826
 211   2.0000      -0.546884       -14.8815
 212   2.0000      -0.546847       -14.8805
 213   2.0000      -0.543803       -14.7976
 214   2.0000      -0.542733       -14.7685
 215   2.0000      -0.539455       -14.6793
 216   2.0000      -0.537222       -14.6185
 217   2.0000      -0.535723       -14.5778
 218   2.0000      -0.532512       -14.4904
 219   2.0000      -0.531626       -14.4663
 220   2.0000      -0.530750       -14.4424
 221   2.0000      -0.528953       -14.3935
 222   2.0000      -0.526931       -14.3385
 223   2.0000      -0.524072       -14.2607
 224   2.0000      -0.520911       -14.1747
 225   2.0000      -0.518076       -14.0976
 226   2.0000      -0.517360       -14.0781
 227   2.0000      -0.516147       -14.0451
 228   2.0000      -0.515320       -14.0226
 229   2.0000      -0.513709       -13.9787
 230   2.0000      -0.512694       -13.9511
 231   2.0000      -0.510432       -13.8896
 232   2.0000      -0.508324       -13.8322
 233   2.0000      -0.507850       -13.8193
 234   2.0000      -0.506037       -13.7700
 235   2.0000      -0.502601       -13.6765
 236   2.0000      -0.500171       -13.6104
 237   2.0000      -0.499397       -13.5893
 238   2.0000      -0.497261       -13.5312
 239   2.0000      -0.495726       -13.4894
 240   2.0000      -0.493981       -13.4419
 241   2.0000      -0.493490       -13.4286
 242   2.0000      -0.491523       -13.3750
 243   2.0000      -0.489320       -13.3151
 244   2.0000      -0.488896       -13.3035
 245   2.0000      -0.488407       -13.2902
 246   2.0000      -0.486063       -13.2264
 247   2.0000      -0.485932       -13.2229
 248   2.0000      -0.484557       -13.1855
 249   2.0000      -0.483352       -13.1527
 250   2.0000      -0.477399       -12.9907
 251   2.0000      -0.476807       -12.9746
 252   2.0000      -0.473851       -12.8941
 253   2.0000      -0.471514       -12.8305
 254   2.0000      -0.468649       -12.7526
 255   2.0000      -0.466522       -12.6947
 256   2.0000      -0.466013       -12.6808
 257   2.0000      -0.463325       -12.6077
 258   2.0000      -0.462014       -12.5720
 259   2.0000      -0.455488       -12.3945
 260   2.0000      -0.452012       -12.2999
 261   2.0000      -0.450355       -12.2548
 262   2.0000      -0.449408       -12.2290
 263   2.0000      -0.446674       -12.1546
 264   2.0000      -0.445631       -12.1262
 265   2.0000      -0.445117       -12.1123
 266   2.0000      -0.442600       -12.0438
 267   2.0000      -0.442101       -12.0302
 268   2.0000      -0.440862       -11.9965
 269   2.0000      -0.432759       -11.7760
 270   2.0000      -0.430169       -11.7055
 271   2.0000      -0.430026       -11.7016
 272   2.0000      -0.425486       -11.5781
 273   2.0000      -0.425355       -11.5745
 274   2.0000      -0.421741       -11.4762
 275   2.0000      -0.421022       -11.4566
 276   2.0000      -0.420383       -11.4392
 277   2.0000      -0.419415       -11.4129
 278   2.0000      -0.413352       -11.2479
 279   2.0000      -0.412152       -11.2152
 280   2.0000      -0.408603       -11.1187
 281   2.0000      -0.407556       -11.0902
 282   2.0000      -0.401870       -10.9354
 283   2.0000      -0.397449       -10.8151
 284   2.0000      -0.388903       -10.5826
 285   2.0000      -0.387228       -10.5370
 286   2.0000      -0.385342       -10.4857
 287   2.0000      -0.377513       -10.2727
 288   2.0000      -0.366749        -9.9798
 289   2.0000      -0.362925        -9.8757
 290   2.0000      -0.360979        -9.8227
 291   2.0000      -0.350661        -9.5420
 292   2.0000      -0.347345        -9.4517
 293   2.0000      -0.344303        -9.3690
 294   2.0000      -0.340827        -9.2744
 295   2.0000      -0.338949        -9.2233
 296   2.0000      -0.337857        -9.1936
 297   2.0000      -0.328269        -8.9327
 298   2.0000      -0.318023        -8.6539
 299   2.0000      -0.316424        -8.6103
 300   2.0000      -0.311562        -8.4780
 301   2.0000      -0.304489        -8.2856
 302   2.0000      -0.297308        -8.0902
 303   2.0000      -0.293892        -7.9972
 304   2.0000      -0.277610        -7.5542
 305   2.0000      -0.265416        -7.2223
 306   0.0000      -0.094459        -2.5704
 307   0.0000      -0.091628        -2.4933
 308   0.0000      -0.068740        -1.8705
 309   0.0000      -0.064670        -1.7598
 310   0.0000      -0.058084        -1.5805

MULLIKEN ATOMIC CHARGES
-----------------------
   0 C :   -0.109023
   1 C :    0.243354
   2 F :   -0.171744
   3 C :    0.238755
   4 F :   -0.172497
   5 C :   -0.106140
   6 C :    0.118584
   7 C :    0.113633
   8 C :   -0.082295
   9 C :    0.047145
  10 C :    0.000615
  11 C :   -0.083972
  12 C :    0.157556
  13 O :   -0.157444
  14 C :   -0.051692
  15 C :    0.310463
  16 C :   -0.352933
  17 C :   -0.186621
  18 N :    0.143453
  19 C :   -0.201913
  20 N :    0.163998
  21 C :   -0.029984
  22 C :    0.029518
  23 C :    0.247745
  24 O :   -0.304759
  25 C :    0.178930
  26 C :   -0.149994
  27 C :    0.042888
  28 C :    0.258762
  29 C :   -0.139648
  30 O :   -0.316137
  31 C :    0.177389
  32 C :   -0.148941
  33 C :    0.056315
  34 C :    0.107902
  35 O :   -0.140890
  36 C :    0.065220
  37 C :    0.056145
  38 C :   -0.340770
  39 S :    0.277923
  40 C :   -0.340379
  41 C :    0.566918
  42 F :   -0.142145
  43 F :   -0.166274
  44 F :   -0.148896
  45 C :    0.570715
  46 F :   -0.136995
  47 F :   -0.165493
  48 F :   -0.152908
  49 C :    0.129968
  50 O :   -0.152427
  51 C :    0.014553
  52 C :   -0.137880
  53 S :    0.224561
  54 C :    0.055645
  55 C :    0.248983
  56 O :   -0.329168
  57 C :    0.176436
  58 C :   -0.150840
  59 C :    0.052793
  60 C :    0.212927
  61 C :   -0.076988
  62 O :   -0.317232
  63 C :    0.168875
  64 C :    0.008265
  65 C :   -0.105360
  66 C :    0.134913
  67 O :   -0.140601
  68 C :    0.015449
  69 C :   -0.086101
  70 C :    0.114245
  71 C :    0.115858
  72 C :   -0.111690
  73 C :    0.243629
  74 C :    0.238232
  75 C :   -0.105360
  76 F :   -0.172998
  77 F :   -0.171147
  78 C :   -0.093468
  79 C :    0.043613
  80 C :    0.309874
  81 C :   -0.333574
  82 C :   -0.202742
  83 N :    0.179680
  84 C :   -0.187284
  85 N :    0.154376
  86 H :    0.007652
  87 H :   -0.000740
  88 H :   -0.006415
  89 H :   -0.012344
  90 H :    0.035149
  91 H :    0.052244
  92 H :    0.032025
  93 H :    0.024057
  94 H :   -0.034569
  95 H :   -0.016646
  96 H :    0.031208
  97 H :    0.033055
  98 H :    0.038984
  99 H :    0.043043
 100 H :    0.028398
 101 H :    0.039370
 102 H :   -0.031061
 103 H :   -0.032870
 104 H :    0.036507
 105 H :    0.027647
 106 H :    0.052765
 107 H :    0.021147
 108 H :   -0.009318
 109 H :    0.005870
 110 H :   -0.000492
 111 H :   -0.006123
Sum of atomic charges:   -0.0000000

LOEWDIN ATOMIC CHARGES
----------------------
   0 C :   -0.029102
   1 C :    0.066451
   2 F :   -0.049218
   3 C :    0.067315
   4 F :   -0.049853
   5 C :   -0.033758
   6 C :   -0.009030
   7 C :   -0.006458
   8 C :    0.017379
   9 C :   -0.023235
  10 C :   -0.052126
  11 C :    0.029010
  12 C :    0.088090
  13 O :   -0.145891
  14 C :   -0.098714
  15 C :    0.077445
  16 C :   -0.138828
  17 C :   -0.016016
  18 N :   -0.056573
  19 C :   -0.026170
  20 N :   -0.049081
  21 C :    0.092595
  22 C :   -0.056986
  23 C :    0.071087
  24 O :   -0.086595
  25 C :    0.082393
  26 C :   -0.066149
  27 C :   -0.031574
  28 C :    0.052599
  29 C :   -0.020328
  30 O :   -0.096815
  31 C :    0.079773
  32 C :   -0.126248
  33 C :   -0.088836
  34 C :    0.077494
  35 O :   -0.124565
  36 C :   -0.063010
  37 C :   -0.065542
  38 C :   -0.207059
  39 S :    0.555959
  40 C :   -0.211045
  41 C :    0.146596
  42 F :   -0.042995
  43 F :   -0.067250
  44 F :   -0.047143
  45 C :    0.144685
  46 F :   -0.037734
  47 F :   -0.066681
  48 F :   -0.052022
  49 C :    0.080164
  50 O :   -0.130584
  51 C :   -0.097489
  52 C :   -0.115959
  53 S :    0.525747
  54 C :   -0.048089
  55 C :    0.051777
  56 O :   -0.109675
  57 C :    0.081322
  58 C :   -0.042885
  59 C :   -0.043012
  60 C :    0.054954
  61 C :   -0.019807
  62 O :   -0.087522
  63 C :    0.078379
  64 C :    0.073719
  65 C :   -0.080630
  66 C :    0.085177
  67 O :   -0.141043
  68 C :   -0.054201
  69 C :    0.030225
  70 C :   -0.010512
  71 C :   -0.005432
  72 C :   -0.031448
  73 C :    0.066731
  74 C :    0.065976
  75 C :   -0.033113
  76 F :   -0.050220
  77 F :   -0.049033
  78 C :    0.010024
  79 C :   -0.016757
  80 C :    0.072476
  81 C :   -0.129192
  82 C :   -0.017604
  83 N :   -0.040243
  84 C :   -0.018448
  85 N :   -0.052231
  86 H :    0.047798
  87 H :    0.044517
  88 H :    0.039818
  89 H :    0.039084
  90 H :    0.046004
  91 H :    0.036077
  92 H :    0.020273
  93 H :    0.015849
  94 H :    0.026500
  95 H :    0.031390
  96 H :    0.027201
  97 H :    0.019661
  98 H :    0.021353
  99 H :    0.031922
 100 H :    0.017299
 101 H :    0.023275
 102 H :    0.032964
 103 H :    0.031661
 104 H :    0.029031
 105 H :    0.017719
 106 H :    0.026150
 107 H :    0.045938
 108 H :    0.040332
 109 H :    0.047027
 110 H :    0.044692
 111 H :    0.038683

  Mayer bond orders larger than 0.100000
B(  0-C ,  1-C ) :   1.4413 B(  0-C ,  5-C ) :   0.1088 B(  0-C ,  7-C ) :   1.1883
B(  0-C , 86-H ) :   1.0073 B(  1-C ,  2-F ) :   1.1338 B(  1-C ,  3-C ) :   1.1891
B(  3-C ,  4-F ) :   1.1328 B(  3-C ,  5-C ) :   1.4451 B(  5-C ,  6-C ) :   1.1891
B(  5-C , 87-H ) :   1.0074 B(  6-C ,  7-C ) :   1.2553 B(  6-C , 11-C ) :   1.1901
B(  7-C ,  8-C ) :   1.2186 B(  8-C ,  9-C ) :   1.4463 B(  8-C , 88-H ) :   0.9899
B(  9-C , 10-C ) :   1.2235 B(  9-C , 15-C ) :   0.9806 B( 10-C , 11-C ) :   1.4660
B( 10-C , 12-C ) :   0.9530 B( 11-C , 89-H ) :   1.0167 B( 12-C , 13-O ) :   2.1732
B( 12-C , 14-C ) :   0.9342 B( 14-C , 15-C ) :   1.0730 B( 14-C , 21-C ) :   1.5490
B( 15-C , 16-C ) :   1.6332 B( 16-C , 17-C ) :   1.1490 B( 16-C , 19-C ) :   1.1354
B( 17-C , 18-N ) :   2.9619 B( 19-C , 20-N ) :   2.9901 B( 21-C , 22-C ) :   1.1833
B( 21-C , 90-H ) :   0.9254 B( 22-C , 23-C ) :   1.2839 B( 22-C , 29-C ) :   1.2846
B( 23-C , 24-O ) :   1.1693 B( 23-C , 26-C ) :   1.2873 B( 24-O , 25-C ) :   0.9484
B( 25-C , 91-H ) :   0.9775 B( 25-C , 92-H ) :   0.9692 B( 25-C , 93-H ) :   0.9695
B( 26-C , 27-C ) :   1.3414 B( 26-C , 94-H ) :   0.9982 B( 27-C , 28-C ) :   1.3518
B( 27-C , 32-C ) :   0.9861 B( 28-C , 29-C ) :   1.3098 B( 28-C , 30-O ) :   1.1770
B( 29-C , 95-H ) :   0.9790 B( 30-O , 31-C ) :   0.9426 B( 31-C , 96-H ) :   0.9769
B( 31-C , 97-H ) :   0.9688 B( 31-C , 98-H ) :   0.9671 B( 32-C , 33-C ) :   1.5467
B( 32-C , 53-S ) :   1.1645 B( 33-C , 34-C ) :   0.9704 B( 33-C , 51-C ) :   1.1890
B( 34-C , 35-O ) :   2.2047 B( 34-C , 36-C ) :   0.9247 B( 36-C , 37-C ) :   1.2318
B( 36-C , 40-C ) :   1.5798 B( 37-C , 38-C ) :   1.5765 B( 37-C , 49-C ) :   0.9406
B( 38-C , 39-S ) :   1.1898 B( 38-C , 45-C ) :   0.9309 B( 39-S , 40-C ) :   1.1819
B( 40-C , 41-C ) :   0.9316 B( 41-C , 42-F ) :   1.1910 B( 41-C , 43-F ) :   1.1509
B( 41-C , 44-F ) :   1.1677 B( 45-C , 46-F ) :   1.1964 B( 45-C , 47-F ) :   1.1498
B( 45-C , 48-F ) :   1.1642 B( 49-C , 50-O ) :   2.1529 B( 49-C , 51-C ) :   0.9854
B( 51-C , 52-C ) :   1.4988 B( 52-C , 53-S ) :   1.1771 B( 52-C , 54-C ) :   1.0358
B( 54-C , 55-C ) :   1.3171 B( 54-C , 61-C ) :   1.3717 B( 55-C , 56-O ) :   1.1395
B( 55-C , 58-C ) :   1.3067 B( 56-O , 57-C ) :   0.9474 B( 57-C , 99-H ) :   0.9776
B( 57-C ,100-H ) :   0.9694 B( 57-C ,101-H ) :   0.9713 B( 58-C , 59-C ) :   1.2883
B( 58-C ,102-H ) :   1.0047 B( 59-C , 60-C ) :   1.3190 B( 59-C , 64-C ) :   1.0564
B( 60-C , 61-C ) :   1.3252 B( 60-C , 62-O ) :   1.1649 B( 61-C ,103-H ) :   0.9722
B( 62-O , 63-C ) :   0.9346 B( 63-C ,104-H ) :   0.9759 B( 63-C ,105-H ) :   0.9696
B( 63-C ,106-H ) :   0.9655 B( 64-C , 65-C ) :   1.7074 B( 64-C ,107-H ) :   0.9391
B( 65-C , 66-C ) :   0.9351 B( 65-C , 80-C ) :   1.0238 B( 66-C , 67-O ) :   2.2714
B( 66-C , 68-C ) :   0.9178 B( 68-C , 69-C ) :   1.4709 B( 68-C , 79-C ) :   1.2182
B( 69-C , 70-C ) :   1.1943 B( 69-C ,108-H ) :   1.0165 B( 70-C , 71-C ) :   1.2581
B( 70-C , 75-C ) :   1.1915 B( 71-C , 72-C ) :   1.1886 B( 71-C , 78-C ) :   1.2106
B( 72-C , 73-C ) :   1.4411 B( 72-C , 75-C ) :   0.1091 B( 72-C ,109-H ) :   1.0075
B( 73-C , 74-C ) :   1.1916 B( 73-C , 77-F ) :   1.1341 B( 74-C , 75-C ) :   1.4429
B( 74-C , 76-F ) :   1.1320 B( 75-C ,110-H ) :   1.0074 B( 78-C , 79-C ) :   1.4543
B( 78-C ,111-H ) :   0.9953 B( 79-C , 80-C ) :   1.0037 B( 80-C , 81-C ) :   1.6672
B( 81-C , 82-C ) :   1.1575 B( 81-C , 84-C ) :   1.1398 B( 82-C , 83-N ) :   3.0153
B( 84-C , 85-N ) :   2.9803

-----------------------------------------------------------------------------
         ABSORPTION SPECTRUM VIA TRANSITION ELECTRIC DIPOLE MOMENTS
-----------------------------------------------------------------------------
State   Energy  Wavelength   fosc         T2         TX        TY        TZ
        (cm-1)    (nm)                  (au**2)     (au)      (au)      (au)
-----------------------------------------------------------------------------
   0   19876.0    503.1   1.070025670  17.72317   0.79819  -4.05138   0.81997
   1   20816.9    480.4   0.119861994   1.89557   0.51362   1.09892  -0.65125
   2   24506.2    408.1   0.087966267   1.18172  -0.06519  -0.91920   0.57667
   3   25477.8    392.5   0.003895504   0.05034  -0.11535   0.12326  -0.14777
   4   26375.6    379.1   0.129965183   1.62218   0.38828  -0.76742  -0.93941
   5   26559.8    376.5   0.210375587   2.60763   0.01651  -1.55734  -0.42666
   6   26803.5    373.1   0.048741174   0.59866   0.31373   0.64581  -0.28838
   7   27562.1    362.8   0.003318475   0.03964   0.19533   0.00808  -0.03767
   8   28098.5    355.9   0.025934996   0.30386   0.29215   0.31199   0.34810
   9   28349.5    352.7   0.081165335   0.94254   0.60744  -0.40259   0.64147
  10   29029.0    344.5   0.140643550   1.59501  -0.90835   0.67327  -0.56269
  11   29533.2    338.6   0.106181513   1.18362  -0.29653   1.04640  -0.02709
  12   29640.6    337.4   0.040636562   0.45134   0.39025  -0.53495  -0.11347
  13   29950.8    333.9   0.024057596   0.26444   0.40266  -0.03275   0.31816
  14   30443.9    328.5   0.138783656   1.50077  -0.36538   1.14534  -0.23551
  15   30517.2    327.7   0.005167823   0.05575  -0.10243   0.21030   0.03210
  16   30664.4    326.1   0.023802823   0.25555  -0.37616   0.25642   0.21977
  17   31009.6    322.5   0.251739210   2.67257   0.50132  -1.55520  -0.05110
  18   31470.4    317.8   0.036178387   0.37846  -0.16649   0.58775   0.07278
  19   32029.6    312.2   0.017223466   0.17703  -0.03863  -0.16042   0.38704
  20   32617.3    306.6   0.028632446   0.28899  -0.41354  -0.17528   0.29539
  21   32913.8    303.8   0.156533483   1.56569   0.63090  -0.54159   0.93506
  22   33657.5    297.1   0.258143590   2.52496  -1.10640   0.98718  -0.57125
  23   34194.4    292.4   0.154678864   1.48920  -0.48712   0.69787  -0.87458
  24   34498.2    289.9   1.494988438  14.26649  -2.36194   2.59007  -1.40686
  25   34604.9    289.0   0.228091279   2.16994  -0.53799  -1.34965  -0.24278
  26   35273.9    283.5   0.195922891   1.82855  -0.26468   1.29994  -0.26201
  27   35520.0    281.5   0.116713371   1.08174  -0.78983   0.63468  -0.23469
  28   35927.8    278.3   0.054277049   0.49735  -0.54632  -0.05532  -0.44251
  29   36237.6    276.0   0.020456273   0.18584  -0.19030  -0.28587  -0.26059
  30   36422.0    274.6   0.036052926   0.32588  -0.03092   0.44936   0.35071
  31   36482.6    274.1   0.020691379   0.18672  -0.30968   0.28730  -0.09095
  32   36623.1    273.1   0.018901812   0.16991  -0.22888   0.21493   0.26708
  33   37053.3    269.9   0.006197787   0.05507   0.20922  -0.10208  -0.02953
  34   37206.6    268.8   0.080486248   0.71216  -0.19065  -0.05489  -0.82024
  35   37371.3    267.6   0.019023677   0.16758  -0.29431  -0.08068  -0.27287
  36   37895.3    263.9   0.007791513   0.06769  -0.19893  -0.13359   0.10133
  37   37998.2    263.2   0.014318393   0.12405  -0.22097  -0.11589  -0.24859
  38   38086.3    262.6   0.049244434   0.42566  -0.51322   0.39975   0.04970
  39   38507.2    259.7   0.097781687   0.83597  -0.05617  -0.08898   0.90824
  40   38584.4    259.2   0.144722093   1.23480   0.40107   1.03383   0.07170
  41   38768.6    257.9   0.070879439   0.60189   0.09880  -0.70820  -0.30095
  42   39215.4    255.0   0.092646261   0.77776   0.00166   0.50426   0.72352
  43   39456.3    253.4   0.078828482   0.65772   0.32414   0.51974  -0.53153
  44   39826.3    251.1   0.017813508   0.14725   0.21228   0.23958  -0.21164
  45   39829.1    251.1   0.069202029   0.57200   0.11527  -0.16228  -0.72964
  46   39912.8    250.5   0.014918413   0.12305   0.16774   0.26185   0.16233
  47   40265.4    248.4   0.020696044   0.16921   0.14013   0.32530   0.20918

FINAL SINGLE POINT ENERGY     -4988.567756498993

DIPOLE MOMENT
-------------
                                X             Y             Z
Electronic contribution:     14.39813     -11.61673     -58.08871
Nuclear contribution   :    -15.02428      10.58333      59.56890
                        -----------------------------------------
Total Dipole Moment    :     -0.62615      -1.03340       1.48019
                        -----------------------------------------
Magnitude (a.u.)       :      1.91074
Magnitude (Debye)      :      4.85672

Rotational constants in cm-1:     0.001520     0.000210     0.000197
Rotational constants in MHz :    45.569516     6.281628     5.893434

                             ****ORCA TERMINATED NORMALLY****
TOTAL RUN TIME: 0 days 0 hours 26 minutes 47 seconds 52 msec
