                         Program Version 4.2.0 -  RELEASE  -
|  1> # ORCA input file
|  2> # SCF done       -215.668184450206          0.000463595402
|  3> ! CAM-B3LYP def2-SVP def2/J RIJCOSX Grid4 TightSCF
|  4> %maxcore 5000
|  5> %tddft
|  6>     Mode sTDDFT
|  7>     Ethresh 5.0
|  8>     maxcore 5000
|  9> end
| 10>
| 11> %pal
| 12>   nprocs 6
| 13>   end
| 14> * xyz 0 1
| 15>    C       -5.82413         0.02293        -8.49823
| 16>    C       -6.15532        -0.20807        -9.80416
| 17>    F       -6.16822         0.80070       -10.68386
| 18>    C       -6.48680        -1.50644       -10.24165
| 19>    F       -6.80898        -1.70331       -11.52645
| 20>    C       -6.48041        -2.55670        -9.36689
| 21>    C       -6.14196        -2.35063        -8.01550
| 22>    C       -5.80906        -1.03819        -7.57091
| 23>    C       -5.46864        -0.80609        -6.21803
| 24>    C       -5.45920        -1.85441        -5.33607
| 25>    C       -5.78962        -3.16132        -5.79197
| 26>    C       -6.12425        -3.41755        -7.09041
| 27>    C       -5.70074        -4.10002        -4.66363
| 28>    O       -5.90995        -5.30110        -4.70626
| 29>    C       -5.31765        -3.30525        -3.49244
| 30>    C       -5.15440        -1.92283        -3.90769
| 31>    C       -4.77014        -0.85994        -3.13357
| 32>    C       -4.45065        -0.91046        -1.75979
| 33>    N       -4.16870        -0.86879        -0.64746
| 34>    C       -4.63027         0.45856        -3.61829
| 35>    N       -4.49714         1.54938        -3.94916
| 36>    C       -5.16449        -3.79128        -2.21838
| 37>    C       -5.28000        -5.10053        -1.72659
| 38>    C       -5.08717        -5.39740        -0.37016
| 39>    C       -5.22066        -6.74495        -0.09837
| 40>    C       -5.51716        -7.49463        -1.26176
| 41>    S       -5.64212        -6.54628        -2.66932
| 42>    C       -5.61768        -8.85513        -0.88778
| 43>    C       -5.38811        -8.97561         0.49567
| 44>    C       -5.13420        -7.65015         1.03961
| 45>    C       -4.87056        -7.32386         2.33603
| 46>    C       -4.80187        -8.29161         3.36188
| 47>    N       -4.74104        -9.06945         4.20135
| 48>    C       -4.64917        -5.99033         2.74423
| 49>    N       -4.47074        -4.91040         3.08382
| 50>    C       -5.45771       -10.29337         0.94750
| 51>    C       -5.73541       -11.17182        -0.08656
| 52>    S       -5.91888       -10.35986        -1.63254
| 53>    C       -5.86417       -12.58513        -0.03035
| 54>    C       -5.76562       -13.42925         1.06116
| 55>    F       -5.53334       -12.99768         2.30202
| 56>    C       -5.92843       -14.78606         0.74580
| 57>    F       -5.86201       -15.75482         1.66088
| 58>    C       -6.15687       -15.02500        -0.59750
| 59>    S       -6.17110       -13.51865        -1.46373
| 60>    C       -6.34402       -16.26263        -1.26859
| 61>    C       -6.34001       -17.53945        -0.73218
| 62>    C       -6.53095       -18.50994        -1.71530
| 63>    C       -6.68528       -17.96478        -3.00349
| 64>    S       -6.59721       -16.26172        -3.00590
| 65>    C       -6.86235       -19.02078        -3.92985
| 66>    C       -6.80928       -20.24067        -3.22572
| 67>    C       -6.62072       -19.95941        -1.81168
| 68>    C       -6.58471       -20.87364        -0.80138
| 69>    C       -6.71827       -22.25463        -1.06288
| 70>    N       -6.82026       -23.37260        -1.29569
| 71>    C       -6.41879       -20.50858         0.55197
| 72>    N       -6.27856       -20.22000         1.65206
| 73>    C       -6.98545       -21.34590        -4.04686
| 74>    C       -7.18780       -20.98808        -5.37329
| 75>    S       -7.11694       -19.24278        -5.59596
| 76>    C       -7.38169       -21.80730        -6.50494
| 77>    C       -7.71992       -23.12521        -6.57662
| 78>    C       -7.44838       -23.84974        -7.85274
| 79>    O       -7.16586       -23.34972        -8.91617
| 80>    C       -7.54243       -25.28185        -7.51351
| 81>    C       -7.25907       -26.36809        -8.29035
| 82>    C       -7.38130       -27.66039        -7.73284
| 83>    C       -7.78635       -27.80066        -6.37328
| 84>    C       -7.89113       -29.09243        -5.81960
| 85>    C       -7.61261       -30.19275        -6.58100
| 86>    C       -7.21649       -30.05289        -7.92670
| 87>    C       -7.10262       -28.81373        -8.49183
| 88>    F       -6.94999       -31.14873        -8.64898
| 89>    F       -7.71342       -31.41925        -6.05421
| 90>    C       -8.08308       -26.65730        -5.59617
| 91>    C       -7.97315       -25.41593        -6.16275
| 92>    C       -8.23989       -24.08310        -5.62428
| 93>    C       -9.06092       -23.82520        -4.55747
| 94>    C       -9.49857       -22.53657        -4.19681
| 95>    N       -9.89142       -21.50346        -3.88578
| 96>    C       -9.64423       -24.83112        -3.75733
| 97>    N      -10.14629       -25.61111        -3.08262
| 98>    H       -5.57330         1.02291        -8.18043
| 99>    H       -6.73612        -3.54447        -9.71715
|100>    H       -5.22483         0.19937        -5.91638
|101>    H       -6.37124        -4.41972        -7.40625
|102>    H       -4.91286        -3.07366        -1.44683
|103>    H       -4.85705        -4.63593         0.35409
|104>    H       -5.31237       -10.60704         1.96492
|105>    H       -6.20171       -17.73958         0.31451
|106>    H       -6.92323       -22.36710        -3.71878
|107>    H       -7.16943       -21.34664        -7.46565
|108>    H       -6.94374       -26.24324        -9.31502
|109>    H       -8.19668       -29.21745        -4.79258
|110>    H       -6.79748       -28.72330        -9.52257
|111>    H       -8.37760       -26.79090        -4.56751
|112> *
|113>
|114>                          ****END OF INPUT****

CARTESIAN COORDINATES (ANGSTROEM)
---------------------------------
  C     -5.824130    0.022930   -8.498230
  C     -6.155320   -0.208070   -9.804160
  F     -6.168220    0.800700  -10.683860
  C     -6.486800   -1.506440  -10.241650
  F     -6.808980   -1.703310  -11.526450
  C     -6.480410   -2.556700   -9.366890
  C     -6.141960   -2.350630   -8.015500
  C     -5.809060   -1.038190   -7.570910
  C     -5.468640   -0.806090   -6.218030
  C     -5.459200   -1.854410   -5.336070
  C     -5.789620   -3.161320   -5.791970
  C     -6.124250   -3.417550   -7.090410
  C     -5.700740   -4.100020   -4.663630
  O     -5.909950   -5.301100   -4.706260
  C     -5.317650   -3.305250   -3.492440
  C     -5.154400   -1.922830   -3.907690
  C     -4.770140   -0.859940   -3.133570
  C     -4.450650   -0.910460   -1.759790
  N     -4.168700   -0.868790   -0.647460
  C     -4.630270    0.458560   -3.618290
  N     -4.497140    1.549380   -3.949160
  C     -5.164490   -3.791280   -2.218380
  C     -5.280000   -5.100530   -1.726590
  C     -5.087170   -5.397400   -0.370160
  C     -5.220660   -6.744950   -0.098370
  C     -5.517160   -7.494630   -1.261760
  S     -5.642120   -6.546280   -2.669320
  C     -5.617680   -8.855130   -0.887780
  C     -5.388110   -8.975610    0.495670
  C     -5.134200   -7.650150    1.039610
  C     -4.870560   -7.323860    2.336030
  C     -4.801870   -8.291610    3.361880
  N     -4.741040   -9.069450    4.201350
  C     -4.649170   -5.990330    2.744230
  N     -4.470740   -4.910400    3.083820
  C     -5.457710  -10.293370    0.947500
  C     -5.735410  -11.171820   -0.086560
  S     -5.918880  -10.359860   -1.632540
  C     -5.864170  -12.585130   -0.030350
  C     -5.765620  -13.429250    1.061160
  F     -5.533340  -12.997680    2.302020
  C     -5.928430  -14.786060    0.745800
  F     -5.862010  -15.754820    1.660880
  C     -6.156870  -15.025000   -0.597500
  S     -6.171100  -13.518650   -1.463730
  C     -6.344020  -16.262630   -1.268590
  C     -6.340010  -17.539450   -0.732180
  C     -6.530950  -18.509940   -1.715300
  C     -6.685280  -17.964780   -3.003490
  S     -6.597210  -16.261720   -3.005900
  C     -6.862350  -19.020780   -3.929850
  C     -6.809280  -20.240670   -3.225720
  C     -6.620720  -19.959410   -1.811680
  C     -6.584710  -20.873640   -0.801380
  C     -6.718270  -22.254630   -1.062880
  N     -6.820260  -23.372600   -1.295690
  C     -6.418790  -20.508580    0.551970
  N     -6.278560  -20.220000    1.652060
  C     -6.985450  -21.345900   -4.046860
  C     -7.187800  -20.988080   -5.373290
  S     -7.116940  -19.242780   -5.595960
  C     -7.381690  -21.807300   -6.504940
  C     -7.719920  -23.125210   -6.576620
  C     -7.448380  -23.849740   -7.852740
  O     -7.165860  -23.349720   -8.916170
  C     -7.542430  -25.281850   -7.513510
  C     -7.259070  -26.368090   -8.290350
  C     -7.381300  -27.660390   -7.732840
  C     -7.786350  -27.800660   -6.373280
  C     -7.891130  -29.092430   -5.819600
  C     -7.612610  -30.192750   -6.581000
  C     -7.216490  -30.052890   -7.926700
  C     -7.102620  -28.813730   -8.491830
  F     -6.949990  -31.148730   -8.648980
  F     -7.713420  -31.419250   -6.054210
  C     -8.083080  -26.657300   -5.596170
  C     -7.973150  -25.415930   -6.162750
  C     -8.239890  -24.083100   -5.624280
  C     -9.060920  -23.825200   -4.557470
  C     -9.498570  -22.536570   -4.196810
  N     -9.891420  -21.503460   -3.885780
  C     -9.644230  -24.831120   -3.757330
  N    -10.146290  -25.611110   -3.082620
  H     -5.573300    1.022910   -8.180430
  H     -6.736120   -3.544470   -9.717150
  H     -5.224830    0.199370   -5.916380
  H     -6.371240   -4.419720   -7.406250
  H     -4.912860   -3.073660   -1.446830
  H     -4.857050   -4.635930    0.354090
  H     -5.312370  -10.607040    1.964920
  H     -6.201710  -17.739580    0.314510
  H     -6.923230  -22.367100   -3.718780
  H     -7.169430  -21.346640   -7.465650
  H     -6.943740  -26.243240   -9.315020
  H     -8.196680  -29.217450   -4.792580
  H     -6.797480  -28.723300   -9.522570
  H     -8.377600  -26.790900   -4.567510

 Total Charge           Charge          ....    0
 Multiplicity           Mult            ....    1
 Number of Electrons    NEL             ....  592
 Basis Dimension        Dim             .... 1252

ORBITAL ENERGIES
----------------

  NO   OCC          E(Eh)            E(eV)
   0   2.0000     -89.008319     -2422.0395
   1   2.0000     -89.007261     -2422.0107
   2   2.0000     -89.004932     -2421.9473
   3   2.0000     -89.001738     -2421.8604
   4   2.0000     -88.998839     -2421.7815
   5   2.0000     -24.822990      -675.4679
   6   2.0000     -24.822648      -675.4586
   7   2.0000     -24.804066      -674.9530
   8   2.0000     -24.802838      -674.9195
   9   2.0000     -24.801041      -674.8706
  10   2.0000     -24.800160      -674.8467
  11   2.0000     -19.233933      -523.3819
  12   2.0000     -19.222515      -523.0712
  13   2.0000     -14.441302      -392.9678
  14   2.0000     -14.439421      -392.9166
  15   2.0000     -14.438313      -392.8865
  16   2.0000     -14.437783      -392.8720
  17   2.0000     -14.425016      -392.5246
  18   2.0000     -14.423929      -392.4951
  19   2.0000     -14.421016      -392.4158
  20   2.0000     -14.419478      -392.3740
  21   2.0000     -10.397955      -282.9428
  22   2.0000     -10.397292      -282.9247
  23   2.0000     -10.387529      -282.6590
  24   2.0000     -10.386695      -282.6363
  25   2.0000     -10.384382      -282.5734
  26   2.0000     -10.383824      -282.5582
  27   2.0000     -10.381606      -282.4979
  28   2.0000     -10.377320      -282.3812
  29   2.0000     -10.375481      -282.3312
  30   2.0000     -10.373826      -282.2861
  31   2.0000     -10.363794      -282.0132
  32   2.0000     -10.362916      -281.9893
  33   2.0000     -10.352688      -281.7110
  34   2.0000     -10.352216      -281.6981
  35   2.0000     -10.351389      -281.6756
  36   2.0000     -10.351016      -281.6655
  37   2.0000     -10.350659      -281.6557
  38   2.0000     -10.350186      -281.6429
  39   2.0000     -10.350068      -281.6397
  40   2.0000     -10.349884      -281.6346
  41   2.0000     -10.349466      -281.6233
  42   2.0000     -10.348054      -281.5849
  43   2.0000     -10.345847      -281.5248
  44   2.0000     -10.343506      -281.4611
  45   2.0000     -10.341204      -281.3985
  46   2.0000     -10.338885      -281.3354
  47   2.0000     -10.337915      -281.3090
  48   2.0000     -10.337171      -281.2887
  49   2.0000     -10.336454      -281.2692
  50   2.0000     -10.336212      -281.2626
  51   2.0000     -10.335782      -281.2509
  52   2.0000     -10.332786      -281.1694
  53   2.0000     -10.326164      -280.9892
  54   2.0000     -10.325922      -280.9826
  55   2.0000     -10.323949      -280.9289
  56   2.0000     -10.322555      -280.8910
  57   2.0000     -10.322276      -280.8834
  58   2.0000     -10.321900      -280.8732
  59   2.0000     -10.321759      -280.8693
  60   2.0000     -10.321682      -280.8672
  61   2.0000     -10.317515      -280.7538
  62   2.0000     -10.317143      -280.7437
  63   2.0000     -10.316993      -280.7396
  64   2.0000     -10.316950      -280.7385
  65   2.0000     -10.316803      -280.7345
  66   2.0000     -10.314965      -280.6845
  67   2.0000     -10.314480      -280.6713
  68   2.0000     -10.314215      -280.6641
  69   2.0000     -10.313911      -280.6558
  70   2.0000     -10.312456      -280.6162
  71   2.0000     -10.310699      -280.5684
  72   2.0000     -10.308887      -280.5191
  73   2.0000     -10.308365      -280.5049
  74   2.0000     -10.307968      -280.4941
  75   2.0000     -10.307500      -280.4813
  76   2.0000     -10.307298      -280.4758
  77   2.0000     -10.306250      -280.4473
  78   2.0000     -10.306249      -280.4473
  79   2.0000     -10.304258      -280.3931
  80   2.0000     -10.303131      -280.3624
  81   2.0000     -10.301238      -280.3109
  82   2.0000     -10.298572      -280.2384
  83   2.0000      -8.103148      -220.4979
  84   2.0000      -8.102136      -220.4703
  85   2.0000      -8.099685      -220.4036
  86   2.0000      -8.097362      -220.3404
  87   2.0000      -8.091073      -220.1693
  88   2.0000      -6.072474      -165.2404
  89   2.0000      -6.071444      -165.2124
  90   2.0000      -6.068849      -165.1418
  91   2.0000      -6.068254      -165.1256
  92   2.0000      -6.067221      -165.0975
  93   2.0000      -6.066942      -165.0899
  94   2.0000      -6.065367      -165.0470
  95   2.0000      -6.064675      -165.0282
  96   2.0000      -6.064367      -165.0198
  97   2.0000      -6.063019      -164.9831
  98   2.0000      -6.062171      -164.9601
  99   2.0000      -6.060539      -164.9157
 100   2.0000      -6.058561      -164.8618
 101   2.0000      -6.055717      -164.7844
 102   2.0000      -6.053613      -164.7272
 103   2.0000      -1.342846       -36.5407
 104   2.0000      -1.331144       -36.2223
 105   2.0000      -1.326722       -36.1019
 106   2.0000      -1.323777       -36.0218
 107   2.0000      -1.311817       -35.6964
 108   2.0000      -1.308884       -35.6166
 109   2.0000      -1.149671       -31.2841
 110   2.0000      -1.138480       -30.9796
 111   2.0000      -1.061115       -28.8744
 112   2.0000      -1.058414       -28.8009
 113   2.0000      -1.038764       -28.2662
 114   2.0000      -1.032413       -28.0934
 115   2.0000      -1.030049       -28.0291
 116   2.0000      -1.027372       -27.9562
 117   2.0000      -1.026615       -27.9356
 118   2.0000      -1.017870       -27.6976
 119   2.0000      -1.015818       -27.6418
 120   2.0000      -1.014106       -27.5952
 121   2.0000      -1.011663       -27.5288
 122   2.0000      -1.009461       -27.4688
 123   2.0000      -1.006709       -27.3940
 124   2.0000      -1.001030       -27.2394
 125   2.0000      -0.999792       -27.2057
 126   2.0000      -0.988999       -26.9120
 127   2.0000      -0.986462       -26.8430
 128   2.0000      -0.974130       -26.5074
 129   2.0000      -0.969926       -26.3930
 130   2.0000      -0.941128       -25.6094
 131   2.0000      -0.939637       -25.5688
 132   2.0000      -0.932492       -25.3744
 133   2.0000      -0.927676       -25.2433
 134   2.0000      -0.912009       -24.8170
 135   2.0000      -0.908454       -24.7203
 136   2.0000      -0.899602       -24.4794
 137   2.0000      -0.896998       -24.4086
 138   2.0000      -0.894058       -24.3286
 139   2.0000      -0.889074       -24.1929
 140   2.0000      -0.888371       -24.1738
 141   2.0000      -0.879029       -23.9196
 142   2.0000      -0.876255       -23.8441
 143   2.0000      -0.871094       -23.7037
 144   2.0000      -0.864649       -23.5283
 145   2.0000      -0.864141       -23.5145
 146   2.0000      -0.847553       -23.0631
 147   2.0000      -0.844621       -22.9833
 148   2.0000      -0.833737       -22.6871
 149   2.0000      -0.823385       -22.4054
 150   2.0000      -0.805142       -21.9090
 151   2.0000      -0.791904       -21.5488
 152   2.0000      -0.789596       -21.4860
 153   2.0000      -0.781885       -21.2762
 154   2.0000      -0.776468       -21.1288
 155   2.0000      -0.771782       -21.0012
 156   2.0000      -0.760965       -20.7069
 157   2.0000      -0.748625       -20.3711
 158   2.0000      -0.737111       -20.0578
 159   2.0000      -0.732542       -19.9335
 160   2.0000      -0.724717       -19.7205
 161   2.0000      -0.723372       -19.6839
 162   2.0000      -0.719344       -19.5743
 163   2.0000      -0.715430       -19.4678
 164   2.0000      -0.712665       -19.3926
 165   2.0000      -0.704958       -19.1829
 166   2.0000      -0.699577       -19.0365
 167   2.0000      -0.696472       -18.9520
 168   2.0000      -0.693139       -18.8613
 169   2.0000      -0.689208       -18.7543
 170   2.0000      -0.686129       -18.6705
 171   2.0000      -0.677668       -18.4403
 172   2.0000      -0.672269       -18.2934
 173   2.0000      -0.664869       -18.0920
 174   2.0000      -0.659014       -17.9327
 175   2.0000      -0.657086       -17.8802
 176   2.0000      -0.654175       -17.8010
 177   2.0000      -0.650141       -17.6912
 178   2.0000      -0.647120       -17.6090
 179   2.0000      -0.646492       -17.5920
 180   2.0000      -0.644603       -17.5405
 181   2.0000      -0.638987       -17.3877
 182   2.0000      -0.633158       -17.2291
 183   2.0000      -0.629668       -17.1341
 184   2.0000      -0.626021       -17.0349
 185   2.0000      -0.621158       -16.9026
 186   2.0000      -0.620878       -16.8949
 187   2.0000      -0.608651       -16.5622
 188   2.0000      -0.606637       -16.5074
 189   2.0000      -0.605642       -16.4804
 190   2.0000      -0.599300       -16.3078
 191   2.0000      -0.591432       -16.0937
 192   2.0000      -0.591122       -16.0852
 193   2.0000      -0.590681       -16.0732
 194   2.0000      -0.588213       -16.0061
 195   2.0000      -0.583650       -15.8819
 196   2.0000      -0.582121       -15.8403
 197   2.0000      -0.578554       -15.7432
 198   2.0000      -0.571363       -15.5476
 199   2.0000      -0.566313       -15.4102
 200   2.0000      -0.561772       -15.2866
 201   2.0000      -0.560573       -15.2540
 202   2.0000      -0.560255       -15.2453
 203   2.0000      -0.558700       -15.2030
 204   2.0000      -0.556801       -15.1513
 205   2.0000      -0.552557       -15.0358
 206   2.0000      -0.549961       -14.9652
 207   2.0000      -0.549799       -14.9608
 208   2.0000      -0.548392       -14.9225
 209   2.0000      -0.546094       -14.8600
 210   2.0000      -0.543872       -14.7995
 211   2.0000      -0.542934       -14.7740
 212   2.0000      -0.538094       -14.6423
 213   2.0000      -0.536614       -14.6020
 214   2.0000      -0.535579       -14.5738
 215   2.0000      -0.533125       -14.5071
 216   2.0000      -0.527988       -14.3673
 217   2.0000      -0.525112       -14.2890
 218   2.0000      -0.521552       -14.1922
 219   2.0000      -0.520872       -14.1736
 220   2.0000      -0.520305       -14.1582
 221   2.0000      -0.517364       -14.0782
 222   2.0000      -0.516069       -14.0430
 223   2.0000      -0.515090       -14.0163
 224   2.0000      -0.513571       -13.9750
 225   2.0000      -0.511032       -13.9059
 226   2.0000      -0.508173       -13.8281
 227   2.0000      -0.506470       -13.7817
 228   2.0000      -0.505460       -13.7543
 229   2.0000      -0.505013       -13.7421
 230   2.0000      -0.504534       -13.7291
 231   2.0000      -0.498986       -13.5781
 232   2.0000      -0.496335       -13.5060
 233   2.0000      -0.494052       -13.4438
 234   2.0000      -0.493064       -13.4170
 235   2.0000      -0.490813       -13.3557
 236   2.0000      -0.488242       -13.2858
 237   2.0000      -0.484158       -13.1746
 238   2.0000      -0.479486       -13.0475
 239   2.0000      -0.477265       -12.9870
 240   2.0000      -0.475902       -12.9499
 241   2.0000      -0.471600       -12.8329
 242   2.0000      -0.471234       -12.8229
 243   2.0000      -0.470456       -12.8018
 244   2.0000      -0.468568       -12.7504
 245   2.0000      -0.467693       -12.7266
 246   2.0000      -0.466989       -12.7074
 247   2.0000      -0.466495       -12.6940
 248   2.0000      -0.462463       -12.5843
 249   2.0000      -0.457736       -12.4556
 250   2.0000      -0.457604       -12.4520
 251   2.0000      -0.456232       -12.4147
 252   2.0000      -0.453360       -12.3366
 253   2.0000      -0.452608       -12.3161
 254   2.0000      -0.449907       -12.2426
 255   2.0000      -0.449878       -12.2418
 256   2.0000      -0.448738       -12.2108
 257   2.0000      -0.447805       -12.1854
 258   2.0000      -0.447636       -12.1808
 259   2.0000      -0.447209       -12.1692
 260   2.0000      -0.446404       -12.1473
 261   2.0000      -0.443572       -12.0702
 262   2.0000      -0.442480       -12.0405
 263   2.0000      -0.440328       -11.9819
 264   2.0000      -0.436212       -11.8699
 265   2.0000      -0.436052       -11.8656
 266   2.0000      -0.434896       -11.8341
 267   2.0000      -0.434173       -11.8144
 268   2.0000      -0.432015       -11.7557
 269   2.0000      -0.431376       -11.7383
 270   2.0000      -0.426457       -11.6045
 271   2.0000      -0.424312       -11.5461
 272   2.0000      -0.417905       -11.3718
 273   2.0000      -0.413927       -11.2635
 274   2.0000      -0.411570       -11.1994
 275   2.0000      -0.408622       -11.1192
 276   2.0000      -0.402348       -10.9485
 277   2.0000      -0.395053       -10.7499
 278   2.0000      -0.390498       -10.6260
 279   2.0000      -0.381311       -10.3760
 280   2.0000      -0.369043       -10.0422
 281   2.0000      -0.364143        -9.9088
 282   2.0000      -0.362370        -9.8606
 283   2.0000      -0.351068        -9.5531
 284   2.0000      -0.350173        -9.5287
 285   2.0000      -0.348266        -9.4768
 286   2.0000      -0.342680        -9.3248
 287   2.0000      -0.335536        -9.1304
 288   2.0000      -0.332802        -9.0560
 289   2.0000      -0.324898        -8.8409
 290   2.0000      -0.322148        -8.7661
 291   2.0000      -0.319672        -8.6987
 292   2.0000      -0.307339        -8.3631
 293   2.0000      -0.304612        -8.2889
 294   2.0000      -0.284553        -7.7431
 295   2.0000      -0.258566        -7.0359
 296   0.0000      -0.126311        -3.4371
 297   0.0000      -0.117483        -3.1969
 298   0.0000      -0.098135        -2.6704
 299   0.0000      -0.096994        -2.6394
 300   0.0000      -0.072226        -1.9654

MULLIKEN ATOMIC CHARGES
-----------------------
   0 C :   -0.107972
   1 C :    0.244034
   2 F :   -0.169294
   3 C :    0.238039
   4 F :   -0.170601
   5 C :   -0.104582
   6 C :    0.117651
   7 C :    0.114106
   8 C :   -0.084478
   9 C :    0.048209
  10 C :   -0.001451
  11 C :   -0.081970
  12 C :    0.169488
  13 O :   -0.192581
  14 C :   -0.094538
  15 C :    0.331267
  16 C :   -0.355149
  17 C :   -0.190115
  18 N :    0.154886
  19 C :   -0.180504
  20 N :    0.148774
  21 C :   -0.023269
  22 C :   -0.055688
  23 C :   -0.060022
  24 C :    0.051238
  25 C :   -0.067855
  26 S :    0.243600
  27 C :   -0.108382
  28 C :    0.021006
  29 C :    0.300239
  30 C :   -0.290447
  31 C :   -0.193822
  32 N :    0.189082
  33 C :   -0.195111
  34 N :    0.187770
  35 C :   -0.055943
  36 C :   -0.036442
  37 S :    0.193118
  38 C :   -0.120029
  39 C :    0.202925
  40 F :   -0.156090
  41 C :    0.200428
  42 F :   -0.157236
  43 C :   -0.118334
  44 S :    0.155382
  45 C :   -0.038888
  46 C :   -0.052858
  47 C :    0.020959
  48 C :   -0.104361
  49 S :    0.190514
  50 C :   -0.072106
  51 C :   -0.002548
  52 C :    0.299306
  53 C :   -0.278437
  54 C :   -0.183393
  55 N :    0.170759
  56 C :   -0.190774
  57 N :    0.187345
  58 C :   -0.000873
  59 C :   -0.106417
  60 S :    0.213940
  61 C :    0.078961
  62 C :   -0.135009
  63 C :    0.135470
  64 O :   -0.141382
  65 C :    0.015317
  66 C :   -0.080135
  67 C :    0.109262
  68 C :    0.109517
  69 C :   -0.103717
  70 C :    0.241169
  71 C :    0.238160
  72 C :   -0.100935
  73 F :   -0.170317
  74 F :   -0.169844
  75 C :   -0.075529
  76 C :    0.030537
  77 C :    0.268527
  78 C :   -0.327375
  79 C :   -0.200703
  80 N :    0.168854
  81 C :   -0.171424
  82 N :    0.161715
  83 H :    0.009004
  84 H :   -0.000635
  85 H :   -0.004994
  86 H :   -0.011329
  87 H :    0.016538
  88 H :    0.030760
  89 H :    0.019600
  90 H :    0.020705
  91 H :    0.025209
  92 H :    0.021782
  93 H :   -0.008709
  94 H :    0.008620
  95 H :   -0.000918
  96 H :    0.001743
Sum of atomic charges:   -0.0000000

LOEWDIN ATOMIC CHARGES
----------------------
   0 C :   -0.028372
   1 C :    0.067636
   2 F :   -0.046957
   3 C :    0.068128
   4 F :   -0.048034
   5 C :   -0.033306
   6 C :   -0.009307
   7 C :   -0.005899
   8 C :    0.018909
   9 C :   -0.021757
  10 C :   -0.053207
  11 C :    0.030480
  12 C :    0.085982
  13 O :   -0.176854
  14 C :   -0.111609
  15 C :    0.075478
  16 C :   -0.138806
  17 C :   -0.023409
  18 N :   -0.045485
  19 C :   -0.017128
  20 N :   -0.051535
  21 C :    0.058527
  22 C :   -0.183232
  23 C :    0.014406
  24 C :   -0.076516
  25 C :   -0.167146
  26 S :    0.548019
  27 C :   -0.186606
  28 C :   -0.051485
  29 C :    0.075202
  30 C :   -0.094058
  31 C :   -0.019491
  32 N :   -0.022538
  33 C :   -0.019741
  34 N :   -0.019773
  35 C :   -0.025017
  36 C :   -0.170432
  37 S :    0.475082
  38 C :   -0.216844
  39 C :    0.034106
  40 F :   -0.032420
  41 C :    0.032461
  42 F :   -0.033093
  43 C :   -0.214455
  44 S :    0.441958
  45 C :   -0.174160
  46 C :   -0.021887
  47 C :   -0.054546
  48 C :   -0.183430
  49 S :    0.474586
  50 C :   -0.160680
  51 C :   -0.064924
  52 C :    0.079686
  53 C :   -0.090892
  54 C :   -0.011613
  55 N :   -0.028449
  56 C :   -0.019636
  57 N :   -0.020152
  58 C :    0.012156
  59 C :   -0.180076
  60 S :    0.499682
  61 C :    0.041879
  62 C :   -0.091462
  63 C :    0.083300
  64 O :   -0.142479
  65 C :   -0.055345
  66 C :    0.031642
  67 C :   -0.009433
  68 C :   -0.005087
  69 C :   -0.028855
  70 C :    0.067665
  71 C :    0.067441
  72 C :   -0.032717
  73 F :   -0.048424
  74 F :   -0.047413
  75 C :    0.017467
  76 C :   -0.020288
  77 C :    0.065046
  78 C :   -0.134907
  79 C :   -0.015094
  80 N :   -0.045469
  81 C :   -0.018755
  82 N :   -0.043512
  83 H :    0.048388
  84 H :    0.044649
  85 H :    0.040579
  86 H :    0.039835
  87 H :    0.054140
  88 H :    0.048949
  89 H :    0.042943
  90 H :    0.043409
  91 H :    0.042965
  92 H :    0.045896
  93 H :    0.040844
  94 H :    0.048328
  95 H :    0.044824
  96 H :    0.041522

  Mayer bond orders larger than 0.100000
B(  0-C ,  1-C ) :   1.4391 B(  0-C ,  5-C ) :   0.1078 B(  0-C ,  7-C ) :   1.1908
B(  0-C , 83-H ) :   1.0070 B(  1-C ,  2-F ) :   1.1361 B(  1-C ,  3-C ) :   1.1911
B(  3-C ,  4-F ) :   1.1344 B(  3-C ,  5-C ) :   1.4427 B(  5-C ,  6-C ) :   1.1918
B(  5-C , 84-H ) :   1.0071 B(  6-C ,  7-C ) :   1.2559 B(  6-C , 11-C ) :   1.1877
B(  7-C ,  8-C ) :   1.2133 B(  8-C ,  9-C ) :   1.4551 B(  8-C , 85-H ) :   0.9894
B(  9-C , 10-C ) :   1.2213 B(  9-C , 15-C ) :   0.9802 B( 10-C , 11-C ) :   1.4657
B( 10-C , 12-C ) :   0.9643 B( 11-C , 86-H ) :   1.0172 B( 12-C , 13-O ) :   2.1067
B( 12-C , 14-C ) :   0.9861 B( 14-C , 15-C ) :   1.0794 B( 14-C , 21-C ) :   1.4831
B( 15-C , 16-C ) :   1.6290 B( 16-C , 17-C ) :   1.1419 B( 16-C , 19-C ) :   1.1493
B( 17-C , 18-N ) :   2.9596 B( 19-C , 20-N ) :   2.9581 B( 21-C , 22-C ) :   1.2756
B( 21-C , 87-H ) :   0.9379 B( 22-C , 23-C ) :   1.3251 B( 22-C , 26-S ) :   1.0663
B( 23-C , 24-C ) :   1.3372 B( 23-C , 88-H ) :   1.0071 B( 24-C , 25-C ) :   1.3512
B( 24-C , 29-C ) :   0.9871 B( 25-C , 26-S ) :   1.1263 B( 25-C , 27-C ) :   1.2102
B( 27-C , 28-C ) :   1.4316 B( 27-C , 37-S ) :   1.1170 B( 28-C , 29-C ) :   0.9936
B( 28-C , 35-C ) :   1.2824 B( 29-C , 30-C ) :   1.7219 B( 30-C , 31-C ) :   1.1335
B( 30-C , 33-C ) :   1.1356 B( 31-C , 32-N ) :   2.9979 B( 33-C , 34-N ) :   2.9943
B( 35-C , 36-C ) :   1.4779 B( 35-C , 89-H ) :   0.9965 B( 36-C , 37-S ) :   1.1063
B( 36-C , 38-C ) :   1.1314 B( 38-C , 39-C ) :   1.4800 B( 38-C , 43-C ) :   0.1458
B( 38-C , 44-S ) :   1.0967 B( 39-C , 40-F ) :   1.1566 B( 39-C , 41-C ) :   1.2215
B( 41-C , 42-F ) :   1.1543 B( 41-C , 43-C ) :   1.4816 B( 43-C , 44-S ) :   1.0984
B( 43-C , 45-C ) :   1.1300 B( 45-C , 46-C ) :   1.4809 B( 45-C , 49-S ) :   1.1033
B( 46-C , 47-C ) :   1.2829 B( 46-C , 90-H ) :   0.9965 B( 47-C , 48-C ) :   1.4383
B( 47-C , 52-C ) :   0.9924 B( 48-C , 49-S ) :   1.1197 B( 48-C , 50-C ) :   1.1987
B( 50-C , 51-C ) :   1.4089 B( 50-C , 60-S ) :   1.1546 B( 51-C , 52-C ) :   1.0000
B( 51-C , 58-C ) :   1.3601 B( 52-C , 53-C ) :   1.7225 B( 53-C , 54-C ) :   1.1342
B( 53-C , 56-C ) :   1.1312 B( 54-C , 55-N ) :   2.9810 B( 56-C , 57-N ) :   2.9978
B( 58-C , 59-C ) :   1.3904 B( 58-C , 91-H ) :   0.9789 B( 59-C , 60-S ) :   1.0875
B( 59-C , 61-C ) :   1.1429 B( 61-C , 62-C ) :   1.6638 B( 61-C , 92-H ) :   0.9257
B( 62-C , 63-C ) :   0.9429 B( 62-C , 77-C ) :   1.0377 B( 63-C , 64-O ) :   2.2670
B( 63-C , 65-C ) :   0.9197 B( 65-C , 66-C ) :   1.4745 B( 65-C , 76-C ) :   1.2202
B( 66-C , 67-C ) :   1.1953 B( 66-C , 93-H ) :   1.0155 B( 67-C , 68-C ) :   1.2546
B( 67-C , 72-C ) :   1.1941 B( 68-C , 69-C ) :   1.1913 B( 68-C , 75-C ) :   1.2160
B( 69-C , 70-C ) :   1.4420 B( 69-C , 72-C ) :   0.1086 B( 69-C , 94-H ) :   1.0061
B( 70-C , 71-C ) :   1.1911 B( 70-C , 74-F ) :   1.1353 B( 71-C , 72-C ) :   1.4444
B( 71-C , 73-F ) :   1.1348 B( 72-C , 95-H ) :   1.0060 B( 75-C , 76-C ) :   1.4596
B( 75-C , 96-H ) :   0.9936 B( 76-C , 77-C ) :   0.9937 B( 77-C , 78-C ) :   1.6510
B( 78-C , 79-C ) :   1.1738 B( 78-C , 81-C ) :   1.1267 B( 79-C , 80-N ) :   2.9923
B( 81-C , 82-N ) :   2.9920

-----------------------------------------------------------------------------
         ABSORPTION SPECTRUM VIA TRANSITION ELECTRIC DIPOLE MOMENTS
-----------------------------------------------------------------------------
State   Energy  Wavelength   fosc         T2         TX        TY        TZ
        (cm-1)    (nm)                  (au**2)     (au)      (au)      (au)
-----------------------------------------------------------------------------
   0   12779.9    782.5   0.723081746  18.62674  -0.57698  -4.23064  -0.62889
   1   14118.5    708.3   0.145054112   3.38234  -0.01670   1.47085  -1.10393
   2   19327.8    517.4   1.542105553  26.26681  -0.82317  -5.04788  -0.32881
   3   20951.2    477.3   0.481761847   7.57005   0.50001  -1.28962   2.37843
   4   21754.8    459.7   0.029913753   0.45268  -0.21342  -0.00450  -0.63805
   5   23447.4    426.5   0.086643281   1.21651  -0.23644  -0.63523   0.87011
   6   25663.2    389.7   0.009364154   0.12013   0.28193   0.14249   0.14261
   7   26387.8    379.0   0.068193962   0.85078   0.03913  -0.63006  -0.67252
   8   26996.8    370.4   0.299098575   3.64735  -0.15217   1.84440   0.47158
   9   27545.0    363.0   0.240273114   2.87169   0.26668   0.76247   1.48970
  10   28034.8    356.7   0.081735619   0.95982  -0.03262   0.35074   0.91419
  11   28342.5    352.8   0.005338933   0.06201   0.08521  -0.23384   0.00843
  12   28372.3    352.5   0.012046071   0.13977   0.23212  -0.04163   0.29011
  13   28654.7    349.0   0.128076751   1.47147   0.09803  -0.62966  -1.03218
  14   29143.3    343.1   0.011270298   0.12731  -0.08750   0.26775  -0.21901
  15   29197.7    342.5   0.020318070   0.22909   0.14654   0.41829   0.18070
  16   29728.8    336.4   0.026817562   0.29697   0.31879  -0.18574   0.40106
  17   29963.7    333.7   0.411656136   4.52288   0.19011   1.86893  -0.99692
  18   30186.4    331.3   0.611012414   6.66367   0.39721   0.73524   2.44240
  19   30463.9    328.3   0.179693096   1.94188  -0.45326   1.31577  -0.07198
  20   30750.1    325.2   0.016819074   0.18007   0.12365  -0.16170  -0.37233
  21   31093.6    321.6   0.111476878   1.18029   0.01431   0.08651  -1.08287
  22   32126.7    311.3   0.089194511   0.91400   0.03671   0.80805  -0.50962
  23   32173.0    310.8   0.069329245   0.70942   0.09275  -0.41864  -0.72495
  24   32469.7    308.0   0.147184892   1.49231   0.15920  -1.01829   0.65579
  25   32621.1    306.6   0.495293721   4.99850   0.46565   1.42871   1.65543
  26   33217.4    301.0   0.455393830   4.51333   0.36199  -0.88150   1.89875
  27   33579.6    297.8   0.064151045   0.62893   0.22560  -0.05493   0.75830
  28   33640.5    297.3   0.041123051   0.40244  -0.08239   0.13195  -0.61501
  29   33845.7    295.5   0.000938210   0.00913   0.03996  -0.08179  -0.02897
  30   33994.9    294.2   0.078013184   0.75549  -0.43162   0.61906   0.43123
  31   34435.2    290.4   0.082920175   0.79274  -0.28485   0.52348   0.66149
  32   34478.4    290.0   0.094445538   0.90180  -0.15787   0.74816   0.56314
  33   34663.6    288.5   0.129794665   1.23270   0.35453  -0.08868   1.04840
  34   34850.3    286.9   0.409976915   3.87283  -0.14944   0.28980  -1.94075
  35   34915.8    286.4   0.209580264   1.97608  -0.17326   0.26558  -1.36950
  36   35174.9    284.3   0.088745636   0.83060   0.12415   0.63919   0.63767
  37   35287.6    283.4   0.272356790   2.54092  -0.48215   1.28818   0.80563
  38   35673.0    280.3   0.041279974   0.38096  -0.01346  -0.25959  -0.55981
  39   35773.4    279.5   0.030398639   0.27975   0.22765  -0.18916   0.43834
  40   35889.7    278.6   0.179532933   1.64683  -0.13349   0.93805   0.86550
  41   36157.0    276.6   0.049235883   0.44830  -0.41902   0.43547  -0.28824
  42   36435.3    274.5   0.026266024   0.23733   0.11084  -0.34940   0.32087
  43   36520.7    273.8   0.001952373   0.01760  -0.07503   0.02011   0.10755
  44   36693.5    272.5   0.090746067   0.81417   0.00165   0.77001   0.47037
  45   37051.2    269.9   0.050378362   0.44763   0.13870   0.31485   0.57381
  46   37243.0    268.5   0.145103482   1.28265   0.29978   1.09047  -0.06040
  47   37441.0    267.1   0.020034096   0.17616   0.27274  -0.06292   0.31275
  48   37657.8    265.5   0.033554209   0.29334  -0.28245  -0.11625  -0.44726
  49   37958.7    263.4   0.047134729   0.40879  -0.13532   0.53872   0.31665
  50   38097.4    262.5   0.016423367   0.14192   0.07748  -0.07790  -0.36034
  51   38189.4    261.9   0.025896289   0.22324  -0.08979  -0.43340   0.16535
  52   38448.8    260.1   0.173019157   1.48145   0.23152   1.19340  -0.06037
  53   38928.0    256.9   0.011708626   0.09902  -0.09547   0.28426   0.09539
  54   39209.0    255.0   0.113575902   0.95362   0.25397   0.69729  -0.63475
  55   39962.2    250.2   0.023300111   0.19195  -0.11285  -0.14830   0.39651
  56   40227.4    248.6   0.025105277   0.20546   0.18269   0.32853   0.25328

FINAL SINGLE POINT ENERGY     -5544.320564882592

DIPOLE MOMENT
-------------
                                X             Y             Z
Electronic contribution:     -0.10443      -5.71237       3.99694
Nuclear contribution   :      0.51190       4.84636      -7.75171
                        -----------------------------------------
Total Dipole Moment    :      0.40747      -0.86601      -3.75476
                        -----------------------------------------
Magnitude (a.u.)       :      3.87482
Magnitude (Debye)      :      9.84902

Rotational constants in cm-1:     0.001028     0.000151     0.000133
Rotational constants in MHz :    30.831830     4.519656     3.974834

                             ****ORCA TERMINATED NORMALLY****
TOTAL RUN TIME: 0 days 0 hours 10 minutes 52 seconds 797 msec
