                         Program Version 4.2.0 -  RELEASE  -
|  1> # ORCA input file
|  2> # SCF done       -218.558063624721          0.000451918416
|  3> ! CAM-B3LYP def2-SVP def2/J RIJCOSX Grid4 TightSCF
|  4> %maxcore 5000
|  5> %tddft
|  6>     Mode sTDDFT
|  7>     Ethresh 5.0
|  8>     maxcore 5000
|  9> end
| 10>
| 11> %pal
| 12>   nprocs 6
| 13>   end
| 14> * xyz 0 1
| 15>    C        1.50229         1.23074         3.83480
| 16>    C        1.84340         1.60965         5.10283
| 17>    F        2.60040         2.69605         5.29982
| 18>    C        1.40541         0.86514         6.21713
| 19>    F        1.75628         1.25995         7.44750
| 20>    C        0.63194        -0.24882         6.04734
| 21>    C        0.26444        -0.66536         4.75305
| 22>    C        0.70516         0.08720         3.62539
| 23>    C        0.34543        -0.30957         2.31716
| 24>    C       -0.43210        -1.42459         2.14268
| 25>    C       -0.85994        -2.17330         3.27344
| 26>    C       -0.52912        -1.81550         4.54876
| 27>    C       -1.66476        -3.32772         2.83200
| 28>    O       -2.15379        -4.17257         3.54868
| 29>    C       -1.66029        -3.26865         1.34643
| 30>    C       -0.95992        -2.06184         0.94131
| 31>    C       -0.88203        -1.55544        -0.32923
| 32>    C       -1.48902        -2.12698        -1.46807
| 33>    N       -1.97353        -2.52449        -2.43014
| 34>    C       -0.20864        -0.36025        -0.66048
| 35>    N        0.33038         0.59752        -0.99083
| 36>    C       -2.04745        -4.26559         0.49585
| 37>    C       -2.81272        -5.41743         0.78075
| 38>    C       -3.70187        -5.69141         1.81116
| 39>    C       -4.25433        -6.96063         1.69900
| 40>    C       -3.78887        -7.67069         0.57235
| 41>    S       -2.70545        -6.75726        -0.36560
| 42>    C       -4.36173        -8.96852         0.59137
| 43>    C       -5.18867        -9.07565         1.72507
| 44>    C       -5.18220        -7.80639         2.43483
| 45>    C       -5.92744        -7.46378         3.52249
| 46>    C       -6.85678        -8.35058         4.11082
| 47>    N       -7.63678        -9.04954         4.57571
| 48>    C       -5.87563        -6.17715         4.10376
| 49>    N       -5.86461        -5.13368         4.57715
| 50>    C       -5.75142       -10.34343         1.86872
| 51>    C       -5.36290       -11.18437         0.84537
| 52>    S       -4.30268       -10.41081        -0.31587
| 53>    C       -5.68330       -12.56052         0.65631
| 54>    C       -6.28703       -13.50441         1.47289
| 55>    C       -6.76921       -13.32813         2.86117
| 56>    O       -6.12640       -12.79210         3.71690
| 57>    O       -7.99846       -13.81428         3.10975
| 58>    C       -6.26154       -14.69284         0.67414
| 59>    N       -5.71813       -14.43648        -0.49689
| 60>    O       -5.37405       -13.13714        -0.51707
| 61>    C       -6.64721       -16.03441         1.01893
| 62>    C       -6.76756       -17.08691         0.13694
| 63>    C       -7.06538       -18.28119         0.79833
| 64>    C       -7.14881       -18.12130         2.19192
| 65>    S       -6.88199       -16.51480         2.68793
| 66>    C       -7.42544       -19.38225         2.78283
| 67>    C       -7.52106       -20.33862         1.75463
| 68>    C       -7.29377       -19.68100         0.47683
| 69>    C       -7.27001       -20.27496        -0.74990
| 70>    C       -7.48323       -21.66286        -0.89425
| 71>    N       -7.66254       -22.79108        -0.99178
| 72>    C       -7.04119       -19.55022        -1.93917
| 73>    N       -6.86969       -18.96323        -2.90837
| 74>    C       -7.74883       -21.62308         2.23303
| 75>    C       -7.81878       -21.66061         3.61848
| 76>    S       -7.63742       -20.06034         4.32625
| 77>    C       -8.04403       -22.75951         4.47670
| 78>    C       -7.92087       -24.09251         4.23002
| 79>    C       -8.60140       -25.04395         5.15798
| 80>    O       -9.07534       -24.77805         6.23711
| 81>    C       -8.61359       -26.33650         4.44853
| 82>    C       -9.22048       -27.50571         4.80711
| 83>    C       -9.12633       -28.61999         3.94397
| 84>    C       -8.41132       -28.49615         2.71687
| 85>    C       -8.33149       -29.60869         1.85530
| 86>    C       -8.92852       -30.78935         2.19808
| 87>    C       -9.63263       -30.91148         3.41342
| 88>    C       -9.73052       -29.85017         4.26893
| 89>    F      -10.20801       -32.08033         3.72291
| 90>    F       -8.85041       -31.84580         1.37990
| 91>    C       -7.78666       -27.27457         2.37583
| 92>    C       -7.87736       -26.21292         3.23572
| 93>    C       -7.31155       -24.86671         3.16851
| 94>    C       -6.22488       -24.51694         2.41050
| 95>    C       -5.53980       -23.29287         2.53312
| 96>    N       -4.94106       -22.31699         2.61984
| 97>    C       -5.60362       -25.38212         1.48411
| 98>    N       -5.06050       -26.04696         0.72341
| 99>    H        1.84469         1.81317         2.99372
|100>    H        0.30443        -0.80818         6.90963
|101>    H        0.70015         0.27684         1.48510
|102>    H       -0.87087        -2.40193         5.38799
|103>    H       -1.70179        -4.20592        -0.52982
|104>    H       -3.92450        -4.99270         2.59498
|105>    H       -6.38604       -10.64639         2.68004
|106>    H       -8.44148       -14.16560         2.32592
|107>    H       -6.63725       -16.96337        -0.92225
|108>    H       -7.90063       -22.48871         1.61466
|109>    H       -8.42735       -22.51941         5.46452
|110>    H       -9.76540       -27.57899         5.73589
|111>    H       -7.79340       -29.53350         0.92333
|112>    H      -10.27322       -29.95933         5.19482
|113>    H       -7.26125       -27.20504         1.43680
|114> *
|115>
|116>                          ****END OF INPUT****

CARTESIAN COORDINATES (ANGSTROEM)
---------------------------------
  C      1.502290    1.230740    3.834800
  C      1.843400    1.609650    5.102830
  F      2.600400    2.696050    5.299820
  C      1.405410    0.865140    6.217130
  F      1.756280    1.259950    7.447500
  C      0.631940   -0.248820    6.047340
  C      0.264440   -0.665360    4.753050
  C      0.705160    0.087200    3.625390
  C      0.345430   -0.309570    2.317160
  C     -0.432100   -1.424590    2.142680
  C     -0.859940   -2.173300    3.273440
  C     -0.529120   -1.815500    4.548760
  C     -1.664760   -3.327720    2.832000
  O     -2.153790   -4.172570    3.548680
  C     -1.660290   -3.268650    1.346430
  C     -0.959920   -2.061840    0.941310
  C     -0.882030   -1.555440   -0.329230
  C     -1.489020   -2.126980   -1.468070
  N     -1.973530   -2.524490   -2.430140
  C     -0.208640   -0.360250   -0.660480
  N      0.330380    0.597520   -0.990830
  C     -2.047450   -4.265590    0.495850
  C     -2.812720   -5.417430    0.780750
  C     -3.701870   -5.691410    1.811160
  C     -4.254330   -6.960630    1.699000
  C     -3.788870   -7.670690    0.572350
  S     -2.705450   -6.757260   -0.365600
  C     -4.361730   -8.968520    0.591370
  C     -5.188670   -9.075650    1.725070
  C     -5.182200   -7.806390    2.434830
  C     -5.927440   -7.463780    3.522490
  C     -6.856780   -8.350580    4.110820
  N     -7.636780   -9.049540    4.575710
  C     -5.875630   -6.177150    4.103760
  N     -5.864610   -5.133680    4.577150
  C     -5.751420  -10.343430    1.868720
  C     -5.362900  -11.184370    0.845370
  S     -4.302680  -10.410810   -0.315870
  C     -5.683300  -12.560520    0.656310
  C     -6.287030  -13.504410    1.472890
  C     -6.769210  -13.328130    2.861170
  O     -6.126400  -12.792100    3.716900
  O     -7.998460  -13.814280    3.109750
  C     -6.261540  -14.692840    0.674140
  N     -5.718130  -14.436480   -0.496890
  O     -5.374050  -13.137140   -0.517070
  C     -6.647210  -16.034410    1.018930
  C     -6.767560  -17.086910    0.136940
  C     -7.065380  -18.281190    0.798330
  C     -7.148810  -18.121300    2.191920
  S     -6.881990  -16.514800    2.687930
  C     -7.425440  -19.382250    2.782830
  C     -7.521060  -20.338620    1.754630
  C     -7.293770  -19.681000    0.476830
  C     -7.270010  -20.274960   -0.749900
  C     -7.483230  -21.662860   -0.894250
  N     -7.662540  -22.791080   -0.991780
  C     -7.041190  -19.550220   -1.939170
  N     -6.869690  -18.963230   -2.908370
  C     -7.748830  -21.623080    2.233030
  C     -7.818780  -21.660610    3.618480
  S     -7.637420  -20.060340    4.326250
  C     -8.044030  -22.759510    4.476700
  C     -7.920870  -24.092510    4.230020
  C     -8.601400  -25.043950    5.157980
  O     -9.075340  -24.778050    6.237110
  C     -8.613590  -26.336500    4.448530
  C     -9.220480  -27.505710    4.807110
  C     -9.126330  -28.619990    3.943970
  C     -8.411320  -28.496150    2.716870
  C     -8.331490  -29.608690    1.855300
  C     -8.928520  -30.789350    2.198080
  C     -9.632630  -30.911480    3.413420
  C     -9.730520  -29.850170    4.268930
  F    -10.208010  -32.080330    3.722910
  F     -8.850410  -31.845800    1.379900
  C     -7.786660  -27.274570    2.375830
  C     -7.877360  -26.212920    3.235720
  C     -7.311550  -24.866710    3.168510
  C     -6.224880  -24.516940    2.410500
  C     -5.539800  -23.292870    2.533120
  N     -4.941060  -22.316990    2.619840
  C     -5.603620  -25.382120    1.484110
  N     -5.060500  -26.046960    0.723410
  H      1.844690    1.813170    2.993720
  H      0.304430   -0.808180    6.909630
  H      0.700150    0.276840    1.485100
  H     -0.870870   -2.401930    5.387990
  H     -1.701790   -4.205920   -0.529820
  H     -3.924500   -4.992700    2.594980
  H     -6.386040  -10.646390    2.680040
  H     -8.441480  -14.165600    2.325920
  H     -6.637250  -16.963370   -0.922250
  H     -7.900630  -22.488710    1.614660
  H     -8.427350  -22.519410    5.464520
  H     -9.765400  -27.578990    5.735890
  H     -7.793400  -29.533500    0.923330
  H    -10.273220  -29.959330    5.194820
  H     -7.261250  -27.205040    1.436800

 Total Charge           Charge          ....    0
 Multiplicity           Mult            ....    1
 Number of Electrons    NEL             ....  590
 Basis Dimension        Dim             .... 1267

ORBITAL ENERGIES
----------------

  NO   OCC          E(Eh)            E(eV)
   0   2.0000     -89.011612     -2422.1291
   1   2.0000     -89.011574     -2422.1281
   2   2.0000     -89.007072     -2422.0056
   3   2.0000     -89.006239     -2421.9829
   4   2.0000     -24.802076      -674.8988
   5   2.0000     -24.801830      -674.8921
   6   2.0000     -24.801408      -674.8806
   7   2.0000     -24.800870      -674.8660
   8   2.0000     -19.349001      -526.5131
   9   2.0000     -19.288371      -524.8633
  10   2.0000     -19.228669      -523.2387
  11   2.0000     -19.227203      -523.1988
  12   2.0000     -19.224255      -523.1186
  13   2.0000     -14.485078      -394.1590
  14   2.0000     -14.441918      -392.9846
  15   2.0000     -14.439691      -392.9240
  16   2.0000     -14.438880      -392.9019
  17   2.0000     -14.438234      -392.8843
  18   2.0000     -14.426731      -392.5713
  19   2.0000     -14.424296      -392.5051
  20   2.0000     -14.422487      -392.4558
  21   2.0000     -14.421577      -392.4311
  22   2.0000     -10.437163      -284.0096
  23   2.0000     -10.393407      -282.8190
  24   2.0000     -10.385833      -282.6129
  25   2.0000     -10.385326      -282.5991
  26   2.0000     -10.385158      -282.5945
  27   2.0000     -10.384791      -282.5845
  28   2.0000     -10.379263      -282.4341
  29   2.0000     -10.378013      -282.4001
  30   2.0000     -10.377861      -282.3960
  31   2.0000     -10.375426      -282.3297
  32   2.0000     -10.364656      -282.0366
  33   2.0000     -10.363845      -282.0146
  34   2.0000     -10.357721      -281.8479
  35   2.0000     -10.355862      -281.7973
  36   2.0000     -10.353350      -281.7290
  37   2.0000     -10.353232      -281.7258
  38   2.0000     -10.352726      -281.7120
  39   2.0000     -10.351928      -281.6903
  40   2.0000     -10.351346      -281.6744
  41   2.0000     -10.350909      -281.6625
  42   2.0000     -10.349892      -281.6349
  43   2.0000     -10.349734      -281.6306
  44   2.0000     -10.345716      -281.5212
  45   2.0000     -10.341858      -281.4163
  46   2.0000     -10.339373      -281.3486
  47   2.0000     -10.339128      -281.3420
  48   2.0000     -10.338579      -281.3270
  49   2.0000     -10.338043      -281.3124
  50   2.0000     -10.338026      -281.3120
  51   2.0000     -10.337386      -281.2946
  52   2.0000     -10.334526      -281.2168
  53   2.0000     -10.327692      -281.0308
  54   2.0000     -10.326938      -281.0103
  55   2.0000     -10.325073      -280.9595
  56   2.0000     -10.324150      -280.9344
  57   2.0000     -10.323757      -280.9237
  58   2.0000     -10.323696      -280.9220
  59   2.0000     -10.323424      -280.9146
  60   2.0000     -10.322700      -280.8949
  61   2.0000     -10.322017      -280.8764
  62   2.0000     -10.320255      -280.8284
  63   2.0000     -10.319987      -280.8211
  64   2.0000     -10.318813      -280.7892
  65   2.0000     -10.318666      -280.7852
  66   2.0000     -10.315590      -280.7015
  67   2.0000     -10.315337      -280.6946
  68   2.0000     -10.315311      -280.6939
  69   2.0000     -10.315007      -280.6856
  70   2.0000     -10.313926      -280.6562
  71   2.0000     -10.313534      -280.6455
  72   2.0000     -10.312309      -280.6122
  73   2.0000     -10.310489      -280.5627
  74   2.0000     -10.308418      -280.5063
  75   2.0000     -10.308227      -280.5011
  76   2.0000     -10.307794      -280.4893
  77   2.0000     -10.307523      -280.4820
  78   2.0000     -10.305276      -280.4208
  79   2.0000     -10.305061      -280.4150
  80   2.0000     -10.304628      -280.4032
  81   2.0000     -10.304024      -280.3868
  82   2.0000     -10.299857      -280.2734
  83   2.0000     -10.299175      -280.2548
  84   2.0000      -8.105954      -220.5742
  85   2.0000      -8.105860      -220.5717
  86   2.0000      -8.101770      -220.4604
  87   2.0000      -8.100993      -220.4392
  88   2.0000      -6.075207      -165.3148
  89   2.0000      -6.075075      -165.3112
  90   2.0000      -6.070935      -165.1985
  91   2.0000      -6.070899      -165.1976
  92   2.0000      -6.070767      -165.1940
  93   2.0000      -6.070140      -165.1769
  94   2.0000      -6.068390      -165.1293
  95   2.0000      -6.068351      -165.1282
  96   2.0000      -6.066742      -165.0845
  97   2.0000      -6.065964      -165.0633
  98   2.0000      -6.064326      -165.0187
  99   2.0000      -6.063499      -164.9962
 100   2.0000      -1.324976       -36.0544
 101   2.0000      -1.324603       -36.0443
 102   2.0000      -1.310071       -35.6488
 103   2.0000      -1.309685       -35.6383
 104   2.0000      -1.288342       -35.0576
 105   2.0000      -1.212091       -32.9827
 106   2.0000      -1.143539       -31.1173
 107   2.0000      -1.140268       -31.0283
 108   2.0000      -1.127907       -30.6919
 109   2.0000      -1.062958       -28.9246
 110   2.0000      -1.062181       -28.9034
 111   2.0000      -1.033812       -28.1315
 112   2.0000      -1.031803       -28.0768
 113   2.0000      -1.029553       -28.0155
 114   2.0000      -1.027863       -27.9696
 115   2.0000      -1.024029       -27.8652
 116   2.0000      -1.018838       -27.7240
 117   2.0000      -1.017482       -27.6871
 118   2.0000      -1.015069       -27.6214
 119   2.0000      -1.010859       -27.5069
 120   2.0000      -1.010654       -27.5013
 121   2.0000      -1.002215       -27.2716
 122   2.0000      -1.001940       -27.2642
 123   2.0000      -0.997542       -27.1445
 124   2.0000      -0.988346       -26.8943
 125   2.0000      -0.987281       -26.8653
 126   2.0000      -0.976563       -26.5736
 127   2.0000      -0.969266       -26.3751
 128   2.0000      -0.947217       -25.7751
 129   2.0000      -0.940329       -25.5877
 130   2.0000      -0.939578       -25.5672
 131   2.0000      -0.927848       -25.2480
 132   2.0000      -0.924685       -25.1619
 133   2.0000      -0.908854       -24.7312
 134   2.0000      -0.907318       -24.6894
 135   2.0000      -0.897840       -24.4315
 136   2.0000      -0.897781       -24.4299
 137   2.0000      -0.889678       -24.2094
 138   2.0000      -0.889465       -24.2036
 139   2.0000      -0.878273       -23.8990
 140   2.0000      -0.878159       -23.8959
 141   2.0000      -0.873664       -23.7736
 142   2.0000      -0.872882       -23.7523
 143   2.0000      -0.845943       -23.0193
 144   2.0000      -0.845811       -23.0157
 145   2.0000      -0.834931       -22.7196
 146   2.0000      -0.832471       -22.6527
 147   2.0000      -0.812406       -22.1067
 148   2.0000      -0.807196       -21.9649
 149   2.0000      -0.791343       -21.5335
 150   2.0000      -0.791178       -21.5290
 151   2.0000      -0.778321       -21.1792
 152   2.0000      -0.774315       -21.0702
 153   2.0000      -0.773226       -21.0405
 154   2.0000      -0.760844       -20.7036
 155   2.0000      -0.754229       -20.5236
 156   2.0000      -0.739856       -20.1325
 157   2.0000      -0.735570       -20.0159
 158   2.0000      -0.727867       -19.8063
 159   2.0000      -0.724675       -19.7194
 160   2.0000      -0.721111       -19.6224
 161   2.0000      -0.719695       -19.5839
 162   2.0000      -0.718287       -19.5456
 163   2.0000      -0.705898       -19.2085
 164   2.0000      -0.702082       -19.1046
 165   2.0000      -0.698994       -19.0206
 166   2.0000      -0.696817       -18.9614
 167   2.0000      -0.690827       -18.7984
 168   2.0000      -0.689128       -18.7521
 169   2.0000      -0.678281       -18.4570
 170   2.0000      -0.672781       -18.3073
 171   2.0000      -0.663105       -18.0440
 172   2.0000      -0.660516       -17.9735
 173   2.0000      -0.659536       -17.9469
 174   2.0000      -0.652863       -17.7653
 175   2.0000      -0.648088       -17.6354
 176   2.0000      -0.647751       -17.6262
 177   2.0000      -0.646574       -17.5942
 178   2.0000      -0.643935       -17.5224
 179   2.0000      -0.633496       -17.2383
 180   2.0000      -0.631275       -17.1779
 181   2.0000      -0.630508       -17.1570
 182   2.0000      -0.624150       -16.9840
 183   2.0000      -0.621235       -16.9047
 184   2.0000      -0.617574       -16.8050
 185   2.0000      -0.613092       -16.6831
 186   2.0000      -0.611376       -16.6364
 187   2.0000      -0.601298       -16.3622
 188   2.0000      -0.595377       -16.2010
 189   2.0000      -0.591194       -16.0872
 190   2.0000      -0.589370       -16.0376
 191   2.0000      -0.589036       -16.0285
 192   2.0000      -0.586303       -15.9541
 193   2.0000      -0.585517       -15.9327
 194   2.0000      -0.581728       -15.8296
 195   2.0000      -0.572110       -15.5679
 196   2.0000      -0.563708       -15.3393
 197   2.0000      -0.563033       -15.3209
 198   2.0000      -0.561935       -15.2910
 199   2.0000      -0.559149       -15.2152
 200   2.0000      -0.558536       -15.1985
 201   2.0000      -0.553702       -15.0670
 202   2.0000      -0.552278       -15.0283
 203   2.0000      -0.550844       -14.9892
 204   2.0000      -0.550550       -14.9812
 205   2.0000      -0.549505       -14.9528
 206   2.0000      -0.547603       -14.9010
 207   2.0000      -0.546075       -14.8595
 208   2.0000      -0.544590       -14.8191
 209   2.0000      -0.539739       -14.6870
 210   2.0000      -0.537439       -14.6245
 211   2.0000      -0.534712       -14.5503
 212   2.0000      -0.533399       -14.5145
 213   2.0000      -0.532832       -14.4991
 214   2.0000      -0.526876       -14.3370
 215   2.0000      -0.525612       -14.3026
 216   2.0000      -0.521416       -14.1885
 217   2.0000      -0.520245       -14.1566
 218   2.0000      -0.518757       -14.1161
 219   2.0000      -0.517305       -14.0766
 220   2.0000      -0.516485       -14.0543
 221   2.0000      -0.515029       -14.0146
 222   2.0000      -0.514408       -13.9978
 223   2.0000      -0.512702       -13.9513
 224   2.0000      -0.511674       -13.9234
 225   2.0000      -0.507587       -13.8121
 226   2.0000      -0.504690       -13.7333
 227   2.0000      -0.501567       -13.6483
 228   2.0000      -0.500571       -13.6212
 229   2.0000      -0.499325       -13.5873
 230   2.0000      -0.494119       -13.4457
 231   2.0000      -0.492290       -13.3959
 232   2.0000      -0.490069       -13.3355
 233   2.0000      -0.489024       -13.3070
 234   2.0000      -0.487494       -13.2654
 235   2.0000      -0.482418       -13.1273
 236   2.0000      -0.475155       -12.9296
 237   2.0000      -0.472809       -12.8658
 238   2.0000      -0.471773       -12.8376
 239   2.0000      -0.469677       -12.7806
 240   2.0000      -0.468384       -12.7454
 241   2.0000      -0.468239       -12.7414
 242   2.0000      -0.467868       -12.7313
 243   2.0000      -0.467594       -12.7239
 244   2.0000      -0.466572       -12.6961
 245   2.0000      -0.464953       -12.6520
 246   2.0000      -0.459441       -12.5020
 247   2.0000      -0.457660       -12.4536
 248   2.0000      -0.457099       -12.4383
 249   2.0000      -0.456737       -12.4284
 250   2.0000      -0.455760       -12.4019
 251   2.0000      -0.452222       -12.3056
 252   2.0000      -0.451127       -12.2758
 253   2.0000      -0.450731       -12.2650
 254   2.0000      -0.449824       -12.2403
 255   2.0000      -0.449528       -12.2323
 256   2.0000      -0.448607       -12.2072
 257   2.0000      -0.447778       -12.1847
 258   2.0000      -0.447331       -12.1725
 259   2.0000      -0.442169       -12.0320
 260   2.0000      -0.437531       -11.9058
 261   2.0000      -0.437320       -11.9001
 262   2.0000      -0.437181       -11.8963
 263   2.0000      -0.434413       -11.8210
 264   2.0000      -0.433344       -11.7919
 265   2.0000      -0.433290       -11.7904
 266   2.0000      -0.431135       -11.7318
 267   2.0000      -0.430864       -11.7244
 268   2.0000      -0.422217       -11.4891
 269   2.0000      -0.420047       -11.4301
 270   2.0000      -0.417695       -11.3661
 271   2.0000      -0.415495       -11.3062
 272   2.0000      -0.413981       -11.2650
 273   2.0000      -0.410629       -11.1738
 274   2.0000      -0.408066       -11.1040
 275   2.0000      -0.402404       -10.9500
 276   2.0000      -0.392092       -10.6694
 277   2.0000      -0.391617       -10.6565
 278   2.0000      -0.381598       -10.3838
 279   2.0000      -0.375162       -10.2087
 280   2.0000      -0.369844       -10.0640
 281   2.0000      -0.366444        -9.9715
 282   2.0000      -0.362608        -9.8671
 283   2.0000      -0.351344        -9.5606
 284   2.0000      -0.349607        -9.5133
 285   2.0000      -0.341445        -9.2912
 286   2.0000      -0.335530        -9.1302
 287   2.0000      -0.333805        -9.0833
 288   2.0000      -0.330990        -9.0067
 289   2.0000      -0.322980        -8.7887
 290   2.0000      -0.322453        -8.7744
 291   2.0000      -0.306952        -8.3526
 292   2.0000      -0.306420        -8.3381
 293   2.0000      -0.283410        -7.7120
 294   2.0000      -0.279278        -7.5995
 295   0.0000      -0.124544        -3.3890
 296   0.0000      -0.121817        -3.3148
 297   0.0000      -0.098950        -2.6926
 298   0.0000      -0.098726        -2.6865
 299   0.0000      -0.068944        -1.8761

MULLIKEN ATOMIC CHARGES
-----------------------
   0 C :   -0.105403
   1 C :    0.242078
   2 F :   -0.169038
   3 C :    0.239042
   4 F :   -0.169628
   5 C :   -0.102272
   6 C :    0.112728
   7 C :    0.112520
   8 C :   -0.080834
   9 C :    0.054152
  10 C :   -0.009361
  11 C :   -0.074456
  12 C :    0.155237
  13 O :   -0.147441
  14 C :   -0.097264
  15 C :    0.301766
  16 C :   -0.340444
  17 C :   -0.205148
  18 N :    0.162500
  19 C :   -0.181645
  20 N :    0.151856
  21 C :    0.030543
  22 C :   -0.113004
  23 C :    0.042734
  24 C :   -0.021814
  25 C :   -0.085888
  26 S :    0.216953
  27 C :   -0.091029
  28 C :    0.004263
  29 C :    0.305886
  30 C :   -0.283088
  31 C :   -0.193254
  32 N :    0.186554
  33 C :   -0.186736
  34 N :    0.187019
  35 C :   -0.022077
  36 C :   -0.126237
  37 S :    0.248360
  38 C :    0.232586
  39 C :   -0.202482
  40 C :    0.165080
  41 O :   -0.156474
  42 O :   -0.154606
  43 C :    0.045731
  44 N :    0.018095
  45 O :   -0.166373
  46 C :   -0.142241
  47 C :   -0.026447
  48 C :    0.031223
  49 C :   -0.091757
  50 S :    0.199119
  51 C :   -0.068349
  52 C :   -0.001969
  53 C :    0.298694
  54 C :   -0.279243
  55 C :   -0.183392
  56 N :    0.171432
  57 C :   -0.193642
  58 N :    0.188801
  59 C :   -0.000717
  60 C :   -0.110632
  61 S :    0.222427
  62 C :    0.082788
  63 C :   -0.135799
  64 C :    0.133365
  65 O :   -0.139188
  66 C :    0.019854
  67 C :   -0.079942
  68 C :    0.111308
  69 C :    0.108371
  70 C :   -0.103607
  71 C :    0.242425
  72 C :    0.239767
  73 C :   -0.102538
  74 F :   -0.170005
  75 F :   -0.169461
  76 C :   -0.075156
  77 C :    0.028826
  78 C :    0.273645
  79 C :   -0.324100
  80 C :   -0.201540
  81 N :    0.166962
  82 C :   -0.168808
  83 N :    0.160729
  84 H :    0.008119
  85 H :    0.001691
  86 H :   -0.005504
  87 H :   -0.006621
  88 H :    0.025191
  89 H :    0.033084
  90 H :    0.032606
  91 H :    0.190406
  92 H :    0.029509
  93 H :    0.025014
  94 H :    0.023713
  95 H :   -0.008460
  96 H :    0.007617
  97 H :    0.000576
  98 H :    0.002167
Sum of atomic charges:   -0.0000000

LOEWDIN ATOMIC CHARGES
----------------------
   0 C :   -0.028934
   1 C :    0.067622
   2 F :   -0.047111
   3 C :    0.068625
   4 F :   -0.047332
   5 C :   -0.032055
   6 C :   -0.008082
   7 C :   -0.005914
   8 C :    0.018741
   9 C :   -0.023752
  10 C :   -0.052996
  11 C :    0.033346
  12 C :    0.084884
  13 O :   -0.134940
  14 C :   -0.090771
  15 C :    0.074391
  16 C :   -0.137166
  17 C :   -0.025512
  18 N :   -0.048915
  19 C :   -0.017828
  20 N :   -0.049102
  21 C :    0.045037
  22 C :   -0.173976
  23 C :    0.024268
  24 C :   -0.066935
  25 C :   -0.166025
  26 S :    0.500531
  27 C :   -0.176032
  28 C :   -0.058115
  29 C :    0.073215
  30 C :   -0.086602
  31 C :   -0.019718
  32 N :   -0.017335
  33 C :   -0.018717
  34 N :   -0.016789
  35 C :    0.002605
  36 C :   -0.189672
  37 S :    0.514480
  38 C :    0.054844
  39 C :   -0.155120
  40 C :    0.065821
  41 O :   -0.132059
  42 O :   -0.022975
  43 C :   -0.048000
  44 N :   -0.033671
  45 O :    0.034555
  46 C :   -0.193817
  47 C :    0.002250
  48 C :   -0.060526
  49 C :   -0.177884
  50 S :    0.507736
  51 C :   -0.164586
  52 C :   -0.061890
  53 C :    0.079309
  54 C :   -0.091270
  55 C :   -0.012252
  56 N :   -0.028716
  57 C :   -0.019881
  58 N :   -0.019664
  59 C :    0.009849
  60 C :   -0.178033
  61 S :    0.507307
  62 C :    0.043142
  63 C :   -0.088577
  64 C :    0.083485
  65 O :   -0.139906
  66 C :   -0.055468
  67 C :    0.032411
  68 C :   -0.009084
  69 C :   -0.004903
  70 C :   -0.028683
  71 C :    0.068082
  72 C :    0.067894
  73 C :   -0.032598
  74 F :   -0.047887
  75 F :   -0.046967
  76 C :    0.017763
  77 C :   -0.020518
  78 C :    0.065413
  79 C :   -0.133361
  80 C :   -0.015192
  81 N :   -0.044259
  82 C :   -0.018551
  83 N :   -0.042542
  84 H :    0.048039
  85 H :    0.045765
  86 H :    0.040240
  87 H :    0.041803
  88 H :    0.044963
  89 H :    0.045954
  90 H :    0.046151
  91 H :    0.091785
  92 H :    0.050792
  93 H :    0.042962
  94 H :    0.046737
  95 H :    0.041192
  96 H :    0.048298
  97 H :    0.045244
  98 H :    0.041632

  Mayer bond orders larger than 0.100000
B(  0-C ,  1-C ) :   1.4413 B(  0-C ,  5-C ) :   0.1081 B(  0-C ,  7-C ) :   1.1890
B(  0-C , 84-H ) :   1.0064 B(  1-C ,  2-F ) :   1.1369 B(  1-C ,  3-C ) :   1.1900
B(  3-C ,  4-F ) :   1.1354 B(  3-C ,  5-C ) :   1.4434 B(  5-C ,  6-C ) :   1.1919
B(  5-C , 85-H ) :   1.0069 B(  6-C ,  7-C ) :   1.2553 B(  6-C , 11-C ) :   1.1903
B(  7-C ,  8-C ) :   1.2179 B(  8-C ,  9-C ) :   1.4481 B(  8-C , 86-H ) :   0.9903
B(  9-C , 10-C ) :   1.2199 B(  9-C , 15-C ) :   0.9890 B( 10-C , 11-C ) :   1.4712
B( 10-C , 12-C ) :   0.9443 B( 11-C , 87-H ) :   1.0162 B( 12-C , 13-O ) :   2.2036
B( 12-C , 14-C ) :   0.9403 B( 14-C , 15-C ) :   1.0681 B( 14-C , 21-C ) :   1.6085
B( 15-C , 16-C ) :   1.6423 B( 16-C , 17-C ) :   1.1372 B( 16-C , 19-C ) :   1.1450
B( 17-C , 18-N ) :   2.9937 B( 19-C , 20-N ) :   2.9660 B( 21-C , 22-C ) :   1.1825
B( 21-C , 88-H ) :   0.9276 B( 22-C , 23-C ) :   1.4136 B( 22-C , 26-S ) :   1.0836
B( 23-C , 24-C ) :   1.3372 B( 23-C , 89-H ) :   0.9735 B( 24-C , 25-C ) :   1.3978
B( 24-C , 29-C ) :   0.9922 B( 25-C , 26-S ) :   1.1615 B( 25-C , 27-C ) :   1.1913
B( 27-C , 28-C ) :   1.4325 B( 27-C , 37-S ) :   1.1303 B( 28-C , 29-C ) :   0.9917
B( 28-C , 35-C ) :   1.3041 B( 29-C , 30-C ) :   1.7240 B( 30-C , 31-C ) :   1.1363
B( 30-C , 33-C ) :   1.1332 B( 31-C , 32-N ) :   2.9888 B( 33-C , 34-N ) :   2.9913
B( 35-C , 36-C ) :   1.4859 B( 35-C , 90-H ) :   0.9788 B( 36-C , 37-S ) :   1.0975
B( 36-C , 38-C ) :   1.0939 B( 38-C , 39-C ) :   1.5240 B( 38-C , 45-O ) :   1.2102
B( 39-C , 40-C ) :   0.8795 B( 39-C , 43-C ) :   1.2059 B( 40-C , 41-O ) :   2.1806
B( 40-C , 42-O ) :   1.2215 B( 42-O , 91-H ) :   0.9447 B( 43-C , 44-N ) :   1.7289
B( 43-C , 46-C ) :   1.0295 B( 44-N , 45-O ) :   0.9950 B( 46-C , 47-C ) :   1.4846
B( 46-C , 50-S ) :   1.1240 B( 47-C , 48-C ) :   1.2537 B( 47-C , 92-H ) :   1.0128
B( 48-C , 49-C ) :   1.4385 B( 48-C , 53-C ) :   0.9863 B( 49-C , 50-S ) :   1.1331
B( 49-C , 51-C ) :   1.1785 B( 51-C , 52-C ) :   1.4197 B( 51-C , 61-S ) :   1.1545
B( 52-C , 53-C ) :   0.9988 B( 52-C , 59-C ) :   1.3531 B( 53-C , 54-C ) :   1.7264
B( 54-C , 55-C ) :   1.1339 B( 54-C , 57-C ) :   1.1310 B( 55-C , 56-N ) :   2.9814
B( 57-C , 58-N ) :   3.0001 B( 59-C , 60-C ) :   1.3997 B( 59-C , 93-H ) :   0.9799
B( 60-C , 61-S ) :   1.0954 B( 60-C , 62-C ) :   1.1296 B( 62-C , 63-C ) :   1.6805
B( 62-C , 94-H ) :   0.9247 B( 63-C , 64-C ) :   0.9403 B( 63-C , 78-C ) :   1.0325
B( 64-C , 65-O ) :   2.2692 B( 64-C , 66-C ) :   0.9194 B( 66-C , 67-C ) :   1.4709
B( 66-C , 77-C ) :   1.2228 B( 67-C , 68-C ) :   1.1950 B( 67-C , 95-H ) :   1.0162
B( 68-C , 69-C ) :   1.2580 B( 68-C , 73-C ) :   1.1919 B( 69-C , 70-C ) :   1.1902
B( 69-C , 76-C ) :   1.2168 B( 70-C , 71-C ) :   1.4414 B( 70-C , 73-C ) :   0.1086
B( 70-C , 96-H ) :   1.0065 B( 71-C , 72-C ) :   1.1914 B( 71-C , 75-F ) :   1.1357
B( 72-C , 73-C ) :   1.4439 B( 72-C , 74-F ) :   1.1354 B( 73-C , 97-H ) :   1.0062
B( 76-C , 77-C ) :   1.4567 B( 76-C , 98-H ) :   0.9930 B( 77-C , 78-C ) :   0.9963
B( 78-C , 79-C ) :   1.6527 B( 79-C , 80-C ) :   1.1713 B( 79-C , 82-C ) :   1.1267
B( 80-C , 81-N ) :   2.9919 B( 82-C , 83-N ) :   2.9899

-----------------------------------------------------------------------------
         ABSORPTION SPECTRUM VIA TRANSITION ELECTRIC DIPOLE MOMENTS
-----------------------------------------------------------------------------
State   Energy  Wavelength   fosc         T2         TX        TY        TZ
        (cm-1)    (nm)                  (au**2)     (au)      (au)      (au)
-----------------------------------------------------------------------------
   0   15667.3    638.3   0.450949906   9.47565   0.74264   2.95514  -0.43739
   1   16100.9    621.1   0.129707586   2.65211  -0.88897  -1.34431  -0.23385
   2   21668.6    461.5   1.301141522  19.76834  -0.57964  -4.36109   0.64287
   3   22350.1    447.4   0.593362057   8.74008   1.87509   2.28202   0.12851
   4   24372.7    410.3   0.001352067   0.01826  -0.02426  -0.02081   0.13131
   5   24700.4    404.9   0.002202263   0.02935  -0.08955   0.02205   0.14438
   6   25700.8    389.1   0.115208423   1.47575  -0.54087  -0.94736  -0.53452
   7   25840.5    387.0   0.028709601   0.36577   0.42446   0.40834  -0.13730
   8   26711.7    374.4   0.021333892   0.26293   0.06566  -0.50744  -0.03351
   9   27959.9    357.7   0.012078547   0.14222   0.13790  -0.25716  -0.23889
  10   28378.0    352.4   0.014260862   0.16544  -0.03282   0.40371  -0.03715
  11   28660.7    348.9   0.072206716   0.82940  -0.47950  -0.68435   0.36214
  12   28848.5    346.6   0.002122713   0.02422   0.10009   0.10524  -0.05595
  13   29239.8    342.0   0.000967422   0.01089  -0.03263  -0.05881  -0.07981
  14   29868.3    334.8   0.645688438   7.11686   1.35970   1.98144   1.15844
  15   29980.6    333.5   0.255819630   2.80911   0.02277  -0.07853  -1.67404
  16   30593.9    326.9   0.811645432   8.73387  -0.01099  -2.77889  -1.00576
  17   30821.4    324.4   0.570188225   6.09034   1.20094   0.98810  -1.91618
  18   31221.8    320.3   0.099040798   1.04432   0.42624   0.40517   0.83574
  19   31366.1    318.8   0.153189315   1.60784   0.39199  -0.50054  -1.09711
  20   31929.5    313.2   0.050854937   0.52434  -0.32411  -0.61984   0.18736
  21   31988.5    312.6   0.069428593   0.71453  -0.24825   0.77981  -0.21165
  22   32372.9    308.9   0.331409322   3.37022  -0.57053  -1.73430  -0.19211
  23   32680.4    306.0   0.106515700   1.07301   0.52788   0.73397   0.50560
  24   32712.3    305.7   0.138958947   1.39846  -0.47090  -0.82688  -0.70214
  25   32885.1    304.1   0.200143622   2.00363  -0.30554  -1.33920   0.34181
  26   33198.0    301.2   0.012013712   0.11914   0.09862  -0.18631   0.27331
  27   33853.4    295.4   0.221586342   2.15485  -0.38007  -1.39953  -0.22741
  28   34076.2    293.5   0.011506166   0.11116  -0.08789  -0.32047  -0.02714
  29   34155.5    292.8   0.086265104   0.83148  -0.69099  -0.57794   0.14139
  30   34334.9    291.2   0.056691006   0.54357  -0.41688  -0.60739   0.02926
  31   34524.8    289.6   0.007111400   0.06781  -0.14919   0.09011   0.19347
  32   34632.5    288.7   0.133039278   1.26466   0.23530   0.17186  -1.08617
  33   34959.1    286.0   0.628840841   5.92183  -0.48073  -0.28319  -2.36866
  34   35134.0    284.6   0.132582751   1.24232  -0.14842   1.08742   0.19448
  35   35186.2    284.2   0.528172328   4.94173   1.39711   1.14351  -1.29699
  36   35974.0    278.0   0.100897746   0.92335  -0.36802  -0.65077   0.60367
  37   36202.6    276.2   0.065767082   0.59806   0.15115   0.75529  -0.06888
  38   36414.9    274.6   0.056725953   0.51284  -0.07504  -0.10034   0.70508
  39   36440.4    274.4   0.021158080   0.19115  -0.08398  -0.29397  -0.31253
  40   36808.7    271.7   0.046190027   0.41312  -0.03074   0.41967  -0.48585
  41   37173.6    269.0   0.017854568   0.15812   0.35065   0.18626   0.02178
  42   37559.5    266.2   0.002568760   0.02252   0.01006  -0.05944  -0.13741
  43   37755.2    264.9   0.008574990   0.07477   0.12338   0.06050  -0.23641
  44   37891.6    263.9   0.019898417   0.17288   0.12783  -0.00898  -0.39555
  45   38127.7    262.3   0.062862281   0.54278  -0.14815  -0.04658   0.72018
  46   38436.9    260.2   0.016843034   0.14426   0.04560   0.14309   0.34886
  47   38570.9    259.3   0.030012189   0.25616   0.07759  -0.10059  -0.48992
  48   38732.4    258.2   0.001981779   0.01684  -0.02550  -0.01464   0.12641
  49   39020.9    256.3   0.021085819   0.17790   0.08668   0.03691  -0.41112
  50   39178.6    255.2   0.033567232   0.28206  -0.22272  -0.00050   0.48214
  51   39604.2    252.5   0.145080464   1.20599   0.06715   1.09531  -0.04203
  52   39778.9    251.4   0.249971518   2.06877   0.90561   0.40885  -1.03995
  53   40238.2    248.5   0.024119599   0.19734   0.26582   0.29544  -0.19846

FINAL SINGLE POINT ENERGY     -5227.463544083353

DIPOLE MOMENT
-------------
                                X             Y             Z
Electronic contribution:      4.67079      -1.22102       0.39016
Nuclear contribution   :     -5.73530       0.52303       0.88459
                        -----------------------------------------
Total Dipole Moment    :     -1.06452      -0.69800       1.27475
                        -----------------------------------------
Magnitude (a.u.)       :      1.80149
Magnitude (Debye)      :      4.57903

Rotational constants in cm-1:     0.002126     0.000126     0.000123
Rotational constants in MHz :    63.733327     3.773030     3.682752

                             ****ORCA TERMINATED NORMALLY****
TOTAL RUN TIME: 0 days 0 hours 10 minutes 39 seconds 53 msec
