                         Program Version 4.2.0 -  RELEASE  -
|  1> # ORCA input file
|  2> # SCF done       -215.116193423317          0.000383626496
|  3> ! CAM-B3LYP def2-SVP def2/J RIJCOSX Grid4 TightSCF
|  4> %maxcore 5000
|  5> %tddft
|  6>     Mode sTDDFT
|  7>     Ethresh 5.0
|  8>     maxcore 5000
|  9> end
| 10>
| 11> %pal
| 12>   nprocs 6
| 13>   end
| 14> * xyz 0 1
| 15>    C       -3.35514         3.02190         3.68971
| 16>    C       -2.77727         3.49417         4.83445
| 17>    F       -2.58875         4.80989         5.00012
| 18>    C       -2.37287         2.60751         5.85294
| 19>    F       -1.80810         3.09957         6.96357
| 20>    C       -2.55262         1.25995         5.71255
| 21>    C       -3.14539         0.74233         4.54447
| 22>    C       -3.55514         1.63767         3.51401
| 23>    C       -4.15585         1.14227         2.33426
| 24>    C       -4.34284        -0.20771         2.19018
| 25>    C       -3.92459        -1.09268         3.22072
| 26>    C       -3.34133        -0.64559         4.37104
| 27>    C       -4.21937        -2.48462         2.82966
| 28>    O       -3.96670        -3.47221         3.48512
| 29>    C       -4.81784        -2.40179         1.47513
| 30>    C       -4.93644        -0.99813         1.11604
| 31>    C       -5.56345        -0.47826         0.01313
| 32>    C       -6.23207        -1.21711        -0.98615
| 33>    N       -6.81358        -1.73792        -1.82885
| 34>    C       -5.65963         0.90292        -0.26104
| 35>    N       -5.76964         2.00912        -0.54694
| 36>    C       -5.10632        -3.43280         0.62149
| 37>    C       -5.15692        -4.82340         0.83550
| 38>    C       -5.11928        -5.60148         1.98751
| 39>    C       -5.28948        -6.95051         1.71225
| 40>    C       -5.45084        -7.22260         0.33461
| 41>    S       -5.40999        -5.81510        -0.61101
| 42>    C       -5.61685        -8.62108         0.16432
| 43>    C       -5.56993        -9.22935         1.43266
| 44>    C       -5.36691        -8.20603         2.44468
| 45>    C       -5.29105        -8.39694         3.79248
| 46>    C       -5.39187        -9.68760         4.35716
| 47>    N       -5.47619       -10.73891         4.80649
| 48>    C       -5.13101        -7.34156         4.71679
| 49>    N       -5.01846        -6.50460         5.49136
| 50>    C       -5.74848       -10.61169         1.36825
| 51>    C       -5.92275       -11.03651         0.06951
| 52>    S       -5.86824        -9.74659        -1.09682
| 53>    C       -6.15009       -12.38966        -0.37280
| 54>    N       -6.23856       -12.59440        -1.68816
| 55>    C       -6.45043       -13.83856        -2.07959
| 56>    C       -6.58419       -14.88579        -1.18380
| 57>    C       -6.48547       -14.57166         0.18012
| 58>    N       -6.26242       -13.31566         0.56939
| 59>    C       -6.63324       -15.57763         1.20613
| 60>    C       -6.56213       -15.28164         2.51873
| 61>    C       -6.72158       -16.21030         3.58178
| 62>    C       -6.66862       -15.92766         4.93568
| 63>    C       -6.88503       -17.06125         5.71881
| 64>    C       -7.10158       -18.21994         4.94987
| 65>    S       -7.03867       -17.91237         3.27440
| 66>    C       -7.31213       -19.31564         5.82386
| 67>    C       -7.23150       -18.84483         7.14984
| 68>    C       -6.95084       -17.41825         7.12696
| 69>    C       -6.76293       -16.61150         8.20974
| 70>    C       -6.83425       -17.12337         9.52315
| 71>    N       -6.90028       -17.55680        10.58264
| 72>    C       -6.49257       -15.23120         8.09243
| 73>    N       -6.28354       -14.10815         8.00301
| 74>    C       -7.40358       -19.84917         8.09161
| 75>    C       -7.61005       -21.09051         7.50468
| 76>    S       -7.62075       -20.98618         5.74731
| 77>    C       -7.85085       -22.33606         8.12149
| 78>    C       -7.62138       -22.71396         9.41073
| 79>    C       -8.34860       -23.90340         9.94043
| 80>    O       -8.96315       -24.71822         9.29272
| 81>    C       -8.20080       -23.82717        11.40658
| 82>    C       -8.78062       -24.60185        12.36959
| 83>    C       -8.51979       -24.31659        13.72858
| 84>    C       -7.66741       -23.22423        14.06355
| 85>    C       -7.42046       -22.93891        15.42145
| 86>    C       -7.98896       -23.70457        16.40043
| 87>    C       -8.82995       -24.78594        16.06800
| 88>    C       -9.09088       -25.08658        14.76055
| 89>    F       -9.37441       -25.51859        17.04832
| 90>    F       -7.75192       -23.43403        17.69005
| 91>    C       -7.07535       -22.44374        13.04416
| 92>    C       -7.33090       -22.74837        11.73421
| 93>    C       -6.84387       -22.14927        10.49315
| 94>    C       -5.69664       -21.40695        10.38528
| 95>    C       -5.11395       -21.03384         9.15894
| 96>    N       -4.59591       -20.73055         8.18015
| 97>    C       -4.91078       -21.01327        11.48939
| 98>    N       -4.23433       -20.67429        12.35163
| 99>    H       -3.66027         3.71446         2.92084
|100>    H       -2.23826         0.59411         6.50091
|101>    H       -4.44926         1.84643         1.57291
|102>    H       -3.03710        -1.34264         5.13693
|103>    H       -5.33876        -3.15465        -0.40006
|104>    H       -4.96724        -5.18097         2.96511
|105>    H       -5.75611       -11.29144         2.19928
|106>    H       -6.51633       -13.98998        -3.14929
|107>    H       -6.76041       -15.89590        -1.51506
|108>    H       -6.81641       -16.59026         0.87211
|109>    H       -6.37568       -14.25517         2.80431
|110>    H       -6.48215       -14.93928         5.31573
|111>    H       -7.42713       -19.69368         9.15460
|112>    H       -8.35129       -23.08342         7.51275
|113>    H       -9.43064       -25.41989        12.09890
|114>    H       -6.77661       -22.11696        15.69281
|115>    H       -9.73712       -25.91700        14.52284
|116>    H       -6.44407       -21.61576        13.32459
|117> *
|118>
|119>                          ****END OF INPUT****

CARTESIAN COORDINATES (ANGSTROEM)
---------------------------------
  C     -3.355140    3.021900    3.689710
  C     -2.777270    3.494170    4.834450
  F     -2.588750    4.809890    5.000120
  C     -2.372870    2.607510    5.852940
  F     -1.808100    3.099570    6.963570
  C     -2.552620    1.259950    5.712550
  C     -3.145390    0.742330    4.544470
  C     -3.555140    1.637670    3.514010
  C     -4.155850    1.142270    2.334260
  C     -4.342840   -0.207710    2.190180
  C     -3.924590   -1.092680    3.220720
  C     -3.341330   -0.645590    4.371040
  C     -4.219370   -2.484620    2.829660
  O     -3.966700   -3.472210    3.485120
  C     -4.817840   -2.401790    1.475130
  C     -4.936440   -0.998130    1.116040
  C     -5.563450   -0.478260    0.013130
  C     -6.232070   -1.217110   -0.986150
  N     -6.813580   -1.737920   -1.828850
  C     -5.659630    0.902920   -0.261040
  N     -5.769640    2.009120   -0.546940
  C     -5.106320   -3.432800    0.621490
  C     -5.156920   -4.823400    0.835500
  C     -5.119280   -5.601480    1.987510
  C     -5.289480   -6.950510    1.712250
  C     -5.450840   -7.222600    0.334610
  S     -5.409990   -5.815100   -0.611010
  C     -5.616850   -8.621080    0.164320
  C     -5.569930   -9.229350    1.432660
  C     -5.366910   -8.206030    2.444680
  C     -5.291050   -8.396940    3.792480
  C     -5.391870   -9.687600    4.357160
  N     -5.476190  -10.738910    4.806490
  C     -5.131010   -7.341560    4.716790
  N     -5.018460   -6.504600    5.491360
  C     -5.748480  -10.611690    1.368250
  C     -5.922750  -11.036510    0.069510
  S     -5.868240   -9.746590   -1.096820
  C     -6.150090  -12.389660   -0.372800
  N     -6.238560  -12.594400   -1.688160
  C     -6.450430  -13.838560   -2.079590
  C     -6.584190  -14.885790   -1.183800
  C     -6.485470  -14.571660    0.180120
  N     -6.262420  -13.315660    0.569390
  C     -6.633240  -15.577630    1.206130
  C     -6.562130  -15.281640    2.518730
  C     -6.721580  -16.210300    3.581780
  C     -6.668620  -15.927660    4.935680
  C     -6.885030  -17.061250    5.718810
  C     -7.101580  -18.219940    4.949870
  S     -7.038670  -17.912370    3.274400
  C     -7.312130  -19.315640    5.823860
  C     -7.231500  -18.844830    7.149840
  C     -6.950840  -17.418250    7.126960
  C     -6.762930  -16.611500    8.209740
  C     -6.834250  -17.123370    9.523150
  N     -6.900280  -17.556800   10.582640
  C     -6.492570  -15.231200    8.092430
  N     -6.283540  -14.108150    8.003010
  C     -7.403580  -19.849170    8.091610
  C     -7.610050  -21.090510    7.504680
  S     -7.620750  -20.986180    5.747310
  C     -7.850850  -22.336060    8.121490
  C     -7.621380  -22.713960    9.410730
  C     -8.348600  -23.903400    9.940430
  O     -8.963150  -24.718220    9.292720
  C     -8.200800  -23.827170   11.406580
  C     -8.780620  -24.601850   12.369590
  C     -8.519790  -24.316590   13.728580
  C     -7.667410  -23.224230   14.063550
  C     -7.420460  -22.938910   15.421450
  C     -7.988960  -23.704570   16.400430
  C     -8.829950  -24.785940   16.068000
  C     -9.090880  -25.086580   14.760550
  F     -9.374410  -25.518590   17.048320
  F     -7.751920  -23.434030   17.690050
  C     -7.075350  -22.443740   13.044160
  C     -7.330900  -22.748370   11.734210
  C     -6.843870  -22.149270   10.493150
  C     -5.696640  -21.406950   10.385280
  C     -5.113950  -21.033840    9.158940
  N     -4.595910  -20.730550    8.180150
  C     -4.910780  -21.013270   11.489390
  N     -4.234330  -20.674290   12.351630
  H     -3.660270    3.714460    2.920840
  H     -2.238260    0.594110    6.500910
  H     -4.449260    1.846430    1.572910
  H     -3.037100   -1.342640    5.136930
  H     -5.338760   -3.154650   -0.400060
  H     -4.967240   -5.180970    2.965110
  H     -5.756110  -11.291440    2.199280
  H     -6.516330  -13.989980   -3.149290
  H     -6.760410  -15.895900   -1.515060
  H     -6.816410  -16.590260    0.872110
  H     -6.375680  -14.255170    2.804310
  H     -6.482150  -14.939280    5.315730
  H     -7.427130  -19.693680    9.154600
  H     -8.351290  -23.083420    7.512750
  H     -9.430640  -25.419890   12.098900
  H     -6.776610  -22.116960   15.692810
  H     -9.737120  -25.917000   14.522840
  H     -6.444070  -21.615760   13.324590

 Total Charge           Charge          ....    0
 Multiplicity           Mult            ....    1
 Number of Electrons    NEL             ....  588
 Basis Dimension        Dim             .... 1282

ORBITAL ENERGIES
----------------

  NO   OCC          E(Eh)            E(eV)
   0   2.0000     -89.002895     -2421.8919
   1   2.0000     -88.999420     -2421.7973
   2   2.0000     -88.998513     -2421.7727
   3   2.0000     -88.995092     -2421.6796
   4   2.0000     -24.799786      -674.8365
   5   2.0000     -24.798693      -674.8067
   6   2.0000     -24.797424      -674.7722
   7   2.0000     -24.796733      -674.7534
   8   2.0000     -19.221183      -523.0350
   9   2.0000     -19.220733      -523.0227
  10   2.0000     -14.437966      -392.8770
  11   2.0000     -14.434241      -392.7757
  12   2.0000     -14.432388      -392.7253
  13   2.0000     -14.429268      -392.6404
  14   2.0000     -14.425676      -392.5426
  15   2.0000     -14.425467      -392.5369
  16   2.0000     -14.423311      -392.4782
  17   2.0000     -14.419424      -392.3725
  18   2.0000     -14.418345      -392.3431
  19   2.0000     -14.416237      -392.2858
  20   2.0000     -10.383087      -282.5382
  21   2.0000     -10.382490      -282.5219
  22   2.0000     -10.380810      -282.4762
  23   2.0000     -10.380204      -282.4597
  24   2.0000     -10.373097      -282.2663
  25   2.0000     -10.372554      -282.2516
  26   2.0000     -10.372209      -282.2422
  27   2.0000     -10.368333      -282.1367
  28   2.0000     -10.366051      -282.0746
  29   2.0000     -10.359651      -281.9004
  30   2.0000     -10.355005      -281.7740
  31   2.0000     -10.349550      -281.6256
  32   2.0000     -10.349387      -281.6211
  33   2.0000     -10.348697      -281.6024
  34   2.0000     -10.348341      -281.5927
  35   2.0000     -10.346247      -281.5357
  36   2.0000     -10.345085      -281.5041
  37   2.0000     -10.344379      -281.4849
  38   2.0000     -10.343803      -281.4692
  39   2.0000     -10.338011      -281.3116
  40   2.0000     -10.337309      -281.2925
  41   2.0000     -10.337081      -281.2863
  42   2.0000     -10.334840      -281.2253
  43   2.0000     -10.333443      -281.1873
  44   2.0000     -10.333392      -281.1859
  45   2.0000     -10.332287      -281.1558
  46   2.0000     -10.331621      -281.1377
  47   2.0000     -10.331443      -281.1329
  48   2.0000     -10.331127      -281.1242
  49   2.0000     -10.328437      -281.0511
  50   2.0000     -10.324306      -280.9386
  51   2.0000     -10.322539      -280.8906
  52   2.0000     -10.322451      -280.8882
  53   2.0000     -10.320620      -280.8383
  54   2.0000     -10.319371      -280.8044
  55   2.0000     -10.318944      -280.7927
  56   2.0000     -10.315919      -280.7104
  57   2.0000     -10.314635      -280.6755
  58   2.0000     -10.312820      -280.6261
  59   2.0000     -10.312549      -280.6187
  60   2.0000     -10.312336      -280.6129
  61   2.0000     -10.311179      -280.5815
  62   2.0000     -10.310943      -280.5750
  63   2.0000     -10.310939      -280.5749
  64   2.0000     -10.310081      -280.5516
  65   2.0000     -10.309818      -280.5444
  66   2.0000     -10.309687      -280.5408
  67   2.0000     -10.309402      -280.5331
  68   2.0000     -10.307408      -280.4788
  69   2.0000     -10.306745      -280.4608
  70   2.0000     -10.305882      -280.4373
  71   2.0000     -10.304756      -280.4067
  72   2.0000     -10.304732      -280.4060
  73   2.0000     -10.304184      -280.3911
  74   2.0000     -10.302940      -280.3573
  75   2.0000     -10.302291      -280.3396
  76   2.0000     -10.301739      -280.3246
  77   2.0000     -10.301634      -280.3217
  78   2.0000     -10.300241      -280.2838
  79   2.0000     -10.299761      -280.2707
  80   2.0000     -10.299291      -280.2580
  81   2.0000     -10.297187      -280.2007
  82   2.0000     -10.296921      -280.1935
  83   2.0000     -10.292806      -280.0815
  84   2.0000      -8.097568      -220.3460
  85   2.0000      -8.094122      -220.2523
  86   2.0000      -8.093290      -220.2296
  87   2.0000      -8.089021      -220.1135
  88   2.0000      -6.066717      -165.0838
  89   2.0000      -6.063237      -164.9891
  90   2.0000      -6.062566      -164.9708
  91   2.0000      -6.062330      -164.9644
  92   2.0000      -6.060082      -164.9032
  93   2.0000      -6.059197      -164.8791
  94   2.0000      -6.058255      -164.8535
  95   2.0000      -6.058191      -164.8518
  96   2.0000      -6.056592      -164.8082
  97   2.0000      -6.055893      -164.7892
  98   2.0000      -6.053902      -164.7350
  99   2.0000      -6.051720      -164.6757
 100   2.0000      -1.322391       -35.9841
 101   2.0000      -1.320070       -35.9209
 102   2.0000      -1.307510       -35.5791
 103   2.0000      -1.305206       -35.5165
 104   2.0000      -1.136948       -30.9379
 105   2.0000      -1.136652       -30.9299
 106   2.0000      -1.101841       -29.9826
 107   2.0000      -1.056149       -28.7393
 108   2.0000      -1.050859       -28.5953
 109   2.0000      -1.028763       -27.9941
 110   2.0000      -1.025364       -27.9016
 111   2.0000      -1.023574       -27.8529
 112   2.0000      -1.021815       -27.8050
 113   2.0000      -1.013675       -27.5835
 114   2.0000      -1.010186       -27.4886
 115   2.0000      -1.008074       -27.4311
 116   2.0000      -1.007783       -27.4232
 117   2.0000      -1.005455       -27.3598
 118   2.0000      -1.004366       -27.3302
 119   2.0000      -0.999419       -27.1956
 120   2.0000      -0.998235       -27.1633
 121   2.0000      -0.996350       -27.1121
 122   2.0000      -0.985083       -26.8055
 123   2.0000      -0.982163       -26.7260
 124   2.0000      -0.969660       -26.3858
 125   2.0000      -0.964316       -26.2404
 126   2.0000      -0.938172       -25.5290
 127   2.0000      -0.934960       -25.4415
 128   2.0000      -0.931647       -25.3514
 129   2.0000      -0.925306       -25.1789
 130   2.0000      -0.915481       -24.9115
 131   2.0000      -0.907055       -24.6822
 132   2.0000      -0.900267       -24.4975
 133   2.0000      -0.895374       -24.3644
 134   2.0000      -0.892181       -24.2775
 135   2.0000      -0.888493       -24.1771
 136   2.0000      -0.885013       -24.0824
 137   2.0000      -0.880500       -23.9596
 138   2.0000      -0.869114       -23.6498
 139   2.0000      -0.866941       -23.5907
 140   2.0000      -0.864811       -23.5327
 141   2.0000      -0.860614       -23.4185
 142   2.0000      -0.843239       -22.9457
 143   2.0000      -0.840360       -22.8674
 144   2.0000      -0.826157       -22.4809
 145   2.0000      -0.824674       -22.4405
 146   2.0000      -0.803051       -21.8521
 147   2.0000      -0.799574       -21.7575
 148   2.0000      -0.786420       -21.3996
 149   2.0000      -0.781737       -21.2722
 150   2.0000      -0.772105       -21.0100
 151   2.0000      -0.768759       -20.9190
 152   2.0000      -0.764624       -20.8065
 153   2.0000      -0.760463       -20.6932
 154   2.0000      -0.744875       -20.2691
 155   2.0000      -0.737299       -20.0629
 156   2.0000      -0.725618       -19.7451
 157   2.0000      -0.721590       -19.6355
 158   2.0000      -0.718896       -19.5621
 159   2.0000      -0.713441       -19.4137
 160   2.0000      -0.711636       -19.3646
 161   2.0000      -0.701758       -19.0958
 162   2.0000      -0.699976       -19.0473
 163   2.0000      -0.693786       -18.8789
 164   2.0000      -0.690640       -18.7933
 165   2.0000      -0.686378       -18.6773
 166   2.0000      -0.684496       -18.6261
 167   2.0000      -0.675656       -18.3855
 168   2.0000      -0.669266       -18.2117
 169   2.0000      -0.664395       -18.0791
 170   2.0000      -0.657552       -17.8929
 171   2.0000      -0.655499       -17.8370
 172   2.0000      -0.651708       -17.7339
 173   2.0000      -0.645011       -17.5516
 174   2.0000      -0.642769       -17.4906
 175   2.0000      -0.642208       -17.4754
 176   2.0000      -0.637868       -17.3573
 177   2.0000      -0.629976       -17.1425
 178   2.0000      -0.628909       -17.1135
 179   2.0000      -0.624094       -16.9825
 180   2.0000      -0.619973       -16.8703
 181   2.0000      -0.619135       -16.8475
 182   2.0000      -0.616374       -16.7724
 183   2.0000      -0.608410       -16.5557
 184   2.0000      -0.607501       -16.5310
 185   2.0000      -0.595868       -16.2144
 186   2.0000      -0.592011       -16.1094
 187   2.0000      -0.588379       -16.0106
 188   2.0000      -0.586786       -15.9673
 189   2.0000      -0.584573       -15.9070
 190   2.0000      -0.583890       -15.8885
 191   2.0000      -0.577612       -15.7176
 192   2.0000      -0.576673       -15.6921
 193   2.0000      -0.569275       -15.4908
 194   2.0000      -0.566379       -15.4120
 195   2.0000      -0.557999       -15.1839
 196   2.0000      -0.556506       -15.1433
 197   2.0000      -0.555760       -15.1230
 198   2.0000      -0.553373       -15.0581
 199   2.0000      -0.550225       -14.9724
 200   2.0000      -0.548313       -14.9203
 201   2.0000      -0.546160       -14.8618
 202   2.0000      -0.544229       -14.8092
 203   2.0000      -0.543732       -14.7957
 204   2.0000      -0.541845       -14.7444
 205   2.0000      -0.541569       -14.7368
 206   2.0000      -0.540016       -14.6946
 207   2.0000      -0.538864       -14.6632
 208   2.0000      -0.533465       -14.5163
 209   2.0000      -0.531253       -14.4561
 210   2.0000      -0.530000       -14.4220
 211   2.0000      -0.526803       -14.3350
 212   2.0000      -0.522183       -14.2093
 213   2.0000      -0.520451       -14.1622
 214   2.0000      -0.516854       -14.0643
 215   2.0000      -0.515495       -14.0273
 216   2.0000      -0.514668       -14.0048
 217   2.0000      -0.512778       -13.9534
 218   2.0000      -0.510543       -13.8926
 219   2.0000      -0.510236       -13.8842
 220   2.0000      -0.507195       -13.8015
 221   2.0000      -0.506286       -13.7767
 222   2.0000      -0.504858       -13.7379
 223   2.0000      -0.502026       -13.6608
 224   2.0000      -0.499271       -13.5859
 225   2.0000      -0.496583       -13.5127
 226   2.0000      -0.495699       -13.4886
 227   2.0000      -0.493332       -13.4242
 228   2.0000      -0.489992       -13.3334
 229   2.0000      -0.489617       -13.3232
 230   2.0000      -0.487257       -13.2589
 231   2.0000      -0.484867       -13.1939
 232   2.0000      -0.482704       -13.1351
 233   2.0000      -0.478046       -13.0083
 234   2.0000      -0.472343       -12.8531
 235   2.0000      -0.469940       -12.7877
 236   2.0000      -0.469395       -12.7729
 237   2.0000      -0.467090       -12.7102
 238   2.0000      -0.465390       -12.6639
 239   2.0000      -0.462956       -12.5977
 240   2.0000      -0.462600       -12.5880
 241   2.0000      -0.462000       -12.5717
 242   2.0000      -0.457889       -12.4598
 243   2.0000      -0.456964       -12.4346
 244   2.0000      -0.455792       -12.4027
 245   2.0000      -0.455125       -12.3846
 246   2.0000      -0.453165       -12.3312
 247   2.0000      -0.451630       -12.2895
 248   2.0000      -0.448262       -12.1978
 249   2.0000      -0.447855       -12.1868
 250   2.0000      -0.446802       -12.1581
 251   2.0000      -0.446314       -12.1448
 252   2.0000      -0.445995       -12.1362
 253   2.0000      -0.445400       -12.1199
 254   2.0000      -0.444872       -12.1056
 255   2.0000      -0.444250       -12.0887
 256   2.0000      -0.440471       -11.9858
 257   2.0000      -0.439256       -11.9528
 258   2.0000      -0.435780       -11.8582
 259   2.0000      -0.434205       -11.8153
 260   2.0000      -0.432091       -11.7578
 261   2.0000      -0.431879       -11.7520
 262   2.0000      -0.430091       -11.7034
 263   2.0000      -0.429643       -11.6912
 264   2.0000      -0.426987       -11.6189
 265   2.0000      -0.425707       -11.5841
 266   2.0000      -0.424555       -11.5527
 267   2.0000      -0.421949       -11.4818
 268   2.0000      -0.415474       -11.3056
 269   2.0000      -0.410411       -11.1678
 270   2.0000      -0.405833       -11.0433
 271   2.0000      -0.404704       -11.0125
 272   2.0000      -0.397539       -10.8176
 273   2.0000      -0.397479       -10.8159
 274   2.0000      -0.391687       -10.6583
 275   2.0000      -0.387007       -10.5310
 276   2.0000      -0.383689       -10.4407
 277   2.0000      -0.370706       -10.0874
 278   2.0000      -0.363209        -9.8834
 279   2.0000      -0.357999        -9.7417
 280   2.0000      -0.354511        -9.6467
 281   2.0000      -0.344169        -9.3653
 282   2.0000      -0.343472        -9.3464
 283   2.0000      -0.342852        -9.3295
 284   2.0000      -0.333112        -9.0644
 285   2.0000      -0.330611        -8.9964
 286   2.0000      -0.324705        -8.8357
 287   2.0000      -0.320975        -8.7342
 288   2.0000      -0.318345        -8.6626
 289   2.0000      -0.317076        -8.6281
 290   2.0000      -0.303617        -8.2618
 291   2.0000      -0.300883        -8.1874
 292   2.0000      -0.272639        -7.4189
 293   2.0000      -0.268909        -7.3174
 294   0.0000      -0.119758        -3.2588
 295   0.0000      -0.114862        -3.1256
 296   0.0000      -0.095385        -2.5956
 297   0.0000      -0.092471        -2.5163
 298   0.0000      -0.066108        -1.7989

MULLIKEN ATOMIC CHARGES
-----------------------
   0 C :   -0.107924
   1 C :    0.242470
   2 F :   -0.171132
   3 C :    0.239307
   4 F :   -0.171839
   5 C :   -0.103654
   6 C :    0.115538
   7 C :    0.112785
   8 C :   -0.082988
   9 C :    0.049571
  10 C :   -0.004709
  11 C :   -0.080137
  12 C :    0.158467
  13 O :   -0.148470
  14 C :   -0.093863
  15 C :    0.316401
  16 C :   -0.354933
  17 C :   -0.198534
  18 N :    0.154532
  19 C :   -0.181041
  20 N :    0.145280
  21 C :    0.038289
  22 C :   -0.116057
  23 C :    0.002210
  24 C :   -0.006407
  25 C :   -0.085173
  26 S :    0.209722
  27 C :   -0.101089
  28 C :    0.016088
  29 C :    0.303916
  30 C :   -0.291831
  31 C :   -0.191657
  32 N :    0.173756
  33 C :   -0.189549
  34 N :    0.194817
  35 C :   -0.041508
  36 C :   -0.032058
  37 S :    0.252031
  38 C :   -0.076433
  39 N :   -0.087419
  40 C :    0.090307
  41 C :   -0.047541
  42 C :    0.066455
  43 N :   -0.055032
  44 C :   -0.027534
  45 C :    0.052507
  46 C :   -0.040269
  47 C :   -0.028455
  48 C :    0.020000
  49 C :   -0.100665
  50 S :    0.184191
  51 C :   -0.070499
  52 C :   -0.000688
  53 C :    0.300217
  54 C :   -0.280022
  55 C :   -0.183284
  56 N :    0.169459
  57 C :   -0.195428
  58 N :    0.192947
  59 C :   -0.001443
  60 C :   -0.111382
  61 S :    0.216454
  62 C :    0.081453
  63 C :   -0.140911
  64 C :    0.135956
  65 O :   -0.140976
  66 C :    0.017949
  67 C :   -0.083016
  68 C :    0.111356
  69 C :    0.108758
  70 C :   -0.105746
  71 C :    0.241153
  72 C :    0.240277
  73 C :   -0.102593
  74 F :   -0.171200
  75 F :   -0.169841
  76 C :   -0.076900
  77 C :    0.030499
  78 C :    0.272785
  79 C :   -0.331074
  80 C :   -0.199315
  81 N :    0.170016
  82 C :   -0.170891
  83 N :    0.161630
  84 H :    0.006778
  85 H :    0.001938
  86 H :   -0.005681
  87 H :   -0.005511
  88 H :    0.013871
  89 H :    0.038339
  90 H :    0.014221
  91 H :    0.013131
  92 H :   -0.003153
  93 H :   -0.013999
  94 H :    0.026442
  95 H :    0.024268
  96 H :    0.026777
  97 H :    0.022319
  98 H :   -0.008426
  99 H :    0.009609
 100 H :   -0.000535
 101 H :    0.003179
Sum of atomic charges:   -0.0000000

LOEWDIN ATOMIC CHARGES
----------------------
   0 C :   -0.029539
   1 C :    0.066848
   2 F :   -0.048836
   3 C :    0.067978
   4 F :   -0.049060
   5 C :   -0.032469
   6 C :   -0.008346
   7 C :   -0.006595
   8 C :    0.017500
   9 C :   -0.023854
  10 C :   -0.052088
  11 C :    0.031697
  12 C :    0.085927
  13 O :   -0.136012
  14 C :   -0.098151
  15 C :    0.076612
  16 C :   -0.142784
  17 C :   -0.024824
  18 N :   -0.053461
  19 C :   -0.017225
  20 N :   -0.054281
  21 C :    0.045267
  22 C :   -0.177088
  23 C :    0.020989
  24 C :   -0.073130
  25 C :   -0.157110
  26 S :    0.500287
  27 C :   -0.187968
  28 C :   -0.058623
  29 C :    0.074863
  30 C :   -0.093667
  31 C :   -0.014256
  32 N :   -0.029896
  33 C :   -0.022881
  34 N :   -0.015934
  35 C :   -0.006958
  36 C :   -0.178561
  37 S :    0.522382
  38 C :    0.012889
  39 N :   -0.109588
  40 C :    0.057842
  41 C :   -0.066753
  42 C :    0.042322
  43 N :   -0.086154
  44 C :   -0.055188
  45 C :    0.011462
  46 C :   -0.160690
  47 C :   -0.011835
  48 C :   -0.060508
  49 C :   -0.176551
  50 S :    0.480407
  51 C :   -0.161671
  52 C :   -0.062030
  53 C :    0.078882
  54 C :   -0.091771
  55 C :   -0.011792
  56 N :   -0.030759
  57 C :   -0.021999
  58 N :   -0.015634
  59 C :    0.009951
  60 C :   -0.179527
  61 S :    0.501191
  62 C :    0.043498
  63 C :   -0.090833
  64 C :    0.083154
  65 O :   -0.142428
  66 C :   -0.055053
  67 C :    0.031162
  68 C :   -0.009304
  69 C :   -0.005113
  70 C :   -0.028914
  71 C :    0.067601
  72 C :    0.067631
  73 C :   -0.032975
  74 F :   -0.048811
  75 F :   -0.047522
  76 C :    0.017626
  77 C :   -0.020181
  78 C :    0.064780
  79 C :   -0.134445
  80 C :   -0.015616
  81 N :   -0.045101
  82 C :   -0.018722
  83 N :   -0.043855
  84 H :    0.047608
  85 H :    0.045767
  86 H :    0.039963
  87 H :    0.042051
  88 H :    0.043088
  89 H :    0.044148
  90 H :    0.043444
  91 H :    0.029969
  92 H :    0.034767
  93 H :    0.021631
  94 H :    0.047677
  95 H :    0.048795
  96 H :    0.043032
  97 H :    0.046258
  98 H :    0.040846
  99 H :    0.048526
 100 H :    0.044804
 101 H :    0.041795

  Mayer bond orders larger than 0.100000
B(  0-C ,  1-C ) :   1.4401 B(  0-C ,  5-C ) :   0.1088 B(  0-C ,  7-C ) :   1.1884
B(  0-C , 84-H ) :   1.0066 B(  1-C ,  2-F ) :   1.1349 B(  1-C ,  3-C ) :   1.1925
B(  3-C ,  4-F ) :   1.1320 B(  3-C ,  5-C ) :   1.4421 B(  5-C ,  6-C ) :   1.1925
B(  5-C , 85-H ) :   1.0068 B(  6-C ,  7-C ) :   1.2562 B(  6-C , 11-C ) :   1.1856
B(  7-C ,  8-C ) :   1.2184 B(  8-C ,  9-C ) :   1.4481 B(  8-C , 86-H ) :   0.9890
B(  9-C , 10-C ) :   1.2222 B(  9-C , 15-C ) :   0.9813 B( 10-C , 11-C ) :   1.4725
B( 10-C , 12-C ) :   0.9464 B( 11-C , 87-H ) :   1.0166 B( 12-C , 13-O ) :   2.1793
B( 12-C , 14-C ) :   0.9412 B( 14-C , 15-C ) :   1.0843 B( 14-C , 21-C ) :   1.5817
B( 15-C , 16-C ) :   1.6209 B( 16-C , 17-C ) :   1.1401 B( 16-C , 19-C ) :   1.1491
B( 17-C , 18-N ) :   2.9800 B( 19-C , 20-N ) :   2.9615 B( 21-C , 22-C ) :   1.2215
B( 21-C , 88-H ) :   0.9140 B( 22-C , 23-C ) :   1.3903 B( 22-C , 26-S ) :   1.0758
B( 23-C , 24-C ) :   1.3240 B( 23-C , 89-H ) :   0.9725 B( 24-C , 25-C ) :   1.3846
B( 24-C , 29-C ) :   0.9933 B( 25-C , 26-S ) :   1.1728 B( 25-C , 27-C ) :   1.2007
B( 27-C , 28-C ) :   1.4292 B( 27-C , 37-S ) :   1.1196 B( 28-C , 29-C ) :   0.9997
B( 28-C , 35-C ) :   1.2606 B( 29-C , 30-C ) :   1.7208 B( 30-C , 31-C ) :   1.1326
B( 30-C , 33-C ) :   1.1333 B( 31-C , 32-N ) :   2.9962 B( 33-C , 34-N ) :   2.9976
B( 35-C , 36-C ) :   1.4865 B( 35-C , 90-H ) :   1.0082 B( 36-C , 37-S ) :   1.1253
B( 36-C , 38-C ) :   1.0031 B( 36-C , 43-N ) :  -0.1022 B( 38-C , 39-N ) :   1.5927
B( 38-C , 43-N ) :   1.6182 B( 39-N , 40-C ) :   1.5307 B( 40-C , 41-C ) :   1.3830
B( 40-C , 91-H ) :   0.9793 B( 41-C , 42-C ) :   1.3222 B( 41-C , 92-H ) :   0.9770
B( 42-C , 43-N ) :   1.5047 B( 42-C , 44-C ) :   1.0880 B( 44-C , 45-C ) :   1.6801
B( 44-C , 93-H ) :   0.9705 B( 45-C , 46-C ) :   1.1294 B( 45-C , 94-H ) :   0.9761
B( 46-C , 47-C ) :   1.4398 B( 46-C , 50-S ) :   1.0909 B( 47-C , 48-C ) :   1.2753
B( 47-C , 95-H ) :   1.0068 B( 48-C , 49-C ) :   1.4334 B( 48-C , 53-C ) :   0.9957
B( 49-C , 50-S ) :   1.1289 B( 49-C , 51-C ) :   1.1983 B( 51-C , 52-C ) :   1.4115
B( 51-C , 61-S ) :   1.1535 B( 52-C , 53-C ) :   0.9981 B( 52-C , 59-C ) :   1.3617
B( 53-C , 54-C ) :   1.7231 B( 54-C , 55-C ) :   1.1344 B( 54-C , 57-C ) :   1.1285
B( 55-C , 56-N ) :   2.9800 B( 57-C , 58-N ) :   3.0016 B( 59-C , 60-C ) :   1.3908
B( 59-C , 96-H ) :   0.9795 B( 60-C , 61-S ) :   1.0910 B( 60-C , 62-C ) :   1.1404
B( 62-C , 63-C ) :   1.6665 B( 62-C , 97-H ) :   0.9267 B( 63-C , 64-C ) :   0.9438
B( 63-C , 78-C ) :   1.0379 B( 64-C , 65-O ) :   2.2689 B( 64-C , 66-C ) :   0.9187
B( 66-C , 67-C ) :   1.4719 B( 66-C , 77-C ) :   1.2225 B( 67-C , 68-C ) :   1.1958
B( 67-C , 98-H ) :   1.0166 B( 68-C , 69-C ) :   1.2568 B( 68-C , 73-C ) :   1.1926
B( 69-C , 70-C ) :   1.1915 B( 69-C , 76-C ) :   1.2147 B( 70-C , 71-C ) :   1.4415
B( 70-C , 73-C ) :   0.1081 B( 70-C , 99-H ) :   1.0068 B( 71-C , 72-C ) :   1.1898
B( 71-C , 75-F ) :   1.1358 B( 72-C , 73-C ) :   1.4435 B( 72-C , 74-F ) :   1.1346
B( 73-C ,100-H ) :   1.0070 B( 76-C , 77-C ) :   1.4594 B( 76-C ,101-H ) :   0.9943
B( 77-C , 78-C ) :   0.9937 B( 78-C , 79-C ) :   1.6521 B( 79-C , 80-C ) :   1.1713
B( 79-C , 82-C ) :   1.1291 B( 80-C , 81-N ) :   2.9954 B( 82-C , 83-N ) :   2.9904

-----------------------------------------------------------------------------
         ABSORPTION SPECTRUM VIA TRANSITION ELECTRIC DIPOLE MOMENTS
-----------------------------------------------------------------------------
State   Energy  Wavelength   fosc         T2         TX        TY        TZ
        (cm-1)    (nm)                  (au**2)     (au)      (au)      (au)
-----------------------------------------------------------------------------
   0   14265.4    701.0   0.322958240   7.45312   0.14715   2.04565  -1.80188
   1   15882.1    629.6   0.288564723   5.98153  -0.27988  -2.42495  -0.15109
   2   20445.3    489.1   1.038317511  16.71911  -0.15959   2.98161  -2.79350
   3   21945.7    455.7   1.055142026  15.82844   0.44320   3.93255   0.40870
   4   23309.4    429.0   0.003285620   0.04640  -0.03484  -0.17588   0.11941
   5   24006.4    416.6   0.001725185   0.02366  -0.09012   0.04042   0.11791
   6   25431.5    393.2   0.014926021   0.19322  -0.42334  -0.05794   0.10318
   7   26326.6    379.8   0.076837180   0.96084   0.39701   0.80622   0.39145
   8   27165.8    368.1   0.021431533   0.25972   0.02468  -0.11605   0.49562
   9   27834.1    359.3   0.015205701   0.17985  -0.03883  -0.22000   0.36047
  10   28043.2    356.6   0.231690767   2.71992  -0.39305  -1.07245   1.18965
  11   28496.2    350.9   0.476029872   5.49950  -0.85374  -1.80194   1.23435
  12   28728.6    348.1   0.140530155   1.61039  -0.32234  -0.51714   1.11313
  13   29023.0    344.6   0.112189288   1.27258   0.14625  -0.61002   0.93758
  14   29310.1    341.2   0.008828984   0.09917   0.05028  -0.26111  -0.16871
  15   29778.4    335.8   0.123016377   1.35999   0.54975   1.02801  -0.03097
  16   29913.5    334.3   0.171783061   1.89055  -0.23503   0.24788   1.33187
  17   30204.9    331.1   0.081542072   0.88875   0.32073   0.51182  -0.72383
  18   30511.5    327.7   0.099691029   1.07564   0.59470   0.84656   0.07287
  19   30729.9    325.4   0.781656571   8.37396   0.57004   1.36211   2.48871
  20   30774.3    324.9   0.197268211   2.11030   0.07795   0.31554   1.41586
  21   31321.0    319.3   0.097078556   1.02038   0.29850  -0.08461   0.96131
  22   31843.5    314.0   0.123989434   1.28186  -0.52042  -0.63038  -0.78335
  23   31972.2    312.8   0.001119059   0.01152  -0.07360  -0.07057  -0.03356
  24   32092.7    311.6   0.452862414   4.64554  -0.17323  -1.08693   1.85313
  25   32517.5    307.5   0.022494280   0.22774  -0.38711  -0.09967   0.26067
  26   32747.9    305.4   0.155361366   1.56184  -0.26265  -1.22023  -0.06239
  27   33088.3    302.2   0.022125474   0.22014   0.12507   0.30047  -0.33796
  28   33331.9    300.0   0.130394618   1.28788  -0.47957  -0.60493  -0.83184
  29   33609.2    297.5   0.098765974   0.96744  -0.32596   0.50170   0.78070
  30   33807.9    295.8   0.004404986   0.04289  -0.14174   0.07644   0.13024
  31   33885.3    295.1   0.002837102   0.02756   0.15243   0.02416   0.06121
  32   34059.9    293.6   0.243311258   2.35177  -0.11278  -0.72287  -1.34778
  33   34269.8    291.8   0.396003832   3.80420   0.14370  -0.01054  -1.94511
  34   34359.8    291.0   0.127919021   1.22563  -0.11102  -0.35565   1.04251
  35   34419.0    290.5   0.042479284   0.40631  -0.24519  -0.29140   0.51115
  36   34513.3    289.7   0.074749963   0.71302   0.52323   0.62956   0.20713
  37   34581.9    289.2   0.210106449   2.00017   0.71610   1.07567   0.57472
  38   35212.0    284.0   0.264678612   2.47460  -0.79000  -0.99210   0.93071
  39   35235.5    283.8   0.258950148   2.41942  -0.77397  -0.75692  -1.11690
  40   35460.2    282.0   0.241573848   2.24277  -0.36855   1.35201  -0.52821
  41   35859.7    278.9   0.108634792   0.99733  -0.06946  -0.16957   0.98171
  42   36277.6    275.7   0.057623786   0.52292  -0.09462  -0.62859   0.34473
  43   36469.0    274.2   0.053570405   0.48359   0.45286   0.51043  -0.13404
  44   36722.9    272.3   0.010446947   0.09365  -0.30106   0.05189   0.01801
  45   36959.4    270.6   0.020577298   0.18329  -0.07245  -0.05757   0.41800
  46   37542.9    266.4   0.004423606   0.03879  -0.02717   0.17589  -0.08436
  47   37593.1    266.0   0.009637214   0.08440  -0.08035   0.10009  -0.26062
  48   37744.3    264.9   0.114838367   1.00164  -0.25219   0.16034  -0.95516
  49   37855.9    264.2   0.019631944   0.17073  -0.09086   0.38722  -0.11196
  50   38650.3    258.7   0.019224959   0.16375  -0.36254   0.06061  -0.16924
  51   38868.0    257.3   0.032806801   0.27787  -0.01075  -0.40926  -0.33206
  52   39087.3    255.8   0.101819343   0.85757  -0.53565  -0.60417  -0.45346
  53   39230.2    254.9   0.009815045   0.08237   0.15691   0.01824   0.23961
  54   39289.6    254.5   0.049525072   0.41498   0.03781   0.63240  -0.11669
  55   39445.7    253.5   0.016859311   0.14071   0.14035  -0.31740   0.14237
  56   39526.4    253.0   0.179090953   1.49163  -0.23570   1.11832  -0.43063
  57   39674.9    252.0   0.005304745   0.04402  -0.10965  -0.12767   0.12528
  58   39788.9    251.3   0.067310173   0.55692  -0.03553   0.21628  -0.71336
  59   39937.7    250.4   0.043073780   0.35506  -0.04038   0.05840  -0.59163
  60   40293.4    248.2   0.084538032   0.69071  -0.23984  -0.21053  -0.76737

FINAL SINGLE POINT ENERGY     -5134.677489719616

DIPOLE MOMENT
-------------
                                X             Y             Z
Electronic contribution:      3.41583      10.86713      21.05089
Nuclear contribution   :     -4.48991     -14.10687     -23.42887
                        -----------------------------------------
Total Dipole Moment    :     -1.07408      -3.23974      -2.37798
                        -----------------------------------------
Magnitude (a.u.)       :      4.15985
Magnitude (Debye)      :     10.57350

Rotational constants in cm-1:     0.001066     0.000145     0.000129
Rotational constants in MHz :    31.958287     4.333438     3.864509

                             ****ORCA TERMINATED NORMALLY****
TOTAL RUN TIME: 0 days 0 hours 11 minutes 1 seconds 642 msec
