                         Program Version 4.2.0 -  RELEASE  -
|  1> # ORCA input file
|  2> # SCF done       -197.214332534999          0.000585061273
|  3> ! CAM-B3LYP def2-SVP def2/J RIJCOSX Grid4 TightSCF
|  4> %maxcore 5000
|  5> %tddft
|  6>     Mode sTDDFT
|  7>     Ethresh 5.0
|  8>     maxcore 5000
|  9> end
| 10>
| 11> %pal
| 12>   nprocs 6
| 13>   end
| 14> * xyz 0 1
| 15>    C      -14.86941        -4.08240        -1.76730
| 16>    C      -15.78416        -4.78460        -2.50055
| 17>    F      -16.94490        -4.21531        -2.85344
| 18>    C      -15.52083        -6.11157        -2.89442
| 19>    F      -16.43593        -6.77669        -3.61360
| 20>    C      -14.34618        -6.71862        -2.54835
| 21>    C      -13.38373        -6.02196        -1.79230
| 22>    C      -13.64776        -4.67910        -1.39592
| 23>    C      -12.69480        -3.95883        -0.63974
| 24>    C      -11.51416        -4.56219        -0.29518
| 25>    C      -11.26149        -5.90539        -0.68868
| 26>    C      -12.16422        -6.62729        -1.41368
| 27>    C       -9.94691        -6.33530        -0.16522
| 28>    O       -9.49840        -7.45920        -0.19274
| 29>    C       -9.39418        -5.14589         0.53174
| 30>    C      -10.36106        -4.07446         0.45700
| 31>    C      -10.20190        -2.79604         0.93027
| 32>    C       -9.05197        -2.31257         1.58814
| 33>    N       -8.14817        -1.84122         2.11731
| 34>    C      -11.17088        -1.77973         0.80301
| 35>    N      -11.91963        -0.91165         0.73800
| 36>    C       -8.24286        -5.14843         1.27508
| 37>    C       -7.20184        -6.08421         1.16013
| 38>    C       -6.78533        -6.82111         0.05273
| 39>    C       -5.67225        -7.66224         0.32597
| 40>    S       -5.23321        -8.51598        -1.10267
| 41>    C       -6.53444        -7.63678        -1.95018
| 42>    N       -7.20873        -6.81713        -1.23392
| 43>    C       -6.77197        -7.88132        -3.38633
| 44>    C       -5.19861        -7.57669         1.63160
| 45>    S       -6.14510        -6.40031         2.51594
| 46>    C       -4.14518        -8.25506         2.28877
| 47>    C       -3.30873        -9.22765         1.67825
| 48>    C       -2.26468        -9.87762         2.41399
| 49>    N       -1.48240       -10.77920         1.80064
| 50>    C       -1.68645       -11.07150         0.54559
| 51>    C       -2.71381       -10.43575        -0.17405
| 52>    N       -3.48632        -9.54533         0.38685
| 53>    C       -2.01684        -9.63980         3.79115
| 54>    C       -2.80905        -8.63545         4.38772
| 55>    C       -3.85052        -7.96884         3.64194
| 56>    N       -4.47470        -7.05231         4.37941
| 57>    S       -3.81225        -7.01633         5.84438
| 58>    N       -2.71334        -8.15459         5.62523
| 59>    C       -1.05045       -10.41834         4.46800
| 60>    C       -0.81707       -10.56596         5.83646
| 61>    C        0.23993       -11.47217         6.12085
| 62>    S        0.44683       -11.63426         7.82193
| 63>    C       -0.91154       -10.48019         8.02036
| 64>    N       -1.42219       -10.05135         6.93444
| 65>    C       -1.35479       -10.10254         9.37577
| 66>    C        0.83079       -12.04668         5.00615
| 67>    S        0.02911       -11.43315         3.56088
| 68>    C        1.94328       -12.90046         5.00436
| 69>    C        2.51581       -13.57355         3.95938
| 70>    C        3.94616       -13.96075         4.04037
| 71>    O        4.63619       -14.01136         5.03269
| 72>    C        4.35681       -14.19850         2.63836
| 73>    C        5.59908       -14.46781         2.14283
| 74>    C        5.76270       -14.62792         0.74791
| 75>    C        4.63035       -14.50405        -0.10848
| 76>    C        4.80332       -14.65844        -1.49848
| 77>    C        6.04054       -14.92567        -2.01385
| 78>    C        7.15894       -15.04973        -1.16609
| 79>    C        7.02416       -14.90449         0.18629
| 80>    F        8.36071       -15.31122        -1.69890
| 81>    F        6.20137       -15.07188        -3.33633
| 82>    C        3.35286       -14.23517         0.43509
| 83>    C        3.21852       -14.08721         1.78889
| 84>    C        2.04398       -13.85788         2.62616
| 85>    C        0.74678       -14.12548         2.26654
| 86>    C       -0.29215       -14.26560         3.21029
| 87>    N       -1.13838       -14.46676         3.95939
| 88>    C        0.32554       -14.33666         0.94267
| 89>    N       -0.07514       -14.44715        -0.12865
| 90>    H      -15.08628        -3.06692        -1.47474
| 91>    H      -14.16059        -7.73572        -2.85613
| 92>    H      -12.92741        -2.94751        -0.34802
| 93>    H      -11.94961        -7.64645        -1.69698
| 94>    H       -8.10934        -4.39403         2.04063
| 95>    H       -5.84727        -7.76446        -3.94897
| 96>    H       -7.52134        -7.18722        -3.75632
| 97>    H       -7.12610        -8.90138        -3.53204
| 98>    H       -1.04301       -11.81532         0.09819
| 99>    H       -2.90688       -10.65569        -1.21395
|100>    H       -0.53046        -9.65842         9.93226
|101>    H       -1.68943       -10.98378         9.92198
|102>    H       -2.17046        -9.38903         9.30034
|103>    H        2.49263       -12.95211         5.94092
|104>    H        6.44692       -14.55774         2.80467
|105>    H        3.95726       -14.56997        -2.16196
|106>    H        7.89018       -15.00229         0.82201
|107>    H        2.51157       -14.14388        -0.23367
|108> *
|109>
|110>                          ****END OF INPUT****

CARTESIAN COORDINATES (ANGSTROEM)
---------------------------------
  C    -14.869410   -4.082400   -1.767300
  C    -15.784160   -4.784600   -2.500550
  F    -16.944900   -4.215310   -2.853440
  C    -15.520830   -6.111570   -2.894420
  F    -16.435930   -6.776690   -3.613600
  C    -14.346180   -6.718620   -2.548350
  C    -13.383730   -6.021960   -1.792300
  C    -13.647760   -4.679100   -1.395920
  C    -12.694800   -3.958830   -0.639740
  C    -11.514160   -4.562190   -0.295180
  C    -11.261490   -5.905390   -0.688680
  C    -12.164220   -6.627290   -1.413680
  C     -9.946910   -6.335300   -0.165220
  O     -9.498400   -7.459200   -0.192740
  C     -9.394180   -5.145890    0.531740
  C    -10.361060   -4.074460    0.457000
  C    -10.201900   -2.796040    0.930270
  C     -9.051970   -2.312570    1.588140
  N     -8.148170   -1.841220    2.117310
  C    -11.170880   -1.779730    0.803010
  N    -11.919630   -0.911650    0.738000
  C     -8.242860   -5.148430    1.275080
  C     -7.201840   -6.084210    1.160130
  C     -6.785330   -6.821110    0.052730
  C     -5.672250   -7.662240    0.325970
  S     -5.233210   -8.515980   -1.102670
  C     -6.534440   -7.636780   -1.950180
  N     -7.208730   -6.817130   -1.233920
  C     -6.771970   -7.881320   -3.386330
  C     -5.198610   -7.576690    1.631600
  S     -6.145100   -6.400310    2.515940
  C     -4.145180   -8.255060    2.288770
  C     -3.308730   -9.227650    1.678250
  C     -2.264680   -9.877620    2.413990
  N     -1.482400  -10.779200    1.800640
  C     -1.686450  -11.071500    0.545590
  C     -2.713810  -10.435750   -0.174050
  N     -3.486320   -9.545330    0.386850
  C     -2.016840   -9.639800    3.791150
  C     -2.809050   -8.635450    4.387720
  C     -3.850520   -7.968840    3.641940
  N     -4.474700   -7.052310    4.379410
  S     -3.812250   -7.016330    5.844380
  N     -2.713340   -8.154590    5.625230
  C     -1.050450  -10.418340    4.468000
  C     -0.817070  -10.565960    5.836460
  C      0.239930  -11.472170    6.120850
  S      0.446830  -11.634260    7.821930
  C     -0.911540  -10.480190    8.020360
  N     -1.422190  -10.051350    6.934440
  C     -1.354790  -10.102540    9.375770
  C      0.830790  -12.046680    5.006150
  S      0.029110  -11.433150    3.560880
  C      1.943280  -12.900460    5.004360
  C      2.515810  -13.573550    3.959380
  C      3.946160  -13.960750    4.040370
  O      4.636190  -14.011360    5.032690
  C      4.356810  -14.198500    2.638360
  C      5.599080  -14.467810    2.142830
  C      5.762700  -14.627920    0.747910
  C      4.630350  -14.504050   -0.108480
  C      4.803320  -14.658440   -1.498480
  C      6.040540  -14.925670   -2.013850
  C      7.158940  -15.049730   -1.166090
  C      7.024160  -14.904490    0.186290
  F      8.360710  -15.311220   -1.698900
  F      6.201370  -15.071880   -3.336330
  C      3.352860  -14.235170    0.435090
  C      3.218520  -14.087210    1.788890
  C      2.043980  -13.857880    2.626160
  C      0.746780  -14.125480    2.266540
  C     -0.292150  -14.265600    3.210290
  N     -1.138380  -14.466760    3.959390
  C      0.325540  -14.336660    0.942670
  N     -0.075140  -14.447150   -0.128650
  H    -15.086280   -3.066920   -1.474740
  H    -14.160590   -7.735720   -2.856130
  H    -12.927410   -2.947510   -0.348020
  H    -11.949610   -7.646450   -1.696980
  H     -8.109340   -4.394030    2.040630
  H     -5.847270   -7.764460   -3.948970
  H     -7.521340   -7.187220   -3.756320
  H     -7.126100   -8.901380   -3.532040
  H     -1.043010  -11.815320    0.098190
  H     -2.906880  -10.655690   -1.213950
  H     -0.530460   -9.658420    9.932260
  H     -1.689430  -10.983780    9.921980
  H     -2.170460   -9.389030    9.300340
  H      2.492630  -12.952110    5.940920
  H      6.446920  -14.557740    2.804670
  H      3.957260  -14.569970   -2.161960
  H      7.890180  -15.002290    0.822010
  H      2.511570  -14.143880   -0.233670

 Total Charge           Charge          ....    0
 Multiplicity           Mult            ....    1
 Number of Electrons    NEL             ....  544
 Basis Dimension        Dim             .... 1160

ORBITAL ENERGIES
----------------

  NO   OCC          E(Eh)            E(eV)
   0   2.0000     -89.047114     -2423.0952
   1   2.0000     -88.970938     -2421.0223
   2   2.0000     -88.969716     -2420.9891
   3   2.0000     -88.966229     -2420.8942
   4   2.0000     -88.962187     -2420.7842
   5   2.0000     -24.798050      -674.7892
   6   2.0000     -24.797864      -674.7842
   7   2.0000     -24.794398      -674.6899
   8   2.0000     -24.793107      -674.6547
   9   2.0000     -19.212207      -522.7907
  10   2.0000     -19.206049      -522.6232
  11   2.0000     -14.455893      -393.3649
  12   2.0000     -14.455067      -393.3424
  13   2.0000     -14.453029      -393.2869
  14   2.0000     -14.451428      -393.2433
  15   2.0000     -14.422384      -392.4530
  16   2.0000     -14.415321      -392.2608
  17   2.0000     -14.411161      -392.1476
  18   2.0000     -14.410632      -392.1332
  19   2.0000     -14.410593      -392.1322
  20   2.0000     -14.407080      -392.0366
  21   2.0000     -10.381001      -282.4814
  22   2.0000     -10.380684      -282.4728
  23   2.0000     -10.376918      -282.3703
  24   2.0000     -10.375795      -282.3397
  25   2.0000     -10.364369      -282.0288
  26   2.0000     -10.357717      -281.8478
  27   2.0000     -10.352251      -281.6991
  28   2.0000     -10.351090      -281.6675
  29   2.0000     -10.347491      -281.5695
  30   2.0000     -10.347108      -281.5591
  31   2.0000     -10.346626      -281.5460
  32   2.0000     -10.345467      -281.5145
  33   2.0000     -10.345347      -281.5112
  34   2.0000     -10.341504      -281.4066
  35   2.0000     -10.340797      -281.3874
  36   2.0000     -10.338881      -281.3352
  37   2.0000     -10.336898      -281.2813
  38   2.0000     -10.335556      -281.2448
  39   2.0000     -10.334841      -281.2253
  40   2.0000     -10.332221      -281.1540
  41   2.0000     -10.328924      -281.0643
  42   2.0000     -10.326152      -280.9889
  43   2.0000     -10.322567      -280.8913
  44   2.0000     -10.321551      -280.8637
  45   2.0000     -10.321267      -280.8560
  46   2.0000     -10.319705      -280.8135
  47   2.0000     -10.317484      -280.7530
  48   2.0000     -10.316947      -280.7384
  49   2.0000     -10.315665      -280.7035
  50   2.0000     -10.314146      -280.6622
  51   2.0000     -10.313781      -280.6523
  52   2.0000     -10.313565      -280.6464
  53   2.0000     -10.311921      -280.6016
  54   2.0000     -10.311870      -280.6002
  55   2.0000     -10.310401      -280.5603
  56   2.0000     -10.309733      -280.5421
  57   2.0000     -10.307534      -280.4823
  58   2.0000     -10.305150      -280.4174
  59   2.0000     -10.304686      -280.4048
  60   2.0000     -10.302183      -280.3367
  61   2.0000     -10.301515      -280.3185
  62   2.0000     -10.301135      -280.3081
  63   2.0000     -10.300920      -280.3023
  64   2.0000     -10.300640      -280.2947
  65   2.0000     -10.296520      -280.1826
  66   2.0000     -10.296470      -280.1812
  67   2.0000     -10.295701      -280.1603
  68   2.0000     -10.295387      -280.1517
  69   2.0000     -10.294072      -280.1159
  70   2.0000     -10.293804      -280.1087
  71   2.0000     -10.292792      -280.0811
  72   2.0000     -10.288108      -279.9537
  73   2.0000     -10.286346      -279.9057
  74   2.0000     -10.280475      -279.7459
  75   2.0000      -8.138185      -221.4513
  76   2.0000      -8.063502      -219.4190
  77   2.0000      -8.062891      -219.4024
  78   2.0000      -8.062545      -219.3930
  79   2.0000      -8.055921      -219.2128
  80   2.0000      -6.109227      -166.2405
  81   2.0000      -6.101408      -166.0278
  82   2.0000      -6.101110      -166.0196
  83   2.0000      -6.033059      -164.1679
  84   2.0000      -6.032722      -164.1587
  85   2.0000      -6.031928      -164.1371
  86   2.0000      -6.028595      -164.0464
  87   2.0000      -6.027952      -164.0289
  88   2.0000      -6.027864      -164.0265
  89   2.0000      -6.025734      -163.9686
  90   2.0000      -6.025366      -163.9586
  91   2.0000      -6.024785      -163.9427
  92   2.0000      -6.024062      -163.9231
  93   2.0000      -6.021199      -163.8452
  94   2.0000      -6.017425      -163.7425
  95   2.0000      -1.320636       -35.9363
  96   2.0000      -1.316476       -35.8231
  97   2.0000      -1.305839       -35.5337
  98   2.0000      -1.301622       -35.4189
  99   2.0000      -1.145303       -31.1653
 100   2.0000      -1.127680       -30.6857
 101   2.0000      -1.121832       -30.5266
 102   2.0000      -1.112913       -30.2839
 103   2.0000      -1.078506       -29.3476
 104   2.0000      -1.070063       -29.1179
 105   2.0000      -1.038869       -28.2691
 106   2.0000      -1.021141       -27.7867
 107   2.0000      -1.014366       -27.6023
 108   2.0000      -1.005640       -27.3649
 109   2.0000      -1.004984       -27.3470
 110   2.0000      -0.998875       -27.1808
 111   2.0000      -0.997711       -27.1491
 112   2.0000      -0.992766       -27.0145
 113   2.0000      -0.989614       -26.9288
 114   2.0000      -0.984025       -26.7767
 115   2.0000      -0.979657       -26.6578
 116   2.0000      -0.975663       -26.5491
 117   2.0000      -0.967927       -26.3386
 118   2.0000      -0.932173       -25.3657
 119   2.0000      -0.928784       -25.2735
 120   2.0000      -0.919840       -25.0301
 121   2.0000      -0.911475       -24.8025
 122   2.0000      -0.900765       -24.5111
 123   2.0000      -0.893643       -24.3173
 124   2.0000      -0.892168       -24.2771
 125   2.0000      -0.891993       -24.2724
 126   2.0000      -0.886782       -24.1306
 127   2.0000      -0.885917       -24.1070
 128   2.0000      -0.877805       -23.8863
 129   2.0000      -0.869791       -23.6682
 130   2.0000      -0.866402       -23.5760
 131   2.0000      -0.859769       -23.3955
 132   2.0000      -0.840238       -22.8640
 133   2.0000      -0.835108       -22.7244
 134   2.0000      -0.833635       -22.6844
 135   2.0000      -0.818151       -22.2630
 136   2.0000      -0.810937       -22.0667
 137   2.0000      -0.799981       -21.7686
 138   2.0000      -0.794974       -21.6323
 139   2.0000      -0.789332       -21.4788
 140   2.0000      -0.776472       -21.1289
 141   2.0000      -0.766352       -20.8535
 142   2.0000      -0.763095       -20.7649
 143   2.0000      -0.760688       -20.6994
 144   2.0000      -0.748448       -20.3663
 145   2.0000      -0.735540       -20.0151
 146   2.0000      -0.729047       -19.8384
 147   2.0000      -0.719836       -19.5877
 148   2.0000      -0.716540       -19.4980
 149   2.0000      -0.713069       -19.4036
 150   2.0000      -0.702953       -19.1283
 151   2.0000      -0.698658       -19.0114
 152   2.0000      -0.688599       -18.7377
 153   2.0000      -0.682702       -18.5773
 154   2.0000      -0.679430       -18.4882
 155   2.0000      -0.671220       -18.2648
 156   2.0000      -0.670361       -18.2414
 157   2.0000      -0.667415       -18.1613
 158   2.0000      -0.654914       -17.8211
 159   2.0000      -0.653908       -17.7938
 160   2.0000      -0.651957       -17.7407
 161   2.0000      -0.646843       -17.6015
 162   2.0000      -0.644826       -17.5466
 163   2.0000      -0.641412       -17.4537
 164   2.0000      -0.636932       -17.3318
 165   2.0000      -0.634346       -17.2614
 166   2.0000      -0.623097       -16.9553
 167   2.0000      -0.620652       -16.8888
 168   2.0000      -0.614019       -16.7083
 169   2.0000      -0.612787       -16.6748
 170   2.0000      -0.604324       -16.4445
 171   2.0000      -0.593715       -16.1558
 172   2.0000      -0.588945       -16.0260
 173   2.0000      -0.585996       -15.9458
 174   2.0000      -0.585305       -15.9269
 175   2.0000      -0.582290       -15.8449
 176   2.0000      -0.581061       -15.8115
 177   2.0000      -0.579150       -15.7595
 178   2.0000      -0.577804       -15.7229
 179   2.0000      -0.574320       -15.6281
 180   2.0000      -0.569825       -15.5057
 181   2.0000      -0.567927       -15.4541
 182   2.0000      -0.561122       -15.2689
 183   2.0000      -0.555049       -15.1036
 184   2.0000      -0.550923       -14.9914
 185   2.0000      -0.549496       -14.9525
 186   2.0000      -0.548256       -14.9188
 187   2.0000      -0.546998       -14.8846
 188   2.0000      -0.546883       -14.8814
 189   2.0000      -0.546111       -14.8604
 190   2.0000      -0.542994       -14.7756
 191   2.0000      -0.542820       -14.7709
 192   2.0000      -0.536628       -14.6024
 193   2.0000      -0.534501       -14.5445
 194   2.0000      -0.532465       -14.4891
 195   2.0000      -0.531816       -14.4715
 196   2.0000      -0.528615       -14.3844
 197   2.0000      -0.526740       -14.3333
 198   2.0000      -0.525529       -14.3004
 199   2.0000      -0.520815       -14.1721
 200   2.0000      -0.517129       -14.0718
 201   2.0000      -0.514284       -13.9944
 202   2.0000      -0.513755       -13.9800
 203   2.0000      -0.512777       -13.9534
 204   2.0000      -0.510246       -13.8845
 205   2.0000      -0.508086       -13.8257
 206   2.0000      -0.507701       -13.8152
 207   2.0000      -0.505274       -13.7492
 208   2.0000      -0.503513       -13.7013
 209   2.0000      -0.499255       -13.5854
 210   2.0000      -0.496467       -13.5095
 211   2.0000      -0.491195       -13.3661
 212   2.0000      -0.488736       -13.2992
 213   2.0000      -0.487294       -13.2599
 214   2.0000      -0.484614       -13.1870
 215   2.0000      -0.482605       -13.1324
 216   2.0000      -0.478736       -13.0271
 217   2.0000      -0.474717       -12.9177
 218   2.0000      -0.471291       -12.8245
 219   2.0000      -0.469127       -12.7656
 220   2.0000      -0.466074       -12.6825
 221   2.0000      -0.464431       -12.6378
 222   2.0000      -0.463389       -12.6095
 223   2.0000      -0.461503       -12.5581
 224   2.0000      -0.458518       -12.4769
 225   2.0000      -0.455662       -12.3992
 226   2.0000      -0.454098       -12.3566
 227   2.0000      -0.453069       -12.3286
 228   2.0000      -0.448469       -12.2035
 229   2.0000      -0.445896       -12.1335
 230   2.0000      -0.445386       -12.1196
 231   2.0000      -0.443784       -12.0760
 232   2.0000      -0.441829       -12.0228
 233   2.0000      -0.441564       -12.0156
 234   2.0000      -0.439515       -11.9598
 235   2.0000      -0.433573       -11.7981
 236   2.0000      -0.433211       -11.7883
 237   2.0000      -0.427772       -11.6403
 238   2.0000      -0.426231       -11.5983
 239   2.0000      -0.425019       -11.5653
 240   2.0000      -0.423126       -11.5138
 241   2.0000      -0.421428       -11.4676
 242   2.0000      -0.418572       -11.3899
 243   2.0000      -0.417380       -11.3575
 244   2.0000      -0.411810       -11.2059
 245   2.0000      -0.409910       -11.1542
 246   2.0000      -0.405142       -11.0245
 247   2.0000      -0.399798       -10.8790
 248   2.0000      -0.397448       -10.8151
 249   2.0000      -0.391975       -10.6662
 250   2.0000      -0.388592       -10.5741
 251   2.0000      -0.385304       -10.4847
 252   2.0000      -0.378569       -10.3014
 253   2.0000      -0.375878       -10.2281
 254   2.0000      -0.372074       -10.1246
 255   2.0000      -0.355741        -9.6802
 256   2.0000      -0.353699        -9.6247
 257   2.0000      -0.349064        -9.4985
 258   2.0000      -0.342182        -9.3112
 259   2.0000      -0.335994        -9.1429
 260   2.0000      -0.334345        -9.0980
 261   2.0000      -0.328813        -8.9475
 262   2.0000      -0.324675        -8.8349
 263   2.0000      -0.323121        -8.7926
 264   2.0000      -0.315871        -8.5953
 265   2.0000      -0.310092        -8.4380
 266   2.0000      -0.307660        -8.3718
 267   2.0000      -0.304847        -8.2953
 268   2.0000      -0.300799        -8.1851
 269   2.0000      -0.296118        -8.0578
 270   2.0000      -0.281599        -7.6627
 271   2.0000      -0.242239        -6.5916
 272   0.0000      -0.134692        -3.6651
 273   0.0000      -0.090101        -2.4518
 274   0.0000      -0.082000        -2.2313
 275   0.0000      -0.055609        -1.5132
 276   0.0000      -0.052229        -1.4212

MULLIKEN ATOMIC CHARGES
-----------------------
   0 C :   -0.108264
   1 C :    0.240819
   2 F :   -0.173119
   3 C :    0.236686
   4 F :   -0.174431
   5 C :   -0.106672
   6 C :    0.119511
   7 C :    0.113648
   8 C :   -0.087689
   9 C :    0.051673
  10 C :   -0.005052
  11 C :   -0.086008
  12 C :    0.155230
  13 O :   -0.138758
  14 C :   -0.085788
  15 C :    0.311449
  16 C :   -0.353855
  17 C :   -0.202202
  18 N :    0.157895
  19 C :   -0.180019
  20 N :    0.143765
  21 C :    0.006225
  22 C :   -0.145176
  23 C :    0.126474
  24 C :    0.008992
  25 S :    0.119638
  26 C :   -0.177841
  27 N :   -0.023649
  28 C :    0.119986
  29 C :   -0.281463
  30 S :    0.198763
  31 C :    0.197283
  32 C :   -0.042085
  33 C :   -0.031390
  34 N :   -0.083923
  35 C :    0.063585
  36 C :    0.059387
  37 N :   -0.065331
  38 C :    0.153171
  39 C :   -0.025728
  40 C :   -0.022195
  41 N :   -0.335652
  42 S :    0.554786
  43 N :   -0.239460
  44 C :   -0.230524
  45 C :    0.105011
  46 C :    0.022754
  47 S :    0.102972
  48 C :   -0.204417
  49 N :    0.019800
  50 C :    0.123492
  51 C :   -0.159170
  52 S :    0.185095
  53 C :    0.039593
  54 C :   -0.149115
  55 C :    0.143046
  56 O :   -0.144256
  57 C :    0.005661
  58 C :   -0.083526
  59 C :    0.112117
  60 C :    0.116025
  61 C :   -0.109502
  62 C :    0.242088
  63 C :    0.237565
  64 C :   -0.105109
  65 F :   -0.172921
  66 F :   -0.173267
  67 C :   -0.089475
  68 C :    0.047798
  69 C :    0.259259
  70 C :   -0.326968
  71 C :   -0.217291
  72 N :    0.173061
  73 C :   -0.141366
  74 N :    0.109796
  75 H :    0.005887
  76 H :   -0.003655
  77 H :   -0.007734
  78 H :   -0.015579
  79 H :    0.024117
  80 H :    0.034066
  81 H :    0.040851
  82 H :    0.044210
  83 H :    0.026925
  84 H :    0.020598
  85 H :    0.042212
  86 H :    0.045287
  87 H :    0.040467
  88 H :    0.017044
  89 H :   -0.008933
  90 H :    0.002420
  91 H :    0.000390
  92 H :   -0.010014
Sum of atomic charges:   -0.0000000

LOEWDIN ATOMIC CHARGES
----------------------
   0 C :   -0.029719
   1 C :    0.064312
   2 F :   -0.050899
   3 C :    0.066292
   4 F :   -0.051414
   5 C :   -0.035036
   6 C :   -0.008653
   7 C :   -0.008132
   8 C :    0.015330
   9 C :   -0.022427
  10 C :   -0.046573
  11 C :    0.024349
  12 C :    0.080161
  13 O :   -0.132612
  14 C :   -0.084459
  15 C :    0.073884
  16 C :   -0.141792
  17 C :   -0.023031
  18 N :   -0.054277
  19 C :   -0.017404
  20 N :   -0.057901
  21 C :    0.048400
  22 C :   -0.182697
  23 C :   -0.031475
  24 C :   -0.189503
  25 S :    0.416086
  26 C :   -0.097097
  27 N :   -0.091330
  28 C :   -0.067792
  29 C :   -0.164772
  30 S :    0.501545
  31 C :   -0.036146
  32 C :   -0.004640
  33 C :   -0.005647
  34 N :   -0.047877
  35 C :    0.037223
  36 C :    0.022250
  37 N :   -0.039801
  38 C :   -0.046694
  39 C :   -0.039445
  40 C :   -0.048959
  41 N :   -0.305491
  42 S :    0.681798
  43 N :   -0.248339
  44 C :   -0.138912
  45 C :   -0.057778
  46 C :   -0.172255
  47 S :    0.371629
  48 C :   -0.091949
  49 N :   -0.073635
  50 C :   -0.066353
  51 C :   -0.213581
  52 S :    0.530853
  53 C :    0.054019
  54 C :   -0.106071
  55 C :    0.080935
  56 O :   -0.147220
  57 C :   -0.051396
  58 C :    0.028443
  59 C :   -0.009923
  60 C :   -0.006604
  61 C :   -0.032222
  62 C :    0.066114
  63 C :    0.065877
  64 C :   -0.032827
  65 F :   -0.050532
  66 F :   -0.050601
  67 C :    0.008471
  68 C :   -0.017902
  69 C :    0.065399
  70 C :   -0.156271
  71 C :   -0.042578
  72 N :   -0.050657
  73 C :   -0.012121
  74 N :   -0.073888
  75 H :    0.047050
  76 H :    0.043586
  77 H :    0.039216
  78 H :    0.038148
  79 H :    0.044635
  80 H :    0.041130
  81 H :    0.046332
  82 H :    0.047103
  83 H :    0.033590
  84 H :    0.028591
  85 H :    0.044909
  86 H :    0.046150
  87 H :    0.047292
  88 H :    0.047872
  89 H :    0.040473
  90 H :    0.045649
  91 H :    0.044890
  92 H :    0.037322

  Mayer bond orders larger than 0.100000
B(  0-C ,  1-C ) :   1.4402 B(  0-C ,  5-C ) :   0.1092 B(  0-C ,  7-C ) :   1.1874
B(  0-C , 75-H ) :   1.0068 B(  1-C ,  2-F ) :   1.1328 B(  1-C ,  3-C ) :   1.1939
B(  3-C ,  4-F ) :   1.1304 B(  3-C ,  5-C ) :   1.4420 B(  5-C ,  6-C ) :   1.1930
B(  5-C , 76-H ) :   1.0065 B(  6-C ,  7-C ) :   1.2606 B(  6-C , 11-C ) :   1.1849
B(  7-C ,  8-C ) :   1.2161 B(  8-C ,  9-C ) :   1.4487 B(  8-C , 77-H ) :   0.9890
B(  9-C , 10-C ) :   1.2264 B(  9-C , 15-C ) :   0.9825 B( 10-C , 11-C ) :   1.4789
B( 10-C , 12-C ) :   0.9318 B( 11-C , 78-H ) :   1.0154 B( 12-C , 13-O ) :   2.2328
B( 12-C , 14-C ) :   0.9475 B( 14-C , 15-C ) :   1.0960 B( 14-C , 21-C ) :   1.5643
B( 15-C , 16-C ) :   1.6216 B( 16-C , 17-C ) :   1.1464 B( 16-C , 19-C ) :   1.1474
B( 17-C , 18-N ) :   2.9849 B( 19-C , 20-N ) :   2.9608 B( 21-C , 22-C ) :   1.2071
B( 21-C , 79-H ) :   0.9279 B( 22-C , 23-C ) :   1.3702 B( 22-C , 29-C ) :   0.1035
B( 22-C , 30-S ) :   1.0614 B( 23-C , 24-C ) :   1.2584 B( 23-C , 27-N ) :   1.3025
B( 24-C , 25-S ) :   1.0656 B( 24-C , 29-C ) :   1.4430 B( 25-S , 26-C ) :   1.0333
B( 26-C , 27-N ) :   1.7731 B( 26-C , 28-C ) :   1.0689 B( 28-C , 80-H ) :   0.9452
B( 28-C , 81-H ) :   0.9491 B( 28-C , 82-H ) :   0.9440 B( 29-C , 30-S ) :   1.1548
B( 29-C , 31-C ) :   1.2322 B( 31-C , 32-C ) :   1.2418 B( 31-C , 38-C ) :   0.1249
B( 31-C , 40-C ) :   1.1846 B( 32-C , 33-C ) :   1.1424 B( 32-C , 37-N ) :   1.4521
B( 33-C , 34-N ) :   1.3905 B( 33-C , 38-C ) :   1.2618 B( 34-N , 35-C ) :   1.6324
B( 35-C , 36-C ) :   1.2250 B( 35-C , 83-H ) :   0.9663 B( 36-C , 37-N ) :   1.6098
B( 36-C , 84-H ) :   0.9668 B( 38-C , 39-C ) :   1.1862 B( 38-C , 44-C ) :   1.2006
B( 39-C , 40-C ) :   1.1010 B( 39-C , 43-N ) :   1.5425 B( 40-C , 41-N ) :   1.4752
B( 41-N , 42-S ) :   1.2619 B( 41-N , 43-N ) :   0.1517 B( 42-S , 43-N ) :   1.3027
B( 44-C , 45-C ) :   1.3571 B( 44-C , 52-S ) :   1.1773 B( 45-C , 46-C ) :   1.2704
B( 45-C , 49-N ) :   1.3200 B( 46-C , 47-S ) :   1.0760 B( 46-C , 51-C ) :   1.4295
B( 47-S , 48-C ) :   1.0318 B( 47-S , 49-N ) :   0.1028 B( 48-C , 49-N ) :   1.8133
B( 48-C , 50-C ) :   1.0671 B( 50-C , 85-H ) :   0.9446 B( 50-C , 86-H ) :   0.9440
B( 50-C , 87-H ) :   0.9487 B( 51-C , 52-S ) :   1.0210 B( 51-C , 53-C ) :   1.2315
B( 53-C , 54-C ) :   1.5766 B( 53-C , 88-H ) :   0.9448 B( 54-C , 55-C ) :   0.9533
B( 54-C , 69-C ) :   1.0596 B( 55-C , 56-O ) :   2.2688 B( 55-C , 57-C ) :   0.9144
B( 57-C , 58-C ) :   1.4830 B( 57-C , 68-C ) :   1.2202 B( 58-C , 59-C ) :   1.1899
B( 58-C , 89-H ) :   1.0162 B( 59-C , 60-C ) :   1.2592 B( 59-C , 64-C ) :   1.1951
B( 60-C , 61-C ) :   1.1911 B( 60-C , 67-C ) :   1.2089 B( 61-C , 62-C ) :   1.4405
B( 61-C , 64-C ) :   0.1087 B( 61-C , 90-H ) :   1.0069 B( 62-C , 63-C ) :   1.1929
B( 62-C , 66-F ) :   1.1323 B( 63-C , 64-C ) :   1.4419 B( 63-C , 65-F ) :   1.1324
B( 64-C , 91-H ) :   1.0072 B( 67-C , 68-C ) :   1.4615 B( 67-C , 92-H ) :   0.9942
B( 68-C , 69-C ) :   1.0100 B( 69-C , 70-C ) :   1.6212 B( 70-C , 71-C ) :   1.1454
B( 70-C , 73-C ) :   1.1525 B( 71-C , 72-N ) :   3.0331 B( 73-C , 74-N ) :   2.8926

-----------------------------------------------------------------------------
         ABSORPTION SPECTRUM VIA TRANSITION ELECTRIC DIPOLE MOMENTS
-----------------------------------------------------------------------------
State   Energy  Wavelength   fosc         T2         TX        TY        TZ
        (cm-1)    (nm)                  (au**2)     (au)      (au)      (au)
-----------------------------------------------------------------------------
   0    8775.9   1139.5   0.897076968  33.65238  -4.54060   3.27622  -1.51713
   1   17114.0    584.3   0.067477663   1.29803  -0.83850   0.05476  -0.76938
   2   18025.0    554.8   0.143831106   2.62696   0.60864  -1.03915  -1.08474
   3   19622.8    509.6   0.017628893   0.29576  -0.16854   0.23941  -0.45830
   4   19790.3    505.3   0.365365967   6.07788   2.06257  -1.28542   0.41399
   5   20368.0    491.0   0.123646891   1.99852  -0.70066   0.83734   0.89804
   6   21945.1    455.7   0.019144494   0.28720  -0.01878   0.29773   0.44520
   7   22773.6    439.1   0.009326252   0.13482   0.19027   0.31376   0.01320
   8   23467.0    426.1   0.023160766   0.32492  -0.06615  -0.27550  -0.49461
   9   23814.4    419.9   0.008175557   0.11302   0.33496   0.02567   0.01262
  10   23968.7    417.2   0.013691552   0.18805  -0.40582   0.11697   0.09839
  11   25691.2    389.2   0.023277917   0.29829   0.11971  -0.18013   0.50151
  12   26113.7    382.9   0.039631597   0.49963   0.16260  -0.62216  -0.29344
  13   26181.1    382.0   0.101110602   1.27141  -1.04489   0.23551  -0.35236
  14   26711.2    374.4   0.064515513   0.79514  -0.48329  -0.48638  -0.57009
  15   26920.8    371.5   0.173676275   2.12387  -1.29032   0.58718   0.33787
  16   27246.1    367.0   0.046836691   0.56592   0.12867  -0.05222  -0.73935
  17   27393.7    365.0   0.022218382   0.26702   0.09073   0.04905   0.50634
  18   27967.9    357.6   0.000771726   0.00908  -0.02648  -0.08116  -0.04238
  19   28059.2    356.4   0.086624018   1.01634  -0.95204   0.25497   0.21201
  20   28822.2    347.0   0.181298921   2.07083  -1.06535  -0.13275  -0.95825
  21   29241.9    342.0   0.041181506   0.46363   0.61157   0.06074   0.29312
  22   29693.7    336.8   0.119442241   1.32425  -0.27865   0.67670   0.88808
  23   29903.6    334.4   0.011304202   0.12445   0.31411  -0.06014   0.14888
  24   30788.8    324.8   0.140090163   1.49793   1.22359  -0.01151   0.02471
  25   30854.4    324.1   0.162619533   1.73513  -0.76624   0.38197   1.00105
  26   31291.6    319.6   0.048333466   0.50850   0.44028  -0.10410   0.55120
  27   31471.5    317.7   0.062856578   0.65752   0.35447   0.14897  -0.71392
  28   31572.3    316.7   0.170027595   1.77292  -1.24860  -0.15022   0.43745
  29   31661.0    315.8   0.176251331   1.83267   0.44809  -0.12147   1.27166
  30   32037.3    312.1   0.033355108   0.34275  -0.26830   0.32758   0.40430
  31   32358.0    309.0   0.017677452   0.17985  -0.18553  -0.31452  -0.21566
  32   32582.3    306.9   0.015894040   0.16059  -0.25339  -0.19348   0.24280
  33   32879.5    304.1   0.068950099   0.69038   0.22187  -0.18973  -0.77791
  34   33018.1    302.9   0.091196434   0.90929   0.88268  -0.22010  -0.28587
  35   33348.6    299.9   0.091232530   0.90063  -0.90504   0.04703   0.28164
  36   33753.9    296.3   0.110935931   1.08199   0.14351  -0.75858  -0.69710
  37   33946.4    294.6   0.007146206   0.06930  -0.06639  -0.15430  -0.20270
  38   34716.5    288.0   0.005012446   0.04753   0.19914   0.05693  -0.06807
  39   35331.2    283.0   0.531408005   4.95160   0.29517   1.65458   1.45837
  40   35398.6    282.5   0.521033922   4.84569   2.07171  -0.03762  -0.74318
  41   35697.0    280.1   0.061797009   0.56992   0.64134   0.29726  -0.26502
  42   35820.5    279.2   0.019256824   0.17698   0.18689   0.30671   0.21905
  43   36044.6    277.4   0.206056928   1.88201  -1.18078   0.22567   0.66094
  44   36263.3    275.8   0.041308739   0.37502  -0.26328  -0.28191  -0.47563
  45   36575.7    273.4   0.103029584   0.92735   0.83089   0.28130   0.39729
  46   36706.4    272.4   0.057539304   0.51606  -0.65206  -0.09590  -0.28579
  47   36974.8    270.5   0.090607935   0.80674   0.45156   0.42895   0.64718
  48   37417.1    267.3   0.091520565   0.80524  -0.13590  -0.02243  -0.88672
  49   37620.2    265.8   0.034003909   0.29757  -0.49433   0.11819   0.19809
  50   37761.1    264.8   0.009171872   0.07996   0.05461   0.25168   0.11679
  51   38106.5    262.4   0.102946211   0.88938   0.83903  -0.11782   0.41416
  52   38139.1    262.2   0.015153204   0.13080  -0.09924   0.13310  -0.32131
  53   38387.8    260.5   0.036556156   0.31350   0.31186  -0.45330  -0.10374
  54   38653.8    258.7   0.134075562   1.14191  -0.26961   0.58032   0.85583
  55   38915.5    257.0   0.046327575   0.39192  -0.25754  -0.43628  -0.36776
  56   39058.1    256.0   0.032541822   0.27429   0.16454  -0.20275  -0.45399
  57   39197.6    255.1   0.052382790   0.43995  -0.03989  -0.06013   0.65935
  58   39273.5    254.6   0.010126199   0.08488   0.10023   0.22416   0.15681
  59   39649.9    252.2   0.052698562   0.43755  -0.47277   0.24484  -0.39255
  60   39917.8    250.5   0.020989424   0.17310  -0.09360  -0.18459  -0.36093
  61   40006.0    250.0   0.055469054   0.45646   0.41853  -0.27190   0.45537
  62   40256.1    248.4   0.043448486   0.35532  -0.45770   0.24063   0.29653

FINAL SINGLE POINT ENERGY     -5152.276666454524

DIPOLE MOMENT
-------------
                                X             Y             Z
Electronic contribution:     -1.38500       0.43767      -8.18696
Nuclear contribution   :      3.03698      -1.49387       8.48423
                        -----------------------------------------
Total Dipole Moment    :      1.65198      -1.05621       0.29727
                        -----------------------------------------
Magnitude (a.u.)       :      1.98318
Magnitude (Debye)      :      5.04084

Rotational constants in cm-1:     0.001493     0.000269     0.000241
Rotational constants in MHz :    44.749518     8.053507     7.216289

                             ****ORCA TERMINATED NORMALLY****
TOTAL RUN TIME: 0 days 0 hours 11 minutes 23 seconds 401 msec
