                         Program Version 4.2.0 -  RELEASE  -
|  1> # ORCA input file
|  2> # SCF done       -219.082852130832          0.000550653367
|  3> ! CAM-B3LYP def2-SVP def2/J RIJCOSX Grid4 TightSCF
|  4> %maxcore 5000
|  5> %tddft
|  6>     Mode sTDDFT
|  7>     Ethresh 5.0
|  8>     maxcore 5000
|  9> end
| 10>
| 11> %pal
| 12>   nprocs 6
| 13>   end
| 14> * xyz 0 1
| 15>    C      -11.27176        -0.49687        -4.23581
| 16>    C      -12.55920        -0.77635        -4.59843
| 17>    F      -13.31081         0.16051        -5.19052
| 18>    C      -13.11281        -2.05009        -4.35575
| 19>    F      -14.37785        -2.29540        -4.72163
| 20>    C      -12.37035        -3.02686        -3.75393
| 21>    C      -11.04023        -2.76977        -3.36812
| 22>    C      -10.47891        -1.48267        -3.61332
| 23>    C       -9.14658        -1.20204        -3.23571
| 24>    C       -8.39537        -2.17977        -2.63541
| 25>    C       -8.96484        -3.46046        -2.39302
| 26>    C      -10.25118        -3.75840        -2.74042
| 27>    C       -7.97589        -4.32691        -1.72285
| 28>    O       -8.18157        -5.42736        -1.26567
| 29>    C       -6.73737        -3.50175        -1.61190
| 30>    C       -7.01743        -2.18136        -2.15601
| 31>    C       -6.13651        -1.13966        -2.26099
| 32>    C       -4.78759        -1.16473        -1.84434
| 33>    N       -3.68124        -1.10604        -1.54392
| 34>    C       -6.46062         0.11777        -2.81567
| 35>    N       -6.66315         1.16172        -3.24728
| 36>    C       -5.60942        -3.89082        -0.97001
| 37>    C       -5.30998        -5.24255        -0.58206
| 38>    C       -4.69352        -5.53237         0.63451
| 39>    C       -4.44424        -6.85508         1.07709
| 40>    N       -3.83664        -6.92812         2.29508
| 41>    C       -3.64632        -5.77611         2.80008
| 42>    S       -4.18421        -4.40820         1.85199
| 43>    C       -4.78342        -7.95641         0.27890
| 44>    C       -5.30853        -7.66877        -0.97579
| 45>    C       -5.57385        -6.34488        -1.41228
| 46>    N       -6.06984        -6.26141        -2.67565
| 47>    C       -6.24261        -7.41472        -3.19107
| 48>    S       -5.80097        -8.78477        -2.20959
| 49>    C       -4.60213        -9.31276         0.77799
| 50>    C       -5.06567        -9.67190         2.05093
| 51>    C       -4.87627       -10.99497         2.57898
| 52>    N       -5.36229       -11.29923         3.81022
| 53>    C       -5.96952       -10.38436         4.48212
| 54>    C       -6.18041        -9.07815         3.94359
| 55>    N       -5.75553        -8.75506         2.77343
| 56>    F       -6.85396        -8.16680         4.63929
| 57>    F       -6.42226       -10.69850         5.69218
| 58>    C       -4.23558       -11.99916         1.84197
| 59>    C       -3.77707       -11.64679         0.56616
| 60>    C       -3.95948       -10.31193         0.03718
| 61>    N       -3.40670       -10.18460        -1.17628
| 62>    S       -2.74300       -11.58019        -1.58887
| 63>    N       -3.09365       -12.42196        -0.28299
| 64>    C       -4.07472       -13.35617         2.34733
| 65>    C       -3.57530       -13.65866         3.60829
| 66>    C       -3.40669       -14.98815         4.07410
| 67>    N       -2.90403       -15.07475         5.33564
| 68>    C       -2.65251       -13.92073         5.82551
| 69>    S       -3.01086       -12.55192         4.82059
| 70>    C       -3.75518       -16.09091         3.27162
| 71>    C       -4.29223       -15.77644         2.02242
| 72>    C       -4.43900       -14.44917         1.54940
| 73>    N       -4.99295       -14.35916         0.30765
| 74>    C       -5.23574       -15.50603        -0.18693
| 75>    S       -4.83035       -16.88632         0.80626
| 76>    C       -3.65189       -17.45470         3.70343
| 77>    C       -2.79395       -18.01624         4.58644
| 78>    C       -3.13025       -19.34296         5.18530
| 79>    O       -3.96377       -20.12343         4.79338
| 80>    C       -2.26605       -19.45318         6.37757
| 81>    C       -2.27080       -20.40775         7.35377
| 82>    C       -1.36219       -20.29418         8.42967
| 83>    C       -0.46622       -19.18618         8.47490
| 84>    C        0.43364       -19.07700         9.55442
| 85>    C        0.44578       -20.02346        10.54000
| 86>    C       -0.44032       -21.11887        10.49386
| 87>    C       -1.32578       -21.25249         9.46146
| 88>    F       -0.40711       -22.03056        11.47468
| 89>    F        1.30304       -19.91864        11.56348
| 90>    C       -0.48074       -18.21615         7.44706
| 91>    C       -1.36438       -18.35056         6.40940
| 92>    C       -1.58261       -17.53507         5.21984
| 93>    C       -0.69090       -16.64378         4.68974
| 94>    C       -0.83995       -16.05532         3.41747
| 95>    N       -0.90324       -15.57744         2.37577
| 96>    C        0.50208       -16.25172         5.33009
| 97>    N        1.47267       -15.88321         5.81936
| 98>    H      -10.86367         0.48290        -4.42920
| 99>    H      -12.80868        -3.99604        -3.57427
|100>    H       -8.75462        -0.21669        -3.42900
|101>    H      -10.65863        -4.73774        -2.54050
|102>    H       -4.86833        -3.15377        -0.68444
|103>    H       -3.18113        -5.61382         3.75266
|104>    H       -6.63055        -7.56467        -4.17989
|105>    H       -2.24486       -13.78007         6.80807
|106>    H       -5.66881       -15.65498        -1.15669
|107>    H       -4.40959       -18.12446         3.30432
|108>    H       -2.95921       -21.23784         7.30725
|109>    H        1.12070       -18.24672         9.60376
|110>    H       -1.99754       -22.09632         9.44090
|111>    H        0.20048       -17.38256         7.50935
|112> *
|113>
|114>                          ****END OF INPUT****

CARTESIAN COORDINATES (ANGSTROEM)
---------------------------------
  C    -11.271760   -0.496870   -4.235810
  C    -12.559200   -0.776350   -4.598430
  F    -13.310810    0.160510   -5.190520
  C    -13.112810   -2.050090   -4.355750
  F    -14.377850   -2.295400   -4.721630
  C    -12.370350   -3.026860   -3.753930
  C    -11.040230   -2.769770   -3.368120
  C    -10.478910   -1.482670   -3.613320
  C     -9.146580   -1.202040   -3.235710
  C     -8.395370   -2.179770   -2.635410
  C     -8.964840   -3.460460   -2.393020
  C    -10.251180   -3.758400   -2.740420
  C     -7.975890   -4.326910   -1.722850
  O     -8.181570   -5.427360   -1.265670
  C     -6.737370   -3.501750   -1.611900
  C     -7.017430   -2.181360   -2.156010
  C     -6.136510   -1.139660   -2.260990
  C     -4.787590   -1.164730   -1.844340
  N     -3.681240   -1.106040   -1.543920
  C     -6.460620    0.117770   -2.815670
  N     -6.663150    1.161720   -3.247280
  C     -5.609420   -3.890820   -0.970010
  C     -5.309980   -5.242550   -0.582060
  C     -4.693520   -5.532370    0.634510
  C     -4.444240   -6.855080    1.077090
  N     -3.836640   -6.928120    2.295080
  C     -3.646320   -5.776110    2.800080
  S     -4.184210   -4.408200    1.851990
  C     -4.783420   -7.956410    0.278900
  C     -5.308530   -7.668770   -0.975790
  C     -5.573850   -6.344880   -1.412280
  N     -6.069840   -6.261410   -2.675650
  C     -6.242610   -7.414720   -3.191070
  S     -5.800970   -8.784770   -2.209590
  C     -4.602130   -9.312760    0.777990
  C     -5.065670   -9.671900    2.050930
  C     -4.876270  -10.994970    2.578980
  N     -5.362290  -11.299230    3.810220
  C     -5.969520  -10.384360    4.482120
  C     -6.180410   -9.078150    3.943590
  N     -5.755530   -8.755060    2.773430
  F     -6.853960   -8.166800    4.639290
  F     -6.422260  -10.698500    5.692180
  C     -4.235580  -11.999160    1.841970
  C     -3.777070  -11.646790    0.566160
  C     -3.959480  -10.311930    0.037180
  N     -3.406700  -10.184600   -1.176280
  S     -2.743000  -11.580190   -1.588870
  N     -3.093650  -12.421960   -0.282990
  C     -4.074720  -13.356170    2.347330
  C     -3.575300  -13.658660    3.608290
  C     -3.406690  -14.988150    4.074100
  N     -2.904030  -15.074750    5.335640
  C     -2.652510  -13.920730    5.825510
  S     -3.010860  -12.551920    4.820590
  C     -3.755180  -16.090910    3.271620
  C     -4.292230  -15.776440    2.022420
  C     -4.439000  -14.449170    1.549400
  N     -4.992950  -14.359160    0.307650
  C     -5.235740  -15.506030   -0.186930
  S     -4.830350  -16.886320    0.806260
  C     -3.651890  -17.454700    3.703430
  C     -2.793950  -18.016240    4.586440
  C     -3.130250  -19.342960    5.185300
  O     -3.963770  -20.123430    4.793380
  C     -2.266050  -19.453180    6.377570
  C     -2.270800  -20.407750    7.353770
  C     -1.362190  -20.294180    8.429670
  C     -0.466220  -19.186180    8.474900
  C      0.433640  -19.077000    9.554420
  C      0.445780  -20.023460   10.540000
  C     -0.440320  -21.118870   10.493860
  C     -1.325780  -21.252490    9.461460
  F     -0.407110  -22.030560   11.474680
  F      1.303040  -19.918640   11.563480
  C     -0.480740  -18.216150    7.447060
  C     -1.364380  -18.350560    6.409400
  C     -1.582610  -17.535070    5.219840
  C     -0.690900  -16.643780    4.689740
  C     -0.839950  -16.055320    3.417470
  N     -0.903240  -15.577440    2.375770
  C      0.502080  -16.251720    5.330090
  N      1.472670  -15.883210    5.819360
  H    -10.863670    0.482900   -4.429200
  H    -12.808680   -3.996040   -3.574270
  H     -8.754620   -0.216690   -3.429000
  H    -10.658630   -4.737740   -2.540500
  H     -4.868330   -3.153770   -0.684440
  H     -3.181130   -5.613820    3.752660
  H     -6.630550   -7.564670   -4.179890
  H     -2.244860  -13.780070    6.808070
  H     -5.668810  -15.654980   -1.156690
  H     -4.409590  -18.124460    3.304320
  H     -2.959210  -21.237840    7.307250
  H      1.120700  -18.246720    9.603760
  H     -1.997540  -22.096320    9.440900
  H      0.200480  -17.382560    7.509350

 Total Charge           Charge          ....    0
 Multiplicity           Mult            ....    1
 Number of Electrons    NEL             ....  596
 Basis Dimension        Dim             .... 1252

ORBITAL ENERGIES
----------------

  NO   OCC          E(Eh)            E(eV)
   0   2.0000     -89.041789     -2422.9502
   1   2.0000     -88.971099     -2421.0267
   2   2.0000     -88.970205     -2421.0024
   3   2.0000     -88.968582     -2420.9582
   4   2.0000     -88.964064     -2420.8352
   5   2.0000     -24.816732      -675.2976
   6   2.0000     -24.813606      -675.2125
   7   2.0000     -24.799883      -674.8391
   8   2.0000     -24.798720      -674.8075
   9   2.0000     -24.798054      -674.7894
  10   2.0000     -24.797738      -674.7808
  11   2.0000     -19.218274      -522.9558
  12   2.0000     -19.216061      -522.8956
  13   2.0000     -14.453426      -393.2977
  14   2.0000     -14.450803      -393.2263
  15   2.0000     -14.446067      -393.0975
  16   2.0000     -14.445784      -393.0898
  17   2.0000     -14.421979      -392.4420
  18   2.0000     -14.420568      -392.4036
  19   2.0000     -14.420078      -392.3903
  20   2.0000     -14.419444      -392.3730
  21   2.0000     -14.419167      -392.3655
  22   2.0000     -14.416355      -392.2890
  23   2.0000     -14.414819      -392.2472
  24   2.0000     -14.413692      -392.2165
  25   2.0000     -10.432186      -283.8742
  26   2.0000     -10.429003      -283.7876
  27   2.0000     -10.383079      -282.5380
  28   2.0000     -10.382100      -282.5113
  29   2.0000     -10.381131      -282.4849
  30   2.0000     -10.380820      -282.4765
  31   2.0000     -10.368714      -282.1471
  32   2.0000     -10.367732      -282.1203
  33   2.0000     -10.348648      -281.6010
  34   2.0000     -10.347309      -281.5646
  35   2.0000     -10.347257      -281.5632
  36   2.0000     -10.345827      -281.5243
  37   2.0000     -10.345060      -281.5034
  38   2.0000     -10.344268      -281.4818
  39   2.0000     -10.343778      -281.4685
  40   2.0000     -10.340892      -281.3900
  41   2.0000     -10.340736      -281.3857
  42   2.0000     -10.338581      -281.3271
  43   2.0000     -10.338088      -281.3137
  44   2.0000     -10.336651      -281.2746
  45   2.0000     -10.325506      -280.9713
  46   2.0000     -10.322721      -280.8955
  47   2.0000     -10.321704      -280.8679
  48   2.0000     -10.321640      -280.8661
  49   2.0000     -10.321266      -280.8559
  50   2.0000     -10.321202      -280.8542
  51   2.0000     -10.320323      -280.8303
  52   2.0000     -10.319769      -280.8152
  53   2.0000     -10.319736      -280.8143
  54   2.0000     -10.319643      -280.8118
  55   2.0000     -10.318933      -280.7924
  56   2.0000     -10.317644      -280.7574
  57   2.0000     -10.317245      -280.7465
  58   2.0000     -10.316115      -280.7158
  59   2.0000     -10.315984      -280.7122
  60   2.0000     -10.314848      -280.6813
  61   2.0000     -10.314776      -280.6793
  62   2.0000     -10.312360      -280.6136
  63   2.0000     -10.312005      -280.6039
  64   2.0000     -10.311675      -280.5949
  65   2.0000     -10.310676      -280.5678
  66   2.0000     -10.310178      -280.5542
  67   2.0000     -10.309424      -280.5337
  68   2.0000     -10.308957      -280.5210
  69   2.0000     -10.307121      -280.4710
  70   2.0000     -10.305674      -280.4316
  71   2.0000     -10.303997      -280.3860
  72   2.0000     -10.303503      -280.3726
  73   2.0000     -10.303094      -280.3614
  74   2.0000     -10.302952      -280.3576
  75   2.0000     -10.302467      -280.3444
  76   2.0000     -10.301739      -280.3246
  77   2.0000     -10.301401      -280.3154
  78   2.0000     -10.301175      -280.3092
  79   2.0000     -10.300482      -280.2904
  80   2.0000     -10.300262      -280.2844
  81   2.0000     -10.293828      -280.1093
  82   2.0000     -10.293713      -280.1062
  83   2.0000      -8.133026      -221.3109
  84   2.0000      -8.067005      -219.5144
  85   2.0000      -8.066680      -219.5055
  86   2.0000      -8.065012      -219.4601
  87   2.0000      -8.060100      -219.3265
  88   2.0000      -6.103891      -166.0953
  89   2.0000      -6.096297      -165.8887
  90   2.0000      -6.096093      -165.8831
  91   2.0000      -6.036369      -164.2580
  92   2.0000      -6.035992      -164.2477
  93   2.0000      -6.034350      -164.2030
  94   2.0000      -6.032160      -164.1434
  95   2.0000      -6.031928      -164.1371
  96   2.0000      -6.030291      -164.0925
  97   2.0000      -6.029520      -164.0716
  98   2.0000      -6.028797      -164.0519
  99   2.0000      -6.028387      -164.0408
 100   2.0000      -6.026673      -163.9941
 101   2.0000      -6.025332      -163.9576
 102   2.0000      -6.021743      -163.8600
 103   2.0000      -1.344001       -36.5721
 104   2.0000      -1.329443       -36.1760
 105   2.0000      -1.322388       -35.9840
 106   2.0000      -1.320953       -35.9450
 107   2.0000      -1.307484       -35.5784
 108   2.0000      -1.306113       -35.5411
 109   2.0000      -1.137937       -30.9649
 110   2.0000      -1.134002       -30.8578
 111   2.0000      -1.132279       -30.8109
 112   2.0000      -1.112655       -30.2769
 113   2.0000      -1.083820       -29.4922
 114   2.0000      -1.079408       -29.3722
 115   2.0000      -1.075719       -29.2718
 116   2.0000      -1.070796       -29.1379
 117   2.0000      -1.038237       -28.2519
 118   2.0000      -1.022354       -27.8197
 119   2.0000      -1.018632       -27.7184
 120   2.0000      -1.006191       -27.3798
 121   2.0000      -1.003644       -27.3105
 122   2.0000      -0.997757       -27.1504
 123   2.0000      -0.993968       -27.0472
 124   2.0000      -0.992398       -27.0045
 125   2.0000      -0.983440       -26.7608
 126   2.0000      -0.982768       -26.7425
 127   2.0000      -0.981201       -26.6998
 128   2.0000      -0.962876       -26.2012
 129   2.0000      -0.958668       -26.0867
 130   2.0000      -0.942463       -25.6457
 131   2.0000      -0.934021       -25.4160
 132   2.0000      -0.928703       -25.2713
 133   2.0000      -0.924116       -25.1465
 134   2.0000      -0.902564       -24.5600
 135   2.0000      -0.900758       -24.5109
 136   2.0000      -0.897471       -24.4214
 137   2.0000      -0.894804       -24.3489
 138   2.0000      -0.891918       -24.2703
 139   2.0000      -0.891607       -24.2619
 140   2.0000      -0.881225       -23.9794
 141   2.0000      -0.879911       -23.9436
 142   2.0000      -0.873472       -23.7684
 143   2.0000      -0.868852       -23.6427
 144   2.0000      -0.844657       -22.9843
 145   2.0000      -0.841807       -22.9067
 146   2.0000      -0.840381       -22.8679
 147   2.0000      -0.836151       -22.7528
 148   2.0000      -0.827992       -22.5308
 149   2.0000      -0.822791       -22.3893
 150   2.0000      -0.811012       -22.0688
 151   2.0000      -0.800189       -21.7742
 152   2.0000      -0.789977       -21.4964
 153   2.0000      -0.768852       -20.9215
 154   2.0000      -0.767560       -20.8864
 155   2.0000      -0.765830       -20.8393
 156   2.0000      -0.761593       -20.7240
 157   2.0000      -0.749244       -20.3880
 158   2.0000      -0.745188       -20.2776
 159   2.0000      -0.736322       -20.0363
 160   2.0000      -0.736086       -20.0299
 161   2.0000      -0.725858       -19.7516
 162   2.0000      -0.718409       -19.5489
 163   2.0000      -0.717328       -19.5195
 164   2.0000      -0.708510       -19.2796
 165   2.0000      -0.700241       -19.0545
 166   2.0000      -0.696744       -18.9594
 167   2.0000      -0.691813       -18.8252
 168   2.0000      -0.685738       -18.6599
 169   2.0000      -0.682597       -18.5744
 170   2.0000      -0.679786       -18.4979
 171   2.0000      -0.674856       -18.3638
 172   2.0000      -0.671712       -18.2782
 173   2.0000      -0.663739       -18.0613
 174   2.0000      -0.662914       -18.0388
 175   2.0000      -0.658915       -17.9300
 176   2.0000      -0.657821       -17.9002
 177   2.0000      -0.656292       -17.8586
 178   2.0000      -0.652442       -17.7539
 179   2.0000      -0.644539       -17.5388
 180   2.0000      -0.642241       -17.4763
 181   2.0000      -0.639242       -17.3947
 182   2.0000      -0.634218       -17.2580
 183   2.0000      -0.629607       -17.1325
 184   2.0000      -0.624605       -16.9964
 185   2.0000      -0.621882       -16.9223
 186   2.0000      -0.617611       -16.8061
 187   2.0000      -0.614126       -16.7112
 188   2.0000      -0.612832       -16.6760
 189   2.0000      -0.600820       -16.3492
 190   2.0000      -0.597037       -16.2462
 191   2.0000      -0.592838       -16.1319
 192   2.0000      -0.589307       -16.0359
 193   2.0000      -0.586963       -15.9721
 194   2.0000      -0.586826       -15.9684
 195   2.0000      -0.585421       -15.9301
 196   2.0000      -0.579014       -15.7558
 197   2.0000      -0.576827       -15.6963
 198   2.0000      -0.574159       -15.6236
 199   2.0000      -0.572936       -15.5904
 200   2.0000      -0.570896       -15.5349
 201   2.0000      -0.559560       -15.2264
 202   2.0000      -0.555824       -15.1247
 203   2.0000      -0.555760       -15.1230
 204   2.0000      -0.554531       -15.0895
 205   2.0000      -0.553629       -15.0650
 206   2.0000      -0.550808       -14.9882
 207   2.0000      -0.548457       -14.9243
 208   2.0000      -0.547102       -14.8874
 209   2.0000      -0.546663       -14.8755
 210   2.0000      -0.545323       -14.8390
 211   2.0000      -0.543350       -14.7853
 212   2.0000      -0.542035       -14.7495
 213   2.0000      -0.539611       -14.6836
 214   2.0000      -0.538004       -14.6398
 215   2.0000      -0.536044       -14.5865
 216   2.0000      -0.532998       -14.5036
 217   2.0000      -0.531246       -14.4559
 218   2.0000      -0.530209       -14.4277
 219   2.0000      -0.523836       -14.2543
 220   2.0000      -0.523048       -14.2329
 221   2.0000      -0.520647       -14.1675
 222   2.0000      -0.519012       -14.1230
 223   2.0000      -0.516321       -14.0498
 224   2.0000      -0.515486       -14.0271
 225   2.0000      -0.514360       -13.9964
 226   2.0000      -0.512360       -13.9420
 227   2.0000      -0.511421       -13.9165
 228   2.0000      -0.510000       -13.8778
 229   2.0000      -0.507843       -13.8191
 230   2.0000      -0.501585       -13.6488
 231   2.0000      -0.499525       -13.5928
 232   2.0000      -0.499023       -13.5791
 233   2.0000      -0.497689       -13.5428
 234   2.0000      -0.494711       -13.4618
 235   2.0000      -0.490869       -13.3572
 236   2.0000      -0.489106       -13.3092
 237   2.0000      -0.488358       -13.2889
 238   2.0000      -0.484230       -13.1766
 239   2.0000      -0.483590       -13.1592
 240   2.0000      -0.478722       -13.0267
 241   2.0000      -0.471068       -12.8184
 242   2.0000      -0.468646       -12.7525
 243   2.0000      -0.464943       -12.6517
 244   2.0000      -0.464225       -12.6322
 245   2.0000      -0.463255       -12.6058
 246   2.0000      -0.460445       -12.5293
 247   2.0000      -0.456578       -12.4241
 248   2.0000      -0.452899       -12.3240
 249   2.0000      -0.451969       -12.2987
 250   2.0000      -0.448602       -12.2071
 251   2.0000      -0.447101       -12.1662
 252   2.0000      -0.446711       -12.1556
 253   2.0000      -0.444606       -12.0983
 254   2.0000      -0.440881       -11.9970
 255   2.0000      -0.434335       -11.8189
 256   2.0000      -0.433968       -11.8089
 257   2.0000      -0.431998       -11.7553
 258   2.0000      -0.431704       -11.7473
 259   2.0000      -0.429684       -11.6923
 260   2.0000      -0.427775       -11.6403
 261   2.0000      -0.427094       -11.6218
 262   2.0000      -0.426456       -11.6045
 263   2.0000      -0.425209       -11.5705
 264   2.0000      -0.419427       -11.4132
 265   2.0000      -0.419016       -11.4020
 266   2.0000      -0.414512       -11.2794
 267   2.0000      -0.412796       -11.2328
 268   2.0000      -0.410507       -11.1705
 269   2.0000      -0.405912       -11.0454
 270   2.0000      -0.404267       -11.0007
 271   2.0000      -0.400671       -10.9028
 272   2.0000      -0.395251       -10.7553
 273   2.0000      -0.392335       -10.6760
 274   2.0000      -0.384633       -10.4664
 275   2.0000      -0.383014       -10.4223
 276   2.0000      -0.381285       -10.3753
 277   2.0000      -0.376756       -10.2520
 278   2.0000      -0.364706        -9.9242
 279   2.0000      -0.360479        -9.8091
 280   2.0000      -0.356176        -9.6920
 281   2.0000      -0.353242        -9.6122
 282   2.0000      -0.350413        -9.5352
 283   2.0000      -0.348697        -9.4885
 284   2.0000      -0.344605        -9.3772
 285   2.0000      -0.340562        -9.2672
 286   2.0000      -0.337438        -9.1822
 287   2.0000      -0.332984        -9.0610
 288   2.0000      -0.332051        -9.0356
 289   2.0000      -0.317611        -8.6426
 290   2.0000      -0.315718        -8.5911
 291   2.0000      -0.312281        -8.4976
 292   2.0000      -0.310070        -8.4374
 293   2.0000      -0.307020        -8.3544
 294   2.0000      -0.302300        -8.2260
 295   2.0000      -0.297060        -8.0834
 296   2.0000      -0.286472        -7.7953
 297   2.0000      -0.271775        -7.3954
 298   0.0000      -0.108896        -2.9632
 299   0.0000      -0.094309        -2.5663
 300   0.0000      -0.088643        -2.4121
 301   0.0000      -0.059451        -1.6177
 302   0.0000      -0.057079        -1.5532

MULLIKEN ATOMIC CHARGES
-----------------------
   0 C :   -0.108423
   1 C :    0.243543
   2 F :   -0.170835
   3 C :    0.240194
   4 F :   -0.170991
   5 C :   -0.106910
   6 C :    0.118384
   7 C :    0.115737
   8 C :   -0.089105
   9 C :    0.056831
  10 C :   -0.005666
  11 C :   -0.084341
  12 C :    0.157657
  13 O :   -0.134063
  14 C :   -0.048372
  15 C :    0.309006
  16 C :   -0.346552
  17 C :   -0.191497
  18 N :    0.161662
  19 C :   -0.180740
  20 N :    0.150733
  21 C :   -0.096408
  22 C :    0.042471
  23 C :   -0.099853
  24 C :    0.028812
  25 N :   -0.046847
  26 C :    0.015630
  27 S :    0.110932
  28 C :   -0.031767
  29 C :   -0.071966
  30 C :    0.033374
  31 N :   -0.065989
  32 C :    0.023555
  33 S :    0.134585
  34 C :    0.029369
  35 C :   -0.060434
  36 C :   -0.066311
  37 N :    0.015274
  38 C :    0.136933
  39 C :    0.128628
  40 N :    0.046439
  41 F :   -0.140452
  42 F :   -0.138047
  43 C :    0.029901
  44 C :    0.000782
  45 C :   -0.011886
  46 N :   -0.270230
  47 S :    0.548567
  48 N :   -0.242693
  49 C :   -0.029941
  50 C :   -0.054287
  51 C :   -0.017846
  52 N :   -0.075285
  53 C :    0.029919
  54 S :    0.147761
  55 C :    0.053315
  56 C :   -0.088928
  57 C :    0.027688
  58 N :   -0.041057
  59 C :    0.016735
  60 S :    0.112750
  61 C :   -0.043343
  62 C :   -0.111159
  63 C :    0.132138
  64 O :   -0.137818
  65 C :    0.015437
  66 C :   -0.082845
  67 C :    0.112101
  68 C :    0.114184
  69 C :   -0.107204
  70 C :    0.239855
  71 C :    0.237621
  72 C :   -0.103439
  73 F :   -0.172775
  74 F :   -0.171708
  75 C :   -0.088827
  76 C :    0.039134
  77 C :    0.333301
  78 C :   -0.329910
  79 C :   -0.203789
  80 N :    0.177719
  81 C :   -0.193035
  82 N :    0.153417
  83 H :    0.007060
  84 H :   -0.001705
  85 H :   -0.006784
  86 H :   -0.012466
  87 H :    0.036189
  88 H :    0.044102
  89 H :    0.040054
  90 H :    0.046027
  91 H :    0.042702
  92 H :    0.023643
  93 H :   -0.007923
  94 H :    0.005958
  95 H :    0.000181
  96 H :   -0.005538
Sum of atomic charges:   -0.0000000

LOEWDIN ATOMIC CHARGES
----------------------
   0 C :   -0.028873
   1 C :    0.066171
   2 F :   -0.048505
   3 C :    0.067910
   4 F :   -0.048960
   5 C :   -0.033974
   6 C :   -0.007764
   7 C :   -0.006761
   8 C :    0.017907
   9 C :   -0.023183
  10 C :   -0.048892
  11 C :    0.028867
  12 C :    0.086012
  13 O :   -0.129070
  14 C :   -0.069086
  15 C :    0.075840
  16 C :   -0.131435
  17 C :   -0.021727
  18 N :   -0.044845
  19 C :   -0.016474
  20 N :   -0.050044
  21 C :    0.071892
  22 C :   -0.049470
  23 C :   -0.152107
  24 C :   -0.023066
  25 N :   -0.083388
  26 C :   -0.098138
  27 S :    0.397803
  28 C :   -0.015438
  29 C :   -0.154384
  30 C :   -0.006043
  31 N :   -0.087991
  32 C :   -0.095939
  33 S :    0.417360
  34 C :   -0.016954
  35 C :    0.004015
  36 C :   -0.011626
  37 N :   -0.053079
  38 C :    0.059603
  39 C :    0.056346
  40 N :   -0.022179
  41 F :   -0.029420
  42 F :   -0.027881
  43 C :   -0.016792
  44 C :   -0.036331
  45 C :   -0.049854
  46 N :   -0.301514
  47 S :    0.692539
  48 N :   -0.265913
  49 C :   -0.011743
  50 C :   -0.150679
  51 C :   -0.018567
  52 N :   -0.093506
  53 C :   -0.095648
  54 S :    0.432975
  55 C :   -0.053034
  56 C :   -0.146898
  57 C :   -0.017714
  58 N :   -0.079444
  59 C :   -0.097633
  60 S :    0.402120
  61 C :    0.062205
  62 C :   -0.069021
  63 C :    0.085871
  64 O :   -0.136836
  65 C :   -0.054228
  66 C :    0.030791
  67 C :   -0.010122
  68 C :   -0.005012
  69 C :   -0.031400
  70 C :    0.066823
  71 C :    0.066106
  72 C :   -0.032828
  73 F :   -0.049773
  74 F :   -0.049029
  75 C :    0.012257
  76 C :   -0.014679
  77 C :    0.078357
  78 C :   -0.129159
  79 C :   -0.019214
  80 N :   -0.045574
  81 C :   -0.018018
  82 N :   -0.056238
  83 H :    0.047721
  84 H :    0.044512
  85 H :    0.039763
  86 H :    0.039578
  87 H :    0.041611
  88 H :    0.021723
  89 H :    0.020567
  90 H :    0.023185
  91 H :    0.021364
  92 H :    0.041823
  93 H :    0.040660
  94 H :    0.046943
  95 H :    0.044851
  96 H :    0.039024

  Mayer bond orders larger than 0.100000
B(  0-C ,  1-C ) :   1.4430 B(  0-C ,  5-C ) :   0.1088 B(  0-C ,  7-C ) :   1.1846
B(  0-C , 83-H ) :   1.0070 B(  1-C ,  2-F ) :   1.1353 B(  1-C ,  3-C ) :   1.1886
B(  3-C ,  4-F ) :   1.1340 B(  3-C ,  5-C ) :   1.4448 B(  5-C ,  6-C ) :   1.1895
B(  5-C , 84-H ) :   1.0073 B(  6-C ,  7-C ) :   1.2574 B(  6-C , 11-C ) :   1.1889
B(  7-C ,  8-C ) :   1.2222 B(  8-C ,  9-C ) :   1.4386 B(  8-C , 85-H ) :   0.9894
B(  9-C , 10-C ) :   1.2235 B(  9-C , 15-C ) :   0.9918 B( 10-C , 11-C ) :   1.4709
B( 10-C , 12-C ) :   0.9409 B( 11-C , 86-H ) :   1.0167 B( 12-C , 13-O ) :   2.2403
B( 12-C , 14-C ) :   0.9194 B( 14-C , 15-C ) :   1.0563 B( 14-C , 21-C ) :   1.6992
B( 15-C , 16-C ) :   1.6495 B( 16-C , 17-C ) :   1.1411 B( 16-C , 19-C ) :   1.1438
B( 17-C , 18-N ) :   2.9755 B( 19-C , 20-N ) :   2.9626 B( 21-C , 22-C ) :   1.0618
B( 21-C , 87-H ) :   0.9301 B( 22-C , 23-C ) :   1.3643 B( 22-C , 28-C ) :   0.1004
B( 22-C , 30-C ) :   1.3252 B( 23-C , 24-C ) :   1.2842 B( 23-C , 27-S ) :   1.0772
B( 24-C , 25-N ) :   1.3159 B( 24-C , 28-C ) :   1.4062 B( 25-N , 26-C ) :   1.7707
B( 25-N , 27-S ) :   0.1064 B( 26-C , 27-S ) :   1.1008 B( 26-C , 88-H ) :   0.9627
B( 28-C , 29-C ) :   1.4470 B( 28-C , 34-C ) :   0.9216 B( 29-C , 30-C ) :   1.2742
B( 29-C , 33-S ) :   1.0676 B( 30-C , 31-N ) :   1.3301 B( 31-N , 32-C ) :   1.7447
B( 31-N , 33-S ) :   0.1083 B( 32-C , 33-S ) :   1.1270 B( 32-C , 89-H ) :   0.9623
B( 34-C , 35-C ) :   1.4086 B( 34-C , 43-C ) :   0.1501 B( 34-C , 45-C ) :   1.2817
B( 35-C , 36-C ) :   1.0916 B( 35-C , 40-N ) :   1.3974 B( 36-C , 37-N ) :   1.3935
B( 36-C , 43-C ) :   1.4090 B( 37-N , 38-C ) :   1.7021 B( 38-C , 39-C ) :   1.0737
B( 38-C , 42-F ) :   1.1805 B( 39-C , 40-N ) :   1.7147 B( 39-C , 41-F ) :   1.1760
B( 43-C , 44-C ) :   1.2874 B( 43-C , 49-C ) :   0.9194 B( 44-C , 45-C ) :   1.0914
B( 44-C , 48-N ) :   1.4931 B( 45-C , 46-N ) :   1.4946 B( 46-N , 47-S ) :   1.2939
B( 46-N , 48-N ) :   0.1598 B( 47-S , 48-N ) :   1.3181 B( 49-C , 50-C ) :   1.4498
B( 49-C , 55-C ) :   0.1010 B( 49-C , 57-C ) :   1.4064 B( 50-C , 51-C ) :   1.2782
B( 50-C , 54-S ) :   1.0679 B( 51-C , 52-N ) :   1.3547 B( 51-C , 55-C ) :   1.3006
B( 52-N , 53-C ) :   1.7059 B( 52-N , 54-S ) :   0.1084 B( 53-C , 54-S ) :   1.1468
B( 53-C , 90-H ) :   0.9634 B( 55-C , 56-C ) :   1.3766 B( 55-C , 61-C ) :   1.0426
B( 56-C , 57-C ) :   1.2888 B( 56-C , 60-S ) :   1.0815 B( 57-C , 58-N ) :   1.3252
B( 58-N , 59-C ) :   1.7712 B( 58-N , 60-S ) :   0.1069 B( 59-C , 60-S ) :   1.1004
B( 59-C , 91-H ) :   0.9626 B( 61-C , 62-C ) :   1.7337 B( 61-C , 92-H ) :   0.9370
B( 62-C , 63-C ) :   0.9314 B( 62-C , 77-C ) :   1.0192 B( 63-C , 64-O ) :   2.2753
B( 63-C , 65-C ) :   0.9163 B( 65-C , 66-C ) :   1.4726 B( 65-C , 76-C ) :   1.2179
B( 66-C , 67-C ) :   1.1976 B( 66-C , 93-H ) :   1.0151 B( 67-C , 68-C ) :   1.2554
B( 67-C , 72-C ) :   1.1934 B( 68-C , 69-C ) :   1.1886 B( 68-C , 75-C ) :   1.2156
B( 69-C , 70-C ) :   1.4438 B( 69-C , 72-C ) :   0.1082 B( 69-C , 94-H ) :   1.0066
B( 70-C , 71-C ) :   1.1908 B( 70-C , 74-F ) :   1.1339 B( 71-C , 72-C ) :   1.4457
B( 71-C , 73-F ) :   1.1315 B( 72-C , 95-H ) :   1.0065 B( 75-C , 76-C ) :   1.4561
B( 75-C , 96-H ) :   0.9940 B( 76-C , 77-C ) :   1.0071 B( 77-C , 78-C ) :   1.6573
B( 78-C , 79-C ) :   1.1654 B( 78-C , 81-C ) :   1.1450 B( 79-C , 80-N ) :   3.0114
B( 81-C , 82-N ) :   2.9838

-----------------------------------------------------------------------------
         ABSORPTION SPECTRUM VIA TRANSITION ELECTRIC DIPOLE MOMENTS
-----------------------------------------------------------------------------
State   Energy  Wavelength   fosc         T2         TX        TY        TZ
        (cm-1)    (nm)                  (au**2)     (au)      (au)      (au)
-----------------------------------------------------------------------------
   0   18496.5    540.6   0.866418056  15.42100  -1.12457   3.39685  -1.61794
   1   21598.0    463.0   0.002330853   0.03553  -0.08757  -0.05677  -0.15696
   2   22773.1    439.1   0.362090333   5.23445   0.96217  -1.89121   0.85557
   3   23565.6    424.3   0.178387749   2.49208   0.88753  -1.00069   0.83844
   4   25180.4    397.1   0.031898585   0.41705   0.31700  -0.14187   0.54446
   5   26061.4    383.7   0.023130112   0.29218   0.33699   0.39607  -0.14746
   6   26539.7    376.8   0.031266755   0.38785   0.12157  -0.41733  -0.44598
   7   27190.0    367.8   0.032408555   0.39240  -0.15617   0.54923  -0.25759
   8   27509.4    363.5   0.104439465   1.24985  -0.37444   0.71941  -0.76947
   9   27674.5    361.3   0.064887960   0.77190   0.78087   0.38262  -0.12546
  10   28895.7    346.1   0.006407872   0.07301  -0.08158  -0.24142   0.08981
  11   29045.2    344.3   0.010553362   0.11962   0.22959   0.07063   0.24883
  12   29308.9    341.2   0.045293086   0.50875  -0.55745  -0.06317  -0.44047
  13   29401.9    340.1   0.003797335   0.04252   0.07216  -0.09872   0.16603
  14   29557.2    338.3   0.003672687   0.04091  -0.13184  -0.01486   0.15265
  15   29585.7    338.0   0.042477159   0.47266  -0.54574  -0.35930  -0.21386
  16   29750.5    336.1   0.016503392   0.18262  -0.39538  -0.15962  -0.02860
  17   29981.5    333.5   0.086567628   0.95056   0.94006  -0.18314   0.18248
  18   30499.7    327.9   0.079812231   0.86149   0.81273  -0.31182  -0.32206
  19   31034.4    322.2   0.014539779   0.15424  -0.20299   0.28136  -0.18403
  20   31279.7    319.7   0.106618325   1.12213  -0.38036   0.00804   0.98863
  21   31582.1    316.6   0.209776616   2.18671  -0.35928   1.40007  -0.31214
  22   31939.2    313.1   0.182154162   1.87755   0.64006  -0.06381  -1.20988
  23   32772.5    305.1   0.165340033   1.66090  -0.91486   0.67392  -0.60808
  24   33059.4    302.5   0.161787194   1.61111  -0.70066  -0.81219   0.67863
  25   33094.6    302.2   0.089022336   0.88556  -0.16449  -0.66370   0.64653
  26   33640.5    297.3   0.116000513   1.13520   1.04572   0.18019   0.09592
  27   33940.9    294.6   0.070236151   0.68126  -0.79484  -0.15957  -0.15500
  28   34069.7    293.5   0.122280086   1.18158   0.73682   0.79901   0.01618
  29   34192.6    292.5   0.253529758   2.44103  -0.03317   1.27065  -0.90850
  30   34471.2    290.1   0.037835206   0.36134   0.49850   0.07661   0.32706
  31   34666.1    288.5   0.017631786   0.16744   0.06490  -0.31233  -0.25628
  32   35016.5    285.6   0.075085940   0.70593  -0.46977   0.69581   0.03304
  33   35031.8    285.5   0.240985509   2.26467   1.01266   0.97906  -0.52975
  34   35280.9    283.4   0.360364409   3.36262  -0.68876   0.85700  -1.46757
  35   35517.2    281.6   0.097655940   0.90518  -0.60891   0.35454   0.63931
  36   35746.3    279.7   0.030594829   0.28177   0.26219  -0.16211   0.43214
  37   36095.2    277.0   0.259282128   2.36482   0.48325  -0.63195   1.31603
  38   36175.9    276.4   0.144454007   1.31458   0.64868   0.75394   0.57041
  39   36461.8    274.3   0.136976518   1.23675  -0.99293  -0.41585  -0.27913
  40   36648.9    272.9   0.246837663   2.21731   1.32492  -0.15198   0.66241
  41   37104.8    269.5   0.048237629   0.42799  -0.34046  -0.32618   0.45352
  42   37366.7    267.6   0.009338419   0.08227   0.00191  -0.18379  -0.22021
  43   37393.6    267.4   0.032679346   0.28771  -0.44042  -0.17234  -0.25306
  44   37446.6    267.0   0.032376585   0.28464   0.07457   0.52767   0.02527
  45   37554.2    266.3   0.007244339   0.06351  -0.11547  -0.20069  -0.09949
  46   37736.4    265.0   0.002381473   0.02078  -0.09238  -0.00356   0.11059
  47   37899.8    263.9   0.013857135   0.12037   0.28086   0.20357   0.00678
  48   38065.1    262.7   0.031507891   0.27250  -0.49272   0.17239   0.00203
  49   38213.5    261.7   0.012444112   0.10721  -0.26079  -0.11968  -0.15772
  50   38298.1    261.1   0.026025244   0.22371   0.15215   0.21333   0.39377
  51   38421.7    260.3   0.023323753   0.19985  -0.00938   0.44689   0.00683
  52   38570.9    259.3   0.014002982   0.11952  -0.28518  -0.16795   0.09994
  53   38607.6    259.0   0.003325908   0.02836   0.15593   0.03810   0.05093
  54   38876.6    257.2   0.019721289   0.16700   0.05344   0.38681  -0.12053
  55   39436.5    253.6   0.007199798   0.06010  -0.16621   0.12388   0.13088
  56   39603.6    252.5   0.112230574   0.93294  -0.05019   0.96107  -0.08222
  57   39870.2    250.8   0.249186217   2.05755   0.01070  -1.14800   0.85996
  58   39941.1    250.4   0.040780757   0.33613  -0.41671   0.08548  -0.39393
  59   39981.5    250.1   0.018350887   0.15110   0.03084   0.38605   0.03346
  60   40053.7    249.7   0.006700450   0.05507  -0.03497   0.13492   0.18880
  61   40102.9    249.4   0.017613374   0.14459   0.05262  -0.12947  -0.35364

FINAL SINGLE POINT ENERGY     -5611.014026955519

DIPOLE MOMENT
-------------
                                X             Y             Z
Electronic contribution:     -6.20344       2.30899       9.24193
Nuclear contribution   :      4.51381      -3.99552      -9.10563
                        -----------------------------------------
Total Dipole Moment    :     -1.68963      -1.68653       0.13629
                        -----------------------------------------
Magnitude (a.u.)       :      2.39120
Magnitude (Debye)      :      6.07794

Rotational constants in cm-1:     0.001906     0.000210     0.000205
Rotational constants in MHz :    57.135293     6.294712     6.141865

                             ****ORCA TERMINATED NORMALLY****
TOTAL RUN TIME: 0 days 0 hours 11 minutes 17 seconds 886 msec
