                         Program Version 4.2.0 -  RELEASE  -
|  1> # ORCA input file
|  2> # SCF done       -203.734358077446          0.000450790248
|  3> ! CAM-B3LYP def2-SVP def2/J RIJCOSX Grid4 TightSCF
|  4> %maxcore 5000
|  5> %tddft
|  6>     Mode sTDDFT
|  7>     Ethresh 5.0
|  8>     maxcore 5000
|  9> end
| 10>
| 11> %pal
| 12>   nprocs 6
| 13>   end
| 14> * xyz 0 1
| 15>    C       -1.33404         0.18069         8.47819
| 16>    C       -0.38299         1.14461         8.29307
| 17>    F       -0.06442         1.97766         9.29268
| 18>    C        0.27317         1.27593         7.05288
| 19>    F        1.20191         2.22999         6.89906
| 20>    C       -0.03131         0.44114         6.01449
| 21>    C       -1.00696        -0.56187         6.17391
| 22>    C       -1.67222        -0.69515         7.42699
| 23>    C       -2.65765        -1.69280         7.60870
| 24>    C       -2.97130        -2.52601         6.56745
| 25>    C       -2.29820        -2.38955         5.32193
| 26>    C       -1.33800        -1.44133         5.11900
| 27>    C       -2.78873        -3.41410         4.37749
| 28>    O       -2.33521        -3.64952         3.27948
| 29>    C       -3.82652        -4.17209         5.12393
| 30>    C       -3.93623        -3.61633         6.45443
| 31>    C       -4.85238        -3.97529         7.40979
| 32>    C       -5.84656        -4.96149         7.23793
| 33>    N       -6.69476        -5.73098         7.15955
| 34>    C       -4.94253        -3.37311         8.68159
| 35>    N       -5.05809        -2.92319         9.73137
| 36>    C       -4.41197        -5.32382         4.66896
| 37>    C       -4.47673        -5.69893         3.31427
| 38>    C       -4.54130        -4.87724         2.18872
| 39>    C       -4.59170        -5.60637         0.97417
| 40>    S       -4.67839        -4.52794        -0.36594
| 41>    C       -4.69118        -3.18126         0.81934
| 42>    N       -4.62920        -3.53252         2.04323
| 43>    C       -4.76679        -1.79047         0.33537
| 44>    C       -4.58420        -6.98359         1.13924
| 45>    S       -4.55198        -7.38224         2.84028
| 46>    C       -4.58992        -7.99247         0.16973
| 47>    C       -4.58734        -9.37074         0.43607
| 48>    C       -4.56633       -10.15573        -0.75829
| 49>    N       -4.57949       -11.48385        -0.72454
| 50>    C       -4.61577       -12.04921         0.46493
| 51>    C       -4.64569       -13.53211         0.50488
| 52>    O       -4.53541       -14.21366        -0.49470
| 53>    C       -4.80952       -14.11188         1.84601
| 54>    C       -4.82191       -13.38347         2.96755
| 55>    C       -4.67447       -11.91665         2.99692
| 56>    O       -4.60252       -11.29171         4.03218
| 57>    C       -4.62674       -11.26504         1.66177
| 58>    N       -4.61140        -9.94727         1.63641
| 59>    C       -4.56757        -9.38859        -1.93281
| 60>    S       -4.58639        -7.69964        -1.55072
| 61>    C       -4.61829        -9.97029        -3.20176
| 62>    C       -4.80828        -9.40731        -4.46049
| 63>    C       -4.90717       -10.38440        -5.48758
| 64>    S       -5.18542        -9.60583        -7.00011
| 65>    C       -5.13540        -8.04281        -6.13189
| 66>    N       -4.93850        -8.12290        -4.87065
| 67>    C       -5.31981        -6.78520        -6.88027
| 68>    C       -4.81657       -11.69368        -5.04534
| 69>    S       -4.53493       -11.70521        -3.31255
| 70>    C       -4.85694       -12.88184        -5.80288
| 71>    C       -5.01925       -14.14830        -5.32597
| 72>    C       -4.53483       -15.31356        -6.11693
| 73>    O       -4.26224       -15.33057        -7.29427
| 74>    C       -4.38797       -16.40456        -5.12934
| 75>    C       -3.83434       -17.64252        -5.28774
| 76>    C       -3.75028       -18.50380        -4.17010
| 77>    C       -4.22781       -18.05954        -2.90191
| 78>    C       -4.11883       -18.91915        -1.79049
| 79>    C       -3.56911       -20.16222        -1.93060
| 80>    C       -3.10222       -20.60225        -3.18523
| 81>    C       -3.18983       -19.79145        -4.28183
| 82>    F       -2.56729       -21.82664        -3.29409
| 83>    F       -3.46822       -20.97783        -0.87164
| 84>    C       -4.80601       -16.77674        -2.76822
| 85>    C       -4.89592       -15.97207        -3.87060
| 86>    C       -5.46265       -14.63965        -4.03556
| 87>    C       -6.45365       -14.10531        -3.25747
| 88>    C       -7.15918       -12.93570        -3.60954
| 89>    N       -7.77895       -12.01246        -3.89566
| 90>    C       -6.92854       -14.69254        -2.06790
| 91>    N       -7.36332       -15.11644        -1.09388
| 92>    H       -1.82733         0.09463         9.43376
| 93>    H        0.48086         0.55369         5.07175
| 94>    H       -3.13616        -1.77450         8.57121
| 95>    H       -0.83988        -1.36152         4.16475
| 96>    H       -4.83339        -6.02523         5.37820
| 97>    H       -5.59518        -1.67338        -0.36135
| 98>    H       -3.84739        -1.53067        -0.18899
| 99>    H       -4.89579        -1.12038         1.18081
|100>    H       -4.91043       -15.18814         1.87280
|101>    H       -4.92951       -13.84895         3.93795
|102>    H       -4.59369        -6.71561        -7.68891
|103>    H       -5.19965        -5.94237        -6.20525
|104>    H       -6.31510        -6.75548        -7.32268
|105>    H       -4.65087       -12.78866        -6.86476
|106>    H       -3.46063       -17.96050        -6.24917
|107>    H       -4.47529       -18.59761        -0.82465
|108>    H       -2.82616       -20.14303        -5.23467
|109>    H       -5.13786       -16.43962        -1.79940
|110> *
|111>
|112>                          ****END OF INPUT****

CARTESIAN COORDINATES (ANGSTROEM)
---------------------------------
  C     -1.334040    0.180690    8.478190
  C     -0.382990    1.144610    8.293070
  F     -0.064420    1.977660    9.292680
  C      0.273170    1.275930    7.052880
  F      1.201910    2.229990    6.899060
  C     -0.031310    0.441140    6.014490
  C     -1.006960   -0.561870    6.173910
  C     -1.672220   -0.695150    7.426990
  C     -2.657650   -1.692800    7.608700
  C     -2.971300   -2.526010    6.567450
  C     -2.298200   -2.389550    5.321930
  C     -1.338000   -1.441330    5.119000
  C     -2.788730   -3.414100    4.377490
  O     -2.335210   -3.649520    3.279480
  C     -3.826520   -4.172090    5.123930
  C     -3.936230   -3.616330    6.454430
  C     -4.852380   -3.975290    7.409790
  C     -5.846560   -4.961490    7.237930
  N     -6.694760   -5.730980    7.159550
  C     -4.942530   -3.373110    8.681590
  N     -5.058090   -2.923190    9.731370
  C     -4.411970   -5.323820    4.668960
  C     -4.476730   -5.698930    3.314270
  C     -4.541300   -4.877240    2.188720
  C     -4.591700   -5.606370    0.974170
  S     -4.678390   -4.527940   -0.365940
  C     -4.691180   -3.181260    0.819340
  N     -4.629200   -3.532520    2.043230
  C     -4.766790   -1.790470    0.335370
  C     -4.584200   -6.983590    1.139240
  S     -4.551980   -7.382240    2.840280
  C     -4.589920   -7.992470    0.169730
  C     -4.587340   -9.370740    0.436070
  C     -4.566330  -10.155730   -0.758290
  N     -4.579490  -11.483850   -0.724540
  C     -4.615770  -12.049210    0.464930
  C     -4.645690  -13.532110    0.504880
  O     -4.535410  -14.213660   -0.494700
  C     -4.809520  -14.111880    1.846010
  C     -4.821910  -13.383470    2.967550
  C     -4.674470  -11.916650    2.996920
  O     -4.602520  -11.291710    4.032180
  C     -4.626740  -11.265040    1.661770
  N     -4.611400   -9.947270    1.636410
  C     -4.567570   -9.388590   -1.932810
  S     -4.586390   -7.699640   -1.550720
  C     -4.618290   -9.970290   -3.201760
  C     -4.808280   -9.407310   -4.460490
  C     -4.907170  -10.384400   -5.487580
  S     -5.185420   -9.605830   -7.000110
  C     -5.135400   -8.042810   -6.131890
  N     -4.938500   -8.122900   -4.870650
  C     -5.319810   -6.785200   -6.880270
  C     -4.816570  -11.693680   -5.045340
  S     -4.534930  -11.705210   -3.312550
  C     -4.856940  -12.881840   -5.802880
  C     -5.019250  -14.148300   -5.325970
  C     -4.534830  -15.313560   -6.116930
  O     -4.262240  -15.330570   -7.294270
  C     -4.387970  -16.404560   -5.129340
  C     -3.834340  -17.642520   -5.287740
  C     -3.750280  -18.503800   -4.170100
  C     -4.227810  -18.059540   -2.901910
  C     -4.118830  -18.919150   -1.790490
  C     -3.569110  -20.162220   -1.930600
  C     -3.102220  -20.602250   -3.185230
  C     -3.189830  -19.791450   -4.281830
  F     -2.567290  -21.826640   -3.294090
  F     -3.468220  -20.977830   -0.871640
  C     -4.806010  -16.776740   -2.768220
  C     -4.895920  -15.972070   -3.870600
  C     -5.462650  -14.639650   -4.035560
  C     -6.453650  -14.105310   -3.257470
  C     -7.159180  -12.935700   -3.609540
  N     -7.778950  -12.012460   -3.895660
  C     -6.928540  -14.692540   -2.067900
  N     -7.363320  -15.116440   -1.093880
  H     -1.827330    0.094630    9.433760
  H      0.480860    0.553690    5.071750
  H     -3.136160   -1.774500    8.571210
  H     -0.839880   -1.361520    4.164750
  H     -4.833390   -6.025230    5.378200
  H     -5.595180   -1.673380   -0.361350
  H     -3.847390   -1.530670   -0.188990
  H     -4.895790   -1.120380    1.180810
  H     -4.910430  -15.188140    1.872800
  H     -4.929510  -13.848950    3.937950
  H     -4.593690   -6.715610   -7.688910
  H     -5.199650   -5.942370   -6.205250
  H     -6.315100   -6.755480   -7.322680
  H     -4.650870  -12.788660   -6.864760
  H     -3.460630  -17.960500   -6.249170
  H     -4.475290  -18.597610   -0.824650
  H     -2.826160  -20.143030   -5.234670
  H     -5.137860  -16.439620   -1.799400

 Total Charge           Charge          ....    0
 Multiplicity           Mult            ....    1
 Number of Electrons    NEL             ....  558
 Basis Dimension        Dim             .... 1188

ORBITAL ENERGIES
----------------

  NO   OCC          E(Eh)            E(eV)
   0   2.0000     -89.010476     -2422.0982
   1   2.0000     -88.977571     -2421.2028
   2   2.0000     -88.974513     -2421.1196
   3   2.0000     -88.974037     -2421.1066
   4   2.0000     -88.973425     -2421.0900
   5   2.0000     -24.796508      -674.7473
   6   2.0000     -24.795277      -674.7138
   7   2.0000     -24.795244      -674.7129
   8   2.0000     -24.794880      -674.7030
   9   2.0000     -19.240502      -523.5607
  10   2.0000     -19.234443      -523.3958
  11   2.0000     -19.212804      -522.8070
  12   2.0000     -19.210152      -522.7348
  13   2.0000     -14.462723      -393.5507
  14   2.0000     -14.462110      -393.5340
  15   2.0000     -14.430117      -392.6635
  16   2.0000     -14.423891      -392.4940
  17   2.0000     -14.412296      -392.1785
  18   2.0000     -14.411324      -392.1521
  19   2.0000     -14.410831      -392.1386
  20   2.0000     -14.410480      -392.1291
  21   2.0000     -10.388109      -282.6748
  22   2.0000     -10.383842      -282.5587
  23   2.0000     -10.379181      -282.4319
  24   2.0000     -10.378121      -282.4030
  25   2.0000     -10.377720      -282.3921
  26   2.0000     -10.377396      -282.3833
  27   2.0000     -10.365247      -282.0527
  28   2.0000     -10.362770      -281.9853
  29   2.0000     -10.362089      -281.9668
  30   2.0000     -10.362036      -281.9653
  31   2.0000     -10.355025      -281.7745
  32   2.0000     -10.353314      -281.7280
  33   2.0000     -10.346044      -281.5302
  34   2.0000     -10.345296      -281.5098
  35   2.0000     -10.344676      -281.4929
  36   2.0000     -10.343833      -281.4700
  37   2.0000     -10.342855      -281.4434
  38   2.0000     -10.338936      -281.3367
  39   2.0000     -10.338373      -281.3214
  40   2.0000     -10.337226      -281.2902
  41   2.0000     -10.336834      -281.2796
  42   2.0000     -10.336791      -281.2784
  43   2.0000     -10.327874      -281.0357
  44   2.0000     -10.327377      -281.0222
  45   2.0000     -10.324868      -280.9539
  46   2.0000     -10.322650      -280.8936
  47   2.0000     -10.321146      -280.8527
  48   2.0000     -10.320573      -280.8371
  49   2.0000     -10.320540      -280.8362
  50   2.0000     -10.319151      -280.7984
  51   2.0000     -10.316186      -280.7177
  52   2.0000     -10.315387      -280.6959
  53   2.0000     -10.315274      -280.6929
  54   2.0000     -10.314204      -280.6638
  55   2.0000     -10.314009      -280.6584
  56   2.0000     -10.312947      -280.6295
  57   2.0000     -10.307572      -280.4833
  58   2.0000     -10.307178      -280.4726
  59   2.0000     -10.306395      -280.4513
  60   2.0000     -10.306077      -280.4426
  61   2.0000     -10.303646      -280.3764
  62   2.0000     -10.301956      -280.3305
  63   2.0000     -10.298822      -280.2452
  64   2.0000     -10.298787      -280.2442
  65   2.0000     -10.298743      -280.2430
  66   2.0000     -10.298335      -280.2319
  67   2.0000     -10.297839      -280.2184
  68   2.0000     -10.297815      -280.2178
  69   2.0000     -10.297143      -280.1995
  70   2.0000     -10.296941      -280.1940
  71   2.0000     -10.296771      -280.1894
  72   2.0000     -10.295238      -280.1477
  73   2.0000     -10.294393      -280.1247
  74   2.0000     -10.292815      -280.0817
  75   2.0000     -10.290297      -280.0132
  76   2.0000     -10.289186      -279.9830
  77   2.0000      -8.104072      -220.5230
  78   2.0000      -8.071656      -219.6409
  79   2.0000      -8.070453      -219.6082
  80   2.0000      -8.070312      -219.6044
  81   2.0000      -8.066477      -219.5000
  82   2.0000      -6.073207      -165.2604
  83   2.0000      -6.068959      -165.1448
  84   2.0000      -6.066773      -165.0853
  85   2.0000      -6.041225      -164.3901
  86   2.0000      -6.040033      -164.3576
  87   2.0000      -6.039781      -164.3508
  88   2.0000      -6.036826      -164.2704
  89   2.0000      -6.036186      -164.2530
  90   2.0000      -6.035871      -164.2444
  91   2.0000      -6.035749      -164.2411
  92   2.0000      -6.033389      -164.1769
  93   2.0000      -6.031837      -164.1346
  94   2.0000      -6.031704      -164.1310
  95   2.0000      -6.031635      -164.1291
  96   2.0000      -6.028118      -164.0334
  97   2.0000      -1.318720       -35.8842
  98   2.0000      -1.317691       -35.8562
  99   2.0000      -1.303865       -35.4800
 100   2.0000      -1.302886       -35.4533
 101   2.0000      -1.155051       -31.4305
 102   2.0000      -1.148898       -31.2631
 103   2.0000      -1.128469       -30.7072
 104   2.0000      -1.126313       -30.6485
 105   2.0000      -1.114685       -30.3321
 106   2.0000      -1.087561       -29.5940
 107   2.0000      -1.084601       -29.5135
 108   2.0000      -1.043197       -28.3868
 109   2.0000      -1.022047       -27.8113
 110   2.0000      -1.016418       -27.6581
 111   2.0000      -1.015881       -27.6435
 112   2.0000      -1.000745       -27.2316
 113   2.0000      -0.999743       -27.2044
 114   2.0000      -0.996903       -27.1271
 115   2.0000      -0.990948       -26.9651
 116   2.0000      -0.990051       -26.9407
 117   2.0000      -0.986117       -26.8336
 118   2.0000      -0.977605       -26.6020
 119   2.0000      -0.976524       -26.5726
 120   2.0000      -0.948457       -25.8088
 121   2.0000      -0.935743       -25.4629
 122   2.0000      -0.929822       -25.3017
 123   2.0000      -0.923583       -25.1320
 124   2.0000      -0.918084       -24.9823
 125   2.0000      -0.900448       -24.5024
 126   2.0000      -0.897689       -24.4273
 127   2.0000      -0.891918       -24.2703
 128   2.0000      -0.888896       -24.1881
 129   2.0000      -0.888166       -24.1682
 130   2.0000      -0.885522       -24.0963
 131   2.0000      -0.879948       -23.9446
 132   2.0000      -0.876997       -23.8643
 133   2.0000      -0.874343       -23.7921
 134   2.0000      -0.862017       -23.4567
 135   2.0000      -0.837392       -22.7866
 136   2.0000      -0.836527       -22.7631
 137   2.0000      -0.833277       -22.6746
 138   2.0000      -0.821779       -22.3618
 139   2.0000      -0.806659       -21.9503
 140   2.0000      -0.805340       -21.9144
 141   2.0000      -0.802438       -21.8355
 142   2.0000      -0.800181       -21.7740
 143   2.0000      -0.793574       -21.5943
 144   2.0000      -0.775409       -21.0999
 145   2.0000      -0.762869       -20.7587
 146   2.0000      -0.762215       -20.7409
 147   2.0000      -0.751734       -20.4557
 148   2.0000      -0.744852       -20.2685
 149   2.0000      -0.731145       -19.8955
 150   2.0000      -0.725743       -19.7485
 151   2.0000      -0.714485       -19.4421
 152   2.0000      -0.712820       -19.3968
 153   2.0000      -0.705286       -19.1918
 154   2.0000      -0.702543       -19.1172
 155   2.0000      -0.693079       -18.8596
 156   2.0000      -0.684537       -18.6272
 157   2.0000      -0.682149       -18.5622
 158   2.0000      -0.678017       -18.4498
 159   2.0000      -0.675336       -18.3768
 160   2.0000      -0.670800       -18.2534
 161   2.0000      -0.668597       -18.1934
 162   2.0000      -0.658355       -17.9148
 163   2.0000      -0.653106       -17.7719
 164   2.0000      -0.651180       -17.7195
 165   2.0000      -0.648831       -17.6556
 166   2.0000      -0.639568       -17.4035
 167   2.0000      -0.638909       -17.3856
 168   2.0000      -0.635686       -17.2979
 169   2.0000      -0.628955       -17.1147
 170   2.0000      -0.620989       -16.8980
 171   2.0000      -0.617971       -16.8159
 172   2.0000      -0.612674       -16.6717
 173   2.0000      -0.610600       -16.6153
 174   2.0000      -0.607323       -16.5261
 175   2.0000      -0.590677       -16.0731
 176   2.0000      -0.590114       -16.0578
 177   2.0000      -0.585066       -15.9205
 178   2.0000      -0.583284       -15.8720
 179   2.0000      -0.582345       -15.8464
 180   2.0000      -0.581610       -15.8264
 181   2.0000      -0.580159       -15.7869
 182   2.0000      -0.577495       -15.7144
 183   2.0000      -0.572763       -15.5857
 184   2.0000      -0.569738       -15.5034
 185   2.0000      -0.567359       -15.4386
 186   2.0000      -0.565061       -15.3761
 187   2.0000      -0.560497       -15.2519
 188   2.0000      -0.555660       -15.1203
 189   2.0000      -0.555155       -15.1065
 190   2.0000      -0.551197       -14.9988
 191   2.0000      -0.550895       -14.9906
 192   2.0000      -0.548192       -14.9171
 193   2.0000      -0.545072       -14.8322
 194   2.0000      -0.544224       -14.8091
 195   2.0000      -0.541736       -14.7414
 196   2.0000      -0.539846       -14.6899
 197   2.0000      -0.535971       -14.5845
 198   2.0000      -0.533283       -14.5114
 199   2.0000      -0.532610       -14.4930
 200   2.0000      -0.531641       -14.4667
 201   2.0000      -0.528602       -14.3840
 202   2.0000      -0.526809       -14.3352
 203   2.0000      -0.525046       -14.2872
 204   2.0000      -0.523684       -14.2502
 205   2.0000      -0.521958       -14.2032
 206   2.0000      -0.519259       -14.1298
 207   2.0000      -0.517454       -14.0806
 208   2.0000      -0.516818       -14.0633
 209   2.0000      -0.514731       -14.0066
 210   2.0000      -0.511643       -13.9225
 211   2.0000      -0.511173       -13.9097
 212   2.0000      -0.508701       -13.8425
 213   2.0000      -0.507158       -13.8005
 214   2.0000      -0.506509       -13.7828
 215   2.0000      -0.501209       -13.6386
 216   2.0000      -0.500650       -13.6234
 217   2.0000      -0.494986       -13.4692
 218   2.0000      -0.492985       -13.4148
 219   2.0000      -0.490273       -13.3410
 220   2.0000      -0.488749       -13.2995
 221   2.0000      -0.485060       -13.1991
 222   2.0000      -0.481966       -13.1150
 223   2.0000      -0.480594       -13.0776
 224   2.0000      -0.476012       -12.9530
 225   2.0000      -0.471296       -12.8246
 226   2.0000      -0.467862       -12.7312
 227   2.0000      -0.466061       -12.6822
 228   2.0000      -0.463894       -12.6232
 229   2.0000      -0.462938       -12.5972
 230   2.0000      -0.460795       -12.5389
 231   2.0000      -0.459613       -12.5067
 232   2.0000      -0.454680       -12.3725
 233   2.0000      -0.451925       -12.2975
 234   2.0000      -0.449206       -12.2235
 235   2.0000      -0.447058       -12.1651
 236   2.0000      -0.444886       -12.1060
 237   2.0000      -0.444516       -12.0959
 238   2.0000      -0.442733       -12.0474
 239   2.0000      -0.440377       -11.9833
 240   2.0000      -0.440213       -11.9788
 241   2.0000      -0.439660       -11.9638
 242   2.0000      -0.436403       -11.8751
 243   2.0000      -0.432773       -11.7764
 244   2.0000      -0.426558       -11.6072
 245   2.0000      -0.424377       -11.5479
 246   2.0000      -0.423475       -11.5233
 247   2.0000      -0.420838       -11.4516
 248   2.0000      -0.419949       -11.4274
 249   2.0000      -0.417449       -11.3594
 250   2.0000      -0.415858       -11.3161
 251   2.0000      -0.407002       -11.0751
 252   2.0000      -0.405162       -11.0250
 253   2.0000      -0.400089       -10.8870
 254   2.0000      -0.395914       -10.7734
 255   2.0000      -0.389695       -10.6042
 256   2.0000      -0.388198       -10.5634
 257   2.0000      -0.379897       -10.3375
 258   2.0000      -0.377490       -10.2720
 259   2.0000      -0.377284       -10.2664
 260   2.0000      -0.373946       -10.1756
 261   2.0000      -0.369209       -10.0467
 262   2.0000      -0.361101        -9.8261
 263   2.0000      -0.359598        -9.7852
 264   2.0000      -0.357848        -9.7375
 265   2.0000      -0.356530        -9.7017
 266   2.0000      -0.349442        -9.5088
 267   2.0000      -0.342183        -9.3113
 268   2.0000      -0.336702        -9.1621
 269   2.0000      -0.333799        -9.0831
 270   2.0000      -0.326893        -8.8952
 271   2.0000      -0.316825        -8.6212
 272   2.0000      -0.315848        -8.5947
 273   2.0000      -0.312808        -8.5119
 274   2.0000      -0.311910        -8.4875
 275   2.0000      -0.300154        -8.1676
 276   2.0000      -0.295870        -8.0510
 277   2.0000      -0.284621        -7.7449
 278   2.0000      -0.243586        -6.6283
 279   0.0000      -0.127630        -3.4730
 280   0.0000      -0.103080        -2.8050
 281   0.0000      -0.083844        -2.2815
 282   0.0000      -0.081632        -2.2213
 283   0.0000      -0.056345        -1.5332

MULLIKEN ATOMIC CHARGES
-----------------------
   0 C :   -0.106374
   1 C :    0.239874
   2 F :   -0.172208
   3 C :    0.237267
   4 F :   -0.174040
   5 C :   -0.106202
   6 C :    0.117225
   7 C :    0.111925
   8 C :   -0.085047
   9 C :    0.051372
  10 C :   -0.004254
  11 C :   -0.083416
  12 C :    0.152366
  13 O :   -0.144924
  14 C :   -0.090754
  15 C :    0.303497
  16 C :   -0.339740
  17 C :   -0.208202
  18 N :    0.163376
  19 C :   -0.182822
  20 N :    0.146611
  21 C :    0.015299
  22 C :   -0.177222
  23 C :    0.154402
  24 C :   -0.048237
  25 S :    0.093983
  26 C :   -0.183279
  27 N :   -0.005168
  28 C :    0.121354
  29 C :   -0.174111
  30 S :    0.231153
  31 C :   -0.145537
  32 C :    0.037056
  33 C :    0.024759
  34 N :    0.032716
  35 C :   -0.100560
  36 C :    0.167466
  37 O :   -0.119987
  38 C :   -0.013265
  39 C :   -0.011412
  40 C :    0.136572
  41 O :   -0.096883
  42 C :   -0.113591
  43 N :    0.053178
  44 C :   -0.117815
  45 S :    0.272355
  46 C :   -0.160621
  47 C :    0.080126
  48 C :    0.053987
  49 S :    0.117561
  50 C :   -0.193597
  51 N :   -0.031274
  52 C :    0.120716
  53 C :   -0.197454
  54 S :    0.194985
  55 C :    0.055550
  56 C :   -0.141478
  57 C :    0.140099
  58 O :   -0.141864
  59 C :    0.016211
  60 C :   -0.089641
  61 C :    0.113823
  62 C :    0.119170
  63 C :   -0.108818
  64 C :    0.241648
  65 C :    0.238367
  66 C :   -0.105829
  67 F :   -0.173683
  68 F :   -0.174268
  69 C :   -0.068930
  70 C :    0.028281
  71 C :    0.246230
  72 C :   -0.310867
  73 C :   -0.213757
  74 N :    0.167676
  75 C :   -0.168282
  76 N :    0.154802
  77 H :    0.006097
  78 H :   -0.003789
  79 H :   -0.006968
  80 H :   -0.016402
  81 H :    0.032754
  82 H :    0.040614
  83 H :    0.050226
  84 H :    0.047871
  85 H :    0.021395
  86 H :    0.024040
  87 H :    0.043713
  88 H :    0.043609
  89 H :    0.049587
  90 H :    0.018371
  91 H :   -0.011055
  92 H :   -0.000497
  93 H :   -0.002570
  94 H :   -0.004623
Sum of atomic charges:   -0.0000000

LOEWDIN ATOMIC CHARGES
----------------------
   0 C :   -0.029338
   1 C :    0.064789
   2 F :   -0.050167
   3 C :    0.066538
   4 F :   -0.051089
   5 C :   -0.035258
   6 C :   -0.009041
   7 C :   -0.007611
   8 C :    0.015733
   9 C :   -0.021801
  10 C :   -0.047634
  11 C :    0.024836
  12 C :    0.081328
  13 O :   -0.138604
  14 C :   -0.086383
  15 C :    0.072629
  16 C :   -0.138554
  17 C :   -0.024876
  18 N :   -0.049289
  19 C :   -0.017490
  20 N :   -0.055652
  21 C :    0.050262
  22 C :   -0.183887
  23 C :   -0.026369
  24 C :   -0.209251
  25 S :    0.361015
  26 C :   -0.075057
  27 N :   -0.076789
  28 C :   -0.064720
  29 C :   -0.186898
  30 S :    0.511447
  31 C :   -0.191108
  32 C :   -0.045362
  33 C :   -0.044982
  34 N :   -0.009549
  35 C :   -0.031687
  36 C :    0.068490
  37 O :   -0.104013
  38 C :   -0.008774
  39 C :   -0.006199
  40 C :    0.056210
  41 O :   -0.092416
  42 C :   -0.033960
  43 N :   -0.002908
  44 C :   -0.190746
  45 S :    0.541162
  46 C :   -0.168044
  47 C :   -0.065713
  48 C :   -0.176427
  49 S :    0.382598
  50 C :   -0.085644
  51 N :   -0.103609
  52 C :   -0.065630
  53 C :   -0.203632
  54 S :    0.538140
  55 C :    0.042375
  56 C :   -0.092043
  57 C :    0.082265
  58 O :   -0.144389
  59 C :   -0.053377
  60 C :    0.027257
  61 C :   -0.010078
  62 C :   -0.005587
  63 C :   -0.030842
  64 C :    0.065510
  65 C :    0.065047
  66 C :   -0.033333
  67 F :   -0.051562
  68 F :   -0.051557
  69 C :    0.019870
  70 C :   -0.016297
  71 C :    0.059709
  72 C :   -0.137876
  73 C :   -0.035812
  74 N :   -0.054607
  75 C :   -0.015034
  76 N :   -0.063431
  77 H :    0.047370
  78 H :    0.043506
  79 H :    0.039539
  80 H :    0.037866
  81 H :    0.047288
  82 H :    0.044026
  83 H :    0.049854
  84 H :    0.050673
  85 H :    0.047904
  86 H :    0.048391
  87 H :    0.045526
  88 H :    0.048606
  89 H :    0.048838
  90 H :    0.048190
  91 H :    0.039548
  92 H :    0.045292
  93 H :    0.043999
  94 H :    0.038358

  Mayer bond orders larger than 0.100000
B(  0-C ,  1-C ) :   1.4402 B(  0-C ,  5-C ) :   0.1092 B(  0-C ,  7-C ) :   1.1890
B(  0-C , 77-H ) :   1.0066 B(  1-C ,  2-F ) :   1.1333 B(  1-C ,  3-C ) :   1.1942
B(  3-C ,  4-F ) :   1.1308 B(  3-C ,  5-C ) :   1.4427 B(  5-C ,  6-C ) :   1.1909
B(  5-C , 78-H ) :   1.0068 B(  6-C ,  7-C ) :   1.2577 B(  6-C , 11-C ) :   1.1870
B(  7-C ,  8-C ) :   1.2150 B(  8-C ,  9-C ) :   1.4516 B(  8-C , 79-H ) :   0.9892
B(  9-C , 10-C ) :   1.2237 B(  9-C , 15-C ) :   0.9847 B( 10-C , 11-C ) :   1.4767
B( 10-C , 12-C ) :   0.9368 B( 11-C , 80-H ) :   1.0157 B( 12-C , 13-O ) :   2.2240
B( 12-C , 14-C ) :   0.9503 B( 14-C , 15-C ) :   1.0872 B( 14-C , 21-C ) :   1.5681
B( 15-C , 16-C ) :   1.6334 B( 16-C , 17-C ) :   1.1411 B( 16-C , 19-C ) :   1.1455
B( 17-C , 18-N ) :   2.9953 B( 19-C , 20-N ) :   2.9628 B( 21-C , 22-C ) :   1.2021
B( 21-C , 81-H ) :   0.9327 B( 22-C , 23-C ) :   1.3789 B( 22-C , 29-C ) :   0.1058
B( 22-C , 30-S ) :   1.0730 B( 23-C , 24-C ) :   1.2715 B( 23-C , 27-N ) :   1.2877
B( 24-C , 25-S ) :   1.0550 B( 24-C , 29-C ) :   1.4405 B( 25-S , 26-C ) :   1.0342
B( 25-S , 27-N ) :   0.1011 B( 26-C , 27-N ) :   1.8071 B( 26-C , 28-C ) :   1.0702
B( 28-C , 82-H ) :   0.9438 B( 28-C , 83-H ) :   0.9431 B( 28-C , 84-H ) :   0.9480
B( 29-C , 30-S ) :   1.1583 B( 29-C , 31-C ) :   1.2841 B( 31-C , 32-C ) :   1.2909
B( 31-C , 44-C ) :   0.1121 B( 31-C , 45-S ) :   1.1466 B( 32-C , 33-C ) :   1.2057
B( 32-C , 43-N ) :   1.4399 B( 33-C , 34-N ) :   1.4180 B( 33-C , 44-C ) :   1.2781
B( 34-N , 35-C ) :   1.6898 B( 35-C , 36-C ) :   0.9078 B( 35-C , 42-C ) :   1.1209
B( 36-C , 37-O ) :   2.1644 B( 36-C , 38-C ) :   1.0300 B( 38-C , 39-C ) :   1.6777
B( 38-C , 85-H ) :   0.9994 B( 39-C , 40-C ) :   1.0202 B( 39-C , 86-H ) :   0.9972
B( 40-C , 41-O ) :   2.2549 B( 40-C , 42-C ) :   0.8933 B( 42-C , 43-N ) :   1.6877
B( 44-C , 45-S ) :   1.1552 B( 44-C , 46-C ) :   1.3016 B( 46-C , 47-C ) :   1.3553
B( 46-C , 53-C ) :   0.1060 B( 46-C , 54-S ) :   1.1626 B( 47-C , 48-C ) :   1.2627
B( 47-C , 51-N ) :   1.3121 B( 48-C , 49-S ) :   1.0632 B( 48-C , 53-C ) :   1.4435
B( 49-S , 50-C ) :   1.0581 B( 50-C , 51-N ) :   1.7943 B( 50-C , 52-C ) :   1.0698
B( 52-C , 87-H ) :   0.9445 B( 52-C , 88-H ) :   0.9490 B( 52-C , 89-H ) :   0.9430
B( 53-C , 54-S ) :   1.0713 B( 53-C , 55-C ) :   1.1710 B( 55-C , 56-C ) :   1.6345
B( 55-C , 90-H ) :   0.9503 B( 56-C , 57-C ) :   0.9431 B( 56-C , 71-C ) :   1.0315
B( 57-C , 58-O ) :   2.2763 B( 57-C , 59-C ) :   0.9153 B( 59-C , 60-C ) :   1.4737
B( 59-C , 70-C ) :   1.2193 B( 60-C , 61-C ) :   1.1961 B( 60-C , 91-H ) :   1.0165
B( 61-C , 62-C ) :   1.2565 B( 61-C , 66-C ) :   1.1928 B( 62-C , 63-C ) :   1.1900
B( 62-C , 69-C ) :   1.2035 B( 63-C , 64-C ) :   1.4402 B( 63-C , 66-C ) :   0.1092
B( 63-C , 92-H ) :   1.0079 B( 64-C , 65-C ) :   1.1927 B( 64-C , 68-F ) :   1.1306
B( 65-C , 66-C ) :   1.4442 B( 65-C , 67-F ) :   1.1317 B( 66-C , 93-H ) :   1.0069
B( 69-C , 70-C ) :   1.4715 B( 69-C , 94-H ) :   0.9909 B( 70-C , 71-C ) :   1.0004
B( 71-C , 72-C ) :   1.6649 B( 72-C , 73-C ) :   1.1518 B( 72-C , 75-C ) :   1.1486
B( 73-C , 74-N ) :   3.0252 B( 75-C , 76-N ) :   2.9775

-----------------------------------------------------------------------------
         ABSORPTION SPECTRUM VIA TRANSITION ELECTRIC DIPOLE MOMENTS
-----------------------------------------------------------------------------
State   Energy  Wavelength   fosc         T2         TX        TY        TZ
        (cm-1)    (nm)                  (au**2)     (au)      (au)      (au)
-----------------------------------------------------------------------------
   0    9806.8   1019.7   0.834815546  28.02455   0.51901   3.65413   3.79507
   1   15197.8    658.0   0.092191433   1.99704   0.00330  -1.29262  -0.57109
   2   18583.5    538.1   0.426731097   7.55964  -0.42396  -2.33556  -1.38747
   3   19137.5    522.5   0.020805977   0.35791  -0.31230  -0.10494   0.49937
   4   20119.2    497.0   0.258753962   4.23401   0.05946  -0.15532   2.05094
   5   21981.8    454.9   0.020797546   0.31148   0.35311  -0.36895   0.22508
   6   23202.7    431.0   0.006101795   0.08658  -0.04002  -0.04452   0.28808
   7   23702.1    421.9   0.027687960   0.38457   0.10909   0.61047  -0.00034
   8   24644.5    405.8   0.004083428   0.05455  -0.22964   0.04198  -0.00717
   9   24716.9    404.6   0.009430227   0.12560  -0.09475   0.15980  -0.30181
  10   25066.4    398.9   0.070944065   0.93175  -0.22079  -0.86539   0.36620
  11   25456.4    392.8   0.004248543   0.05494  -0.05926  -0.18642   0.12916
  12   25816.9    387.3   0.012313534   0.15702   0.09985   0.25884  -0.28293
  13   26055.6    383.8   0.004021251   0.05081   0.16029   0.15675   0.02335
  14   26489.2    377.5   0.085563119   1.06339  -0.13044  -0.76723  -0.67656
  15   26556.1    376.6   0.101805235   1.26206   0.36134   0.93069   0.51508
  16   26946.2    371.1   0.078976494   0.96489  -0.81103   0.37896   0.40436
  17   27310.2    366.2   0.031389025   0.37838   0.39569   0.12098  -0.45517
  18   27800.2    359.7   0.027026940   0.32006   0.14735   0.37321  -0.39882
  19   28238.1    354.1   0.041223288   0.48060  -0.26400  -0.54109  -0.34369
  20   28520.6    350.6   0.204560678   2.36124   0.11155  -1.34917  -0.72700
  21   29274.5    341.6   0.073779461   0.82970   0.59887   0.56564  -0.38873
  22   29779.2    335.8   0.006689790   0.07396  -0.04793  -0.03825  -0.26495
  23   30039.8    332.9   0.006710907   0.07355  -0.26715   0.04323  -0.01748
  24   30682.2    325.9   0.274349382   2.94370  -0.13121  -1.16286   1.25469
  25   31078.8    321.8   0.062468517   0.66172  -0.54899   0.49803  -0.33510
  26   31267.1    319.8   0.125418705   1.32054  -0.22976   0.38584  -1.05777
  27   31486.1    317.6   0.058578863   0.61249  -0.61564   0.48318   0.00259
  28   31592.7    316.5   0.092641424   0.96537  -0.07310   0.97958   0.02141
  29   31706.4    315.4   0.022127777   0.22976   0.25390   0.37690  -0.15244
  30   31912.8    313.4   0.054277189   0.55992   0.04463  -0.44249   0.60178
  31   32140.6    311.1   0.048588270   0.49768   0.51542   0.40530   0.26031
  32   32273.5    309.9   0.149039357   1.52030   0.19211   1.07957  -0.56384
  33   32536.2    307.4   0.053087660   0.53716   0.41012   0.21519   0.56802
  34   32777.4    305.1   0.057596766   0.57849   0.07511  -0.74934   0.10648
  35   32979.7    303.2   0.019373914   0.19340  -0.24395  -0.33163  -0.15460
  36   33166.5    301.5   0.036005466   0.35739  -0.21436  -0.55449   0.06316
  37   33305.8    300.2   0.146155343   1.44468   0.88453  -0.30479   0.75458
  38   33459.3    298.9   0.089639511   0.88198   0.23245   0.89279  -0.17571
  39   33651.2    297.2   0.038056033   0.37230   0.37560   0.19438   0.43982
  40   33930.7    294.7   0.004506180   0.04372   0.20622  -0.00624   0.03401
  41   34127.2    293.0   0.096357041   0.92952  -0.19254  -0.93555   0.13115
  42   34491.7    289.9   0.205879017   1.96505  -0.79985   1.06784   0.43012
  43   34656.5    288.5   0.045449930   0.43174   0.27746  -0.59388   0.04542
  44   34755.8    287.7   0.151689192   1.43682   0.79969   0.83173  -0.32488
  45   34948.4    286.1   0.074564593   0.70239   0.77031   0.31856   0.08681
  46   35411.2    282.4   0.166542958   1.54832   0.66999  -1.04847   0.01244
  47   35591.2    281.0   0.123409061   1.14151   0.09000   0.88568  -0.59075
  48   35696.7    280.1   0.148097775   1.36583  -0.34937  -1.08536   0.25646
  49   35924.6    278.4   0.213612853   1.95754   1.12393  -0.76120  -0.33896
  50   36324.8    275.3   0.167824659   1.52100  -0.11590   1.04693   0.64148
  51   36505.0    273.9   0.052102950   0.46988  -0.67722   0.09164  -0.05339
  52   36609.2    273.2   0.056377101   0.50698  -0.46696   0.53737   0.01271
  53   36650.2    272.8   0.060584150   0.54420  -0.05565   0.72264  -0.13748
  54   36987.9    270.4   0.001412093   0.01257   0.03048  -0.09464   0.05179
  55   37211.3    268.7   0.082997751   0.73429   0.04855   0.79364  -0.31949
  56   37424.4    267.2   0.029604580   0.26042  -0.19848  -0.38407   0.27114
  57   37611.3    265.9   0.017867385   0.15639  -0.17518   0.35230   0.03991
  58   37723.0    265.1   0.191431701   1.67064  -0.72797  -0.78084   0.72869
  59   38078.2    262.6   0.004607549   0.03984  -0.05373  -0.18659   0.04617
  60   38126.0    262.3   0.205605303   1.77537  -0.14115  -1.12453   0.70062
  61   38366.1    260.6   0.062978223   0.54040   0.13689   0.51113  -0.51030
  62   38621.4    258.9   0.042174798   0.35950   0.16164   0.54646  -0.18643
  63   38810.5    257.7   0.040901319   0.34695   0.10898  -0.56860  -0.10848
  64   38976.1    256.6   0.107625448   0.90906   0.26012   0.42930  -0.81062
  65   39047.3    256.1   0.027581772   0.23254  -0.05595  -0.42816   0.21469
  66   39440.0    253.5   0.094650194   0.79006  -0.05340   0.57296  -0.67744
  67   39541.2    252.9   0.010017751   0.08341   0.16902   0.22500  -0.06489
  68   39783.9    251.4   0.009984609   0.08262  -0.19108  -0.16922   0.13219
  69   39937.4    250.4   0.127341524   1.04970   0.08973   0.71295  -0.73031
  70   40041.9    249.7   0.044008526   0.36182   0.14603   0.24473  -0.52972
  71   40123.4    249.2   0.031662711   0.25979  -0.48192  -0.09708  -0.13462

FINAL SINGLE POINT ENERGY     -5269.318613952766

DIPOLE MOMENT
-------------
                                X             Y             Z
Electronic contribution:      9.56035     -16.13485      15.84702
Nuclear contribution   :     -7.67260      17.46056     -19.06665
                        -----------------------------------------
Total Dipole Moment    :      1.88775       1.32571      -3.21964
                        -----------------------------------------
Magnitude (a.u.)       :      3.96070
Magnitude (Debye)      :     10.06730

Rotational constants in cm-1:     0.001505     0.000276     0.000249
Rotational constants in MHz :    45.105014     8.272818     7.453251

                             ****ORCA TERMINATED NORMALLY****
TOTAL RUN TIME: 0 days 0 hours 12 minutes 3 seconds 512 msec
