                         Program Version 4.2.0 -  RELEASE  -
|  1> # ORCA input file
|  2> # SCF done       -224.413189194146          0.000279517408
|  3> ! CAM-B3LYP def2-SVP def2/J RIJCOSX Grid4 TightSCF
|  4> %maxcore 5000
|  5> %tddft
|  6>     Mode sTDDFT
|  7>     Ethresh 5.0
|  8>     maxcore 5000
|  9> end
| 10>
| 11> %pal
| 12>   nprocs 6
| 13>   end
| 14> * xyz 0 1
| 15>    C        6.97047        -5.02502        -0.52313
| 16>    C        7.96409        -5.88080        -0.90706
| 17>    F        9.24855        -5.54099        -0.73841
| 18>    C        7.65303        -7.12882        -1.48413
| 19>    F        8.64784        -7.94768        -1.85148
| 20>    C        6.35193        -7.50339        -1.66920
| 21>    C        5.30506        -6.64279        -1.28529
| 22>    C        5.61789        -5.38101        -0.70099
| 23>    C        4.58441        -4.50036        -0.30978
| 24>    C        3.27713        -4.87088        -0.49362
| 25>    C        2.97487        -6.13348        -1.07581
| 26>    C        3.95168        -7.00128        -1.47033
| 27>    C        1.51119        -6.28728        -1.18028
| 28>    O        0.91492        -7.13785        -1.80124
| 29>    C        0.93815        -5.09124        -0.50086
| 30>    C        2.02710        -4.17954        -0.19028
| 31>    C        1.91986        -2.90936         0.30749
| 32>    C        0.70569        -2.23572         0.56140
| 33>    N       -0.23812        -1.61939         0.77837
| 34>    C        3.02241        -2.08057         0.60752
| 35>    N        3.87580        -1.35900         0.86850
| 36>    C       -0.38742        -4.91349        -0.27952
| 37>    C       -1.36142        -5.97535        -0.35745
| 38>    C       -2.63785        -5.76382        -0.87239
| 39>    O       -2.93692        -4.53527        -1.41525
| 40>    C       -2.22495        -4.17223        -2.58325
| 41>    C       -3.63349        -6.78534        -0.85874
| 42>    O       -4.91369        -6.64694        -1.25167
| 43>    C       -5.43479        -5.44753        -1.78304
| 44>    C       -3.32547        -8.05318        -0.36210
| 45>    C       -2.04674        -8.28516         0.17568
| 46>    C       -1.06261        -7.24288         0.19423
| 47>    N        0.06639        -7.62388         0.78554
| 48>    S       -0.08302        -9.16567         1.21882
| 49>    N       -1.58200        -9.41926         0.70260
| 50>    C       -4.28588        -9.14990        -0.40926
| 51>    C       -4.56501        -9.91357         0.73467
| 52>    C       -5.39920       -11.08217         0.67059
| 53>    N       -5.62959       -11.81466         1.78843
| 54>    C       -5.09346       -11.42068         2.90149
| 55>    C       -4.31509       -10.23634         2.97516
| 56>    N       -4.06548        -9.51152         1.92862
| 57>    C       -5.99828       -11.49279        -0.53063
| 58>    C       -5.76337       -10.70440        -1.66015
| 59>    C       -4.90518        -9.54025        -1.60115
| 60>    N       -4.75800        -8.97698        -2.80822
| 61>    S       -5.61053        -9.81018        -3.87267
| 62>    N       -6.19351       -10.94112        -2.90667
| 63>    C       -6.90694       -12.63672        -0.54740
| 64>    C       -6.59413       -13.89787        -0.06911
| 65>    O       -5.32167       -14.31803         0.17748
| 66>    C       -4.23320       -13.74101        -0.50765
| 67>    C       -7.61345       -14.88919         0.13725
| 68>    O       -7.39703       -16.10070         0.68173
| 69>    C       -6.19116       -16.48032         1.31718
| 70>    C       -8.93200       -14.67366        -0.29296
| 71>    C       -9.21520       -13.43454        -0.92810
| 72>    C       -8.22643       -12.40293        -1.00133
| 73>    N       -8.70902       -11.27768        -1.52021
| 74>    S      -10.25218       -11.51333        -1.90916
| 75>    N      -10.38598       -13.04300        -1.41739
| 76>    C       -9.99973       -15.61820        -0.22674
| 77>    C      -10.25699       -16.68226         0.58316
| 78>    C      -11.25362       -17.69178         0.12499
| 79>    O      -12.01527       -17.59270        -0.80831
| 80>    C      -11.07298       -18.85499         1.02033
| 81>    C      -11.66006       -20.08505         0.95879
| 82>    C      -11.30800       -21.06311         1.91661
| 83>    C      -10.34901       -20.74354         2.92082
| 84>    C       -9.99628       -21.72573         3.86795
| 85>    C      -10.57018       -22.96511         3.82206
| 86>    C      -11.51975       -23.27926         2.82991
| 87>    C      -11.88217       -22.34890         1.89658
| 88>    F      -12.06583       -24.50362         2.80803
| 89>    F      -10.23230       -23.89730         4.72418
| 90>    C       -9.76506       -19.45635         2.96441
| 91>    C      -10.12506       -18.52364         2.02909
| 92>    C       -9.71484       -17.13405         1.84026
| 93>    C       -9.09908       -16.35492         2.78615
| 94>    C       -8.95017       -14.95980         2.66888
| 95>    N       -8.82225       -13.82022         2.61936
| 96>    C       -8.59227       -16.84712         4.00455
| 97>    N       -8.12897       -17.20156         4.99387
| 98>    H        7.22605        -4.07357        -0.08349
| 99>    H        6.13036        -8.46140        -2.11286
|100>    H        4.85478        -3.55282         0.12729
|101>    H        3.69380        -7.95070        -1.91428
|102>    H       -0.77201        -3.94804         0.02663
|103>    H       -2.52213        -4.80178        -3.42979
|104>    H       -1.14329        -4.25135        -2.44768
|105>    H       -2.49298        -3.13668        -2.78354
|106>    H       -5.28663        -4.60342        -1.10777
|107>    H       -6.50116        -5.64027        -1.90188
|108>    H       -5.00237        -5.21676        -2.75919
|109>    H       -5.29061       -12.02372         3.77729
|110>    H       -3.91997        -9.88397         3.91858
|111>    H       -3.79824       -12.90622         0.04706
|112>    H       -4.51924       -13.40339        -1.50626
|113>    H       -3.48736       -14.53373        -0.59103
|114>    H       -5.85621       -15.72634         2.03007
|115>    H       -5.39952       -16.67651         0.59288
|116>    H       -6.43204       -17.40438         1.84533
|117>    H      -10.74262       -15.47215        -1.00773
|118>    H      -12.38268       -20.31098         0.18948
|119>    H       -9.27343       -21.50100         4.63665
|120>    H      -12.61057       -22.60493         1.14320
|121>    H       -9.04020       -19.24364         3.73409
|122> *
|123>
|124>                          ****END OF INPUT****

CARTESIAN COORDINATES (ANGSTROEM)
---------------------------------
  C      6.970470   -5.025020   -0.523130
  C      7.964090   -5.880800   -0.907060
  F      9.248550   -5.540990   -0.738410
  C      7.653030   -7.128820   -1.484130
  F      8.647840   -7.947680   -1.851480
  C      6.351930   -7.503390   -1.669200
  C      5.305060   -6.642790   -1.285290
  C      5.617890   -5.381010   -0.700990
  C      4.584410   -4.500360   -0.309780
  C      3.277130   -4.870880   -0.493620
  C      2.974870   -6.133480   -1.075810
  C      3.951680   -7.001280   -1.470330
  C      1.511190   -6.287280   -1.180280
  O      0.914920   -7.137850   -1.801240
  C      0.938150   -5.091240   -0.500860
  C      2.027100   -4.179540   -0.190280
  C      1.919860   -2.909360    0.307490
  C      0.705690   -2.235720    0.561400
  N     -0.238120   -1.619390    0.778370
  C      3.022410   -2.080570    0.607520
  N      3.875800   -1.359000    0.868500
  C     -0.387420   -4.913490   -0.279520
  C     -1.361420   -5.975350   -0.357450
  C     -2.637850   -5.763820   -0.872390
  O     -2.936920   -4.535270   -1.415250
  C     -2.224950   -4.172230   -2.583250
  C     -3.633490   -6.785340   -0.858740
  O     -4.913690   -6.646940   -1.251670
  C     -5.434790   -5.447530   -1.783040
  C     -3.325470   -8.053180   -0.362100
  C     -2.046740   -8.285160    0.175680
  C     -1.062610   -7.242880    0.194230
  N      0.066390   -7.623880    0.785540
  S     -0.083020   -9.165670    1.218820
  N     -1.582000   -9.419260    0.702600
  C     -4.285880   -9.149900   -0.409260
  C     -4.565010   -9.913570    0.734670
  C     -5.399200  -11.082170    0.670590
  N     -5.629590  -11.814660    1.788430
  C     -5.093460  -11.420680    2.901490
  C     -4.315090  -10.236340    2.975160
  N     -4.065480   -9.511520    1.928620
  C     -5.998280  -11.492790   -0.530630
  C     -5.763370  -10.704400   -1.660150
  C     -4.905180   -9.540250   -1.601150
  N     -4.758000   -8.976980   -2.808220
  S     -5.610530   -9.810180   -3.872670
  N     -6.193510  -10.941120   -2.906670
  C     -6.906940  -12.636720   -0.547400
  C     -6.594130  -13.897870   -0.069110
  O     -5.321670  -14.318030    0.177480
  C     -4.233200  -13.741010   -0.507650
  C     -7.613450  -14.889190    0.137250
  O     -7.397030  -16.100700    0.681730
  C     -6.191160  -16.480320    1.317180
  C     -8.932000  -14.673660   -0.292960
  C     -9.215200  -13.434540   -0.928100
  C     -8.226430  -12.402930   -1.001330
  N     -8.709020  -11.277680   -1.520210
  S    -10.252180  -11.513330   -1.909160
  N    -10.385980  -13.043000   -1.417390
  C     -9.999730  -15.618200   -0.226740
  C    -10.256990  -16.682260    0.583160
  C    -11.253620  -17.691780    0.124990
  O    -12.015270  -17.592700   -0.808310
  C    -11.072980  -18.854990    1.020330
  C    -11.660060  -20.085050    0.958790
  C    -11.308000  -21.063110    1.916610
  C    -10.349010  -20.743540    2.920820
  C     -9.996280  -21.725730    3.867950
  C    -10.570180  -22.965110    3.822060
  C    -11.519750  -23.279260    2.829910
  C    -11.882170  -22.348900    1.896580
  F    -12.065830  -24.503620    2.808030
  F    -10.232300  -23.897300    4.724180
  C     -9.765060  -19.456350    2.964410
  C    -10.125060  -18.523640    2.029090
  C     -9.714840  -17.134050    1.840260
  C     -9.099080  -16.354920    2.786150
  C     -8.950170  -14.959800    2.668880
  N     -8.822250  -13.820220    2.619360
  C     -8.592270  -16.847120    4.004550
  N     -8.128970  -17.201560    4.993870
  H      7.226050   -4.073570   -0.083490
  H      6.130360   -8.461400   -2.112860
  H      4.854780   -3.552820    0.127290
  H      3.693800   -7.950700   -1.914280
  H     -0.772010   -3.948040    0.026630
  H     -2.522130   -4.801780   -3.429790
  H     -1.143290   -4.251350   -2.447680
  H     -2.492980   -3.136680   -2.783540
  H     -5.286630   -4.603420   -1.107770
  H     -6.501160   -5.640270   -1.901880
  H     -5.002370   -5.216760   -2.759190
  H     -5.290610  -12.023720    3.777290
  H     -3.919970   -9.883970    3.918580
  H     -3.798240  -12.906220    0.047060
  H     -4.519240  -13.403390   -1.506260
  H     -3.487360  -14.533730   -0.591030
  H     -5.856210  -15.726340    2.030070
  H     -5.399520  -16.676510    0.592880
  H     -6.432040  -17.404380    1.845330
  H    -10.742620  -15.472150   -1.007730
  H    -12.382680  -20.310980    0.189480
  H     -9.273430  -21.501000    4.636650
  H    -12.610570  -22.604930    1.143200
  H     -9.040200  -19.243640    3.734090

 Total Charge           Charge          ....    0
 Multiplicity           Mult            ....    1
 Number of Electrons    NEL             ....  588
 Basis Dimension        Dim             .... 1294

ORBITAL ENERGIES
----------------

  NO   OCC          E(Eh)            E(eV)
   0   2.0000     -89.033147     -2422.7151
   1   2.0000     -89.019047     -2422.3314
   2   2.0000     -89.008423     -2422.0423
   3   2.0000     -24.802148      -674.9008
   4   2.0000     -24.800671      -674.8606
   5   2.0000     -24.793480      -674.6649
   6   2.0000     -24.793250      -674.6586
   7   2.0000     -19.271326      -524.3995
   8   2.0000     -19.260991      -524.1182
   9   2.0000     -19.259289      -524.0719
  10   2.0000     -19.255697      -523.9741
  11   2.0000     -19.218886      -522.9725
  12   2.0000     -19.207088      -522.6514
  13   2.0000     -14.437507      -392.8646
  14   2.0000     -14.437329      -392.8597
  15   2.0000     -14.433958      -392.7680
  16   2.0000     -14.431425      -392.6990
  17   2.0000     -14.425997      -392.5513
  18   2.0000     -14.425736      -392.5442
  19   2.0000     -14.425331      -392.5332
  20   2.0000     -14.425295      -392.5322
  21   2.0000     -14.422998      -392.4697
  22   2.0000     -14.421860      -392.4388
  23   2.0000     -14.412997      -392.1976
  24   2.0000     -14.408308      -392.0700
  25   2.0000     -10.385440      -282.6022
  26   2.0000     -10.384470      -282.5758
  27   2.0000     -10.375977      -282.3447
  28   2.0000     -10.375656      -282.3360
  29   2.0000     -10.370882      -282.2061
  30   2.0000     -10.367575      -282.1161
  31   2.0000     -10.361415      -281.9484
  32   2.0000     -10.359155      -281.8869
  33   2.0000     -10.358654      -281.8733
  34   2.0000     -10.357353      -281.8379
  35   2.0000     -10.350235      -281.6442
  36   2.0000     -10.348002      -281.5835
  37   2.0000     -10.334191      -281.2076
  38   2.0000     -10.333867      -281.1988
  39   2.0000     -10.330199      -281.0990
  40   2.0000     -10.329980      -281.0931
  41   2.0000     -10.326574      -281.0004
  42   2.0000     -10.325688      -280.9762
  43   2.0000     -10.325392      -280.9682
  44   2.0000     -10.325047      -280.9588
  45   2.0000     -10.324354      -280.9400
  46   2.0000     -10.323795      -280.9247
  47   2.0000     -10.323462      -280.9157
  48   2.0000     -10.323189      -280.9083
  49   2.0000     -10.322717      -280.8954
  50   2.0000     -10.322420      -280.8873
  51   2.0000     -10.322138      -280.8797
  52   2.0000     -10.321687      -280.8674
  53   2.0000     -10.319812      -280.8164
  54   2.0000     -10.315989      -280.7123
  55   2.0000     -10.315187      -280.6905
  56   2.0000     -10.314860      -280.6816
  57   2.0000     -10.314607      -280.6747
  58   2.0000     -10.314269      -280.6655
  59   2.0000     -10.311899      -280.6010
  60   2.0000     -10.309507      -280.5359
  61   2.0000     -10.306736      -280.4605
  62   2.0000     -10.305813      -280.4354
  63   2.0000     -10.305670      -280.4315
  64   2.0000     -10.304818      -280.4084
  65   2.0000     -10.304788      -280.4075
  66   2.0000     -10.304703      -280.4052
  67   2.0000     -10.304504      -280.3998
  68   2.0000     -10.304163      -280.3905
  69   2.0000     -10.304104      -280.3889
  70   2.0000     -10.302673      -280.3500
  71   2.0000     -10.302366      -280.3416
  72   2.0000     -10.300489      -280.2906
  73   2.0000     -10.299746      -280.2703
  74   2.0000     -10.296569      -280.1839
  75   2.0000     -10.296113      -280.1715
  76   2.0000     -10.296076      -280.1705
  77   2.0000     -10.296030      -280.1692
  78   2.0000     -10.295333      -280.1503
  79   2.0000     -10.295287      -280.1490
  80   2.0000     -10.292380      -280.0699
  81   2.0000     -10.286322      -279.9051
  82   2.0000     -10.285976      -279.8956
  83   2.0000      -8.124526      -221.0796
  84   2.0000      -8.110747      -220.7047
  85   2.0000      -8.100414      -220.4235
  86   2.0000      -6.095396      -165.8642
  87   2.0000      -6.087767      -165.6566
  88   2.0000      -6.087635      -165.6530
  89   2.0000      -6.082013      -165.5000
  90   2.0000      -6.074297      -165.2900
  91   2.0000      -6.073071      -165.2567
  92   2.0000      -6.071804      -165.2222
  93   2.0000      -6.064079      -165.0120
  94   2.0000      -6.062405      -164.9664
  95   2.0000      -1.324403       -36.0388
  96   2.0000      -1.315900       -35.8075
  97   2.0000      -1.309488       -35.6330
  98   2.0000      -1.301114       -35.4051
  99   2.0000      -1.181519       -32.1508
 100   2.0000      -1.172806       -31.9137
 101   2.0000      -1.156635       -31.4736
 102   2.0000      -1.151594       -31.3365
 103   2.0000      -1.135327       -30.8938
 104   2.0000      -1.127397       -30.6780
 105   2.0000      -1.122360       -30.5410
 106   2.0000      -1.119044       -30.4507
 107   2.0000      -1.112271       -30.2664
 108   2.0000      -1.083169       -29.4745
 109   2.0000      -1.025330       -27.9006
 110   2.0000      -1.012879       -27.5618
 111   2.0000      -1.009342       -27.4656
 112   2.0000      -1.009069       -27.4582
 113   2.0000      -1.000797       -27.2331
 114   2.0000      -0.998225       -27.1631
 115   2.0000      -0.989788       -26.9335
 116   2.0000      -0.986800       -26.8522
 117   2.0000      -0.982373       -26.7317
 118   2.0000      -0.977662       -26.6035
 119   2.0000      -0.974399       -26.5147
 120   2.0000      -0.972694       -26.4683
 121   2.0000      -0.967059       -26.3150
 122   2.0000      -0.960575       -26.1386
 123   2.0000      -0.947048       -25.7705
 124   2.0000      -0.935355       -25.4523
 125   2.0000      -0.923863       -25.1396
 126   2.0000      -0.910893       -24.7867
 127   2.0000      -0.899698       -24.4820
 128   2.0000      -0.896990       -24.4083
 129   2.0000      -0.891437       -24.2572
 130   2.0000      -0.887105       -24.1394
 131   2.0000      -0.881194       -23.9785
 132   2.0000      -0.870305       -23.6822
 133   2.0000      -0.867542       -23.6070
 134   2.0000      -0.864360       -23.5204
 135   2.0000      -0.860714       -23.4212
 136   2.0000      -0.847379       -23.0584
 137   2.0000      -0.844397       -22.9772
 138   2.0000      -0.836002       -22.7488
 139   2.0000      -0.834167       -22.6988
 140   2.0000      -0.816762       -22.2252
 141   2.0000      -0.810364       -22.0511
 142   2.0000      -0.800897       -21.7935
 143   2.0000      -0.789429       -21.4814
 144   2.0000      -0.786798       -21.4099
 145   2.0000      -0.781083       -21.2544
 146   2.0000      -0.777688       -21.1620
 147   2.0000      -0.771664       -20.9980
 148   2.0000      -0.758519       -20.6404
 149   2.0000      -0.750979       -20.4352
 150   2.0000      -0.745704       -20.2916
 151   2.0000      -0.737710       -20.0741
 152   2.0000      -0.729356       -19.8468
 153   2.0000      -0.720892       -19.6165
 154   2.0000      -0.718631       -19.5549
 155   2.0000      -0.711154       -19.3515
 156   2.0000      -0.707858       -19.2618
 157   2.0000      -0.705706       -19.2032
 158   2.0000      -0.699374       -19.0309
 159   2.0000      -0.694014       -18.8851
 160   2.0000      -0.693692       -18.8763
 161   2.0000      -0.689741       -18.7688
 162   2.0000      -0.684164       -18.6170
 163   2.0000      -0.676126       -18.3983
 164   2.0000      -0.671541       -18.2736
 165   2.0000      -0.662450       -18.0262
 166   2.0000      -0.654655       -17.8141
 167   2.0000      -0.651988       -17.7415
 168   2.0000      -0.648115       -17.6361
 169   2.0000      -0.646578       -17.5943
 170   2.0000      -0.643460       -17.5094
 171   2.0000      -0.638986       -17.3877
 172   2.0000      -0.635952       -17.3051
 173   2.0000      -0.633194       -17.2301
 174   2.0000      -0.624316       -16.9885
 175   2.0000      -0.622617       -16.9423
 176   2.0000      -0.619686       -16.8625
 177   2.0000      -0.616964       -16.7884
 178   2.0000      -0.616108       -16.7651
 179   2.0000      -0.611452       -16.6385
 180   2.0000      -0.610110       -16.6019
 181   2.0000      -0.606212       -16.4959
 182   2.0000      -0.601299       -16.3622
 183   2.0000      -0.595151       -16.1949
 184   2.0000      -0.588964       -16.0265
 185   2.0000      -0.582544       -15.8518
 186   2.0000      -0.581105       -15.8127
 187   2.0000      -0.580774       -15.8037
 188   2.0000      -0.580454       -15.7950
 189   2.0000      -0.576791       -15.6953
 190   2.0000      -0.573800       -15.6139
 191   2.0000      -0.572096       -15.5675
 192   2.0000      -0.567751       -15.4493
 193   2.0000      -0.560749       -15.2588
 194   2.0000      -0.559457       -15.2236
 195   2.0000      -0.557925       -15.1819
 196   2.0000      -0.555734       -15.1223
 197   2.0000      -0.551626       -15.0105
 198   2.0000      -0.550546       -14.9811
 199   2.0000      -0.549331       -14.9480
 200   2.0000      -0.548937       -14.9373
 201   2.0000      -0.546970       -14.8838
 202   2.0000      -0.545704       -14.8494
 203   2.0000      -0.542887       -14.7727
 204   2.0000      -0.542495       -14.7620
 205   2.0000      -0.541789       -14.7428
 206   2.0000      -0.540493       -14.7076
 207   2.0000      -0.535956       -14.5841
 208   2.0000      -0.535666       -14.5762
 209   2.0000      -0.533110       -14.5067
 210   2.0000      -0.532467       -14.4892
 211   2.0000      -0.529980       -14.4215
 212   2.0000      -0.526263       -14.3203
 213   2.0000      -0.524946       -14.2845
 214   2.0000      -0.523693       -14.2504
 215   2.0000      -0.522309       -14.2128
 216   2.0000      -0.518976       -14.1220
 217   2.0000      -0.517263       -14.0754
 218   2.0000      -0.515321       -14.0226
 219   2.0000      -0.512806       -13.9542
 220   2.0000      -0.511860       -13.9284
 221   2.0000      -0.507798       -13.8179
 222   2.0000      -0.503418       -13.6987
 223   2.0000      -0.502744       -13.6804
 224   2.0000      -0.501166       -13.6374
 225   2.0000      -0.498962       -13.5774
 226   2.0000      -0.498236       -13.5577
 227   2.0000      -0.487837       -13.2747
 228   2.0000      -0.486555       -13.2398
 229   2.0000      -0.483164       -13.1475
 230   2.0000      -0.480159       -13.0658
 231   2.0000      -0.478090       -13.0095
 232   2.0000      -0.473847       -12.8940
 233   2.0000      -0.471077       -12.8187
 234   2.0000      -0.469428       -12.7738
 235   2.0000      -0.467333       -12.7168
 236   2.0000      -0.464267       -12.6333
 237   2.0000      -0.462410       -12.5828
 238   2.0000      -0.460532       -12.5317
 239   2.0000      -0.457721       -12.4552
 240   2.0000      -0.455530       -12.3956
 241   2.0000      -0.454200       -12.3594
 242   2.0000      -0.451087       -12.2747
 243   2.0000      -0.450114       -12.2482
 244   2.0000      -0.447684       -12.1821
 245   2.0000      -0.446081       -12.1385
 246   2.0000      -0.442308       -12.0358
 247   2.0000      -0.440385       -11.9835
 248   2.0000      -0.439607       -11.9623
 249   2.0000      -0.438555       -11.9337
 250   2.0000      -0.437851       -11.9145
 251   2.0000      -0.434678       -11.8282
 252   2.0000      -0.432841       -11.7782
 253   2.0000      -0.429662       -11.6917
 254   2.0000      -0.428312       -11.6550
 255   2.0000      -0.423698       -11.5294
 256   2.0000      -0.421264       -11.4632
 257   2.0000      -0.418674       -11.3927
 258   2.0000      -0.417626       -11.3642
 259   2.0000      -0.415285       -11.3005
 260   2.0000      -0.414296       -11.2736
 261   2.0000      -0.411762       -11.2046
 262   2.0000      -0.408200       -11.1077
 263   2.0000      -0.406289       -11.0557
 264   2.0000      -0.401034       -10.9127
 265   2.0000      -0.399181       -10.8623
 266   2.0000      -0.398493       -10.8436
 267   2.0000      -0.394857       -10.7446
 268   2.0000      -0.391933       -10.6650
 269   2.0000      -0.391104       -10.6425
 270   2.0000      -0.389387       -10.5958
 271   2.0000      -0.384900       -10.4737
 272   2.0000      -0.382080       -10.3969
 273   2.0000      -0.376927       -10.2567
 274   2.0000      -0.374729       -10.1969
 275   2.0000      -0.369308       -10.0494
 276   2.0000      -0.366919        -9.9844
 277   2.0000      -0.363898        -9.9022
 278   2.0000      -0.352692        -9.5972
 279   2.0000      -0.341997        -9.3062
 280   2.0000      -0.339631        -9.2418
 281   2.0000      -0.339356        -9.2344
 282   2.0000      -0.330780        -9.0010
 283   2.0000      -0.326289        -8.8788
 284   2.0000      -0.322560        -8.7773
 285   2.0000      -0.320169        -8.7122
 286   2.0000      -0.310588        -8.4515
 287   2.0000      -0.309780        -8.4296
 288   2.0000      -0.301878        -8.2145
 289   2.0000      -0.300571        -8.1789
 290   2.0000      -0.296188        -8.0597
 291   2.0000      -0.287924        -7.8348
 292   2.0000      -0.281094        -7.6490
 293   2.0000      -0.263364        -7.1665
 294   0.0000      -0.103840        -2.8256
 295   0.0000      -0.091249        -2.4830
 296   0.0000      -0.079650        -2.1674
 297   0.0000      -0.061959        -1.6860
 298   0.0000      -0.054262        -1.4765

MULLIKEN ATOMIC CHARGES
-----------------------
   0 C :   -0.106994
   1 C :    0.240264
   2 F :   -0.170978
   3 C :    0.239808
   4 F :   -0.170486
   5 C :   -0.103331
   6 C :    0.116438
   7 C :    0.114900
   8 C :   -0.087093
   9 C :    0.053763
  10 C :    0.002454
  11 C :   -0.082919
  12 C :    0.154715
  13 O :   -0.142468
  14 C :   -0.030921
  15 C :    0.315286
  16 C :   -0.348047
  17 C :   -0.191543
  18 N :    0.158705
  19 C :   -0.182806
  20 N :    0.150693
  21 C :   -0.140387
  22 C :    0.065754
  23 C :    0.041092
  24 O :   -0.344206
  25 C :    0.189553
  26 C :    0.179472
  27 O :   -0.287991
  28 C :    0.200629
  29 C :   -0.118788
  30 C :    0.083407
  31 C :    0.010367
  32 N :   -0.285776
  33 S :    0.494914
  34 N :   -0.275811
  35 C :    0.040810
  36 C :   -0.042856
  37 C :   -0.087181
  38 N :    0.004725
  39 C :    0.030670
  40 C :    0.021778
  41 N :    0.010212
  42 C :   -0.028564
  43 C :    0.023664
  44 C :    0.038923
  45 N :   -0.272326
  46 S :    0.525604
  47 N :   -0.274407
  48 C :   -0.057366
  49 C :    0.160637
  50 O :   -0.338560
  51 C :    0.211447
  52 C :    0.104928
  53 O :   -0.301010
  54 C :    0.210686
  55 C :    0.028591
  56 C :   -0.000058
  57 C :    0.036112
  58 N :   -0.266358
  59 S :    0.486752
  60 N :   -0.268291
  61 C :   -0.018547
  62 C :   -0.101939
  63 C :    0.130721
  64 O :   -0.139178
  65 C :    0.017707
  66 C :   -0.088547
  67 C :    0.114616
  68 C :    0.119442
  69 C :   -0.115276
  70 C :    0.243794
  71 C :    0.239582
  72 C :   -0.109072
  73 F :   -0.174364
  74 F :   -0.173880
  75 C :   -0.101124
  76 C :    0.047446
  77 C :    0.319826
  78 C :   -0.357356
  79 C :   -0.208434
  80 N :    0.171826
  81 C :   -0.188611
  82 N :    0.145290
  83 H :    0.008493
  84 H :   -0.002313
  85 H :   -0.005783
  86 H :   -0.012467
  87 H :    0.049388
  88 H :    0.024452
  89 H :    0.039555
  90 H :    0.046617
  91 H :    0.038611
  92 H :    0.032703
  93 H :    0.009841
  94 H :    0.020861
  95 H :    0.013097
  96 H :    0.036989
  97 H :    0.032349
  98 H :    0.031266
  99 H :    0.039707
 100 H :    0.030220
 101 H :    0.033315
 102 H :    0.038659
 103 H :   -0.010860
 104 H :    0.003146
 105 H :   -0.001850
 106 H :   -0.010147
Sum of atomic charges:   -0.0000000

LOEWDIN ATOMIC CHARGES
----------------------
   0 C :   -0.028787
   1 C :    0.066721
   2 F :   -0.048420
   3 C :    0.068439
   4 F :   -0.048802
   5 C :   -0.033724
   6 C :   -0.007567
   7 C :   -0.006641
   8 C :    0.018441
   9 C :   -0.022773
  10 C :   -0.048048
  11 C :    0.028562
  12 C :    0.084714
  13 O :   -0.136976
  14 C :   -0.074409
  15 C :    0.076611
  16 C :   -0.132442
  17 C :   -0.020542
  18 N :   -0.044930
  19 C :   -0.017157
  20 N :   -0.049308
  21 C :    0.076669
  22 C :   -0.057520
  23 C :    0.052513
  24 O :   -0.116549
  25 C :    0.084126
  26 C :    0.062824
  27 O :   -0.077815
  28 C :    0.080577
  29 C :   -0.037597
  30 C :   -0.035306
  31 C :   -0.040163
  32 N :   -0.288794
  33 S :    0.633241
  34 N :   -0.289986
  35 C :   -0.003798
  36 C :   -0.003119
  37 C :   -0.010861
  38 N :   -0.029671
  39 C :    0.015612
  40 C :    0.008808
  41 N :   -0.022939
  42 C :   -0.020990
  43 C :   -0.042633
  44 C :   -0.040746
  45 N :   -0.291389
  46 S :    0.673939
  47 N :   -0.285646
  48 C :   -0.041808
  49 C :    0.054655
  50 O :   -0.088874
  51 C :    0.082823
  52 C :    0.085150
  53 O :   -0.058776
  54 C :    0.081785
  55 C :   -0.077306
  56 C :   -0.039258
  57 C :   -0.041818
  58 N :   -0.280806
  59 S :    0.621825
  60 N :   -0.289807
  61 C :    0.088391
  62 C :   -0.091331
  63 C :    0.084034
  64 O :   -0.139357
  65 C :   -0.053025
  66 C :    0.028719
  67 C :   -0.011098
  68 C :   -0.006352
  69 C :   -0.032359
  70 C :    0.065390
  71 C :    0.064736
  72 C :   -0.033415
  73 F :   -0.052155
  74 F :   -0.051635
  75 C :    0.006286
  76 C :   -0.017713
  77 C :    0.070080
  78 C :   -0.141570
  79 C :   -0.018909
  80 N :   -0.051421
  81 C :   -0.020118
  82 N :   -0.063482
  83 H :    0.048049
  84 H :    0.044448
  85 H :    0.039921
  86 H :    0.039570
  87 H :    0.047074
  88 H :    0.015473
  89 H :    0.017616
  90 H :    0.031366
  91 H :    0.020126
  92 H :    0.025460
  93 H :    0.013496
  94 H :    0.030101
  95 H :    0.026678
  96 H :    0.020335
  97 H :    0.023278
  98 H :    0.024458
  99 H :    0.023585
 100 H :    0.019396
 101 H :    0.022776
 102 H :    0.052191
 103 H :    0.039820
 104 H :    0.045984
 105 H :    0.044255
 106 H :    0.037314

  Mayer bond orders larger than 0.100000
B(  0-C ,  1-C ) :   1.4449 B(  0-C ,  5-C ) :   0.1089 B(  0-C ,  7-C ) :   1.1843
B(  0-C , 83-H ) :   1.0061 B(  1-C ,  2-F ) :   1.1341 B(  1-C ,  3-C ) :   1.1901
B(  3-C ,  4-F ) :   1.1350 B(  3-C ,  5-C ) :   1.4441 B(  5-C ,  6-C ) :   1.1923
B(  5-C , 84-H ) :   1.0066 B(  6-C ,  7-C ) :   1.2529 B(  6-C , 11-C ) :   1.1906
B(  7-C ,  8-C ) :   1.2255 B(  8-C ,  9-C ) :   1.4392 B(  8-C , 85-H ) :   0.9884
B(  9-C , 10-C ) :   1.2201 B(  9-C , 15-C ) :   0.9922 B( 10-C , 11-C ) :   1.4744
B( 10-C , 12-C ) :   0.9386 B( 11-C , 86-H ) :   1.0155 B( 12-C , 13-O ) :   2.2440
B( 12-C , 14-C ) :   0.9158 B( 14-C , 15-C ) :   1.0515 B( 14-C , 21-C ) :   1.6657
B( 15-C , 16-C ) :   1.6505 B( 16-C , 17-C ) :   1.1460 B( 16-C , 19-C ) :   1.1410
B( 17-C , 18-N ) :   2.9679 B( 19-C , 20-N ) :   2.9633 B( 21-C , 22-C ) :   1.0337
B( 21-C , 87-H ) :   0.9415 B( 22-C , 23-C ) :   1.4134 B( 22-C , 29-C ) :   0.1262
B( 22-C , 31-C ) :   1.1866 B( 23-C , 24-O ) :   1.1410 B( 23-C , 26-C ) :   1.0989
B( 24-O , 25-C ) :   0.9261 B( 25-C , 88-H ) :   0.9636 B( 25-C , 89-H ) :   0.9613
B( 25-C , 90-H ) :   0.9818 B( 26-C , 27-O ) :   1.2544 B( 26-C , 29-C ) :   1.4833
B( 27-O , 28-C ) :   0.9272 B( 28-C , 91-H ) :   0.9736 B( 28-C , 92-H ) :   0.9764
B( 28-C , 93-H ) :   0.9746 B( 29-C , 30-C ) :   1.3005 B( 29-C , 35-C ) :   0.9073
B( 30-C , 31-C ) :   1.1649 B( 30-C , 34-N ) :   1.5118 B( 31-C , 32-N ) :   1.5258
B( 32-N , 33-S ) :   1.2551 B( 32-N , 34-N ) :   0.1498 B( 33-S , 34-N ) :   1.2652
B( 35-C , 36-C ) :   1.4042 B( 35-C , 42-C ) :   0.1571 B( 35-C , 44-C ) :   1.2987
B( 36-C , 37-C ) :   1.1027 B( 36-C , 41-N ) :   1.4205 B( 37-C , 38-N ) :   1.4291
B( 37-C , 42-C ) :   1.3714 B( 38-N , 39-C ) :   1.7293 B( 39-C , 40-C ) :   1.1450
B( 39-C , 94-H ) :   0.9736 B( 40-C , 41-N ) :   1.7305 B( 40-C , 95-H ) :   0.9730
B( 42-C , 43-C ) :   1.2798 B( 42-C , 48-C ) :   0.9203 B( 43-C , 44-C ) :   1.1114
B( 43-C , 47-N ) :   1.4715 B( 44-C , 45-N ) :   1.4822 B( 45-N , 46-S ) :   1.3046
B( 45-N , 47-N ) :   0.1679 B( 46-S , 47-N ) :   1.3040 B( 48-C , 49-C ) :   1.4677
B( 48-C , 55-C ) :   0.1083 B( 48-C , 57-C ) :   1.2292 B( 49-C , 50-O ) :   1.1690
B( 49-C , 52-C ) :   1.0922 B( 50-O , 51-C ) :   0.9379 B( 51-C , 96-H ) :   0.9669
B( 51-C , 97-H ) :   0.9578 B( 51-C , 98-H ) :   0.9738 B( 52-C , 53-O ) :   1.2397
B( 52-C , 55-C ) :   1.3874 B( 53-O , 54-C ) :   0.9002 B( 54-C , 99-H ) :   0.9747
B( 54-C ,100-H ) :   0.9770 B( 54-C ,101-H ) :   0.9708 B( 55-C , 56-C ) :   1.1674
B( 55-C , 61-C ) :   1.1502 B( 56-C , 57-C ) :   1.1620 B( 56-C , 60-N ) :   1.5989
B( 57-C , 58-N ) :   1.5548 B( 58-N , 59-S ) :   1.2506 B( 58-N , 60-N ) :   0.1417
B( 59-S , 60-N ) :   1.2357 B( 61-C , 62-C ) :   1.6078 B( 61-C ,102-H ) :   0.9336
B( 62-C , 63-C ) :   0.9423 B( 62-C , 77-C ) :   1.0618 B( 63-C , 64-O ) :   2.2692
B( 63-C , 65-C ) :   0.9140 B( 65-C , 66-C ) :   1.4760 B( 65-C , 76-C ) :   1.2189
B( 66-C , 67-C ) :   1.1882 B( 66-C ,103-H ) :   1.0172 B( 67-C , 68-C ) :   1.2611
B( 67-C , 72-C ) :   1.1910 B( 68-C , 69-C ) :   1.1884 B( 68-C , 75-C ) :   1.2082
B( 69-C , 70-C ) :   1.4389 B( 69-C , 72-C ) :   0.1099 B( 69-C ,104-H ) :   1.0083
B( 70-C , 71-C ) :   1.1941 B( 70-C , 74-F ) :   1.1317 B( 71-C , 72-C ) :   1.4414
B( 71-C , 73-F ) :   1.1310 B( 72-C ,105-H ) :   1.0083 B( 75-C , 76-C ) :   1.4536
B( 75-C ,106-H ) :   0.9947 B( 76-C , 77-C ) :   0.9960 B( 77-C , 78-C ) :   1.6255
B( 78-C , 79-C ) :   1.1757 B( 78-C , 81-C ) :   1.1383 B( 79-C , 80-N ) :   2.9941
B( 81-C , 82-N ) :   2.9736

-----------------------------------------------------------------------------
         ABSORPTION SPECTRUM VIA TRANSITION ELECTRIC DIPOLE MOMENTS
-----------------------------------------------------------------------------
State   Energy  Wavelength   fosc         T2         TX        TY        TZ
        (cm-1)    (nm)                  (au**2)     (au)      (au)      (au)
-----------------------------------------------------------------------------
   0   18095.7    552.6   0.823994408  14.99075  -2.53283  -2.90198   0.39250
   1   21097.6    474.0   0.055073203   0.85938   0.85225   0.27656   0.23782
   2   22085.4    452.8   0.213728842   3.18591   1.02462   1.30593  -0.65621
   3   23007.8    434.6   0.200290487   2.86590   0.88669   1.20835  -0.78712
   4   24381.3    410.2   0.054109468   0.73062   0.42615  -0.49302   0.55312
   5   24879.5    401.9   0.015678467   0.20746   0.16390   0.38543  -0.17902
   6   25621.5    390.3   0.035389977   0.45473   0.50310  -0.00675   0.44896
   7   26281.3    380.5   0.075569564   0.94662  -0.93563  -0.22916  -0.13678
   8   26440.0    378.2   0.015508948   0.19311  -0.34553  -0.05957  -0.26489
   9   27483.7    363.9   0.078636711   0.94195   0.90640  -0.28139   0.20300
  10   27751.9    360.3   0.053098172   0.62989   0.47762  -0.52863  -0.34975
  11   27973.2    357.5   0.031737133   0.37351   0.38788   0.30511   0.36051
  12   28669.8    348.8   0.029603831   0.33994   0.09188   0.22092  -0.53169
  13   28820.9    347.0   0.042078868   0.48065  -0.63913   0.25643  -0.08010
  14   28945.1    345.5   0.043564149   0.49548  -0.57612  -0.40008  -0.05927
  15   29414.1    340.0   0.131485641   1.47163   0.95297  -0.61867  -0.42511
  16   29615.5    337.7   0.011542003   0.12830   0.33140   0.07715   0.11191
  17   29653.6    337.2   0.041722933   0.46321  -0.15369  -0.66271  -0.02008
  18   30152.3    331.6   0.026134056   0.28534   0.19286   0.49752   0.02489
  19   30225.9    330.8   0.157032928   1.71036   0.61539   1.13049  -0.23159
  20   30416.6    328.8   0.003583457   0.03879   0.04172   0.16414   0.10052
  21   31927.9    313.2   0.109961282   1.13382   0.29842   0.54347   0.86568
  22   32073.0    311.8   0.108041348   1.10899  -0.19840  -0.34767   0.97404
  23   32165.3    310.9   0.104731052   1.07192  -0.10422   0.74955  -0.70656
  24   32367.6    309.0   0.001820620   0.01852   0.05781   0.08683   0.08739
  25   32589.9    306.8   0.073372942   0.74119  -0.03617  -0.25752   0.82071
  26   32911.9    303.8   0.039569697   0.39581  -0.06062  -0.54105   0.31528
  27   33021.8    302.8   0.024634137   0.24559   0.16115  -0.46813   0.02183
  28   33209.5    301.1   0.071745748   0.71123   0.66813  -0.38503  -0.34143
  29   33370.2    299.7   0.359177717   3.54345   0.45895   1.80725   0.25819
  30   34032.5    293.8   0.226819282   2.19413  -0.26446   1.33129  -0.59317
  31   34146.8    292.9   0.396776035   3.82535  -1.24113   1.38925   0.59576
  32   34451.4    290.3   0.066120963   0.63184   0.72284   0.20368  -0.26050
  33   34683.3    288.3   0.016624861   0.15780  -0.07295   0.36388   0.14168
  34   34979.3    285.9   0.419911769   3.95205   1.16931   1.58748   0.25431
  35   35134.7    284.6   0.236447738   2.21551   1.11968  -0.93402  -0.29909
  36   35287.6    283.4   0.102746029   0.95856   0.71948  -0.66176  -0.05462
  37   35363.5    282.8   0.031729176   0.29538   0.09375  -0.47528   0.24637
  38   35591.2    281.0   0.048787087   0.45127   0.64108   0.19294   0.05528
  39   35964.7    278.1   0.087532292   0.80125   0.81746  -0.34596   0.11538
  40   36386.2    274.8   0.072957624   0.66010   0.76094  -0.18105  -0.21974
  41   36609.9    273.2   0.054133185   0.48679  -0.37235  -0.57186  -0.14535
  42   36695.9    272.5   0.005670249   0.05087   0.22464  -0.01582  -0.01254
  43   36966.4    270.5   0.009853208   0.08775  -0.07366   0.28514   0.03195
  44   37126.5    269.3   0.100487799   0.89106  -0.25294   0.69138  -0.59082
  45   37187.0    268.9   0.072258384   0.63970  -0.63452   0.47902  -0.08729
  46   37400.6    267.4   0.136768683   1.20388  -0.81194  -0.64002  -0.36745
  47   37683.8    265.4   0.040391001   0.35286  -0.16864  -0.36973   0.43327
  48   37748.3    264.9   0.159722368   1.39298   0.48201  -1.05477   0.21934
  49   37992.0    263.2   0.022472499   0.19473   0.33947  -0.22455  -0.17050
  50   38163.1    262.0   0.043464643   0.37495   0.38701  -0.46647  -0.08699
  51   38369.0    260.6   0.036443386   0.31269   0.05398  -0.47729  -0.28630
  52   38502.3    259.7   0.174595515   1.49287  -0.80002   0.30622  -0.87125
  53   38607.9    259.0   0.092410496   0.78799   0.63805   0.47123   0.39853
  54   39131.7    255.5   0.024373804   0.20505  -0.07780  -0.44466  -0.03573
  55   39290.3    254.5   0.009502850   0.07962  -0.06168  -0.15052   0.23057
  56   39336.0    254.2   0.020077276   0.16803   0.29303   0.17195   0.22934
  57   39575.4    252.7   0.075612001   0.62899   0.54312   0.57790   0.00572
  58   39600.7    252.5   0.002525771   0.02100   0.02986  -0.00880  -0.14152
  59   39613.6    252.4   0.046693560   0.38805  -0.30914  -0.51649  -0.16037
  60   39906.0    250.6   0.125431136   1.03477  -0.71721  -0.69286  -0.20082
  61   39988.9    250.1   0.019426374   0.15993   0.27365  -0.13730   0.25728
  62   40038.9    249.8   0.090581843   0.74479  -0.35360   0.53917  -0.57363

FINAL SINGLE POINT ENERGY     -4921.819519961668

DIPOLE MOMENT
-------------
                                X             Y             Z
Electronic contribution:      9.08942     -19.11059       5.30698
Nuclear contribution   :     -7.54955      18.53321      -7.36074
                        -----------------------------------------
Total Dipole Moment    :      1.53987      -0.57739      -2.05376
                        -----------------------------------------
Magnitude (a.u.)       :      2.63107
Magnitude (Debye)      :      6.68765

Rotational constants in cm-1:     0.001543     0.000225     0.000208
Rotational constants in MHz :    46.255189     6.756938     6.250110

                             ****ORCA TERMINATED NORMALLY****
TOTAL RUN TIME: 0 days 0 hours 25 minutes 28 seconds 442 msec
