                         Program Version 4.2.0 -  RELEASE  -
|  1> # ORCA input file
|  2> # SCF done       -225.553227090485          0.000370414295
|  3> ! CAM-B3LYP def2-SVP def2/J RIJCOSX Grid4 TightSCF
|  4> %maxcore 5000
|  5> %tddft
|  6>     Mode sTDDFT
|  7>     Ethresh 5.0
|  8>     maxcore 5000
|  9> end
| 10>
| 11> %pal
| 12>   nprocs 6
| 13>   end
| 14> * xyz 0 1
| 15>    C      -11.48002        -0.02779        -2.05279
| 16>    C      -12.83982         0.09915        -2.00320
| 17>    F      -13.45539         1.03915        -2.73201
| 18>    C      -13.61115        -0.75419        -1.18842
| 19>    F      -14.94240        -0.60729        -1.16060
| 20>    C      -13.01125        -1.72322        -0.43411
| 21>    C      -11.61177        -1.87909        -0.46380
| 22>    C      -10.83036        -1.01649        -1.28645
| 23>    C       -9.42395        -1.15275        -1.33091
| 24>    C       -8.81837        -2.12392        -0.57729
| 25>    C       -9.60696        -2.98572         0.23228
| 26>    C      -10.96589        -2.87551         0.30079
| 27>    C       -8.73412        -3.95596         0.92191
| 28>    O       -9.10125        -4.78211         1.72941
| 29>    C       -7.36684        -3.69880         0.40640
| 30>    C       -7.41731        -2.50016        -0.41756
| 31>    C       -6.35144        -1.78818        -0.90126
| 32>    C       -4.98987        -2.07680        -0.66458
| 33>    N       -3.86256        -2.22503        -0.50404
| 34>    C       -6.47798        -0.61581        -1.67708
| 35>    N       -6.51586         0.33814        -2.31411
| 36>    C       -6.25408        -4.48747         0.52059
| 37>    C       -6.02748        -5.67170         1.25012
| 38>    C       -6.75596        -6.33828         2.22102
| 39>    C       -6.13633        -7.50001         2.66283
| 40>   Cl       -6.82450        -8.51355         3.85778
| 41>    C       -4.90816        -7.77498         2.04909
| 42>    S       -4.53042        -6.51741         0.91789
| 43>    C       -4.07939        -8.90129         2.24108
| 44>    C       -2.87083        -9.19347         1.60718
| 45>   Cl       -2.12677        -8.14591         0.47489
| 46>    C       -2.32405       -10.41919         1.96559
| 47>    C       -3.09461       -11.10244         2.89164
| 48>    S       -4.50497       -10.19406         3.33347
| 49>    C       -2.85545       -12.39906         3.42053
| 50>    C       -3.72483       -12.97051         4.37746
| 51>    C       -3.57246       -14.30196         4.89289
| 52>    N       -4.46370       -14.75291         5.80129
| 53>    C       -5.42943       -13.98623         6.18818
| 54>    C       -5.58400       -12.67095         5.67586
| 55>    N       -4.74983       -12.20652         4.80462
| 56>    F       -6.57851       -11.88642         6.07145
| 57>    F       -6.27969       -14.47332         7.08705
| 58>    C       -2.52413       -15.14489         4.45438
| 59>    C       -1.63565       -14.56377         3.52206
| 60>    C       -1.78103       -13.22171         3.01387
| 61>    N       -0.81359       -12.92365         2.14412
| 62>    S        0.16674       -14.18137         1.98360
| 63>    N       -0.57456       -15.17758         2.99845
| 64>    C       -2.34627       -16.49671         4.86103
| 65>    C       -3.08677       -17.23817         5.76480
| 66>    C       -2.64740       -18.55151         5.87581
| 67>   Cl       -3.38826       -19.68533         6.92382
| 68>    C       -1.55742       -18.86238         5.06323
| 69>    S       -1.07416       -17.45377         4.15969
| 70>    C       -0.90483       -20.10739         4.93315
| 71>    C        0.20304       -20.42709         4.14893
| 72>   Cl        1.01432       -19.27661         3.17805
| 73>    C        0.58234       -21.76465         4.21432
| 74>    C       -0.19999       -22.51095         5.07580
| 75>    S       -1.45227       -21.52182         5.77717
| 76>    C       -0.11366       -23.90737         5.28605
| 77>    C       -0.68892       -24.66359         6.25972
| 78>    C       -0.91131       -26.11861         6.02553
| 79>    O       -0.40210       -26.80149         5.16883
| 80>    C       -1.93557       -26.51102         7.01600
| 81>    C       -2.59788       -27.69828         7.14117
| 82>    C       -3.57311       -27.83733         8.15433
| 83>    C       -3.84639       -26.73803         9.01989
| 84>    C       -4.82591       -26.88234        10.02294
| 85>    C       -5.50089       -28.06247        10.16206
| 86>    C       -5.22951       -29.14915         9.30621
| 87>    C       -4.28585       -29.04049         8.32350
| 88>    F       -5.90807       -30.29323         9.46408
| 89>    F       -6.43075       -28.19793        11.11598
| 90>    C       -3.13898       -25.52307         8.87215
| 91>    C       -2.19425       -25.41410         7.88767
| 92>    C       -1.30169       -24.31735         7.52553
| 93>    C       -0.90746       -23.30697         8.36122
| 94>    C        0.17560       -22.44973         8.07342
| 95>    N        1.08283       -21.77100         7.89164
| 96>    C       -1.47357       -23.07741         9.63135
| 97>    N       -1.91707       -22.84625        10.66414
| 98>    H      -10.90477         0.63463        -2.68065
| 99>    H      -13.61518        -2.36884         0.18409
|100>    H       -8.86283        -0.48827        -1.96754
|101>    H      -11.53895        -3.54209         0.92718
|102>    H       -5.39818        -4.19382        -0.07694
|103>    H       -7.70716        -5.99547         2.58445
|104>    H       -1.40610       -10.81043         1.56895
|105>    H       -3.91436       -16.83441         6.31508
|106>    H        1.41658       -22.17017         3.67194
|107>    H        0.40308       -24.46485         4.51046
|108>    H       -2.38240       -28.52050         6.47594
|109>    H       -5.04323       -26.06159        10.68849
|110>    H       -4.09026       -29.88150         7.67683
|111>    H       -3.36916       -24.70242         9.53297
|112> *
|113>
|114>                          ****END OF INPUT****

CARTESIAN COORDINATES (ANGSTROEM)
---------------------------------
  C    -11.480020   -0.027790   -2.052790
  C    -12.839820    0.099150   -2.003200
  F    -13.455390    1.039150   -2.732010
  C    -13.611150   -0.754190   -1.188420
  F    -14.942400   -0.607290   -1.160600
  C    -13.011250   -1.723220   -0.434110
  C    -11.611770   -1.879090   -0.463800
  C    -10.830360   -1.016490   -1.286450
  C     -9.423950   -1.152750   -1.330910
  C     -8.818370   -2.123920   -0.577290
  C     -9.606960   -2.985720    0.232280
  C    -10.965890   -2.875510    0.300790
  C     -8.734120   -3.955960    0.921910
  O     -9.101250   -4.782110    1.729410
  C     -7.366840   -3.698800    0.406400
  C     -7.417310   -2.500160   -0.417560
  C     -6.351440   -1.788180   -0.901260
  C     -4.989870   -2.076800   -0.664580
  N     -3.862560   -2.225030   -0.504040
  C     -6.477980   -0.615810   -1.677080
  N     -6.515860    0.338140   -2.314110
  C     -6.254080   -4.487470    0.520590
  C     -6.027480   -5.671700    1.250120
  C     -6.755960   -6.338280    2.221020
  C     -6.136330   -7.500010    2.662830
  Cl    -6.824500   -8.513550    3.857780
  C     -4.908160   -7.774980    2.049090
  S     -4.530420   -6.517410    0.917890
  C     -4.079390   -8.901290    2.241080
  C     -2.870830   -9.193470    1.607180
  Cl    -2.126770   -8.145910    0.474890
  C     -2.324050  -10.419190    1.965590
  C     -3.094610  -11.102440    2.891640
  S     -4.504970  -10.194060    3.333470
  C     -2.855450  -12.399060    3.420530
  C     -3.724830  -12.970510    4.377460
  C     -3.572460  -14.301960    4.892890
  N     -4.463700  -14.752910    5.801290
  C     -5.429430  -13.986230    6.188180
  C     -5.584000  -12.670950    5.675860
  N     -4.749830  -12.206520    4.804620
  F     -6.578510  -11.886420    6.071450
  F     -6.279690  -14.473320    7.087050
  C     -2.524130  -15.144890    4.454380
  C     -1.635650  -14.563770    3.522060
  C     -1.781030  -13.221710    3.013870
  N     -0.813590  -12.923650    2.144120
  S      0.166740  -14.181370    1.983600
  N     -0.574560  -15.177580    2.998450
  C     -2.346270  -16.496710    4.861030
  C     -3.086770  -17.238170    5.764800
  C     -2.647400  -18.551510    5.875810
  Cl    -3.388260  -19.685330    6.923820
  C     -1.557420  -18.862380    5.063230
  S     -1.074160  -17.453770    4.159690
  C     -0.904830  -20.107390    4.933150
  C      0.203040  -20.427090    4.148930
  Cl     1.014320  -19.276610    3.178050
  C      0.582340  -21.764650    4.214320
  C     -0.199990  -22.510950    5.075800
  S     -1.452270  -21.521820    5.777170
  C     -0.113660  -23.907370    5.286050
  C     -0.688920  -24.663590    6.259720
  C     -0.911310  -26.118610    6.025530
  O     -0.402100  -26.801490    5.168830
  C     -1.935570  -26.511020    7.016000
  C     -2.597880  -27.698280    7.141170
  C     -3.573110  -27.837330    8.154330
  C     -3.846390  -26.738030    9.019890
  C     -4.825910  -26.882340   10.022940
  C     -5.500890  -28.062470   10.162060
  C     -5.229510  -29.149150    9.306210
  C     -4.285850  -29.040490    8.323500
  F     -5.908070  -30.293230    9.464080
  F     -6.430750  -28.197930   11.115980
  C     -3.138980  -25.523070    8.872150
  C     -2.194250  -25.414100    7.887670
  C     -1.301690  -24.317350    7.525530
  C     -0.907460  -23.306970    8.361220
  C      0.175600  -22.449730    8.073420
  N      1.082830  -21.771000    7.891640
  C     -1.473570  -23.077410    9.631350
  N     -1.917070  -22.846250   10.664140
  H    -10.904770    0.634630   -2.680650
  H    -13.615180   -2.368840    0.184090
  H     -8.862830   -0.488270   -1.967540
  H    -11.538950   -3.542090    0.927180
  H     -5.398180   -4.193820   -0.076940
  H     -7.707160   -5.995470    2.584450
  H     -1.406100  -10.810430    1.568950
  H     -3.914360  -16.834410    6.315080
  H      1.416580  -22.170170    3.671940
  H      0.403080  -24.464850    4.510460
  H     -2.382400  -28.520500    6.475940
  H     -5.043230  -26.061590   10.688490
  H     -4.090260  -29.881500    7.676830
  H     -3.369160  -24.702420    9.532970

 Total Charge           Charge          ....    0
 Multiplicity           Mult            ....    1
 Number of Electrons    NEL             ....  636
 Basis Dimension        Dim             .... 1268

ORBITAL ENERGIES
----------------

  NO   OCC          E(Eh)            E(eV)
   0   2.0000    -101.606663     -2764.8578
   1   2.0000    -101.605544     -2764.8274
   2   2.0000    -101.604973     -2764.8119
   3   2.0000    -101.602985     -2764.7578
   4   2.0000     -89.056232     -2423.3433
   5   2.0000     -88.977371     -2421.1974
   6   2.0000     -88.976536     -2421.1746
   7   2.0000     -88.971082     -2421.0262
   8   2.0000     -88.970504     -2421.0105
   9   2.0000     -24.830356      -675.6683
  10   2.0000     -24.827136      -675.5807
  11   2.0000     -24.799268      -674.8224
  12   2.0000     -24.798951      -674.8138
  13   2.0000     -24.798696      -674.8068
  14   2.0000     -24.797764      -674.7815
  15   2.0000     -19.222135      -523.0609
  16   2.0000     -19.217773      -522.9422
  17   2.0000     -14.470020      -393.7493
  18   2.0000     -14.467248      -393.6738
  19   2.0000     -14.464668      -393.6036
  20   2.0000     -14.464587      -393.6014
  21   2.0000     -14.418425      -392.3453
  22   2.0000     -14.417106      -392.3094
  23   2.0000     -14.415748      -392.2724
  24   2.0000     -14.414776      -392.2460
  25   2.0000     -10.446877      -284.2740
  26   2.0000     -10.444358      -284.2054
  27   2.0000     -10.382378      -282.5189
  28   2.0000     -10.382044      -282.5098
  29   2.0000     -10.381968      -282.5077
  30   2.0000     -10.381176      -282.4862
  31   2.0000     -10.373469      -282.2764
  32   2.0000     -10.369857      -282.1781
  33   2.0000     -10.359996      -281.9098
  34   2.0000     -10.358046      -281.8568
  35   2.0000     -10.353519      -281.7336
  36   2.0000     -10.351729      -281.6849
  37   2.0000     -10.346363      -281.5389
  38   2.0000     -10.344272      -281.4820
  39   2.0000     -10.344189      -281.4797
  40   2.0000     -10.343626      -281.4644
  41   2.0000     -10.342927      -281.4454
  42   2.0000     -10.341387      -281.4034
  43   2.0000     -10.340889      -281.3899
  44   2.0000     -10.340872      -281.3894
  45   2.0000     -10.339441      -281.3505
  46   2.0000     -10.338997      -281.3384
  47   2.0000     -10.329128      -281.0699
  48   2.0000     -10.328787      -281.0606
  49   2.0000     -10.327800      -281.0337
  50   2.0000     -10.326395      -280.9955
  51   2.0000     -10.325763      -280.9783
  52   2.0000     -10.323610      -280.9197
  53   2.0000     -10.323434      -280.9149
  54   2.0000     -10.322644      -280.8934
  55   2.0000     -10.321601      -280.8651
  56   2.0000     -10.320735      -280.8415
  57   2.0000     -10.319799      -280.8160
  58   2.0000     -10.319568      -280.8097
  59   2.0000     -10.318811      -280.7891
  60   2.0000     -10.316644      -280.7302
  61   2.0000     -10.312095      -280.6064
  62   2.0000     -10.311650      -280.5943
  63   2.0000     -10.311081      -280.5788
  64   2.0000     -10.310793      -280.5709
  65   2.0000     -10.309750      -280.5426
  66   2.0000     -10.307905      -280.4924
  67   2.0000     -10.305908      -280.4380
  68   2.0000     -10.304402      -280.3970
  69   2.0000     -10.303797      -280.3806
  70   2.0000     -10.303486      -280.3721
  71   2.0000     -10.303076      -280.3609
  72   2.0000     -10.302893      -280.3560
  73   2.0000     -10.302208      -280.3373
  74   2.0000     -10.301696      -280.3234
  75   2.0000     -10.301493      -280.3179
  76   2.0000     -10.301146      -280.3084
  77   2.0000     -10.300825      -280.2997
  78   2.0000     -10.295841      -280.1641
  79   2.0000     -10.294860      -280.1374
  80   2.0000     -10.293886      -280.1109
  81   2.0000     -10.291570      -280.0479
  82   2.0000     -10.290423      -280.0167
  83   2.0000      -9.561490      -260.1814
  84   2.0000      -9.560334      -260.1499
  85   2.0000      -9.559674      -260.1319
  86   2.0000      -9.557728      -260.0790
  87   2.0000      -8.147213      -221.6969
  88   2.0000      -8.071809      -219.6451
  89   2.0000      -8.071437      -219.6350
  90   2.0000      -8.064869      -219.4562
  91   2.0000      -8.063775      -219.4265
  92   2.0000      -7.331615      -199.5034
  93   2.0000      -7.330355      -199.4691
  94   2.0000      -7.329707      -199.4515
  95   2.0000      -7.327894      -199.4021
  96   2.0000      -7.321569      -199.2300
  97   2.0000      -7.321452      -199.2268
  98   2.0000      -7.320454      -199.1997
  99   2.0000      -7.320366      -199.1973
 100   2.0000      -7.319814      -199.1823
 101   2.0000      -7.319702      -199.1792
 102   2.0000      -7.317813      -199.1278
 103   2.0000      -7.317647      -199.1233
 104   2.0000      -6.118294      -166.4872
 105   2.0000      -6.110524      -166.2758
 106   2.0000      -6.110036      -166.2625
 107   2.0000      -6.041338      -164.3932
 108   2.0000      -6.040790      -164.3783
 109   2.0000      -6.036940      -164.2735
 110   2.0000      -6.036539      -164.2626
 111   2.0000      -6.034533      -164.2080
 112   2.0000      -6.033564      -164.1816
 113   2.0000      -6.033469      -164.1790
 114   2.0000      -6.033394      -164.1770
 115   2.0000      -6.029836      -164.0802
 116   2.0000      -6.028690      -164.0490
 117   2.0000      -6.026553      -163.9908
 118   2.0000      -6.025522      -163.9628
 119   2.0000      -1.357675       -36.9442
 120   2.0000      -1.343249       -36.5517
 121   2.0000      -1.322047       -35.9747
 122   2.0000      -1.321352       -35.9558
 123   2.0000      -1.307180       -35.5702
 124   2.0000      -1.306464       -35.5507
 125   2.0000      -1.153697       -31.3937
 126   2.0000      -1.137700       -30.9584
 127   2.0000      -1.133655       -30.8483
 128   2.0000      -1.128514       -30.7084
 129   2.0000      -1.054627       -28.6978
 130   2.0000      -1.035068       -28.1656
 131   2.0000      -1.031989       -28.0818
 132   2.0000      -1.021982       -27.8096
 133   2.0000      -1.021049       -27.7842
 134   2.0000      -1.014343       -27.6017
 135   2.0000      -1.010346       -27.4929
 136   2.0000      -1.005194       -27.3527
 137   2.0000      -1.005182       -27.3524
 138   2.0000      -1.003690       -27.3118
 139   2.0000      -0.995164       -27.0798
 140   2.0000      -0.995131       -27.0789
 141   2.0000      -0.988014       -26.8852
 142   2.0000      -0.983466       -26.7615
 143   2.0000      -0.982779       -26.7428
 144   2.0000      -0.967796       -26.3351
 145   2.0000      -0.965342       -26.2683
 146   2.0000      -0.957962       -26.0675
 147   2.0000      -0.951971       -25.9044
 148   2.0000      -0.933113       -25.3913
 149   2.0000      -0.932854       -25.3843
 150   2.0000      -0.913101       -24.8467
 151   2.0000      -0.908892       -24.7322
 152   2.0000      -0.902928       -24.5699
 153   2.0000      -0.898841       -24.4587
 154   2.0000      -0.895391       -24.3648
 155   2.0000      -0.893784       -24.3211
 156   2.0000      -0.889678       -24.2094
 157   2.0000      -0.884506       -24.0686
 158   2.0000      -0.868046       -23.6207
 159   2.0000      -0.860131       -23.4054
 160   2.0000      -0.842083       -22.9143
 161   2.0000      -0.841204       -22.8903
 162   2.0000      -0.836428       -22.7604
 163   2.0000      -0.832589       -22.6559
 164   2.0000      -0.831830       -22.6352
 165   2.0000      -0.829419       -22.5696
 166   2.0000      -0.826428       -22.4883
 167   2.0000      -0.821000       -22.3405
 168   2.0000      -0.809588       -22.0300
 169   2.0000      -0.790335       -21.5061
 170   2.0000      -0.784985       -21.3605
 171   2.0000      -0.772023       -21.0078
 172   2.0000      -0.768697       -20.9173
 173   2.0000      -0.767234       -20.8775
 174   2.0000      -0.763885       -20.7864
 175   2.0000      -0.746140       -20.3035
 176   2.0000      -0.741173       -20.1683
 177   2.0000      -0.732831       -19.9413
 178   2.0000      -0.721221       -19.6254
 179   2.0000      -0.719325       -19.5738
 180   2.0000      -0.715426       -19.4677
 181   2.0000      -0.710740       -19.3402
 182   2.0000      -0.703600       -19.1459
 183   2.0000      -0.695975       -18.9384
 184   2.0000      -0.689930       -18.7740
 185   2.0000      -0.687568       -18.7097
 186   2.0000      -0.685465       -18.6524
 187   2.0000      -0.681352       -18.5405
 188   2.0000      -0.676003       -18.3950
 189   2.0000      -0.668651       -18.1949
 190   2.0000      -0.668223       -18.1833
 191   2.0000      -0.660746       -17.9798
 192   2.0000      -0.656877       -17.8745
 193   2.0000      -0.653785       -17.7904
 194   2.0000      -0.646755       -17.5991
 195   2.0000      -0.644175       -17.5289
 196   2.0000      -0.642624       -17.4867
 197   2.0000      -0.640325       -17.4241
 198   2.0000      -0.636134       -17.3101
 199   2.0000      -0.632342       -17.2069
 200   2.0000      -0.629099       -17.1186
 201   2.0000      -0.628298       -17.0969
 202   2.0000      -0.622864       -16.9490
 203   2.0000      -0.616393       -16.7729
 204   2.0000      -0.613684       -16.6992
 205   2.0000      -0.607950       -16.5432
 206   2.0000      -0.600022       -16.3274
 207   2.0000      -0.598696       -16.2914
 208   2.0000      -0.591583       -16.0978
 209   2.0000      -0.589721       -16.0471
 210   2.0000      -0.586543       -15.9606
 211   2.0000      -0.585872       -15.9424
 212   2.0000      -0.584109       -15.8944
 213   2.0000      -0.582395       -15.8478
 214   2.0000      -0.581159       -15.8141
 215   2.0000      -0.579470       -15.7682
 216   2.0000      -0.575983       -15.6733
 217   2.0000      -0.569695       -15.5022
 218   2.0000      -0.561741       -15.2857
 219   2.0000      -0.560341       -15.2476
 220   2.0000      -0.555828       -15.1249
 221   2.0000      -0.553682       -15.0664
 222   2.0000      -0.552582       -15.0365
 223   2.0000      -0.548198       -14.9172
 224   2.0000      -0.547510       -14.8985
 225   2.0000      -0.544697       -14.8220
 226   2.0000      -0.541641       -14.7388
 227   2.0000      -0.540035       -14.6951
 228   2.0000      -0.538813       -14.6619
 229   2.0000      -0.536172       -14.5900
 230   2.0000      -0.535756       -14.5787
 231   2.0000      -0.534481       -14.5440
 232   2.0000      -0.533171       -14.5083
 233   2.0000      -0.531652       -14.4670
 234   2.0000      -0.530713       -14.4414
 235   2.0000      -0.528992       -14.3946
 236   2.0000      -0.527710       -14.3597
 237   2.0000      -0.526985       -14.3400
 238   2.0000      -0.524762       -14.2795
 239   2.0000      -0.523913       -14.2564
 240   2.0000      -0.518830       -14.1181
 241   2.0000      -0.517798       -14.0900
 242   2.0000      -0.513898       -13.9839
 243   2.0000      -0.513401       -13.9704
 244   2.0000      -0.510333       -13.8869
 245   2.0000      -0.508631       -13.8406
 246   2.0000      -0.506814       -13.7911
 247   2.0000      -0.503176       -13.6921
 248   2.0000      -0.501483       -13.6461
 249   2.0000      -0.498917       -13.5762
 250   2.0000      -0.497765       -13.5449
 251   2.0000      -0.496579       -13.5126
 252   2.0000      -0.494571       -13.4580
 253   2.0000      -0.491367       -13.3708
 254   2.0000      -0.490402       -13.3445
 255   2.0000      -0.486216       -13.2306
 256   2.0000      -0.484340       -13.1795
 257   2.0000      -0.475016       -12.9258
 258   2.0000      -0.472753       -12.8643
 259   2.0000      -0.470806       -12.8113
 260   2.0000      -0.470276       -12.7969
 261   2.0000      -0.470013       -12.7897
 262   2.0000      -0.466498       -12.6941
 263   2.0000      -0.465050       -12.6546
 264   2.0000      -0.462873       -12.5954
 265   2.0000      -0.462495       -12.5851
 266   2.0000      -0.453863       -12.3502
 267   2.0000      -0.453110       -12.3298
 268   2.0000      -0.450439       -12.2571
 269   2.0000      -0.449927       -12.2431
 270   2.0000      -0.449674       -12.2363
 271   2.0000      -0.447496       -12.1770
 272   2.0000      -0.447075       -12.1655
 273   2.0000      -0.445789       -12.1305
 274   2.0000      -0.444379       -12.0922
 275   2.0000      -0.443469       -12.0674
 276   2.0000      -0.441372       -12.0103
 277   2.0000      -0.436998       -11.8913
 278   2.0000      -0.431499       -11.7417
 279   2.0000      -0.428708       -11.6657
 280   2.0000      -0.428279       -11.6541
 281   2.0000      -0.427213       -11.6250
 282   2.0000      -0.424769       -11.5585
 283   2.0000      -0.422549       -11.4981
 284   2.0000      -0.422075       -11.4852
 285   2.0000      -0.418530       -11.3888
 286   2.0000      -0.416612       -11.3366
 287   2.0000      -0.415461       -11.3053
 288   2.0000      -0.411048       -11.1852
 289   2.0000      -0.410000       -11.1567
 290   2.0000      -0.404252       -11.0003
 291   2.0000      -0.400903       -10.9091
 292   2.0000      -0.399478       -10.8704
 293   2.0000      -0.392510       -10.6807
 294   2.0000      -0.389579       -10.6010
 295   2.0000      -0.388494       -10.5715
 296   2.0000      -0.385160       -10.4807
 297   2.0000      -0.384309       -10.4576
 298   2.0000      -0.378219       -10.2919
 299   2.0000      -0.373276       -10.1574
 300   2.0000      -0.362473        -9.8634
 301   2.0000      -0.356102        -9.6900
 302   2.0000      -0.355261        -9.6671
 303   2.0000      -0.352930        -9.6037
 304   2.0000      -0.344545        -9.3755
 305   2.0000      -0.341097        -9.2817
 306   2.0000      -0.334360        -9.0984
 307   2.0000      -0.331912        -9.0318
 308   2.0000      -0.330232        -8.9861
 309   2.0000      -0.322380        -8.7724
 310   2.0000      -0.321643        -8.7524
 311   2.0000      -0.318769        -8.6742
 312   2.0000      -0.318080        -8.6554
 313   2.0000      -0.308614        -8.3978
 314   2.0000      -0.302132        -8.2214
 315   2.0000      -0.298187        -8.1141
 316   2.0000      -0.274194        -7.4612
 317   2.0000      -0.245479        -6.6798
 318   0.0000      -0.130795        -3.5591
 319   0.0000      -0.098515        -2.6807
 320   0.0000      -0.094850        -2.5810
 321   0.0000      -0.062073        -1.6891
 322   0.0000      -0.059715        -1.6249

MULLIKEN ATOMIC CHARGES
-----------------------
   0 C :   -0.107076
   1 C :    0.239803
   2 F :   -0.171174
   3 C :    0.238964
   4 F :   -0.172084
   5 C :   -0.104331
   6 C :    0.117342
   7 C :    0.112892
   8 C :   -0.082467
   9 C :    0.050567
  10 C :   -0.001226
  11 C :   -0.083121
  12 C :    0.159425
  13 O :   -0.154598
  14 C :   -0.094812
  15 C :    0.303693
  16 C :   -0.346411
  17 C :   -0.200176
  18 N :    0.157529
  19 C :   -0.181607
  20 N :    0.146279
  21 C :    0.056388
  22 C :   -0.101691
  23 C :    0.036724
  24 C :    0.052645
  25 Cl:   -0.050990
  26 C :   -0.083994
  27 S :    0.171346
  28 C :   -0.062994
  29 C :    0.077757
  30 Cl:   -0.055466
  31 C :    0.002563
  32 C :   -0.153959
  33 S :    0.174528
  34 C :    0.187550
  35 C :   -0.052868
  36 C :   -0.072848
  37 N :    0.003113
  38 C :    0.143088
  39 C :    0.158661
  40 N :   -0.048087
  41 F :   -0.130920
  42 F :   -0.136966
  43 C :    0.214642
  44 C :   -0.026866
  45 C :   -0.003776
  46 N :   -0.289555
  47 S :    0.563944
  48 N :   -0.325081
  49 C :   -0.159770
  50 C :   -0.002382
  51 C :    0.081769
  52 Cl:   -0.055666
  53 C :   -0.063627
  54 S :    0.177254
  55 C :   -0.082058
  56 C :    0.072496
  57 Cl:   -0.057404
  58 C :    0.047322
  59 C :   -0.077203
  60 S :    0.166739
  61 C :    0.062628
  62 C :   -0.139426
  63 C :    0.143077
  64 O :   -0.140819
  65 C :    0.013814
  66 C :   -0.081317
  67 C :    0.111326
  68 C :    0.111143
  69 C :   -0.107380
  70 C :    0.241130
  71 C :    0.239298
  72 C :   -0.102604
  73 F :   -0.171476
  74 F :   -0.171116
  75 C :   -0.080175
  76 C :    0.038294
  77 C :    0.248866
  78 C :   -0.313161
  79 C :   -0.210647
  80 N :    0.174392
  81 C :   -0.173537
  82 N :    0.155375
  83 H :    0.008173
  84 H :   -0.000721
  85 H :   -0.004616
  86 H :   -0.010132
  87 H :    0.014361
  88 H :    0.012618
  89 H :   -0.005070
  90 H :   -0.000578
  91 H :   -0.004052
  92 H :    0.026671
  93 H :   -0.008567
  94 H :    0.005414
  95 H :    0.000098
  96 H :   -0.003053
Sum of atomic charges:   -0.0000000

LOEWDIN ATOMIC CHARGES
----------------------
   0 C :   -0.029303
   1 C :    0.066372
   2 F :   -0.048833
   3 C :    0.067460
   4 F :   -0.049350
   5 C :   -0.033426
   6 C :   -0.008672
   7 C :   -0.006506
   8 C :    0.017353
   9 C :   -0.022959
  10 C :   -0.051536
  11 C :    0.028965
  12 C :    0.087625
  13 O :   -0.140423
  14 C :   -0.096188
  15 C :    0.075753
  16 C :   -0.140972
  17 C :   -0.026362
  18 N :   -0.049385
  19 C :   -0.017119
  20 N :   -0.054378
  21 C :    0.049065
  22 C :   -0.185713
  23 C :   -0.022184
  24 C :   -0.174996
  25 Cl:    0.168681
  26 C :   -0.184326
  27 S :    0.470624
  28 C :   -0.217632
  29 C :   -0.164600
  30 Cl:    0.165007
  31 C :   -0.052825
  32 C :   -0.167712
  33 S :    0.491341
  34 C :   -0.039543
  35 C :   -0.012193
  36 C :   -0.006179
  37 N :   -0.029097
  38 C :    0.061548
  39 C :    0.065829
  40 N :   -0.052217
  41 F :   -0.020461
  42 F :   -0.025349
  43 C :   -0.040211
  44 C :   -0.046049
  45 C :   -0.038062
  46 N :   -0.276901
  47 S :    0.684806
  48 N :   -0.296757
  49 C :   -0.165711
  50 C :   -0.052706
  51 C :   -0.164982
  52 Cl:    0.165946
  53 C :   -0.213423
  54 S :    0.492442
  55 C :   -0.180447
  56 C :   -0.173557
  57 Cl:    0.165263
  58 C :   -0.025818
  59 C :   -0.185395
  60 S :    0.485180
  61 C :    0.053319
  62 C :   -0.097297
  63 C :    0.083336
  64 O :   -0.141821
  65 C :   -0.053595
  66 C :    0.030397
  67 C :   -0.009601
  68 C :   -0.005431
  69 C :   -0.030673
  70 C :    0.067159
  71 C :    0.066545
  72 C :   -0.032766
  73 F :   -0.049337
  74 F :   -0.048480
  75 C :    0.013240
  76 C :   -0.019021
  77 C :    0.058914
  78 C :   -0.139107
  79 C :   -0.037137
  80 N :   -0.044433
  81 C :   -0.019186
  82 N :   -0.050197
  83 H :    0.047821
  84 H :    0.044649
  85 H :    0.040001
  86 H :    0.039856
  87 H :    0.043861
  88 H :    0.037808
  89 H :    0.033475
  90 H :    0.033517
  91 H :    0.040263
  92 H :    0.052419
  93 H :    0.040806
  94 H :    0.047189
  95 H :    0.044961
  96 H :    0.039747

  Mayer bond orders larger than 0.100000
B(  0-C ,  1-C ) :   1.4427 B(  0-C ,  5-C ) :   0.1081 B(  0-C ,  7-C ) :   1.1879
B(  0-C , 83-H ) :   1.0067 B(  1-C ,  2-F ) :   1.1354 B(  1-C ,  3-C ) :   1.1908
B(  3-C ,  4-F ) :   1.1330 B(  3-C ,  5-C ) :   1.4436 B(  5-C ,  6-C ) :   1.1938
B(  5-C , 84-H ) :   1.0069 B(  6-C ,  7-C ) :   1.2568 B(  6-C , 11-C ) :   1.1886
B(  7-C ,  8-C ) :   1.2181 B(  8-C ,  9-C ) :   1.4512 B(  8-C , 85-H ) :   0.9904
B(  9-C , 10-C ) :   1.2230 B(  9-C , 15-C ) :   0.9830 B( 10-C , 11-C ) :   1.4737
B( 10-C , 12-C ) :   0.9498 B( 11-C , 86-H ) :   1.0159 B( 12-C , 13-O ) :   2.1744
B( 12-C , 14-C ) :   0.9415 B( 14-C , 15-C ) :   1.0760 B( 14-C , 21-C ) :   1.5838
B( 15-C , 16-C ) :   1.6306 B( 16-C , 17-C ) :   1.1353 B( 16-C , 19-C ) :   1.1472
B( 17-C , 18-N ) :   2.9898 B( 19-C , 20-N ) :   2.9651 B( 21-C , 22-C ) :   1.2208
B( 21-C , 87-H ) :   0.9182 B( 22-C , 23-C ) :   1.4025 B( 22-C , 27-S ) :   1.0784
B( 23-C , 24-C ) :   1.3025 B( 23-C , 88-H ) :   0.9859 B( 24-C , 25-Cl) :   1.0510
B( 24-C , 26-C ) :   1.3973 B( 26-C , 27-S ) :   1.1649 B( 26-C , 28-C ) :   1.2086
B( 28-C , 29-C ) :   1.4236 B( 28-C , 33-S ) :   1.0808 B( 29-C , 30-Cl) :   1.0382
B( 29-C , 31-C ) :   1.2795 B( 31-C , 32-C ) :   1.4242 B( 31-C , 89-H ) :   0.9953
B( 32-C , 33-S ) :   1.1075 B( 32-C , 34-C ) :   1.1851 B( 34-C , 35-C ) :   1.2917
B( 34-C , 43-C ) :   0.1275 B( 34-C , 45-C ) :   1.1996 B( 35-C , 36-C ) :   1.1180
B( 35-C , 40-N ) :   1.3755 B( 36-C , 37-N ) :   1.4288 B( 36-C , 43-C ) :   1.2963
B( 37-N , 38-C ) :   1.6681 B( 38-C , 39-C ) :   1.1031 B( 38-C , 42-F ) :   1.1772
B( 39-C , 40-N ) :   1.6553 B( 39-C , 41-F ) :   1.1916 B( 43-C , 44-C ) :   1.1875
B( 43-C , 49-C ) :   1.1791 B( 44-C , 45-C ) :   1.1134 B( 44-C , 48-N ) :   1.4721
B( 45-C , 46-N ) :   1.5056 B( 46-N , 47-S ) :   1.2858 B( 46-N , 48-N ) :   0.1530
B( 47-S , 48-N ) :   1.2769 B( 49-C , 50-C ) :   1.4176 B( 49-C , 54-S ) :   1.1133
B( 50-C , 51-C ) :   1.2734 B( 50-C , 90-H ) :   0.9986 B( 51-C , 52-Cl) :   1.0386
B( 51-C , 53-C ) :   1.4196 B( 53-C , 54-S ) :   1.0945 B( 53-C , 55-C ) :   1.2115
B( 55-C , 56-C ) :   1.4154 B( 55-C , 60-S ) :   1.1569 B( 56-C , 57-Cl) :   1.0385
B( 56-C , 58-C ) :   1.3014 B( 58-C , 59-C ) :   1.4067 B( 58-C , 91-H ) :   1.0100
B( 59-C , 60-S ) :   1.0889 B( 59-C , 61-C ) :   1.1466 B( 61-C , 62-C ) :   1.6383
B( 61-C , 92-H ) :   0.9476 B( 62-C , 63-C ) :   0.9413 B( 62-C , 77-C ) :   1.0323
B( 63-C , 64-O ) :   2.2736 B( 63-C , 65-C ) :   0.9151 B( 65-C , 66-C ) :   1.4761
B( 65-C , 76-C ) :   1.2219 B( 66-C , 67-C ) :   1.1944 B( 66-C , 93-H ) :   1.0158
B( 67-C , 68-C ) :   1.2569 B( 67-C , 72-C ) :   1.1940 B( 68-C , 69-C ) :   1.1890
B( 68-C , 75-C ) :   1.2150 B( 69-C , 70-C ) :   1.4422 B( 69-C , 72-C ) :   0.1089
B( 69-C , 94-H ) :   1.0067 B( 70-C , 71-C ) :   1.1922 B( 70-C , 74-F ) :   1.1343
B( 71-C , 72-C ) :   1.4430 B( 71-C , 73-F ) :   1.1338 B( 72-C , 95-H ) :   1.0064
B( 75-C , 76-C ) :   1.4580 B( 75-C , 96-H ) :   0.9945 B( 76-C , 77-C ) :   1.0004
B( 77-C , 78-C ) :   1.6622 B( 78-C , 79-C ) :   1.1475 B( 78-C , 81-C ) :   1.1371
B( 79-C , 80-N ) :   3.0295 B( 81-C , 82-N ) :   2.9884

-----------------------------------------------------------------------------
         ABSORPTION SPECTRUM VIA TRANSITION ELECTRIC DIPOLE MOMENTS
-----------------------------------------------------------------------------
State   Energy  Wavelength   fosc         T2         TX        TY        TZ
        (cm-1)    (nm)                  (au**2)     (au)      (au)      (au)
-----------------------------------------------------------------------------
   0   10170.8    983.2   1.198000281  38.77742  -1.62021   5.72254  -1.84524
   1   17370.2    575.7   0.024491730   0.46419  -0.56100  -0.38441   0.04105
   2   18556.2    538.9   0.557193228   9.88538   0.60897  -2.76595   1.36530
   3   19573.4    510.9   0.647708051  10.89403  -1.59717   2.71150  -0.99543
   4   24147.6    414.1   0.029311049   0.39961   0.51778  -0.32855   0.15351
   5   24821.6    402.9   0.002162523   0.02868  -0.11232  -0.12564   0.01676
   6   24862.6    402.2   0.027900689   0.36944  -0.05756  -0.45127   0.40309
   7   26059.5    383.7   0.042079383   0.53159  -0.36208  -0.60914  -0.17156
   8   26226.0    381.3   0.116503195   1.46245   0.51746  -0.96642  -0.51061
   9   26480.8    377.6   0.010009789   0.12444  -0.09708   0.32603  -0.09340
  10   27050.0    369.7   0.043521760   0.52968   0.68586  -0.18599  -0.15713
  11   27232.9    367.2   0.012070433   0.14592  -0.25423   0.09049  -0.27037
  12   27799.7    359.7   0.172042918   2.03738  -0.05113   1.40784  -0.22967
  13   27953.7    357.7   0.123805367   1.45806  -1.11572   0.44244  -0.13214
  14   28327.6    353.0   0.099539132   1.15680   0.06839  -1.04677  -0.23746
  15   28460.9    351.4   0.008554572   0.09895  -0.28992  -0.10030   0.06956
  16   28645.2    349.1   0.047387309   0.54461  -0.64757   0.35243   0.03262
  17   29074.2    343.9   0.004481069   0.05074   0.09791   0.19921  -0.03834
  18   29360.0    340.6   0.044956535   0.50409   0.58289  -0.39264   0.10087
  19   29488.2    339.1   0.015515309   0.17322  -0.41364   0.00587   0.04565
  20   29758.0    336.0   0.317133569   3.50844  -0.42345  -1.52047   1.00861
  21   29937.2    334.0   0.064349002   0.70763   0.82694   0.10489  -0.11317
  22   30177.8    331.4   0.124868956   1.36220   1.13386  -0.17318  -0.21579
  23   30718.2    325.5   0.072972853   0.78206   0.20148   0.80113   0.31569
  24   30864.8    324.0   0.259858217   2.77171   1.00544  -1.31736   0.15925
  25   31300.8    319.5   0.015322956   0.16116   0.32757   0.20712   0.10472
  26   31997.0    312.5   0.057286668   0.58941   0.71722   0.19156   0.19573
  27   32178.8    310.8   0.016514158   0.16895   0.18505   0.35857   0.07832
  28   32646.6    306.3   0.008226354   0.08296   0.07825   0.27467   0.03726
  29   32806.6    304.8   0.189942538   1.90606  -1.01824   0.54560   0.75603
  30   33091.3    302.2   0.238604010   2.37378  -1.09618  -0.57696   0.91613
  31   33369.8    299.7   0.214438806   2.11556  -1.43696   0.06197  -0.21649
  32   33653.4    297.1   0.090951288   0.88972   0.88149   0.28862  -0.17147
  33   33925.9    294.8   0.073322098   0.71151   0.18489  -0.72215   0.39474
  34   34180.2    292.6   0.036147115   0.34816  -0.03292   0.51799  -0.28064
  35   34252.0    292.0   0.142200762   1.36676   0.53860   0.99253   0.30255
  36   34801.1    287.3   0.024397798   0.23080  -0.45143   0.14695  -0.07357
  37   35045.6    285.3   0.039733160   0.37325   0.37781  -0.47756  -0.04945
  38   35396.5    282.5   0.062877126   0.58480   0.68362   0.27442  -0.20535
  39   35450.1    282.1   0.536344371   4.98084   2.19815   0.33818  -0.18608
  40   35557.0    281.2   0.347433479   3.21679  -1.00798  -1.45835   0.27201
  41   35781.4    279.5   0.030654505   0.28204  -0.32471   0.36740  -0.20402
  42   35945.0    278.2   0.082011732   0.75113  -0.86463  -0.02741   0.05280
  43   36154.3    276.6   0.091408872   0.83235  -0.76521  -0.47021   0.16031
  44   36270.8    275.7   0.220466302   2.00106  -0.95085   0.74374   0.73743
  45   36468.3    274.2   0.103696084   0.93610  -0.66175   0.62162   0.33434
  46   36908.3    270.9   0.075043249   0.66937  -0.53285   0.22639   0.57808
  47   37086.7    269.6   0.007047605   0.06256   0.14317   0.18215  -0.09425
  48   37587.2    266.0   0.005865694   0.05138  -0.12538  -0.12867   0.13820
  49   37687.4    265.3   0.027620652   0.24128  -0.35704  -0.33731  -0.00474
  50   38328.3    260.9   0.025578994   0.21971  -0.08134  -0.42346  -0.18377
  51   38778.8    257.9   0.038693621   0.32849   0.20120   0.45942  -0.27738
  52   38823.3    257.6   0.119337616   1.01195  -0.78217  -0.30335   0.55510
  53   39291.2    254.5   0.064745606   0.54249   0.55833  -0.23350  -0.41980
  54   39507.6    253.1   0.024931577   0.20775  -0.25821  -0.02755  -0.37459
  55   39627.4    252.4   0.031564835   0.26223   0.39158  -0.28594  -0.16473
  56   39718.1    251.8   0.009214433   0.07638  -0.00043  -0.26091  -0.09112
  57   39751.5    251.6   0.065435359   0.54192   0.54433   0.15875  -0.46949
  58   39844.7    251.0   0.022300308   0.18425  -0.16468   0.30568  -0.25238

FINAL SINGLE POINT ENERGY     -7232.476865306628

DIPOLE MOMENT
-------------
                                X             Y             Z
Electronic contribution:     -3.53914       1.69612       8.03385
Nuclear contribution   :      2.69370      -3.58198      -8.97339
                        -----------------------------------------
Total Dipole Moment    :     -0.84543      -1.88587      -0.93954
                        -----------------------------------------
Magnitude (a.u.)       :      2.27024
Magnitude (Debye)      :      5.77049

Rotational constants in cm-1:     0.001406     0.000132     0.000124
Rotational constants in MHz :    42.158371     3.953231     3.710214

                             ****ORCA TERMINATED NORMALLY****
TOTAL RUN TIME: 0 days 0 hours 11 minutes 10 seconds 955 msec
