                         Program Version 4.2.0 -  RELEASE  -
|  1> # ORCA input file
|  2> # SCF done       -219.652840160746          0.000936385622
|  3> ! CAM-B3LYP def2-SVP def2/J RIJCOSX Grid4 TightSCF
|  4> %maxcore 5000
|  5> %tddft
|  6>     Mode sTDDFT
|  7>     Ethresh 5.0
|  8>     maxcore 5000
|  9> end
| 10>
| 11> %pal
| 12>   nprocs 6
| 13>   end
| 14> * xyz 0 1
| 15>    C       -0.49579         1.80148         0.97653
| 16>    C        0.71441         2.04764         1.56136
| 17>    F        1.14953         3.30550         1.70540
| 18>    C        1.51970         0.98472         2.01963
| 19>    F        2.70146         1.25590         2.58844
| 20>    C        1.10290        -0.30988         1.88617
| 21>    C       -0.13894        -0.59642         1.28616
| 22>    C       -0.95463         0.47710         0.82322
| 23>    C       -2.20340         0.21393         0.21704
| 24>    C       -2.62702        -1.08329         0.07989
| 25>    C       -1.80674        -2.14782         0.54682
| 26>    C       -0.59253        -1.92437         1.12995
| 27>    C       -2.46787        -3.43780         0.27527
| 28>    O       -1.97463        -4.53671         0.38495
| 29>    C       -3.80124        -3.08716        -0.29777
| 30>    C       -3.84661        -1.64432        -0.49260
| 31>    C       -4.85024        -0.92778        -1.08428
| 32>    C       -6.02667        -1.47309        -1.64350
| 33>    N       -7.00343        -1.83817        -2.12325
| 34>    C       -4.83621         0.47621        -1.23728
| 35>    N       -4.88236         1.61186        -1.39471
| 36>    C       -4.74671        -3.98996        -0.64730
| 37>    C       -4.72251        -5.37997        -0.27224
| 38>    C       -5.09844        -6.38394        -1.16189
| 39>    C       -5.01802        -7.76256        -0.84552
| 40>    N       -5.41889        -8.58808        -1.85283
| 41>    C       -5.76307        -7.93664        -2.89074
| 42>    S       -5.64729        -6.19467        -2.79596
| 43>    C       -4.59177        -8.18758         0.42112
| 44>    C       -4.31297        -7.18564         1.34506
| 45>    C       -4.36519        -5.80611         1.01740
| 46>    N       -4.06114        -4.97349         2.04904
| 47>    C       -3.74229        -5.62140         3.09983
| 48>    S       -3.78823        -7.35806         2.99083
| 49>    C       -4.43175        -9.60897         0.69072
| 50>    C       -4.93487       -10.22787         1.84510
| 51>    C       -4.73884       -11.63300         2.09891
| 52>    N       -5.31057       -12.20269         3.17557
| 53>    C       -5.95007       -11.45441         4.02839
| 54>    C       -6.08649       -10.03587         3.81230
| 55>    N       -5.62285        -9.47763         2.72911
| 56>    C       -6.75770        -9.23051         4.76744
| 57>    N       -7.28688        -8.59842         5.56225
| 58>    C       -6.52665       -12.05145         5.17873
| 59>    N       -6.98660       -12.48629         6.13284
| 60>    C       -3.98857       -12.44366         1.22935
| 61>    C       -3.49707       -11.82965         0.07092
| 62>    C       -3.72424       -10.42539        -0.19938
| 63>    N       -3.10586       -10.03504        -1.32056
| 64>    S       -2.35393       -11.28343        -1.96326
| 65>    N       -2.72920       -12.39103        -0.87255
| 66>    C       -3.69295       -13.82440         1.57356
| 67>    C       -3.76197       -14.87922         0.66912
| 68>    C       -3.49976       -16.22541         1.03210
| 69>    N       -3.62180       -17.11166         0.00664
| 70>    C       -3.99431       -16.53795        -1.07336
| 71>    S       -4.23048       -14.82002        -1.00119
| 72>    C       -3.14457       -16.57045         2.34987
| 73>    C       -3.03005       -15.50009         3.23891
| 74>    C       -3.30330       -14.15851         2.88015
| 75>    N       -3.11353       -13.26438         3.89184
| 76>    C       -2.76644       -13.83838         4.97432
| 77>    S       -2.60095       -15.57464         4.91642
| 78>    C       -2.84166       -17.90566         2.77508
| 79>    C       -3.28683       -19.09296         2.30229
| 80>    C       -2.52511       -20.33333         2.64317
| 81>    O       -1.68440       -20.45134         3.50147
| 82>    C       -2.98178       -21.34271         1.66810
| 83>    C       -2.50482       -22.60421         1.45489
| 84>    C       -3.07681       -23.39025         0.42989
| 85>    C       -4.13430       -22.84939        -0.35853
| 86>    C       -4.69357       -23.63615        -1.38577
| 87>    C       -4.22683       -24.89930        -1.61827
| 88>    C       -3.18199       -25.43342        -0.83702
| 89>    C       -2.61875       -24.69602         0.16637
| 90>    F       -2.74345       -26.67366        -1.08885
| 91>    F       -4.75898       -25.64426        -2.59549
| 92>    C       -4.61311       -21.54322        -0.10871
| 93>    C       -4.04825       -20.80108         0.89426
| 94>    C       -4.34598       -19.45887         1.38331
| 95>    C       -5.51333       -18.77763         1.17549
| 96>    C       -5.85535       -17.58499         1.84512
| 97>    N       -6.18783       -16.62691         2.38214
| 98>    C       -6.52947       -19.21032         0.29905
| 99>    N       -7.37134       -19.50521        -0.42295
|100>    H       -1.09929         2.62647         0.63143
|101>    H        1.73082        -1.11195         2.24137
|102>    H       -2.79424         1.04832        -0.12437
|103>    H        0.01107        -2.75185         1.47063
|104>    H       -5.58795        -3.69069        -1.26027
|105>    H       -6.11399        -8.39970        -3.79220
|106>    H       -3.46862        -5.14935         4.02337
|107>    H       -4.15565       -17.06991        -1.99114
|108>    H       -2.57626       -13.31212         5.88943
|109>    H       -2.10029       -17.97749         3.56749
|110>    H       -1.69997       -22.99630         2.05787
|111>    H       -5.49628       -23.24442        -1.99077
|112>    H       -1.81999       -25.11897         0.75526
|113>    H       -5.40849       -21.15524        -0.72478
|114> *
|115>
|116>                          ****END OF INPUT****

CARTESIAN COORDINATES (ANGSTROEM)
---------------------------------
  C     -0.495790    1.801480    0.976530
  C      0.714410    2.047640    1.561360
  F      1.149530    3.305500    1.705400
  C      1.519700    0.984720    2.019630
  F      2.701460    1.255900    2.588440
  C      1.102900   -0.309880    1.886170
  C     -0.138940   -0.596420    1.286160
  C     -0.954630    0.477100    0.823220
  C     -2.203400    0.213930    0.217040
  C     -2.627020   -1.083290    0.079890
  C     -1.806740   -2.147820    0.546820
  C     -0.592530   -1.924370    1.129950
  C     -2.467870   -3.437800    0.275270
  O     -1.974630   -4.536710    0.384950
  C     -3.801240   -3.087160   -0.297770
  C     -3.846610   -1.644320   -0.492600
  C     -4.850240   -0.927780   -1.084280
  C     -6.026670   -1.473090   -1.643500
  N     -7.003430   -1.838170   -2.123250
  C     -4.836210    0.476210   -1.237280
  N     -4.882360    1.611860   -1.394710
  C     -4.746710   -3.989960   -0.647300
  C     -4.722510   -5.379970   -0.272240
  C     -5.098440   -6.383940   -1.161890
  C     -5.018020   -7.762560   -0.845520
  N     -5.418890   -8.588080   -1.852830
  C     -5.763070   -7.936640   -2.890740
  S     -5.647290   -6.194670   -2.795960
  C     -4.591770   -8.187580    0.421120
  C     -4.312970   -7.185640    1.345060
  C     -4.365190   -5.806110    1.017400
  N     -4.061140   -4.973490    2.049040
  C     -3.742290   -5.621400    3.099830
  S     -3.788230   -7.358060    2.990830
  C     -4.431750   -9.608970    0.690720
  C     -4.934870  -10.227870    1.845100
  C     -4.738840  -11.633000    2.098910
  N     -5.310570  -12.202690    3.175570
  C     -5.950070  -11.454410    4.028390
  C     -6.086490  -10.035870    3.812300
  N     -5.622850   -9.477630    2.729110
  C     -6.757700   -9.230510    4.767440
  N     -7.286880   -8.598420    5.562250
  C     -6.526650  -12.051450    5.178730
  N     -6.986600  -12.486290    6.132840
  C     -3.988570  -12.443660    1.229350
  C     -3.497070  -11.829650    0.070920
  C     -3.724240  -10.425390   -0.199380
  N     -3.105860  -10.035040   -1.320560
  S     -2.353930  -11.283430   -1.963260
  N     -2.729200  -12.391030   -0.872550
  C     -3.692950  -13.824400    1.573560
  C     -3.761970  -14.879220    0.669120
  C     -3.499760  -16.225410    1.032100
  N     -3.621800  -17.111660    0.006640
  C     -3.994310  -16.537950   -1.073360
  S     -4.230480  -14.820020   -1.001190
  C     -3.144570  -16.570450    2.349870
  C     -3.030050  -15.500090    3.238910
  C     -3.303300  -14.158510    2.880150
  N     -3.113530  -13.264380    3.891840
  C     -2.766440  -13.838380    4.974320
  S     -2.600950  -15.574640    4.916420
  C     -2.841660  -17.905660    2.775080
  C     -3.286830  -19.092960    2.302290
  C     -2.525110  -20.333330    2.643170
  O     -1.684400  -20.451340    3.501470
  C     -2.981780  -21.342710    1.668100
  C     -2.504820  -22.604210    1.454890
  C     -3.076810  -23.390250    0.429890
  C     -4.134300  -22.849390   -0.358530
  C     -4.693570  -23.636150   -1.385770
  C     -4.226830  -24.899300   -1.618270
  C     -3.181990  -25.433420   -0.837020
  C     -2.618750  -24.696020    0.166370
  F     -2.743450  -26.673660   -1.088850
  F     -4.758980  -25.644260   -2.595490
  C     -4.613110  -21.543220   -0.108710
  C     -4.048250  -20.801080    0.894260
  C     -4.345980  -19.458870    1.383310
  C     -5.513330  -18.777630    1.175490
  C     -5.855350  -17.584990    1.845120
  N     -6.187830  -16.626910    2.382140
  C     -6.529470  -19.210320    0.299050
  N     -7.371340  -19.505210   -0.422950
  H     -1.099290    2.626470    0.631430
  H      1.730820   -1.111950    2.241370
  H     -2.794240    1.048320   -0.124370
  H      0.011070   -2.751850    1.470630
  H     -5.587950   -3.690690   -1.260270
  H     -6.113990   -8.399700   -3.792200
  H     -3.468620   -5.149350    4.023370
  H     -4.155650  -17.069910   -1.991140
  H     -2.576260  -13.312120    5.889430
  H     -2.100290  -17.977490    3.567490
  H     -1.699970  -22.996300    2.057870
  H     -5.496280  -23.244420   -1.990770
  H     -1.819990  -25.118970    0.755260
  H     -5.408490  -21.155240   -0.724780

 Total Charge           Charge          ....    0
 Multiplicity           Mult            ....    1
 Number of Electrons    NEL             ....  604
 Basis Dimension        Dim             .... 1280

ORBITAL ENERGIES
----------------

  NO   OCC          E(Eh)            E(eV)
   0   2.0000     -89.057403     -2423.3751
   1   2.0000     -88.976060     -2421.1617
   2   2.0000     -88.974848     -2421.1287
   3   2.0000     -88.973716     -2421.0979
   4   2.0000     -88.970251     -2421.0036
   5   2.0000     -24.802428      -674.9084
   6   2.0000     -24.801053      -674.8710
   7   2.0000     -24.800039      -674.8434
   8   2.0000     -24.799750      -674.8355
   9   2.0000     -19.221365      -523.0399
  10   2.0000     -19.219861      -522.9990
  11   2.0000     -14.466491      -393.6532
  12   2.0000     -14.463700      -393.5773
  13   2.0000     -14.460347      -393.4861
  14   2.0000     -14.459963      -393.4756
  15   2.0000     -14.433878      -392.7658
  16   2.0000     -14.430605      -392.6767
  17   2.0000     -14.426950      -392.5773
  18   2.0000     -14.426157      -392.5557
  19   2.0000     -14.424802      -392.5188
  20   2.0000     -14.423695      -392.4887
  21   2.0000     -14.422325      -392.4514
  22   2.0000     -14.419803      -392.3828
  23   2.0000     -14.419321      -392.3697
  24   2.0000     -14.416597      -392.2955
  25   2.0000     -10.387563      -282.6600
  26   2.0000     -10.385822      -282.6126
  27   2.0000     -10.384756      -282.5836
  28   2.0000     -10.383825      -282.5582
  29   2.0000     -10.383260      -282.5429
  30   2.0000     -10.382933      -282.5340
  31   2.0000     -10.371955      -282.2352
  32   2.0000     -10.371495      -282.2227
  33   2.0000     -10.355134      -281.7775
  34   2.0000     -10.354262      -281.7538
  35   2.0000     -10.352760      -281.7129
  36   2.0000     -10.352513      -281.7062
  37   2.0000     -10.351373      -281.6752
  38   2.0000     -10.350541      -281.6525
  39   2.0000     -10.350333      -281.6469
  40   2.0000     -10.348711      -281.6027
  41   2.0000     -10.348444      -281.5955
  42   2.0000     -10.345611      -281.5184
  43   2.0000     -10.344282      -281.4822
  44   2.0000     -10.341381      -281.4033
  45   2.0000     -10.330310      -281.1020
  46   2.0000     -10.329887      -281.0905
  47   2.0000     -10.328957      -281.0652
  48   2.0000     -10.328711      -281.0585
  49   2.0000     -10.326869      -281.0084
  50   2.0000     -10.326570      -281.0003
  51   2.0000     -10.326203      -280.9903
  52   2.0000     -10.326038      -280.9858
  53   2.0000     -10.326016      -280.9852
  54   2.0000     -10.325735      -280.9775
  55   2.0000     -10.324726      -280.9501
  56   2.0000     -10.324709      -280.9496
  57   2.0000     -10.323707      -280.9223
  58   2.0000     -10.323324      -280.9119
  59   2.0000     -10.322446      -280.8880
  60   2.0000     -10.321771      -280.8697
  61   2.0000     -10.321068      -280.8505
  62   2.0000     -10.320942      -280.8471
  63   2.0000     -10.318558      -280.7823
  64   2.0000     -10.317570      -280.7554
  65   2.0000     -10.315009      -280.6857
  66   2.0000     -10.314930      -280.6835
  67   2.0000     -10.314658      -280.6761
  68   2.0000     -10.312864      -280.6273
  69   2.0000     -10.312418      -280.6152
  70   2.0000     -10.312327      -280.6127
  71   2.0000     -10.311794      -280.5982
  72   2.0000     -10.309766      -280.5430
  73   2.0000     -10.308330      -280.5039
  74   2.0000     -10.307047      -280.4690
  75   2.0000     -10.306288      -280.4483
  76   2.0000     -10.305433      -280.4251
  77   2.0000     -10.305039      -280.4144
  78   2.0000     -10.304570      -280.4016
  79   2.0000     -10.304281      -280.3937
  80   2.0000     -10.303663      -280.3769
  81   2.0000     -10.303147      -280.3629
  82   2.0000     -10.302242      -280.3383
  83   2.0000     -10.297105      -280.1985
  84   2.0000     -10.296241      -280.1750
  85   2.0000      -8.148530      -221.7328
  86   2.0000      -8.071826      -219.6455
  87   2.0000      -8.071202      -219.6286
  88   2.0000      -8.070020      -219.5964
  89   2.0000      -8.066036      -219.4880
  90   2.0000      -6.119371      -166.5166
  91   2.0000      -6.111908      -166.3135
  92   2.0000      -6.111513      -166.3027
  93   2.0000      -6.041201      -164.3894
  94   2.0000      -6.040540      -164.3715
  95   2.0000      -6.039339      -164.3388
  96   2.0000      -6.036961      -164.2741
  97   2.0000      -6.036426      -164.2595
  98   2.0000      -6.035450      -164.2329
  99   2.0000      -6.035299      -164.2288
 100   2.0000      -6.033642      -164.1838
 101   2.0000      -6.032926      -164.1642
 102   2.0000      -6.031727      -164.1316
 103   2.0000      -6.031260      -164.1189
 104   2.0000      -6.027764      -164.0238
 105   2.0000      -1.324881       -36.0519
 106   2.0000      -1.322972       -35.9999
 107   2.0000      -1.309969       -35.6461
 108   2.0000      -1.308120       -35.5958
 109   2.0000      -1.152319       -31.3562
 110   2.0000      -1.137034       -30.9403
 111   2.0000      -1.136135       -30.9158
 112   2.0000      -1.126106       -30.6429
 113   2.0000      -1.089093       -29.6357
 114   2.0000      -1.084758       -29.5178
 115   2.0000      -1.081265       -29.4227
 116   2.0000      -1.075931       -29.2776
 117   2.0000      -1.052341       -28.6357
 118   2.0000      -1.026000       -27.9189
 119   2.0000      -1.021421       -27.7943
 120   2.0000      -1.017607       -27.6905
 121   2.0000      -1.009529       -27.4707
 122   2.0000      -1.008192       -27.4343
 123   2.0000      -1.006192       -27.3799
 124   2.0000      -1.004388       -27.3308
 125   2.0000      -1.001421       -27.2500
 126   2.0000      -0.996927       -27.1278
 127   2.0000      -0.992338       -27.0029
 128   2.0000      -0.986718       -26.8500
 129   2.0000      -0.983779       -26.7700
 130   2.0000      -0.968581       -26.3564
 131   2.0000      -0.964450       -26.2440
 132   2.0000      -0.948518       -25.8105
 133   2.0000      -0.939169       -25.5561
 134   2.0000      -0.932838       -25.3838
 135   2.0000      -0.928853       -25.2754
 136   2.0000      -0.913522       -24.8582
 137   2.0000      -0.906484       -24.6667
 138   2.0000      -0.904505       -24.6128
 139   2.0000      -0.901749       -24.5378
 140   2.0000      -0.898498       -24.4494
 141   2.0000      -0.895384       -24.3646
 142   2.0000      -0.894299       -24.3351
 143   2.0000      -0.888424       -24.1752
 144   2.0000      -0.877705       -23.8836
 145   2.0000      -0.874323       -23.7915
 146   2.0000      -0.851525       -23.1712
 147   2.0000      -0.844961       -22.9926
 148   2.0000      -0.842690       -22.9307
 149   2.0000      -0.842266       -22.9192
 150   2.0000      -0.839656       -22.8482
 151   2.0000      -0.831707       -22.6319
 152   2.0000      -0.828035       -22.5320
 153   2.0000      -0.808977       -22.0134
 154   2.0000      -0.805334       -21.9143
 155   2.0000      -0.788299       -21.4507
 156   2.0000      -0.772437       -21.0191
 157   2.0000      -0.769403       -20.9365
 158   2.0000      -0.764905       -20.8141
 159   2.0000      -0.753970       -20.5166
 160   2.0000      -0.746041       -20.3008
 161   2.0000      -0.740304       -20.1447
 162   2.0000      -0.739477       -20.1222
 163   2.0000      -0.731678       -19.9100
 164   2.0000      -0.722804       -19.6685
 165   2.0000      -0.719818       -19.5872
 166   2.0000      -0.715481       -19.4692
 167   2.0000      -0.709922       -19.3180
 168   2.0000      -0.704394       -19.1675
 169   2.0000      -0.703482       -19.1427
 170   2.0000      -0.693966       -18.8838
 171   2.0000      -0.689167       -18.7532
 172   2.0000      -0.687123       -18.6976
 173   2.0000      -0.683320       -18.5941
 174   2.0000      -0.677181       -18.4270
 175   2.0000      -0.668885       -18.2013
 176   2.0000      -0.665503       -18.1093
 177   2.0000      -0.663030       -18.0420
 178   2.0000      -0.661452       -17.9990
 179   2.0000      -0.658277       -17.9126
 180   2.0000      -0.654722       -17.8159
 181   2.0000      -0.647770       -17.6267
 182   2.0000      -0.644874       -17.5479
 183   2.0000      -0.643647       -17.5145
 184   2.0000      -0.638730       -17.3807
 185   2.0000      -0.634475       -17.2649
 186   2.0000      -0.628101       -17.0915
 187   2.0000      -0.625612       -17.0238
 188   2.0000      -0.617363       -16.7993
 189   2.0000      -0.615922       -16.7601
 190   2.0000      -0.607622       -16.5342
 191   2.0000      -0.600874       -16.3506
 192   2.0000      -0.597383       -16.2556
 193   2.0000      -0.594172       -16.1682
 194   2.0000      -0.590382       -16.0651
 195   2.0000      -0.589296       -16.0356
 196   2.0000      -0.587435       -15.9849
 197   2.0000      -0.584844       -15.9144
 198   2.0000      -0.581690       -15.8286
 199   2.0000      -0.578236       -15.7346
 200   2.0000      -0.577420       -15.7124
 201   2.0000      -0.574685       -15.6380
 202   2.0000      -0.566526       -15.4159
 203   2.0000      -0.563153       -15.3242
 204   2.0000      -0.558560       -15.1992
 205   2.0000      -0.556544       -15.1443
 206   2.0000      -0.554355       -15.0848
 207   2.0000      -0.553652       -15.0656
 208   2.0000      -0.551603       -15.0099
 209   2.0000      -0.550885       -14.9903
 210   2.0000      -0.549236       -14.9455
 211   2.0000      -0.549116       -14.9422
 212   2.0000      -0.547780       -14.9058
 213   2.0000      -0.542965       -14.7748
 214   2.0000      -0.541768       -14.7423
 215   2.0000      -0.540387       -14.7047
 216   2.0000      -0.538953       -14.6657
 217   2.0000      -0.535623       -14.5751
 218   2.0000      -0.533807       -14.5256
 219   2.0000      -0.533305       -14.5120
 220   2.0000      -0.527516       -14.3544
 221   2.0000      -0.526266       -14.3204
 222   2.0000      -0.523182       -14.2365
 223   2.0000      -0.519583       -14.1386
 224   2.0000      -0.519255       -14.1296
 225   2.0000      -0.517310       -14.0767
 226   2.0000      -0.512954       -13.9582
 227   2.0000      -0.512778       -13.9534
 228   2.0000      -0.508699       -13.8424
 229   2.0000      -0.504537       -13.7292
 230   2.0000      -0.503178       -13.6922
 231   2.0000      -0.502155       -13.6643
 232   2.0000      -0.499675       -13.5969
 233   2.0000      -0.496256       -13.5038
 234   2.0000      -0.493326       -13.4241
 235   2.0000      -0.492839       -13.4108
 236   2.0000      -0.492116       -13.3912
 237   2.0000      -0.488139       -13.2829
 238   2.0000      -0.486755       -13.2453
 239   2.0000      -0.485858       -13.2209
 240   2.0000      -0.482197       -13.1212
 241   2.0000      -0.474183       -12.9032
 242   2.0000      -0.471000       -12.8166
 243   2.0000      -0.468356       -12.7446
 244   2.0000      -0.467623       -12.7247
 245   2.0000      -0.465835       -12.6760
 246   2.0000      -0.465449       -12.6655
 247   2.0000      -0.458981       -12.4895
 248   2.0000      -0.456419       -12.4198
 249   2.0000      -0.455353       -12.3908
 250   2.0000      -0.454889       -12.3782
 251   2.0000      -0.452673       -12.3179
 252   2.0000      -0.451477       -12.2853
 253   2.0000      -0.450772       -12.2661
 254   2.0000      -0.449768       -12.2388
 255   2.0000      -0.447677       -12.1819
 256   2.0000      -0.446729       -12.1561
 257   2.0000      -0.445305       -12.1174
 258   2.0000      -0.442508       -12.0412
 259   2.0000      -0.439130       -11.9493
 260   2.0000      -0.436332       -11.8732
 261   2.0000      -0.435339       -11.8462
 262   2.0000      -0.434156       -11.8140
 263   2.0000      -0.430870       -11.7246
 264   2.0000      -0.430515       -11.7149
 265   2.0000      -0.429512       -11.6876
 266   2.0000      -0.427498       -11.6328
 267   2.0000      -0.426371       -11.6021
 268   2.0000      -0.424899       -11.5621
 269   2.0000      -0.422357       -11.4929
 270   2.0000      -0.421060       -11.4576
 271   2.0000      -0.417593       -11.3633
 272   2.0000      -0.414321       -11.2743
 273   2.0000      -0.412692       -11.2299
 274   2.0000      -0.408417       -11.1136
 275   2.0000      -0.404842       -11.0163
 276   2.0000      -0.398790       -10.8516
 277   2.0000      -0.396022       -10.7763
 278   2.0000      -0.391033       -10.6406
 279   2.0000      -0.386245       -10.5103
 280   2.0000      -0.385640       -10.4938
 281   2.0000      -0.378876       -10.3097
 282   2.0000      -0.370058       -10.0698
 283   2.0000      -0.365673        -9.9505
 284   2.0000      -0.359766        -9.7897
 285   2.0000      -0.356514        -9.7013
 286   2.0000      -0.354860        -9.6562
 287   2.0000      -0.351907        -9.5759
 288   2.0000      -0.348994        -9.4966
 289   2.0000      -0.347200        -9.4478
 290   2.0000      -0.343218        -9.3394
 291   2.0000      -0.336783        -9.1643
 292   2.0000      -0.335545        -9.1306
 293   2.0000      -0.321127        -8.7383
 294   2.0000      -0.320807        -8.7296
 295   2.0000      -0.317674        -8.6444
 296   2.0000      -0.315681        -8.5901
 297   2.0000      -0.312859        -8.5133
 298   2.0000      -0.305309        -8.3079
 299   2.0000      -0.299610        -8.1528
 300   2.0000      -0.291825        -7.9410
 301   2.0000      -0.277413        -7.5488
 302   0.0000      -0.127186        -3.4609
 303   0.0000      -0.099336        -2.7031
 304   0.0000      -0.094748        -2.5782
 305   0.0000      -0.062839        -1.7099
 306   0.0000      -0.060745        -1.6530

MULLIKEN ATOMIC CHARGES
-----------------------
   0 C :   -0.108258
   1 C :    0.243755
   2 F :   -0.170223
   3 C :    0.239960
   4 F :   -0.170141
   5 C :   -0.104496
   6 C :    0.116229
   7 C :    0.112981
   8 C :   -0.083342
   9 C :    0.051324
  10 C :    0.000004
  11 C :   -0.081034
  12 C :    0.156723
  13 O :   -0.138566
  14 C :   -0.042254
  15 C :    0.311327
  16 C :   -0.346057
  17 C :   -0.182817
  18 N :    0.160259
  19 C :   -0.182975
  20 N :    0.151143
  21 C :   -0.096678
  22 C :    0.045109
  23 C :   -0.106102
  24 C :    0.028268
  25 N :   -0.043926
  26 C :    0.014207
  27 S :    0.116884
  28 C :   -0.039998
  29 C :   -0.063956
  30 C :    0.033294
  31 N :   -0.068654
  32 C :    0.029869
  33 S :    0.127776
  34 C :    0.047342
  35 C :   -0.062871
  36 C :   -0.060396
  37 N :    0.092618
  38 C :   -0.141493
  39 C :   -0.131135
  40 N :    0.054722
  41 C :   -0.203868
  42 N :    0.242714
  43 C :   -0.203318
  44 N :    0.242716
  45 C :    0.042171
  46 C :   -0.005351
  47 C :    0.004416
  48 N :   -0.248212
  49 S :    0.561975
  50 N :   -0.276767
  51 C :   -0.023096
  52 C :   -0.061901
  53 C :   -0.028035
  54 N :   -0.071066
  55 C :    0.027405
  56 S :    0.152448
  57 C :    0.065094
  58 C :   -0.092691
  59 C :    0.032123
  60 N :   -0.054704
  61 C :    0.021319
  62 S :    0.122318
  63 C :   -0.049996
  64 C :   -0.104032
  65 C :    0.129910
  66 O :   -0.135765
  67 C :    0.018143
  68 C :   -0.083241
  69 C :    0.112600
  70 C :    0.114506
  71 C :   -0.111780
  72 C :    0.245619
  73 C :    0.239107
  74 C :   -0.104491
  75 F :   -0.171419
  76 F :   -0.170717
  77 C :   -0.087454
  78 C :    0.036900
  79 C :    0.333953
  80 C :   -0.326815
  81 C :   -0.202796
  82 N :    0.181426
  83 C :   -0.193394
  84 N :    0.151918
  85 H :    0.008547
  86 H :   -0.000992
  87 H :   -0.006491
  88 H :   -0.012260
  89 H :    0.034324
  90 H :    0.045020
  91 H :    0.044611
  92 H :    0.046964
  93 H :    0.048649
  94 H :    0.025528
  95 H :   -0.008908
  96 H :    0.005506
  97 H :   -0.000403
  98 H :   -0.006387
Sum of atomic charges:   -0.0000000

LOEWDIN ATOMIC CHARGES
----------------------
   0 C :   -0.028580
   1 C :    0.066958
   2 F :   -0.047737
   3 C :    0.068508
   4 F :   -0.048119
   5 C :   -0.033897
   6 C :   -0.007508
   7 C :   -0.006340
   8 C :    0.018980
   9 C :   -0.023051
  10 C :   -0.048909
  11 C :    0.029332
  12 C :    0.087256
  13 O :   -0.131620
  14 C :   -0.064708
  15 C :    0.076125
  16 C :   -0.129550
  17 C :   -0.020155
  18 N :   -0.043344
  19 C :   -0.016515
  20 N :   -0.047794
  21 C :    0.069079
  22 C :   -0.044060
  23 C :   -0.153826
  24 C :   -0.021927
  25 N :   -0.083239
  26 C :   -0.097882
  27 S :    0.401837
  28 C :   -0.022405
  29 C :   -0.151009
  30 C :   -0.007464
  31 N :   -0.089013
  32 C :   -0.091923
  33 S :    0.417647
  34 C :   -0.002362
  35 C :   -0.012032
  36 C :    0.006249
  37 N :    0.028153
  38 C :   -0.024888
  39 C :   -0.020991
  40 N :   -0.009374
  41 C :   -0.036490
  42 N :   -0.001650
  43 C :   -0.034846
  44 N :   -0.002769
  45 C :   -0.010569
  46 C :   -0.045738
  47 C :   -0.033005
  48 N :   -0.265273
  49 S :    0.703094
  50 N :   -0.301701
  51 C :   -0.017134
  52 C :   -0.150653
  53 C :   -0.019728
  54 N :   -0.092897
  55 C :   -0.097276
  56 S :    0.437370
  57 C :   -0.048601
  58 C :   -0.147671
  59 C :   -0.015203
  60 N :   -0.086774
  61 C :   -0.094588
  62 S :    0.410225
  63 C :    0.059917
  64 C :   -0.065725
  65 C :    0.085996
  66 O :   -0.135197
  67 C :   -0.054789
  68 C :    0.031808
  69 C :   -0.010086
  70 C :   -0.004825
  71 C :   -0.031257
  72 C :    0.067353
  73 C :    0.066284
  74 C :   -0.032511
  75 F :   -0.049143
  76 F :   -0.048537
  77 C :    0.012436
  78 C :   -0.015198
  79 C :    0.076648
  80 C :   -0.126692
  81 C :   -0.019551
  82 N :   -0.043102
  83 C :   -0.017644
  84 N :   -0.054550
  85 H :    0.048189
  86 H :    0.044734
  87 H :    0.040033
  88 H :    0.039684
  89 H :    0.042128
  90 H :    0.022064
  91 H :    0.022584
  92 H :    0.023496
  93 H :    0.023852
  94 H :    0.041960
  95 H :    0.040753
  96 H :    0.046964
  97 H :    0.044926
  98 H :    0.038974

  Mayer bond orders larger than 0.100000
B(  0-C ,  1-C ) :   1.4427 B(  0-C ,  5-C ) :   0.1090 B(  0-C ,  7-C ) :   1.1852
B(  0-C , 85-H ) :   1.0071 B(  1-C ,  2-F ) :   1.1349 B(  1-C ,  3-C ) :   1.1887
B(  3-C ,  4-F ) :   1.1352 B(  3-C ,  5-C ) :   1.4445 B(  5-C ,  6-C ) :   1.1891
B(  5-C , 86-H ) :   1.0071 B(  6-C ,  7-C ) :   1.2549 B(  6-C , 11-C ) :   1.1918
B(  7-C ,  8-C ) :   1.2243 B(  8-C ,  9-C ) :   1.4380 B(  8-C , 87-H ) :   0.9891
B(  9-C , 10-C ) :   1.2228 B(  9-C , 15-C ) :   0.9915 B( 10-C , 11-C ) :   1.4689
B( 10-C , 12-C ) :   0.9400 B( 11-C , 88-H ) :   1.0161 B( 12-C , 13-O ) :   2.2419
B( 12-C , 14-C ) :   0.9145 B( 14-C , 15-C ) :   1.0548 B( 14-C , 21-C ) :   1.7199
B( 15-C , 16-C ) :   1.6528 B( 16-C , 17-C ) :   1.1402 B( 16-C , 19-C ) :   1.1423
B( 17-C , 18-N ) :   2.9665 B( 19-C , 20-N ) :   2.9637 B( 21-C , 22-C ) :   1.0441
B( 21-C , 89-H ) :   0.9270 B( 22-C , 23-C ) :   1.3749 B( 22-C , 28-C ) :   0.1015
B( 22-C , 30-C ) :   1.3325 B( 23-C , 24-C ) :   1.2814 B( 23-C , 27-S ) :   1.0777
B( 24-C , 25-N ) :   1.3218 B( 24-C , 28-C ) :   1.4011 B( 25-N , 26-C ) :   1.7668
B( 25-N , 27-S ) :   0.1067 B( 26-C , 27-S ) :   1.1039 B( 26-C , 90-H ) :   0.9631
B( 28-C , 29-C ) :   1.4417 B( 28-C , 34-C ) :   0.9305 B( 29-C , 30-C ) :   1.2804
B( 29-C , 33-S ) :   1.0635 B( 30-C , 31-N ) :   1.3262 B( 31-N , 32-C ) :   1.7446
B( 31-N , 33-S ) :   0.1067 B( 32-C , 33-S ) :   1.1239 B( 32-C , 91-H ) :   0.9628
B( 34-C , 35-C ) :   1.3533 B( 34-C , 45-C ) :   0.1484 B( 34-C , 47-C ) :   1.3004
B( 35-C , 36-C ) :   1.0901 B( 35-C , 40-N ) :   1.4160 B( 36-C , 37-N ) :   1.4085
B( 36-C , 45-C ) :   1.3492 B( 37-N , 38-C ) :   1.7555 B( 38-C , 39-C ) :   1.1746
B( 38-C , 43-C ) :   1.1536 B( 39-C , 40-N ) :   1.7509 B( 39-C , 41-C ) :   1.1469
B( 41-C , 42-N ) :   3.0521 B( 43-C , 44-N ) :   3.0494 B( 45-C , 46-C ) :   1.2863
B( 45-C , 51-C ) :   0.9447 B( 46-C , 47-C ) :   1.0892 B( 46-C , 50-N ) :   1.4834
B( 47-C , 48-N ) :   1.4844 B( 48-N , 49-S ) :   1.3247 B( 48-N , 50-N ) :   0.1597
B( 49-S , 50-N ) :   1.2966 B( 51-C , 52-C ) :   1.4415 B( 51-C , 59-C ) :   1.3966
B( 52-C , 53-C ) :   1.2704 B( 52-C , 56-S ) :   1.0738 B( 53-C , 54-N ) :   1.3589
B( 53-C , 57-C ) :   1.3032 B( 54-N , 55-C ) :   1.7013 B( 54-N , 56-S ) :   0.1073
B( 55-C , 56-S ) :   1.1477 B( 55-C , 92-H ) :   0.9637 B( 57-C , 58-C ) :   1.3768
B( 57-C , 63-C ) :   1.0429 B( 58-C , 59-C ) :   1.2918 B( 58-C , 62-S ) :   1.0808
B( 59-C , 60-N ) :   1.3095 B( 60-N , 61-C ) :   1.7571 B( 60-N , 62-S ) :   0.1053
B( 61-C , 62-S ) :   1.1073 B( 61-C , 93-H ) :   0.9631 B( 63-C , 64-C ) :   1.7370
B( 63-C , 94-H ) :   0.9353 B( 64-C , 65-C ) :   0.9306 B( 64-C , 79-C ) :   1.0167
B( 65-C , 66-O ) :   2.2745 B( 65-C , 67-C ) :   0.9180 B( 67-C , 68-C ) :   1.4657
B( 67-C , 78-C ) :   1.2180 B( 68-C , 69-C ) :   1.1963 B( 68-C , 95-H ) :   1.0177
B( 69-C , 70-C ) :   1.2581 B( 69-C , 74-C ) :   1.1887 B( 70-C , 71-C ) :   1.1883
B( 70-C , 77-C ) :   1.2109 B( 71-C , 72-C ) :   1.4409 B( 71-C , 74-C ) :   0.1091
B( 71-C , 96-H ) :   1.0083 B( 72-C , 73-C ) :   1.1899 B( 72-C , 76-F ) :   1.1344
B( 73-C , 74-C ) :   1.4438 B( 73-C , 75-F ) :   1.1339 B( 74-C , 97-H ) :   1.0082
B( 77-C , 78-C ) :   1.4544 B( 77-C , 98-H ) :   0.9949 B( 78-C , 79-C ) :   1.0058
B( 79-C , 80-C ) :   1.6586 B( 80-C , 81-C ) :   1.1648 B( 80-C , 83-C ) :   1.1447
B( 81-C , 82-N ) :   3.0087 B( 83-C , 84-N ) :   2.9815

-----------------------------------------------------------------------------
         ABSORPTION SPECTRUM VIA TRANSITION ELECTRIC DIPOLE MOMENTS
-----------------------------------------------------------------------------
State   Energy  Wavelength   fosc         T2         TX        TY        TZ
        (cm-1)    (nm)                  (au**2)     (au)      (au)      (au)
-----------------------------------------------------------------------------
   0   15438.4    647.7   0.476638135  10.16397   0.07658  -3.16551   0.37098
   1   18669.5    535.6   0.013891293   0.24495   0.13029  -0.40553  -0.25204
   2   22379.5    446.8   0.437983858   6.44292   0.35661   2.46577  -0.48550
   3   22631.5    441.9   0.136337948   1.98326   0.31605   1.36749   0.11554
   4   22968.9    435.4   0.030492758   0.43705   0.10564  -0.54764   0.35494
   5   23468.0    426.1   0.318482671   4.46771   0.24557   2.08198   0.26977
   6   24649.6    405.7   0.008962013   0.11969  -0.14917   0.31198  -0.01032
   7   24825.6    402.8   0.028198699   0.37394  -0.23025  -0.49745   0.27107
   8   25698.4    389.1   0.045867952   0.58760  -0.36956   0.67088  -0.03079
   9   26622.8    375.6   0.018653655   0.23067   0.19113  -0.40872   0.16456
  10   27069.8    369.4   0.079842294   0.97101  -0.72405  -0.54553  -0.38620
  11   27953.3    357.7   0.034800355   0.40985  -0.09961   0.63240   0.00180
  12   28342.1    352.8   0.047151087   0.54769  -0.50574  -0.38856   0.37543
  13   28448.7    351.5   0.019012445   0.22001   0.16366  -0.38493  -0.21227
  14   28558.8    350.2   0.055468184   0.63941  -0.18634   0.58714  -0.50985
  15   28770.5    347.6   0.038516864   0.44074  -0.63990  -0.09796   0.14722
  16   29115.6    343.5   0.047825972   0.54077   0.15063   0.15628   0.70261
  17   29212.6    342.3   0.009558615   0.10772   0.08515  -0.31298  -0.05016
  18   29476.0    339.3   0.038701951   0.43225  -0.13270  -0.47635  -0.43329
  19   29700.4    336.7   0.013075750   0.14494  -0.01842  -0.37645   0.05370
  20   29790.1    335.7   0.018616551   0.20573   0.03699   0.44134  -0.09788
  21   30185.2    331.3   0.059139853   0.64500  -0.47604   0.19079   0.61805
  22   30351.6    329.5   0.095377362   1.03452   0.61139   0.64173   0.49891
  23   30415.4    328.8   0.132191045   1.43082   1.19563  -0.03579  -0.00013
  24   31550.3    317.0   0.004022742   0.04198   0.01019   0.05284   0.19769
  25   31670.0    315.8   0.021211677   0.22050   0.26537  -0.24619  -0.29911
  26   31838.4    314.1   0.284960665   2.94652  -0.69419   1.56552   0.11733
  27   32057.9    311.9   0.015309975   0.15722  -0.16120  -0.28014   0.22969
  28   32372.5    308.9   0.009154941   0.09310  -0.00691  -0.16165  -0.25869
  29   32829.6    304.6   0.051940096   0.52085   0.05505   0.00344  -0.71959
  30   33235.7    300.9   0.075096166   0.74386  -0.78682  -0.25229  -0.24723
  31   33461.5    298.9   0.084905756   0.83535   0.78999   0.43990  -0.13325
  32   33622.4    297.4   0.033112605   0.32422  -0.55536  -0.11901  -0.04033
  33   34044.9    293.7   0.283435401   2.74080   0.13820   1.38115  -0.90228
  34   34151.2    292.8   0.581811311   5.60857  -1.18696   1.95125   0.62637
  35   34220.1    292.2   0.096292498   0.92637   0.21719  -0.57149  -0.74337
  36   34568.6    289.3   0.198611058   1.89146   0.98457   0.05943  -0.95841
  37   34755.5    287.7   0.370116666   3.50583   1.80665   0.02239   0.49125
  38   34846.0    287.0   0.064336028   0.60782  -0.40879  -0.11367  -0.65406
  39   34903.3    286.5   0.119405208   1.12624   0.78832   0.39279   0.59203
  40   35208.1    284.0   0.204761647   1.91462   0.13697   1.37458   0.07994
  41   35294.3    283.3   0.073461654   0.68522  -0.50278   0.62450  -0.20601
  42   35529.8    281.5   0.114336453   1.05942  -0.27396  -0.09136   0.98794
  43   35627.4    280.7   0.027725236   0.25619  -0.21143   0.45676   0.05344
  44   35731.0    279.9   0.126667064   1.16706  -0.08933  -0.10997  -1.07098
  45   35807.4    279.3   0.054896351   0.50472   0.57238   0.17960   0.38058
  46   36187.6    276.3   0.086919893   0.79074   0.79055  -0.28923   0.28658
  47   36528.8    273.8   0.176146681   1.58750   0.00587  -0.99505  -0.77288
  48   36700.0    272.5   0.032739092   0.29368   0.35411  -0.31188  -0.26649
  49   37057.9    269.8   0.028808779   0.25593   0.13976  -0.45795  -0.16333
  50   37131.5    269.3   0.002259106   0.02003  -0.09741   0.08211  -0.06164
  51   37371.0    267.6   0.018496599   0.16294  -0.15488  -0.09803   0.35964
  52   37454.3    267.0   0.003379305   0.02970   0.09911   0.14019   0.01507
  53   37606.0    265.9   0.064997194   0.56900  -0.63583  -0.36001  -0.18738
  54   37821.5    264.4   0.128849094   1.12155   0.76900   0.26427   0.67849
  55   37895.3    263.9   0.014619933   0.12701  -0.29385   0.08452  -0.18308
  56   38236.5    261.5   0.004255593   0.03664  -0.06502   0.09882  -0.15049
  57   38341.5    260.8   0.050805678   0.43623  -0.15967  -0.59668  -0.23390
  58   38510.4    259.7   0.073292752   0.62655   0.57984   0.33012   0.42587
  59   38657.4    258.7   0.006296082   0.05362   0.00334   0.11807  -0.19917
  60   38924.1    256.9   0.015137941   0.12803  -0.10337   0.26608   0.21575
  61   39191.3    255.2   0.007244633   0.06086   0.02275   0.18308  -0.16377
  62   39270.7    254.6   0.007891615   0.06616   0.07130  -0.01057   0.24690
  63   39485.6    253.3   0.186480278   1.55478   0.04478  -1.24350   0.08057
  64   39615.8    252.4   0.009555757   0.07941  -0.19407   0.20231  -0.02858
  65   39745.5    251.6   0.005330848   0.04416   0.11304  -0.15603   0.08385
  66   40083.8    249.5   0.114393959   0.93953   0.16793   0.94853  -0.10780
  67   40220.3    248.6   0.077296138   0.63269  -0.60353  -0.28351  -0.43366

FINAL SINGLE POINT ENERGY     -5596.956154430950

DIPOLE MOMENT
-------------
                                X             Y             Z
Electronic contribution:      3.69063      -0.94207      -2.54578
Nuclear contribution   :     -0.08256      -0.18129       0.99254
                        -----------------------------------------
Total Dipole Moment    :      3.60807      -1.12335      -1.55325
                        -----------------------------------------
Magnitude (a.u.)       :      4.08567
Magnitude (Debye)      :     10.38494

Rotational constants in cm-1:     0.001672     0.000209     0.000205
Rotational constants in MHz :    50.139940     6.259784     6.145644

                             ****ORCA TERMINATED NORMALLY****
TOTAL RUN TIME: 0 days 0 hours 12 minutes 41 seconds 125 msec
