                         Program Version 4.2.0 -  RELEASE  -
|  1> # ORCA input file
|  2> # SCF done       -216.183779182654          0.000534945798
|  3> ! CAM-B3LYP def2-SVP def2/J RIJCOSX Grid4 TightSCF
|  4> %maxcore 5000
|  5> %tddft
|  6>     Mode sTDDFT
|  7>     Ethresh 5.0
|  8>     maxcore 5000
|  9> end
| 10>
| 11> %pal
| 12>   nprocs 6
| 13>   end
| 14> * xyz 0 1
| 15>    C       -2.22173         2.31451         5.21291
| 16>    C       -2.11741         3.46825         4.48809
| 17>    F       -1.84520         4.62776         5.10251
| 18>    C       -2.29423         3.45540         3.09025
| 19>    F       -2.18721         4.60247         2.40451
| 20>    C       -2.57288         2.28833         2.43601
| 21>    C       -2.68744         1.08289         3.15513
| 22>    C       -2.50846         1.09429         4.56847
| 23>    C       -2.61749        -0.10335         5.31188
| 24>    C       -2.89960        -1.27587         4.66193
| 25>    C       -3.08458        -1.27543         3.25347
| 26>    C       -2.98076        -0.13754         2.50722
| 27>    C       -3.39930        -2.64401         2.79632
| 28>    O       -3.58843        -2.96696         1.63981
| 29>    C       -3.43790        -3.47698         4.01577
| 30>    C       -3.06658        -2.64406         5.14638
| 31>    C       -2.84683        -3.04027         6.44173
| 32>    C       -2.91641        -4.35718         6.94341
| 33>    N       -2.92729        -5.39230         7.44236
| 34>    C       -2.47723        -2.16188         7.48229
| 35>    N       -2.17706        -1.50808         8.37723
| 36>    C       -3.81822        -4.79169         4.14695
| 37>    C       -4.18288        -5.76296         3.20513
| 38>    C       -4.23738        -5.76437         1.80980
| 39>    C       -4.62910        -6.98251         1.29934
| 40>    C       -4.88447        -7.94383         2.29336
| 41>    S       -4.64241        -7.33967         3.86834
| 42>    C       -5.24469        -9.15890         1.67556
| 43>    C       -5.21898        -8.98594         0.28774
| 44>    C       -4.84501        -7.56885        -0.07605
| 45>    C       -3.56499        -7.51976        -0.91399
| 46>    C       -5.99269        -6.85969        -0.80211
| 47>    C       -5.52033       -10.14882        -0.40081
| 48>    C       -5.78134       -11.21422         0.45338
| 49>    S       -5.66904       -10.75564         2.13878
| 50>    C       -6.07203       -12.57313         0.11949
| 51>    C       -6.02146       -13.11137        -1.16206
| 52>    F       -5.71814       -12.33474        -2.21671
| 53>    C       -6.24734       -14.46306        -1.44015
| 54>    F       -6.13326       -14.82864        -2.72987
| 55>    C       -6.56366       -15.42213        -0.48185
| 56>    C       -6.66395       -14.90559         0.84248
| 57>    C       -6.41178       -13.51820         1.12625
| 58>    N       -6.53542       -13.24410         2.42023
| 59>    S       -6.92979       -14.58491         3.21098
| 60>    N       -6.96127       -15.58141         1.95001
| 61>    C       -6.73919       -16.80865        -0.77938
| 62>    C       -7.14488       -17.80252         0.10383
| 63>    C       -7.16579       -19.05422        -0.48639
| 64>    C       -6.76874       -19.02472        -1.82782
| 65>    S       -6.39116       -17.44921        -2.37381
| 66>    C       -6.78513       -20.33845        -2.33798
| 67>    C       -7.19289       -21.21930        -1.32701
| 68>    C       -7.49663       -20.46347        -0.05421
| 69>    C       -8.97624       -20.59162         0.32128
| 70>    C       -6.60168       -20.92042         1.10057
| 71>    C       -7.18883       -22.53704        -1.73853
| 72>    C       -6.81036       -22.68434        -3.07306
| 73>    S       -6.41805       -21.13301        -3.80433
| 74>    C       -6.62156       -23.91236        -3.73326
| 75>    C       -6.40953       -24.17106        -5.05758
| 76>    C       -5.70889       -25.41997        -5.45164
| 77>    O       -5.49852       -26.38778        -4.75643
| 78>    C       -5.26738       -25.18934        -6.84432
| 79>    C       -4.47013       -25.96699        -7.63288
| 80>    C       -4.14817       -25.52156        -8.93509
| 81>    C       -4.65834       -24.27258        -9.39425
| 82>    C       -4.32568       -23.83137       -10.69064
| 83>    C       -3.52681       -24.59499       -11.49461
| 84>    C       -3.02400       -25.83031       -11.04018
| 85>    C       -3.32763       -26.28539        -9.78774
| 86>    F       -2.24102       -26.55788       -11.84926
| 87>    F       -3.21242       -24.17396       -12.72728
| 88>    C       -5.48998       -23.49247        -8.55795
| 89>    C       -5.79327       -23.94806        -7.30390
| 90>    C       -6.63542       -23.38827        -6.24968
| 91>    C       -7.65367       -22.49020        -6.44433
| 92>    C       -8.63081       -22.21968        -5.46504
| 93>    N       -9.46505       -22.02041        -4.70182
| 94>    C       -7.89078       -21.83025        -7.66561
| 95>    N       -8.10962       -21.26067        -8.63798
| 96>    H       -2.08247         2.34135         6.28236
| 97>    H       -2.70563         2.29532         1.36549
| 98>    H       -2.47900        -0.05773         6.37953
| 99>    H       -3.12338        -0.16822         1.43768
|100>    H       -3.85659        -5.16366         5.16410
|101>    H       -3.99161        -4.89185         1.23306
|102>    H       -2.75284        -8.02514        -0.39647
|103>    H       -3.27746        -6.48669        -1.09040
|104>    H       -3.72715        -8.00928        -1.87080
|105>    H       -6.90137        -6.90024        -0.20572
|106>    H       -6.18130        -7.33926        -1.75910
|107>    H       -5.73411        -5.81814        -0.97353
|108>    H       -5.55062       -10.22768        -1.47069
|109>    H       -7.39897       -17.58289         1.12345
|110>    H       -9.60507       -20.28004        -0.50926
|111>    H       -9.19649       -19.96619         1.18261
|112>    H       -9.21030       -21.62450         0.56574
|113>    H       -5.55307       -20.83420         0.82500
|114>    H       -6.81316       -21.95723         1.34911
|115>    H       -6.78366       -20.30435         1.97728
|116>    H       -7.46081       -23.38061        -1.13005
|117>    H       -6.52728       -24.77624        -3.08113
|118>    H       -4.08863       -26.90906        -7.26953
|119>    H       -4.70540       -22.88963       -11.05496
|120>    H       -2.93437       -27.23322        -9.45501
|121>    H       -5.85773       -22.54735        -8.92489
|122> *
|123>
|124>                          ****END OF INPUT****

CARTESIAN COORDINATES (ANGSTROEM)
---------------------------------
  C     -2.221730    2.314510    5.212910
  C     -2.117410    3.468250    4.488090
  F     -1.845200    4.627760    5.102510
  C     -2.294230    3.455400    3.090250
  F     -2.187210    4.602470    2.404510
  C     -2.572880    2.288330    2.436010
  C     -2.687440    1.082890    3.155130
  C     -2.508460    1.094290    4.568470
  C     -2.617490   -0.103350    5.311880
  C     -2.899600   -1.275870    4.661930
  C     -3.084580   -1.275430    3.253470
  C     -2.980760   -0.137540    2.507220
  C     -3.399300   -2.644010    2.796320
  O     -3.588430   -2.966960    1.639810
  C     -3.437900   -3.476980    4.015770
  C     -3.066580   -2.644060    5.146380
  C     -2.846830   -3.040270    6.441730
  C     -2.916410   -4.357180    6.943410
  N     -2.927290   -5.392300    7.442360
  C     -2.477230   -2.161880    7.482290
  N     -2.177060   -1.508080    8.377230
  C     -3.818220   -4.791690    4.146950
  C     -4.182880   -5.762960    3.205130
  C     -4.237380   -5.764370    1.809800
  C     -4.629100   -6.982510    1.299340
  C     -4.884470   -7.943830    2.293360
  S     -4.642410   -7.339670    3.868340
  C     -5.244690   -9.158900    1.675560
  C     -5.218980   -8.985940    0.287740
  C     -4.845010   -7.568850   -0.076050
  C     -3.564990   -7.519760   -0.913990
  C     -5.992690   -6.859690   -0.802110
  C     -5.520330  -10.148820   -0.400810
  C     -5.781340  -11.214220    0.453380
  S     -5.669040  -10.755640    2.138780
  C     -6.072030  -12.573130    0.119490
  C     -6.021460  -13.111370   -1.162060
  F     -5.718140  -12.334740   -2.216710
  C     -6.247340  -14.463060   -1.440150
  F     -6.133260  -14.828640   -2.729870
  C     -6.563660  -15.422130   -0.481850
  C     -6.663950  -14.905590    0.842480
  C     -6.411780  -13.518200    1.126250
  N     -6.535420  -13.244100    2.420230
  S     -6.929790  -14.584910    3.210980
  N     -6.961270  -15.581410    1.950010
  C     -6.739190  -16.808650   -0.779380
  C     -7.144880  -17.802520    0.103830
  C     -7.165790  -19.054220   -0.486390
  C     -6.768740  -19.024720   -1.827820
  S     -6.391160  -17.449210   -2.373810
  C     -6.785130  -20.338450   -2.337980
  C     -7.192890  -21.219300   -1.327010
  C     -7.496630  -20.463470   -0.054210
  C     -8.976240  -20.591620    0.321280
  C     -6.601680  -20.920420    1.100570
  C     -7.188830  -22.537040   -1.738530
  C     -6.810360  -22.684340   -3.073060
  S     -6.418050  -21.133010   -3.804330
  C     -6.621560  -23.912360   -3.733260
  C     -6.409530  -24.171060   -5.057580
  C     -5.708890  -25.419970   -5.451640
  O     -5.498520  -26.387780   -4.756430
  C     -5.267380  -25.189340   -6.844320
  C     -4.470130  -25.966990   -7.632880
  C     -4.148170  -25.521560   -8.935090
  C     -4.658340  -24.272580   -9.394250
  C     -4.325680  -23.831370  -10.690640
  C     -3.526810  -24.594990  -11.494610
  C     -3.024000  -25.830310  -11.040180
  C     -3.327630  -26.285390   -9.787740
  F     -2.241020  -26.557880  -11.849260
  F     -3.212420  -24.173960  -12.727280
  C     -5.489980  -23.492470   -8.557950
  C     -5.793270  -23.948060   -7.303900
  C     -6.635420  -23.388270   -6.249680
  C     -7.653670  -22.490200   -6.444330
  C     -8.630810  -22.219680   -5.465040
  N     -9.465050  -22.020410   -4.701820
  C     -7.890780  -21.830250   -7.665610
  N     -8.109620  -21.260670   -8.637980
  H     -2.082470    2.341350    6.282360
  H     -2.705630    2.295320    1.365490
  H     -2.479000   -0.057730    6.379530
  H     -3.123380   -0.168220    1.437680
  H     -3.856590   -5.163660    5.164100
  H     -3.991610   -4.891850    1.233060
  H     -2.752840   -8.025140   -0.396470
  H     -3.277460   -6.486690   -1.090400
  H     -3.727150   -8.009280   -1.870800
  H     -6.901370   -6.900240   -0.205720
  H     -6.181300   -7.339260   -1.759100
  H     -5.734110   -5.818140   -0.973530
  H     -5.550620  -10.227680   -1.470690
  H     -7.398970  -17.582890    1.123450
  H     -9.605070  -20.280040   -0.509260
  H     -9.196490  -19.966190    1.182610
  H     -9.210300  -21.624500    0.565740
  H     -5.553070  -20.834200    0.825000
  H     -6.813160  -21.957230    1.349110
  H     -6.783660  -20.304350    1.977280
  H     -7.460810  -23.380610   -1.130050
  H     -6.527280  -24.776240   -3.081130
  H     -4.088630  -26.909060   -7.269530
  H     -4.705400  -22.889630  -11.054960
  H     -2.934370  -27.233220   -9.455010
  H     -5.857730  -22.547350   -8.924890

 Total Charge           Charge          ....    0
 Multiplicity           Mult            ....    1
 Number of Electrons    NEL             ....  590
 Basis Dimension        Dim             .... 1284

ORBITAL ENERGIES
----------------

  NO   OCC          E(Eh)            E(eV)
   0   2.0000     -89.046262     -2423.0720
   1   2.0000     -88.978217     -2421.2204
   2   2.0000     -88.976890     -2421.1843
   3   2.0000     -88.976612     -2421.1767
   4   2.0000     -88.974511     -2421.1195
   5   2.0000     -24.818802      -675.3539
   6   2.0000     -24.817328      -675.3138
   7   2.0000     -24.795421      -674.7177
   8   2.0000     -24.795371      -674.7164
   9   2.0000     -24.794906      -674.7037
  10   2.0000     -24.794149      -674.6831
  11   2.0000     -19.215332      -522.8758
  12   2.0000     -19.210278      -522.7382
  13   2.0000     -14.461475      -393.5167
  14   2.0000     -14.461400      -393.5147
  15   2.0000     -14.412725      -392.1902
  16   2.0000     -14.412360      -392.1802
  17   2.0000     -14.410217      -392.1219
  18   2.0000     -14.409115      -392.0919
  19   2.0000     -10.397541      -282.9315
  20   2.0000     -10.396144      -282.8934
  21   2.0000     -10.378177      -282.4045
  22   2.0000     -10.378035      -282.4007
  23   2.0000     -10.377715      -282.3920
  24   2.0000     -10.377078      -282.3746
  25   2.0000     -10.366667      -282.0913
  26   2.0000     -10.362753      -281.9848
  27   2.0000     -10.352509      -281.7061
  28   2.0000     -10.350973      -281.6643
  29   2.0000     -10.338910      -281.3360
  30   2.0000     -10.338278      -281.3188
  31   2.0000     -10.336861      -281.2803
  32   2.0000     -10.335220      -281.2356
  33   2.0000     -10.330885      -281.1177
  34   2.0000     -10.329440      -281.0783
  35   2.0000     -10.327896      -281.0363
  36   2.0000     -10.327241      -281.0185
  37   2.0000     -10.326748      -281.0051
  38   2.0000     -10.326580      -281.0005
  39   2.0000     -10.320962      -280.8477
  40   2.0000     -10.319983      -280.8210
  41   2.0000     -10.318472      -280.7799
  42   2.0000     -10.316706      -280.7318
  43   2.0000     -10.315720      -280.7050
  44   2.0000     -10.315625      -280.7024
  45   2.0000     -10.315596      -280.7016
  46   2.0000     -10.312970      -280.6302
  47   2.0000     -10.312406      -280.6148
  48   2.0000     -10.311497      -280.5901
  49   2.0000     -10.307278      -280.4753
  50   2.0000     -10.306908      -280.4652
  51   2.0000     -10.306829      -280.4631
  52   2.0000     -10.306459      -280.4530
  53   2.0000     -10.305998      -280.4405
  54   2.0000     -10.304650      -280.4038
  55   2.0000     -10.304270      -280.3935
  56   2.0000     -10.302254      -280.3386
  57   2.0000     -10.302179      -280.3365
  58   2.0000     -10.299069      -280.2519
  59   2.0000     -10.298721      -280.2424
  60   2.0000     -10.298222      -280.2289
  61   2.0000     -10.297922      -280.2207
  62   2.0000     -10.297839      -280.2185
  63   2.0000     -10.297407      -280.2067
  64   2.0000     -10.297373      -280.2058
  65   2.0000     -10.296804      -280.1903
  66   2.0000     -10.293914      -280.1116
  67   2.0000     -10.291920      -280.0574
  68   2.0000     -10.291493      -280.0458
  69   2.0000     -10.290235      -280.0115
  70   2.0000     -10.289956      -280.0039
  71   2.0000     -10.289877      -280.0018
  72   2.0000     -10.289541      -279.9927
  73   2.0000     -10.289334      -279.9870
  74   2.0000     -10.288275      -279.9582
  75   2.0000     -10.288128      -279.9542
  76   2.0000     -10.287089      -279.9259
  77   2.0000     -10.275640      -279.6144
  78   2.0000     -10.273111      -279.5456
  79   2.0000     -10.272582      -279.5312
  80   2.0000     -10.272429      -279.5270
  81   2.0000      -8.137763      -221.4398
  82   2.0000      -8.072804      -219.6722
  83   2.0000      -8.071643      -219.6406
  84   2.0000      -8.071354      -219.6327
  85   2.0000      -8.068211      -219.5472
  86   2.0000      -6.109133      -166.2380
  87   2.0000      -6.101270      -166.0240
  88   2.0000      -6.099974      -165.9887
  89   2.0000      -6.042128      -164.4147
  90   2.0000      -6.040821      -164.3791
  91   2.0000      -6.040751      -164.3772
  92   2.0000      -6.038036      -164.3033
  93   2.0000      -6.037712      -164.2945
  94   2.0000      -6.036813      -164.2700
  95   2.0000      -6.036468      -164.2607
  96   2.0000      -6.034884      -164.2175
  97   2.0000      -6.033884      -164.1903
  98   2.0000      -6.033453      -164.1786
  99   2.0000      -6.033275      -164.1738
 100   2.0000      -6.030273      -164.0921
 101   2.0000      -1.341669       -36.5087
 102   2.0000      -1.322875       -35.9973
 103   2.0000      -1.317890       -35.8616
 104   2.0000      -1.317430       -35.8491
 105   2.0000      -1.303063       -35.4581
 106   2.0000      -1.302589       -35.4452
 107   2.0000      -1.149213       -31.2717
 108   2.0000      -1.129786       -30.7430
 109   2.0000      -1.125799       -30.6346
 110   2.0000      -1.029415       -28.0118
 111   2.0000      -1.027559       -27.9613
 112   2.0000      -1.016349       -27.6563
 113   2.0000      -1.015352       -27.6291
 114   2.0000      -1.008675       -27.4474
 115   2.0000      -1.002086       -27.2682
 116   2.0000      -1.000375       -27.2216
 117   2.0000      -1.000203       -27.2169
 118   2.0000      -0.991010       -26.9667
 119   2.0000      -0.989537       -26.9267
 120   2.0000      -0.986408       -26.8415
 121   2.0000      -0.981174       -26.6991
 122   2.0000      -0.977067       -26.5874
 123   2.0000      -0.975815       -26.5533
 124   2.0000      -0.943508       -25.6742
 125   2.0000      -0.938005       -25.5244
 126   2.0000      -0.926598       -25.2140
 127   2.0000      -0.925901       -25.1950
 128   2.0000      -0.903427       -24.5835
 129   2.0000      -0.901241       -24.5240
 130   2.0000      -0.899282       -24.4707
 131   2.0000      -0.890368       -24.2281
 132   2.0000      -0.889068       -24.1928
 133   2.0000      -0.884317       -24.0635
 134   2.0000      -0.882650       -24.0181
 135   2.0000      -0.880373       -23.9562
 136   2.0000      -0.864341       -23.5199
 137   2.0000      -0.852990       -23.2110
 138   2.0000      -0.845198       -22.9990
 139   2.0000      -0.843199       -22.9446
 140   2.0000      -0.837392       -22.7866
 141   2.0000      -0.836704       -22.7679
 142   2.0000      -0.836325       -22.7576
 143   2.0000      -0.834768       -22.7152
 144   2.0000      -0.823421       -22.4064
 145   2.0000      -0.810959       -22.0673
 146   2.0000      -0.798926       -21.7399
 147   2.0000      -0.786281       -21.3958
 148   2.0000      -0.784396       -21.3445
 149   2.0000      -0.768246       -20.9050
 150   2.0000      -0.763578       -20.7780
 151   2.0000      -0.762738       -20.7552
 152   2.0000      -0.760692       -20.6995
 153   2.0000      -0.745418       -20.2839
 154   2.0000      -0.740884       -20.1605
 155   2.0000      -0.734810       -19.9952
 156   2.0000      -0.724107       -19.7039
 157   2.0000      -0.718420       -19.5492
 158   2.0000      -0.716327       -19.4923
 159   2.0000      -0.713598       -19.4180
 160   2.0000      -0.711336       -19.3564
 161   2.0000      -0.706206       -19.2169
 162   2.0000      -0.696388       -18.9497
 163   2.0000      -0.685234       -18.6462
 164   2.0000      -0.680414       -18.5150
 165   2.0000      -0.674568       -18.3559
 166   2.0000      -0.672750       -18.3065
 167   2.0000      -0.663814       -18.0633
 168   2.0000      -0.658810       -17.9271
 169   2.0000      -0.656524       -17.8649
 170   2.0000      -0.652006       -17.7420
 171   2.0000      -0.650674       -17.7057
 172   2.0000      -0.645836       -17.5741
 173   2.0000      -0.643345       -17.5063
 174   2.0000      -0.639698       -17.4071
 175   2.0000      -0.638849       -17.3840
 176   2.0000      -0.637830       -17.3562
 177   2.0000      -0.634809       -17.2740
 178   2.0000      -0.630389       -17.1538
 179   2.0000      -0.629827       -17.1385
 180   2.0000      -0.619578       -16.8596
 181   2.0000      -0.613517       -16.6947
 182   2.0000      -0.610885       -16.6230
 183   2.0000      -0.607598       -16.5336
 184   2.0000      -0.603127       -16.4119
 185   2.0000      -0.589276       -16.0350
 186   2.0000      -0.588057       -16.0018
 187   2.0000      -0.585957       -15.9447
 188   2.0000      -0.582565       -15.8524
 189   2.0000      -0.582066       -15.8388
 190   2.0000      -0.581009       -15.8101
 191   2.0000      -0.576467       -15.6865
 192   2.0000      -0.570526       -15.5248
 193   2.0000      -0.569223       -15.4893
 194   2.0000      -0.566718       -15.4212
 195   2.0000      -0.565416       -15.3857
 196   2.0000      -0.563189       -15.3251
 197   2.0000      -0.559334       -15.2203
 198   2.0000      -0.558784       -15.2053
 199   2.0000      -0.552532       -15.0352
 200   2.0000      -0.551293       -15.0014
 201   2.0000      -0.549737       -14.9591
 202   2.0000      -0.544249       -14.8098
 203   2.0000      -0.543789       -14.7972
 204   2.0000      -0.540617       -14.7109
 205   2.0000      -0.539475       -14.6799
 206   2.0000      -0.539155       -14.6711
 207   2.0000      -0.535621       -14.5750
 208   2.0000      -0.533890       -14.5279
 209   2.0000      -0.532770       -14.4974
 210   2.0000      -0.531032       -14.4501
 211   2.0000      -0.528188       -14.3727
 212   2.0000      -0.526722       -14.3328
 213   2.0000      -0.525870       -14.3096
 214   2.0000      -0.524011       -14.2591
 215   2.0000      -0.520254       -14.1568
 216   2.0000      -0.519090       -14.1251
 217   2.0000      -0.514685       -14.0053
 218   2.0000      -0.513752       -13.9799
 219   2.0000      -0.510964       -13.9040
 220   2.0000      -0.508385       -13.8339
 221   2.0000      -0.507702       -13.8153
 222   2.0000      -0.505258       -13.7488
 223   2.0000      -0.501676       -13.6513
 224   2.0000      -0.500428       -13.6173
 225   2.0000      -0.497166       -13.5286
 226   2.0000      -0.496912       -13.5217
 227   2.0000      -0.492749       -13.4084
 228   2.0000      -0.491278       -13.3684
 229   2.0000      -0.490074       -13.3356
 230   2.0000      -0.488236       -13.2856
 231   2.0000      -0.487760       -13.2726
 232   2.0000      -0.486484       -13.2379
 233   2.0000      -0.484746       -13.1906
 234   2.0000      -0.483441       -13.1551
 235   2.0000      -0.479844       -13.0572
 236   2.0000      -0.479125       -13.0377
 237   2.0000      -0.473288       -12.8788
 238   2.0000      -0.471667       -12.8347
 239   2.0000      -0.471480       -12.8296
 240   2.0000      -0.465620       -12.6702
 241   2.0000      -0.464311       -12.6346
 242   2.0000      -0.461125       -12.5478
 243   2.0000      -0.460152       -12.5214
 244   2.0000      -0.459638       -12.5074
 245   2.0000      -0.451644       -12.2899
 246   2.0000      -0.449634       -12.2352
 247   2.0000      -0.446783       -12.1576
 248   2.0000      -0.446546       -12.1511
 249   2.0000      -0.445953       -12.1350
 250   2.0000      -0.443641       -12.0721
 251   2.0000      -0.442717       -12.0469
 252   2.0000      -0.442091       -12.0299
 253   2.0000      -0.441206       -12.0058
 254   2.0000      -0.440819       -11.9953
 255   2.0000      -0.438453       -11.9309
 256   2.0000      -0.438294       -11.9266
 257   2.0000      -0.433737       -11.8026
 258   2.0000      -0.430495       -11.7144
 259   2.0000      -0.427170       -11.6239
 260   2.0000      -0.425502       -11.5785
 261   2.0000      -0.425345       -11.5742
 262   2.0000      -0.423583       -11.5263
 263   2.0000      -0.422541       -11.4979
 264   2.0000      -0.419908       -11.4263
 265   2.0000      -0.417767       -11.3680
 266   2.0000      -0.415736       -11.3127
 267   2.0000      -0.414492       -11.2789
 268   2.0000      -0.413364       -11.2482
 269   2.0000      -0.411412       -11.1951
 270   2.0000      -0.410380       -11.1670
 271   2.0000      -0.406387       -11.0584
 272   2.0000      -0.401523       -10.9260
 273   2.0000      -0.398547       -10.8450
 274   2.0000      -0.385924       -10.5015
 275   2.0000      -0.384261       -10.4563
 276   2.0000      -0.377274       -10.2661
 277   2.0000      -0.376058       -10.2330
 278   2.0000      -0.369052       -10.0424
 279   2.0000      -0.353807        -9.6276
 280   2.0000      -0.349049        -9.4981
 281   2.0000      -0.338231        -9.2037
 282   2.0000      -0.338191        -9.2026
 283   2.0000      -0.337518        -9.1843
 284   2.0000      -0.335690        -9.1346
 285   2.0000      -0.332029        -9.0350
 286   2.0000      -0.331303        -9.0152
 287   2.0000      -0.326822        -8.8933
 288   2.0000      -0.314640        -8.5618
 289   2.0000      -0.313668        -8.5353
 290   2.0000      -0.306410        -8.3378
 291   2.0000      -0.297834        -8.1045
 292   2.0000      -0.294223        -8.0062
 293   2.0000      -0.264928        -7.2091
 294   2.0000      -0.242280        -6.5928
 295   0.0000      -0.110509        -3.0071
 296   0.0000      -0.093044        -2.5319
 297   0.0000      -0.079009        -2.1499
 298   0.0000      -0.056849        -1.5469
 299   0.0000      -0.054340        -1.4787

MULLIKEN ATOMIC CHARGES
-----------------------
   0 C :   -0.109409
   1 C :    0.241211
   2 F :   -0.172525
   3 C :    0.237892
   4 F :   -0.173746
   5 C :   -0.109001
   6 C :    0.119315
   7 C :    0.113770
   8 C :   -0.085772
   9 C :    0.047513
  10 C :    0.002179
  11 C :   -0.088533
  12 C :    0.156117
  13 O :   -0.165841
  14 C :   -0.099673
  15 C :    0.323721
  16 C :   -0.368232
  17 C :   -0.189180
  18 N :    0.146025
  19 C :   -0.181315
  20 N :    0.140706
  21 C :    0.035200
  22 C :   -0.115813
  23 C :   -0.010585
  24 C :   -0.002735
  25 C :   -0.064492
  26 S :    0.173126
  27 C :   -0.071275
  28 C :    0.032257
  29 C :   -0.105684
  30 C :    0.101203
  31 C :    0.106850
  32 C :   -0.066797
  33 C :   -0.126719
  34 S :    0.188579
  35 C :    0.138352
  36 C :    0.132466
  37 F :   -0.168969
  38 C :    0.125801
  39 F :   -0.172214
  40 C :    0.110114
  41 C :    0.011693
  42 C :   -0.031400
  43 N :   -0.317534
  44 S :    0.535431
  45 N :   -0.290509
  46 C :   -0.142351
  47 C :   -0.052271
  48 C :    0.031590
  49 C :   -0.079696
  50 S :    0.179155
  51 C :   -0.065130
  52 C :    0.024649
  53 C :   -0.110000
  54 C :    0.106811
  55 C :    0.102446
  56 C :   -0.007998
  57 C :   -0.082520
  58 S :    0.178076
  59 C :    0.039583
  60 C :   -0.146983
  61 C :    0.141762
  62 O :   -0.147578
  63 C :    0.014156
  64 C :   -0.084787
  65 C :    0.113285
  66 C :    0.110956
  67 C :   -0.107407
  68 C :    0.241834
  69 C :    0.237009
  70 C :   -0.103749
  71 F :   -0.174188
  72 F :   -0.172295
  73 C :   -0.079182
  74 C :    0.036220
  75 C :    0.249368
  76 C :   -0.323477
  77 C :   -0.211172
  78 N :    0.167261
  79 C :   -0.173211
  80 N :    0.148295
  81 H :    0.007847
  82 H :   -0.001975
  83 H :   -0.006835
  84 H :   -0.013639
  85 H :    0.004670
  86 H :    0.009001
  87 H :    0.021953
  88 H :    0.021571
  89 H :    0.013160
  90 H :    0.020647
  91 H :    0.012953
  92 H :    0.022016
  93 H :   -0.007600
  94 H :   -0.006012
  95 H :    0.032097
  96 H :    0.013871
  97 H :    0.014436
  98 H :    0.022537
  99 H :    0.012948
 100 H :    0.015319
 101 H :   -0.009269
 102 H :    0.024504
 103 H :   -0.011123
 104 H :    0.004043
 105 H :   -0.002213
 106 H :   -0.004933
Sum of atomic charges:   -0.0000000

LOEWDIN ATOMIC CHARGES
----------------------
   0 C :   -0.029594
   1 C :    0.065062
   2 F :   -0.050541
   3 C :    0.066471
   4 F :   -0.051298
   5 C :   -0.034767
   6 C :   -0.009418
   7 C :   -0.007409
   8 C :    0.015844
   9 C :   -0.022250
  10 C :   -0.050391
  11 C :    0.025666
  12 C :    0.086651
  13 O :   -0.153850
  14 C :   -0.111485
  15 C :    0.077377
  16 C :   -0.149787
  17 C :   -0.025002
  18 N :   -0.057580
  19 C :   -0.017196
  20 N :   -0.061229
  21 C :    0.045711
  22 C :   -0.176987
  23 C :   -0.002257
  24 C :   -0.041537
  25 C :   -0.163550
  26 S :    0.463655
  27 C :   -0.206465
  28 C :   -0.023562
  29 C :   -0.035915
  30 C :   -0.023626
  31 C :   -0.022590
  32 C :   -0.046747
  33 C :   -0.156865
  34 S :    0.487068
  35 C :   -0.069853
  36 C :    0.072276
  37 F :   -0.040682
  38 C :    0.062104
  39 F :   -0.046648
  40 C :   -0.066299
  41 C :   -0.037056
  42 C :   -0.047279
  43 N :   -0.295120
  44 S :    0.654577
  45 N :   -0.275677
  46 C :   -0.161558
  47 C :   -0.039534
  48 C :   -0.025031
  49 C :   -0.200397
  50 S :    0.463867
  51 C :   -0.160502
  52 C :   -0.039787
  53 C :   -0.034941
  54 C :   -0.021963
  55 C :   -0.024104
  56 C :   -0.005067
  57 C :   -0.179123
  58 S :    0.480426
  59 C :    0.052669
  60 C :   -0.112247
  61 C :    0.081572
  62 O :   -0.149909
  63 C :   -0.052206
  64 C :    0.028107
  65 C :   -0.010289
  66 C :   -0.006529
  67 C :   -0.030836
  68 C :    0.065749
  69 C :    0.065757
  70 C :   -0.033281
  71 F :   -0.051180
  72 F :   -0.050268
  73 C :    0.012100
  74 C :   -0.018771
  75 C :    0.060650
  76 C :   -0.148986
  77 C :   -0.036368
  78 N :   -0.052526
  79 C :   -0.019890
  80 N :   -0.056333
  81 H :    0.047605
  82 H :    0.043951
  83 H :    0.039615
  84 H :    0.038419
  85 H :    0.042340
  86 H :    0.035073
  87 H :    0.030220
  88 H :    0.028317
  89 H :    0.024922
  90 H :    0.030007
  91 H :    0.024750
  92 H :    0.028456
  93 H :    0.030350
  94 H :    0.030251
  95 H :    0.034515
  96 H :    0.025077
  97 H :    0.025483
  98 H :    0.030227
  99 H :    0.024791
 100 H :    0.025953
 101 H :    0.037328
 102 H :    0.051392
 103 H :    0.039829
 104 H :    0.046566
 105 H :    0.044218
 106 H :    0.039123

  Mayer bond orders larger than 0.100000
B(  0-C ,  1-C ) :   1.4394 B(  0-C ,  5-C ) :   0.1088 B(  0-C ,  7-C ) :   1.1898
B(  0-C , 81-H ) :   1.0068 B(  1-C ,  2-F ) :   1.1337 B(  1-C ,  3-C ) :   1.1923
B(  3-C ,  4-F ) :   1.1317 B(  3-C ,  5-C ) :   1.4429 B(  5-C ,  6-C ) :   1.1933
B(  5-C , 82-H ) :   1.0069 B(  6-C ,  7-C ) :   1.2566 B(  6-C , 11-C ) :   1.1848
B(  7-C ,  8-C ) :   1.2147 B(  8-C ,  9-C ) :   1.4531 B(  8-C , 83-H ) :   0.9891
B(  9-C , 10-C ) :   1.2245 B(  9-C , 15-C ) :   0.9749 B( 10-C , 11-C ) :   1.4734
B( 10-C , 12-C ) :   0.9503 B( 11-C , 84-H ) :   1.0161 B( 12-C , 13-O ) :   2.1524
B( 12-C , 14-C ) :   0.9545 B( 14-C , 15-C ) :   1.1026 B( 14-C , 21-C ) :   1.5265
B( 15-C , 16-C ) :   1.6039 B( 16-C , 17-C ) :   1.1396 B( 16-C , 19-C ) :   1.1523
B( 17-C , 18-N ) :   2.9683 B( 19-C , 20-N ) :   2.9571 B( 21-C , 22-C ) :   1.2735
B( 21-C , 85-H ) :   0.9081 B( 22-C , 23-C ) :   1.3582 B( 22-C , 26-S ) :   1.0697
B( 23-C , 24-C ) :   1.3560 B( 23-C , 86-H ) :   0.9811 B( 24-C , 25-C ) :   1.4447
B( 24-C , 29-C ) :   0.9341 B( 25-C , 26-S ) :   1.1343 B( 25-C , 27-C ) :   1.1871
B( 27-C , 28-C ) :   1.4933 B( 27-C , 34-S ) :   1.0550 B( 28-C , 29-C ) :   0.9398
B( 28-C , 32-C ) :   1.3180 B( 29-C , 30-C ) :   1.0377 B( 29-C , 31-C ) :   1.0334
B( 30-C , 87-H ) :   0.9646 B( 30-C , 88-H ) :   0.9647 B( 30-C , 89-H ) :   0.9642
B( 31-C , 90-H ) :   0.9632 B( 31-C , 91-H ) :   0.9647 B( 31-C , 92-H ) :   0.9651
B( 32-C , 33-C ) :   1.4274 B( 32-C , 93-H ) :   1.0048 B( 33-C , 34-S ) :   1.1278
B( 33-C , 35-C ) :   1.1360 B( 35-C , 36-C ) :   1.3676 B( 35-C , 40-C ) :   0.1175
B( 35-C , 42-C ) :   1.1551 B( 36-C , 37-F ) :   1.1376 B( 36-C , 38-C ) :   1.1796
B( 38-C , 39-F ) :   1.1334 B( 38-C , 40-C ) :   1.3631 B( 40-C , 41-C ) :   1.1776
B( 40-C , 46-C ) :   1.1533 B( 41-C , 42-C ) :   1.1417 B( 41-C , 45-N ) :   1.5399
B( 42-C , 43-N ) :   1.5220 B( 43-N , 44-S ) :   1.2526 B( 43-N , 45-N ) :   0.1429
B( 44-S , 45-N ) :   1.2590 B( 46-C , 47-C ) :   1.4535 B( 46-C , 50-S ) :   1.1063
B( 47-C , 48-C ) :   1.2995 B( 47-C , 94-H ) :   0.9916 B( 48-C , 49-C ) :   1.4939
B( 48-C , 53-C ) :   0.9417 B( 49-C , 50-S ) :   1.0691 B( 49-C , 51-C ) :   1.2001
B( 51-C , 52-C ) :   1.4683 B( 51-C , 58-S ) :   1.1265 B( 52-C , 53-C ) :   0.9325
B( 52-C , 56-C ) :   1.3510 B( 53-C , 54-C ) :   1.0313 B( 53-C , 55-C ) :   1.0389
B( 54-C , 95-H ) :   0.9634 B( 54-C , 96-H ) :   0.9650 B( 54-C , 97-H ) :   0.9648
B( 55-C , 98-H ) :   0.9648 B( 55-C , 99-H ) :   0.9640 B( 55-C ,100-H ) :   0.9646
B( 56-C , 57-C ) :   1.3579 B( 56-C ,101-H ) :   1.0108 B( 57-C , 58-S ) :   1.0849
B( 57-C , 59-C ) :   1.1977 B( 59-C , 60-C ) :   1.5735 B( 59-C ,102-H ) :   0.9479
B( 60-C , 61-C ) :   0.9533 B( 60-C , 75-C ) :   1.0546 B( 61-C , 62-O ) :   2.2658
B( 61-C , 63-C ) :   0.9174 B( 63-C , 64-C ) :   1.4778 B( 63-C , 74-C ) :   1.2240
B( 64-C , 65-C ) :   1.1902 B( 64-C ,103-H ) :   1.0165 B( 65-C , 66-C ) :   1.2621
B( 65-C , 70-C ) :   1.1929 B( 66-C , 67-C ) :   1.1900 B( 66-C , 73-C ) :   1.2091
B( 67-C , 68-C ) :   1.4394 B( 67-C , 70-C ) :   0.1091 B( 67-C ,104-H ) :   1.0076
B( 68-C , 69-C ) :   1.1942 B( 68-C , 72-F ) :   1.1332 B( 69-C , 70-C ) :   1.4423
B( 69-C , 71-F ) :   1.1303 B( 70-C ,105-H ) :   1.0072 B( 73-C , 74-C ) :   1.4620
B( 73-C ,106-H ) :   0.9947 B( 74-C , 75-C ) :   0.9963 B( 75-C , 76-C ) :   1.6425
B( 76-C , 77-C ) :   1.1523 B( 76-C , 79-C ) :   1.1374 B( 77-C , 78-N ) :   3.0242
B( 79-C , 80-N ) :   2.9865

-----------------------------------------------------------------------------
         ABSORPTION SPECTRUM VIA TRANSITION ELECTRIC DIPOLE MOMENTS
-----------------------------------------------------------------------------
State   Energy  Wavelength   fosc         T2         TX        TY        TZ
        (cm-1)    (nm)                  (au**2)     (au)      (au)      (au)
-----------------------------------------------------------------------------
   0   14227.9    702.8   2.616413091  60.53962   1.07780   6.82849   3.57067
   1   18571.5    538.5   0.177491711   3.14634  -0.94734  -1.33193   0.68910
   2   21100.5    473.9   0.276425985   4.31282   0.57486   1.17997   1.60936
   3   21963.7    455.3   0.038117579   0.57134   0.11301   0.48090   0.57210
   4   26302.1    380.2   0.031765612   0.39760   0.33723   0.53028  -0.05175
   5   26431.1    378.3   0.009310210   0.11596  -0.03497   0.08432  -0.32807
   6   26478.0    377.7   0.233670414   2.90533  -0.40317   1.60128  -0.42270
   7   27698.2    361.0   0.099654414   1.18446   0.60028   0.34657  -0.83906
   8   28138.7    355.4   0.299921688   3.50897   0.50338  -1.55567  -0.91405
   9   28717.0    348.2   0.086123608   0.98732   0.24220  -0.95831  -0.10151
  10   29025.5    344.5   0.028333733   0.32137  -0.36129  -0.38385   0.20856
  11   29329.6    341.0   0.011187740   0.12558  -0.20990  -0.14972   0.24311
  12   29568.9    338.2   0.025056249   0.27897  -0.03622  -0.32086  -0.41798
  13   29936.3    334.0   0.041171793   0.45277   0.39211   0.36551  -0.40672
  14   30110.7    332.1   0.129242931   1.41306   0.20496  -1.11656  -0.35262
  15   31391.8    318.6   0.213686599   2.24097  -0.19796  -1.41739  -0.43909
  16   32060.2    311.9   0.046808726   0.48066  -0.07677  -0.61480   0.31111
  17   32389.4    308.7   0.032320639   0.32851   0.13068  -0.14207  -0.53968
  18   32755.9    305.3   0.122721574   1.23341   0.64326   0.37438  -0.82430
  19   33385.1    299.5   0.030945661   0.30516   0.17564  -0.52362  -0.01133
  20   33543.7    298.1   0.023833259   0.23391   0.46321   0.08111  -0.11299
  21   33835.8    295.5   0.563508774   5.48277  -1.03225   2.10055   0.07023
  22   34331.6    291.3   0.332575236   3.18912  -0.77908  -0.89417   1.33515
  23   34479.1    290.0   0.130580432   1.24680   0.43666   0.21690  -1.00453
  24   34584.4    289.1   0.049138347   0.46775   0.05710   0.49950  -0.46367
  25   34761.6    287.7   0.225966272   2.14003   0.71836   0.33565  -1.22936
  26   34882.0    286.7   0.056119353   0.52965   0.53491  -0.29843  -0.39301
  27   35424.8    282.3   0.126005041   1.17100  -0.26658   0.02196   1.04855
  28   35644.8    280.5   0.072457955   0.66921  -0.00084   0.43943  -0.69001
  29   35854.8    278.9   0.001159934   0.01065  -0.07885   0.02583   0.06137
  30   35989.9    277.9   0.011942329   0.10924   0.02081  -0.23319  -0.23330
  31   36385.2    274.8   0.053263799   0.48193  -0.09330   0.24119   0.64425
  32   36950.0    270.6   0.099885872   0.88995  -0.10156   0.87053  -0.34900
  33   37276.3    268.3   0.047152661   0.41644  -0.03904  -0.51830   0.38246
  34   37422.4    267.2   0.003564742   0.03136   0.01066  -0.00896  -0.17654
  35   37938.1    263.6   0.020564886   0.17845   0.11954  -0.36984   0.16548
  36   38177.1    261.9   0.188195510   1.62286   0.83342  -0.92165   0.28080
  37   38290.4    261.2   0.134192476   1.15376   0.16481  -0.36751   0.99576
  38   38379.4    260.6   0.162360207   1.39270  -0.47668   0.14204   1.07019
  39   38719.9    258.3   0.014879439   0.12651  -0.17288  -0.04625   0.30738
  40   39326.6    254.3   0.034083929   0.28532   0.16805  -0.34569   0.37092
  41   39426.1    253.6   0.030232058   0.25244  -0.21681   0.37606  -0.25301
  42   39749.9    251.6   0.037699829   0.31223  -0.06929   0.55303  -0.03984
  43   40196.9    248.8   0.021549466   0.17649  -0.02339  -0.41900   0.01944
  44   40273.7    248.3   0.093623726   0.76531   0.15223   0.81766  -0.27124

FINAL SINGLE POINT ENERGY     -5442.283946959731

DIPOLE MOMENT
-------------
                                X             Y             Z
Electronic contribution:     14.01573      13.64974     -17.47780
Nuclear contribution   :    -14.13601     -14.63706      17.33601
                        -----------------------------------------
Total Dipole Moment    :     -0.12029      -0.98732      -0.14179
                        -----------------------------------------
Magnitude (a.u.)       :      1.00467
Magnitude (Debye)      :      2.55368

Rotational constants in cm-1:     0.001648     0.000132     0.000125
Rotational constants in MHz :    49.402057     3.945511     3.739176

                             ****ORCA TERMINATED NORMALLY****
TOTAL RUN TIME: 0 days 0 hours 11 minutes 36 seconds 73 msec
