                         Program Version 4.2.0 -  RELEASE  -
|  1> # ORCA input file
|  2> # SCF done       -217.265763948290          0.000453276792
|  3> ! CAM-B3LYP def2-SVP def2/J RIJCOSX Grid4 TightSCF
|  4> %maxcore 5000
|  5> %tddft
|  6>     Mode sTDDFT
|  7>     Ethresh 5.0
|  8>     maxcore 5000
|  9> end
| 10>
| 11> %pal
| 12>   nprocs 6
| 13>   end
| 14> * xyz 0 1
| 15>    C        7.05494        -3.12694         3.71472
| 16>    C        8.31577        -3.38777         3.25708
| 17>    F        9.34472        -2.62416         3.64546
| 18>    C        8.55099        -4.46102         2.37356
| 19>    F        9.79753        -4.69392         1.94232
| 20>    C        7.52128        -5.25869         1.96022
| 21>    C        6.21052        -5.01700         2.41587
| 22>    C        5.97081        -3.93132         3.30814
| 23>    C        4.66429        -3.67056         3.77894
| 24>    C        3.63014        -4.47337         3.37208
| 25>    C        3.87955        -5.55881         2.48760
| 26>    C        5.13016        -5.83220         2.01287
| 27>    C        2.62158        -6.28580         2.21620
| 28>    O        2.49606        -7.24301         1.48774
| 29>    C        1.59750        -5.62786         3.07467
| 30>    C        2.20865        -4.45702         3.69179
| 31>    C        1.55116        -3.47593         4.38183
| 32>    C        0.15536        -3.43848         4.59547
| 33>    N       -0.97118        -3.32989         4.78766
| 34>    C        2.18709        -2.34524         4.93822
| 35>    N        2.65438        -1.41154         5.41410
| 36>    C        0.39332        -6.13663         3.43704
| 37>    C       -0.31012        -7.26951         2.89659
| 38>    C       -1.10732        -8.01295         3.79126
| 39>    O       -1.18692        -7.59401         5.10469
| 40>    C       -2.43031        -6.97991         5.42228
| 41>    C       -1.75998        -9.17286         3.36333
| 42>    O       -2.35613       -10.06207         4.20345
| 43>    C       -1.82429       -10.24774         5.50354
| 44>    C       -1.77171        -9.47520         1.98329
| 45>    C       -1.03828        -8.68589         1.09844
| 46>    C       -0.28847        -7.62434         1.54480
| 47>    C       -2.51166       -10.63254         1.50155
| 48>    C       -3.78618       -10.95150         2.00154
| 49>    C       -4.43024       -12.20929         1.70651
| 50>    N       -5.59557       -12.52069         2.30867
| 51>    C       -6.14123       -11.66075         3.12241
| 52>    C       -5.56598       -10.35074         3.30335
| 53>    N       -4.43201       -10.03421         2.74457
| 54>    C       -6.23312        -9.37800         4.08995
| 55>    N       -6.76524        -8.61387         4.75697
| 56>    C       -7.32826       -12.00886         3.81569
| 57>    N       -8.27444       -12.25307         4.41277
| 58>    C       -3.87205       -13.12621         0.80285
| 59>    C       -2.65688       -12.75729         0.21294
| 60>    C       -1.97792       -11.52471         0.56174
| 61>    N       -0.80446       -11.41772        -0.07484
| 62>    S       -0.59056       -12.70797        -0.99418
| 63>    N       -1.93748       -13.48831        -0.64761
| 64>    C       -4.46786       -14.43674         0.54476
| 65>    C       -4.65100       -14.87927        -0.77231
| 66>    O       -4.42303       -14.01415        -1.82539
| 67>    C       -5.38389       -12.98137        -1.93315
| 68>    C       -5.09565       -16.18722        -1.00964
| 69>    O       -5.27446       -16.77641        -2.20725
| 70>    C       -4.86230       -16.16211        -3.41145
| 71>    C       -5.44967       -17.00006         0.09215
| 72>    C       -5.31100       -16.51299         1.39204
| 73>    C       -4.80482       -15.25749         1.61924
| 74>    C       -5.90659       -18.34447        -0.15295
| 75>    C       -6.82175       -19.03585         0.56300
| 76>    C       -6.88529       -20.52272         0.47700
| 77>    O       -6.37078       -21.22510        -0.35987
| 78>    C       -7.64905       -20.94168         1.67098
| 79>    C       -7.86511       -22.20210         2.14904
| 80>    C       -8.58834       -22.36640         3.35130
| 81>    C       -9.07454       -21.21582         4.03826
| 82>    C       -9.78189       -21.38695         5.24555
| 83>    C       -9.99766       -22.64015         5.74570
| 84>    C       -9.51861       -23.77730         5.06402
| 85>    C       -8.82957       -23.64486         3.89140
| 86>    F       -9.74333       -24.99348         5.57905
| 87>    F      -10.66741       -22.80110         6.89408
| 88>    C       -8.84637       -19.92355         3.51332
| 89>    C       -8.14716       -19.78845         2.34320
| 90>    C       -7.77220       -18.60488         1.57481
| 91>    C       -8.38276       -17.38261         1.64325
| 92>    C       -8.15310       -16.33114         0.73026
| 93>    N       -8.05629       -15.46327        -0.01449
| 94>    C       -9.38791       -17.07250         2.58441
| 95>    N      -10.20496       -16.79156         3.33911
| 96>    H        6.89234        -2.30089         4.38929
| 97>    H        7.71764        -6.07637         1.28453
| 98>    H        4.51488        -2.84731         4.45882
| 99>    H        5.29177        -6.66213         1.34184
|100>    H       -0.08636        -5.69433         4.30202
|101>    H       -3.27919        -7.61485         5.15281
|102>    H       -2.53183        -6.01846         4.90881
|103>    H       -2.41731        -6.81493         6.49791
|104>    H       -0.73929       -10.12940         5.51182
|105>    H       -2.08271       -11.27109         5.77949
|106>    H       -2.26819        -9.56165         6.22726
|107>    H       -1.05544        -8.93296         0.04963
|108>    H        0.28357        -7.03768         0.84737
|109>    H       -5.33387       -12.28965        -1.08578
|110>    H       -6.39782       -13.39028        -1.99048
|111>    H       -5.14685       -12.44580        -2.85108
|112>    H       -3.83872       -15.79113        -3.34434
|113>    H       -5.52909       -15.34443        -3.69202
|114>    H       -4.92463       -16.94937        -4.16305
|115>    H       -5.55720       -17.15518         2.22436
|116>    H       -4.65142       -14.90207         2.62515
|117>    H       -5.42170       -18.87985        -0.96183
|118>    H       -7.48411       -23.06230         1.61996
|119>    H      -10.15846       -20.52757         5.77792
|120>    H       -8.46883       -24.52472         3.38211
|121>    H       -9.21746       -19.06909         4.05664
|122> *
|123>
|124>                          ****END OF INPUT****

CARTESIAN COORDINATES (ANGSTROEM)
---------------------------------
  C      7.054940   -3.126940    3.714720
  C      8.315770   -3.387770    3.257080
  F      9.344720   -2.624160    3.645460
  C      8.550990   -4.461020    2.373560
  F      9.797530   -4.693920    1.942320
  C      7.521280   -5.258690    1.960220
  C      6.210520   -5.017000    2.415870
  C      5.970810   -3.931320    3.308140
  C      4.664290   -3.670560    3.778940
  C      3.630140   -4.473370    3.372080
  C      3.879550   -5.558810    2.487600
  C      5.130160   -5.832200    2.012870
  C      2.621580   -6.285800    2.216200
  O      2.496060   -7.243010    1.487740
  C      1.597500   -5.627860    3.074670
  C      2.208650   -4.457020    3.691790
  C      1.551160   -3.475930    4.381830
  C      0.155360   -3.438480    4.595470
  N     -0.971180   -3.329890    4.787660
  C      2.187090   -2.345240    4.938220
  N      2.654380   -1.411540    5.414100
  C      0.393320   -6.136630    3.437040
  C     -0.310120   -7.269510    2.896590
  C     -1.107320   -8.012950    3.791260
  O     -1.186920   -7.594010    5.104690
  C     -2.430310   -6.979910    5.422280
  C     -1.759980   -9.172860    3.363330
  O     -2.356130  -10.062070    4.203450
  C     -1.824290  -10.247740    5.503540
  C     -1.771710   -9.475200    1.983290
  C     -1.038280   -8.685890    1.098440
  C     -0.288470   -7.624340    1.544800
  C     -2.511660  -10.632540    1.501550
  C     -3.786180  -10.951500    2.001540
  C     -4.430240  -12.209290    1.706510
  N     -5.595570  -12.520690    2.308670
  C     -6.141230  -11.660750    3.122410
  C     -5.565980  -10.350740    3.303350
  N     -4.432010  -10.034210    2.744570
  C     -6.233120   -9.378000    4.089950
  N     -6.765240   -8.613870    4.756970
  C     -7.328260  -12.008860    3.815690
  N     -8.274440  -12.253070    4.412770
  C     -3.872050  -13.126210    0.802850
  C     -2.656880  -12.757290    0.212940
  C     -1.977920  -11.524710    0.561740
  N     -0.804460  -11.417720   -0.074840
  S     -0.590560  -12.707970   -0.994180
  N     -1.937480  -13.488310   -0.647610
  C     -4.467860  -14.436740    0.544760
  C     -4.651000  -14.879270   -0.772310
  O     -4.423030  -14.014150   -1.825390
  C     -5.383890  -12.981370   -1.933150
  C     -5.095650  -16.187220   -1.009640
  O     -5.274460  -16.776410   -2.207250
  C     -4.862300  -16.162110   -3.411450
  C     -5.449670  -17.000060    0.092150
  C     -5.311000  -16.512990    1.392040
  C     -4.804820  -15.257490    1.619240
  C     -5.906590  -18.344470   -0.152950
  C     -6.821750  -19.035850    0.563000
  C     -6.885290  -20.522720    0.477000
  O     -6.370780  -21.225100   -0.359870
  C     -7.649050  -20.941680    1.670980
  C     -7.865110  -22.202100    2.149040
  C     -8.588340  -22.366400    3.351300
  C     -9.074540  -21.215820    4.038260
  C     -9.781890  -21.386950    5.245550
  C     -9.997660  -22.640150    5.745700
  C     -9.518610  -23.777300    5.064020
  C     -8.829570  -23.644860    3.891400
  F     -9.743330  -24.993480    5.579050
  F    -10.667410  -22.801100    6.894080
  C     -8.846370  -19.923550    3.513320
  C     -8.147160  -19.788450    2.343200
  C     -7.772200  -18.604880    1.574810
  C     -8.382760  -17.382610    1.643250
  C     -8.153100  -16.331140    0.730260
  N     -8.056290  -15.463270   -0.014490
  C     -9.387910  -17.072500    2.584410
  N    -10.204960  -16.791560    3.339110
  H      6.892340   -2.300890    4.389290
  H      7.717640   -6.076370    1.284530
  H      4.514880   -2.847310    4.458820
  H      5.291770   -6.662130    1.341840
  H     -0.086360   -5.694330    4.302020
  H     -3.279190   -7.614850    5.152810
  H     -2.531830   -6.018460    4.908810
  H     -2.417310   -6.814930    6.497910
  H     -0.739290  -10.129400    5.511820
  H     -2.082710  -11.271090    5.779490
  H     -2.268190   -9.561650    6.227260
  H     -1.055440   -8.932960    0.049630
  H      0.283570   -7.037680    0.847370
  H     -5.333870  -12.289650   -1.085780
  H     -6.397820  -13.390280   -1.990480
  H     -5.146850  -12.445800   -2.851080
  H     -3.838720  -15.791130   -3.344340
  H     -5.529090  -15.344430   -3.692020
  H     -4.924630  -16.949370   -4.163050
  H     -5.557200  -17.155180    2.224360
  H     -4.651420  -14.902070    2.625150
  H     -5.421700  -18.879850   -0.961830
  H     -7.484110  -23.062300    1.619960
  H    -10.158460  -20.527570    5.777920
  H     -8.468830  -24.524720    3.382110
  H     -9.217460  -19.069090    4.056640

 Total Charge           Charge          ....    0
 Multiplicity           Mult            ....    1
 Number of Electrons    NEL             ....  556
 Basis Dimension        Dim             .... 1268

ORBITAL ENERGIES
----------------

  NO   OCC          E(Eh)            E(eV)
   0   2.0000     -89.052543     -2423.2429
   1   2.0000     -24.802605      -674.9132
   2   2.0000     -24.801577      -674.8852
   3   2.0000     -24.798487      -674.8011
   4   2.0000     -24.797682      -674.7792
   5   2.0000     -19.258360      -524.0466
   6   2.0000     -19.257767      -524.0305
   7   2.0000     -19.249593      -523.8081
   8   2.0000     -19.243035      -523.6296
   9   2.0000     -19.223443      -523.0965
  10   2.0000     -19.215808      -522.8887
  11   2.0000     -14.463330      -393.5672
  12   2.0000     -14.462538      -393.5457
  13   2.0000     -14.456020      -393.3683
  14   2.0000     -14.455712      -393.3599
  15   2.0000     -14.431864      -392.7110
  16   2.0000     -14.430133      -392.6639
  17   2.0000     -14.421831      -392.4380
  18   2.0000     -14.421200      -392.4208
  19   2.0000     -14.415189      -392.2572
  20   2.0000     -14.414693      -392.2437
  21   2.0000     -10.386127      -282.6209
  22   2.0000     -10.385263      -282.5974
  23   2.0000     -10.384219      -282.5690
  24   2.0000     -10.382060      -282.5102
  25   2.0000     -10.381590      -282.4974
  26   2.0000     -10.381055      -282.4829
  27   2.0000     -10.375765      -282.3389
  28   2.0000     -10.367193      -282.1057
  29   2.0000     -10.351191      -281.6702
  30   2.0000     -10.350997      -281.6649
  31   2.0000     -10.350598      -281.6541
  32   2.0000     -10.349360      -281.6204
  33   2.0000     -10.348832      -281.6060
  34   2.0000     -10.347703      -281.5753
  35   2.0000     -10.346822      -281.5514
  36   2.0000     -10.345806      -281.5237
  37   2.0000     -10.344919      -281.4996
  38   2.0000     -10.344487      -281.4878
  39   2.0000     -10.342109      -281.4231
  40   2.0000     -10.340112      -281.3688
  41   2.0000     -10.327772      -281.0330
  42   2.0000     -10.325274      -280.9650
  43   2.0000     -10.324699      -280.9493
  44   2.0000     -10.323705      -280.9223
  45   2.0000     -10.323512      -280.9170
  46   2.0000     -10.322952      -280.9018
  47   2.0000     -10.322780      -280.8971
  48   2.0000     -10.322252      -280.8828
  49   2.0000     -10.322233      -280.8822
  50   2.0000     -10.321894      -280.8730
  51   2.0000     -10.321772      -280.8697
  52   2.0000     -10.317286      -280.7476
  53   2.0000     -10.316909      -280.7374
  54   2.0000     -10.315496      -280.6989
  55   2.0000     -10.315208      -280.6911
  56   2.0000     -10.313720      -280.6506
  57   2.0000     -10.312449      -280.6160
  58   2.0000     -10.311009      -280.5768
  59   2.0000     -10.310695      -280.5683
  60   2.0000     -10.308518      -280.5090
  61   2.0000     -10.307752      -280.4882
  62   2.0000     -10.307274      -280.4752
  63   2.0000     -10.305803      -280.4352
  64   2.0000     -10.305611      -280.4299
  65   2.0000     -10.304790      -280.4076
  66   2.0000     -10.303574      -280.3745
  67   2.0000     -10.303075      -280.3609
  68   2.0000     -10.302829      -280.3542
  69   2.0000     -10.301356      -280.3141
  70   2.0000     -10.301318      -280.3131
  71   2.0000     -10.300423      -280.2888
  72   2.0000     -10.299475      -280.2630
  73   2.0000     -10.298229      -280.2291
  74   2.0000     -10.296336      -280.1775
  75   2.0000     -10.294103      -280.1168
  76   2.0000     -10.292279      -280.0671
  77   2.0000     -10.285178      -279.8739
  78   2.0000     -10.283217      -279.8206
  79   2.0000     -10.282723      -279.8071
  80   2.0000     -10.280801      -279.7548
  81   2.0000      -8.143756      -221.6029
  82   2.0000      -6.114587      -166.3864
  83   2.0000      -6.107098      -166.1826
  84   2.0000      -6.106783      -166.1740
  85   2.0000      -1.325197       -36.0604
  86   2.0000      -1.321090       -35.9487
  87   2.0000      -1.310311       -35.6554
  88   2.0000      -1.306209       -35.5437
  89   2.0000      -1.168858       -31.8062
  90   2.0000      -1.167802       -31.7775
  91   2.0000      -1.148080       -31.2408
  92   2.0000      -1.143357       -31.1123
  93   2.0000      -1.141342       -31.0575
  94   2.0000      -1.139611       -31.0104
  95   2.0000      -1.131448       -30.7883
  96   2.0000      -1.122069       -30.5330
  97   2.0000      -1.049435       -28.5566
  98   2.0000      -1.025351       -27.9012
  99   2.0000      -1.019689       -27.7471
 100   2.0000      -1.015617       -27.6363
 101   2.0000      -1.009388       -27.4668
 102   2.0000      -1.005719       -27.3670
 103   2.0000      -1.003728       -27.3128
 104   2.0000      -1.000244       -27.2180
 105   2.0000      -1.000059       -27.2130
 106   2.0000      -0.993628       -27.0380
 107   2.0000      -0.988433       -26.8966
 108   2.0000      -0.986520       -26.8446
 109   2.0000      -0.981665       -26.7125
 110   2.0000      -0.968174       -26.3453
 111   2.0000      -0.961461       -26.1627
 112   2.0000      -0.937305       -25.5054
 113   2.0000      -0.931931       -25.3591
 114   2.0000      -0.918419       -24.9915
 115   2.0000      -0.910583       -24.7782
 116   2.0000      -0.907002       -24.6808
 117   2.0000      -0.900522       -24.5044
 118   2.0000      -0.896647       -24.3990
 119   2.0000      -0.892976       -24.2991
 120   2.0000      -0.888132       -24.1673
 121   2.0000      -0.874683       -23.8013
 122   2.0000      -0.858133       -23.3510
 123   2.0000      -0.855254       -23.2726
 124   2.0000      -0.850505       -23.1434
 125   2.0000      -0.845298       -23.0017
 126   2.0000      -0.840936       -22.8830
 127   2.0000      -0.838833       -22.8258
 128   2.0000      -0.834556       -22.7094
 129   2.0000      -0.808379       -21.9971
 130   2.0000      -0.806054       -21.9338
 131   2.0000      -0.803539       -21.8654
 132   2.0000      -0.798233       -21.7210
 133   2.0000      -0.778701       -21.1895
 134   2.0000      -0.772264       -21.0144
 135   2.0000      -0.771543       -20.9948
 136   2.0000      -0.769508       -20.9394
 137   2.0000      -0.766025       -20.8446
 138   2.0000      -0.756315       -20.5804
 139   2.0000      -0.742315       -20.1994
 140   2.0000      -0.739331       -20.1182
 141   2.0000      -0.730438       -19.8762
 142   2.0000      -0.721533       -19.6339
 143   2.0000      -0.718265       -19.5450
 144   2.0000      -0.716482       -19.4965
 145   2.0000      -0.710403       -19.3310
 146   2.0000      -0.702364       -19.1123
 147   2.0000      -0.696848       -18.9622
 148   2.0000      -0.692526       -18.8446
 149   2.0000      -0.686366       -18.6770
 150   2.0000      -0.684448       -18.6248
 151   2.0000      -0.680368       -18.5137
 152   2.0000      -0.679628       -18.4936
 153   2.0000      -0.668517       -18.1913
 154   2.0000      -0.661456       -17.9991
 155   2.0000      -0.656137       -17.8544
 156   2.0000      -0.652230       -17.7481
 157   2.0000      -0.648361       -17.6428
 158   2.0000      -0.643994       -17.5240
 159   2.0000      -0.643711       -17.5163
 160   2.0000      -0.637194       -17.3389
 161   2.0000      -0.634562       -17.2673
 162   2.0000      -0.624483       -16.9931
 163   2.0000      -0.619665       -16.8620
 164   2.0000      -0.616694       -16.7811
 165   2.0000      -0.615657       -16.7529
 166   2.0000      -0.611545       -16.6410
 167   2.0000      -0.607353       -16.5269
 168   2.0000      -0.604342       -16.4450
 169   2.0000      -0.598360       -16.2822
 170   2.0000      -0.595197       -16.1961
 171   2.0000      -0.590588       -16.0707
 172   2.0000      -0.589675       -16.0459
 173   2.0000      -0.585649       -15.9363
 174   2.0000      -0.584977       -15.9180
 175   2.0000      -0.580467       -15.7953
 176   2.0000      -0.576311       -15.6822
 177   2.0000      -0.575958       -15.6726
 178   2.0000      -0.574582       -15.6352
 179   2.0000      -0.571736       -15.5577
 180   2.0000      -0.567566       -15.4443
 181   2.0000      -0.564770       -15.3682
 182   2.0000      -0.560535       -15.2529
 183   2.0000      -0.558950       -15.2098
 184   2.0000      -0.557785       -15.1781
 185   2.0000      -0.554356       -15.0848
 186   2.0000      -0.552931       -15.0460
 187   2.0000      -0.551239       -15.0000
 188   2.0000      -0.548333       -14.9209
 189   2.0000      -0.547237       -14.8911
 190   2.0000      -0.544573       -14.8186
 191   2.0000      -0.542044       -14.7498
 192   2.0000      -0.540594       -14.7103
 193   2.0000      -0.539520       -14.6811
 194   2.0000      -0.536555       -14.6004
 195   2.0000      -0.535444       -14.5702
 196   2.0000      -0.534241       -14.5374
 197   2.0000      -0.531457       -14.4617
 198   2.0000      -0.529900       -14.4193
 199   2.0000      -0.529330       -14.4038
 200   2.0000      -0.524965       -14.2850
 201   2.0000      -0.520766       -14.1708
 202   2.0000      -0.519596       -14.1389
 203   2.0000      -0.518467       -14.1082
 204   2.0000      -0.516078       -14.0432
 205   2.0000      -0.514238       -13.9931
 206   2.0000      -0.509662       -13.8686
 207   2.0000      -0.509284       -13.8583
 208   2.0000      -0.503934       -13.7127
 209   2.0000      -0.501041       -13.6340
 210   2.0000      -0.499640       -13.5959
 211   2.0000      -0.496416       -13.5082
 212   2.0000      -0.489927       -13.3316
 213   2.0000      -0.489468       -13.3191
 214   2.0000      -0.486712       -13.2441
 215   2.0000      -0.485276       -13.2050
 216   2.0000      -0.482567       -13.1313
 217   2.0000      -0.478876       -13.0309
 218   2.0000      -0.476093       -12.9551
 219   2.0000      -0.473528       -12.8854
 220   2.0000      -0.472377       -12.8540
 221   2.0000      -0.470733       -12.8093
 222   2.0000      -0.467964       -12.7339
 223   2.0000      -0.467299       -12.7159
 224   2.0000      -0.464050       -12.6274
 225   2.0000      -0.460863       -12.5407
 226   2.0000      -0.457682       -12.4542
 227   2.0000      -0.457192       -12.4408
 228   2.0000      -0.454741       -12.3741
 229   2.0000      -0.453957       -12.3528
 230   2.0000      -0.451077       -12.2744
 231   2.0000      -0.450151       -12.2492
 232   2.0000      -0.449948       -12.2437
 233   2.0000      -0.446235       -12.1427
 234   2.0000      -0.446104       -12.1391
 235   2.0000      -0.445198       -12.1145
 236   2.0000      -0.444009       -12.0821
 237   2.0000      -0.442600       -12.0438
 238   2.0000      -0.436545       -11.8790
 239   2.0000      -0.435011       -11.8372
 240   2.0000      -0.432613       -11.7720
 241   2.0000      -0.432255       -11.7623
 242   2.0000      -0.430022       -11.7015
 243   2.0000      -0.428982       -11.6732
 244   2.0000      -0.426783       -11.6134
 245   2.0000      -0.425648       -11.5825
 246   2.0000      -0.424822       -11.5600
 247   2.0000      -0.422324       -11.4920
 248   2.0000      -0.419328       -11.4105
 249   2.0000      -0.416753       -11.3404
 250   2.0000      -0.415128       -11.2962
 251   2.0000      -0.414789       -11.2870
 252   2.0000      -0.412927       -11.2363
 253   2.0000      -0.409529       -11.1438
 254   2.0000      -0.407790       -11.0965
 255   2.0000      -0.400135       -10.8882
 256   2.0000      -0.398506       -10.8439
 257   2.0000      -0.394415       -10.7326
 258   2.0000      -0.389771       -10.6062
 259   2.0000      -0.384973       -10.4756
 260   2.0000      -0.383429       -10.4336
 261   2.0000      -0.366312        -9.9679
 262   2.0000      -0.365878        -9.9560
 263   2.0000      -0.359925        -9.7941
 264   2.0000      -0.358194        -9.7470
 265   2.0000      -0.354423        -9.6443
 266   2.0000      -0.347733        -9.4623
 267   2.0000      -0.344822        -9.3831
 268   2.0000      -0.335709        -9.1351
 269   2.0000      -0.324404        -8.8275
 270   2.0000      -0.321240        -8.7414
 271   2.0000      -0.317735        -8.6460
 272   2.0000      -0.310677        -8.4539
 273   2.0000      -0.304833        -8.2949
 274   2.0000      -0.304013        -8.2726
 275   2.0000      -0.298362        -8.1188
 276   2.0000      -0.292386        -7.9562
 277   2.0000      -0.276367        -7.5203
 278   0.0000      -0.122464        -3.3324
 279   0.0000      -0.093651        -2.5484
 280   0.0000      -0.088053        -2.3960
 281   0.0000      -0.063821        -1.7367
 282   0.0000      -0.056441        -1.5358

MULLIKEN ATOMIC CHARGES
-----------------------
   0 C :   -0.109031
   1 C :    0.244593
   2 F :   -0.169660
   3 C :    0.240272
   4 F :   -0.170361
   5 C :   -0.108319
   6 C :    0.118402
   7 C :    0.115226
   8 C :   -0.085266
   9 C :    0.054413
  10 C :   -0.009628
  11 C :   -0.082365
  12 C :    0.149982
  13 O :   -0.137119
  14 C :   -0.071722
  15 C :    0.291872
  16 C :   -0.334797
  17 C :   -0.204048
  18 N :    0.163286
  19 C :   -0.184416
  20 N :    0.154317
  21 C :   -0.013742
  22 C :    0.038533
  23 C :    0.038156
  24 O :   -0.355051
  25 C :    0.188821
  26 C :    0.173389
  27 O :   -0.330310
  28 C :    0.195101
  29 C :   -0.043390
  30 C :    0.016832
  31 C :    0.030515
  32 C :    0.084688
  33 C :   -0.066516
  34 C :   -0.042987
  35 N :    0.068592
  36 C :   -0.136508
  37 C :   -0.151977
  38 N :    0.079884
  39 C :   -0.201457
  40 N :    0.231514
  41 C :   -0.197914
  42 N :    0.238635
  43 C :    0.001861
  44 C :    0.011582
  45 C :    0.014480
  46 N :   -0.276372
  47 S :    0.554327
  48 N :   -0.244748
  49 C :   -0.003504
  50 C :    0.084201
  51 O :   -0.354495
  52 C :    0.196184
  53 C :    0.200457
  54 O :   -0.300289
  55 C :    0.198264
  56 C :   -0.063818
  57 C :    0.009214
  58 C :    0.014968
  59 C :    0.068447
  60 C :   -0.116373
  61 C :    0.137936
  62 O :   -0.136007
  63 C :    0.011999
  64 C :   -0.082715
  65 C :    0.112580
  66 C :    0.109878
  67 C :   -0.105858
  68 C :    0.242069
  69 C :    0.240237
  70 C :   -0.104987
  71 F :   -0.172085
  72 F :   -0.170158
  73 C :   -0.079483
  74 C :    0.036187
  75 C :    0.252072
  76 C :   -0.324531
  77 C :   -0.168202
  78 N :    0.164940
  79 C :   -0.185188
  80 N :    0.157189
  81 H :    0.008118
  82 H :    0.000654
  83 H :   -0.003415
  84 H :   -0.009880
  85 H :    0.032695
  86 H :    0.034787
  87 H :    0.033676
  88 H :    0.042759
  89 H :    0.032697
  90 H :    0.027985
  91 H :    0.025039
  92 H :   -0.015614
  93 H :   -0.012144
  94 H :    0.019465
  95 H :    0.038842
  96 H :    0.029693
  97 H :    0.035855
  98 H :    0.019481
  99 H :    0.033040
 100 H :   -0.010132
 101 H :   -0.029265
 102 H :    0.031773
 103 H :   -0.009501
 104 H :    0.006486
 105 H :   -0.000604
 106 H :   -0.003183
Sum of atomic charges:   -0.0000000

LOEWDIN ATOMIC CHARGES
----------------------
   0 C :   -0.028843
   1 C :    0.067145
   2 F :   -0.047727
   3 C :    0.068337
   4 F :   -0.048291
   5 C :   -0.033553
   6 C :   -0.008011
   7 C :   -0.006223
   8 C :    0.018678
   9 C :   -0.024031
  10 C :   -0.052453
  11 C :    0.030033
  12 C :    0.082972
  13 O :   -0.130098
  14 C :   -0.088900
  15 C :    0.077149
  16 C :   -0.134774
  17 C :   -0.021888
  18 N :   -0.049418
  19 C :   -0.017669
  20 N :   -0.049432
  21 C :    0.091163
  22 C :   -0.046010
  23 C :    0.030088
  24 O :   -0.133646
  25 C :    0.081275
  26 C :    0.045553
  27 O :   -0.105933
  28 C :    0.082056
  29 C :   -0.022877
  30 C :   -0.001389
  31 C :    0.009654
  32 C :   -0.002547
  33 C :   -0.006812
  34 C :   -0.010956
  35 N :    0.006925
  36 C :   -0.025991
  37 C :   -0.031146
  38 N :    0.019247
  39 C :   -0.035706
  40 N :   -0.008527
  41 C :   -0.037850
  42 N :    0.001801
  43 C :   -0.007286
  44 C :   -0.043169
  45 C :   -0.039666
  46 N :   -0.287641
  47 S :    0.696020
  48 N :   -0.269775
  49 C :   -0.014741
  50 C :    0.025066
  51 O :   -0.126959
  52 C :    0.076942
  53 C :    0.067938
  54 O :   -0.085182
  55 C :    0.082371
  56 C :   -0.060947
  57 C :   -0.003954
  58 C :   -0.012065
  59 C :    0.094305
  60 C :   -0.090499
  61 C :    0.083701
  62 O :   -0.137950
  63 C :   -0.054502
  64 C :    0.030208
  65 C :   -0.009362
  66 C :   -0.006084
  67 C :   -0.029613
  68 C :    0.066691
  69 C :    0.067113
  70 C :   -0.033064
  71 F :   -0.049469
  72 F :   -0.048339
  73 C :    0.015471
  74 C :   -0.021332
  75 C :    0.065969
  76 C :   -0.130572
  77 C :   -0.009654
  78 N :   -0.050473
  79 C :   -0.019544
  80 N :   -0.045957
  81 H :    0.048020
  82 H :    0.045047
  83 H :    0.040379
  84 H :    0.040112
  85 H :    0.045491
  86 H :    0.018086
  87 H :    0.020703
  88 H :    0.028433
  89 H :    0.021561
  90 H :    0.022405
  91 H :    0.017198
  92 H :    0.032872
  93 H :    0.033372
  94 H :    0.010751
  95 H :    0.021321
  96 H :    0.023751
  97 H :    0.020714
  98 H :    0.017680
  99 H :    0.024619
 100 H :    0.032333
 101 H :    0.028990
 102 H :    0.047929
 103 H :    0.040464
 104 H :    0.047632
 105 H :    0.044758
 106 H :    0.040003

  Mayer bond orders larger than 0.100000
B(  0-C ,  1-C ) :   1.4419 B(  0-C ,  5-C ) :   0.1087 B(  0-C ,  7-C ) :   1.1861
B(  0-C , 81-H ) :   1.0074 B(  1-C ,  2-F ) :   1.1367 B(  1-C ,  3-C ) :   1.1884
B(  3-C ,  4-F ) :   1.1352 B(  3-C ,  5-C ) :   1.4446 B(  5-C ,  6-C ) :   1.1905
B(  5-C , 82-H ) :   1.0074 B(  6-C ,  7-C ) :   1.2554 B(  6-C , 11-C ) :   1.1910
B(  7-C ,  8-C ) :   1.2196 B(  8-C ,  9-C ) :   1.4443 B(  8-C , 83-H ) :   0.9914
B(  9-C , 10-C ) :   1.2197 B(  9-C , 15-C ) :   0.9933 B( 10-C , 11-C ) :   1.4710
B( 10-C , 12-C ) :   0.9405 B( 11-C , 84-H ) :   1.0165 B( 12-C , 13-O ) :   2.2359
B( 12-C , 14-C ) :   0.9284 B( 14-C , 15-C ) :   1.0446 B( 14-C , 21-C ) :   1.6428
B( 15-C , 16-C ) :   1.6608 B( 16-C , 17-C ) :   1.1378 B( 16-C , 19-C ) :   1.1402
B( 17-C , 18-N ) :   2.9969 B( 19-C , 20-N ) :   2.9721 B( 21-C , 22-C ) :   1.0920
B( 21-C , 85-H ) :   0.9389 B( 22-C , 23-C ) :   1.3246 B( 22-C , 31-C ) :   1.3210
B( 23-C , 24-O ) :   1.1305 B( 23-C , 26-C ) :   1.3163 B( 24-O , 25-C ) :   0.9115
B( 25-C , 86-H ) :   0.9673 B( 25-C , 87-H ) :   0.9636 B( 25-C , 88-H ) :   0.9806
B( 26-C , 27-O ) :   1.1701 B( 26-C , 29-C ) :   1.3483 B( 27-O , 28-C ) :   0.9355
B( 28-C , 89-H ) :   0.9705 B( 28-C , 90-H ) :   0.9787 B( 28-C , 91-H ) :   0.9741
B( 29-C , 30-C ) :   1.3596 B( 29-C , 32-C ) :   0.9751 B( 30-C , 31-C ) :   1.3748
B( 30-C , 92-H ) :   0.9938 B( 31-C , 93-H ) :   0.9885 B( 32-C , 33-C ) :   1.3245
B( 32-C , 43-C ) :   0.1422 B( 32-C , 45-C ) :   1.2881 B( 33-C , 34-C ) :   1.0846
B( 33-C , 38-N ) :   1.4185 B( 34-C , 35-N ) :   1.4198 B( 34-C , 43-C ) :   1.3238
B( 35-N , 36-C ) :   1.7751 B( 36-C , 37-C ) :   1.1679 B( 36-C , 41-C ) :   1.1377
B( 37-C , 38-N ) :   1.7613 B( 37-C , 39-C ) :   1.1513 B( 39-C , 40-N ) :   3.0407
B( 41-C , 42-N ) :   3.0512 B( 43-C , 44-C ) :   1.2735 B( 43-C , 49-C ) :   0.9600
B( 44-C , 45-C ) :   1.1084 B( 44-C , 48-N ) :   1.4954 B( 45-C , 46-N ) :   1.4826
B( 46-N , 47-S ) :   1.2984 B( 46-N , 48-N ) :   0.1617 B( 47-S , 48-N ) :   1.3153
B( 49-C , 50-C ) :   1.3729 B( 49-C , 56-C ) :   0.1094 B( 49-C , 58-C ) :   1.3514
B( 50-C , 51-O ) :   1.1094 B( 50-C , 53-C ) :   1.3012 B( 51-O , 52-C ) :   0.9392
B( 52-C , 94-H ) :   0.9649 B( 52-C , 95-H ) :   0.9628 B( 52-C , 96-H ) :   0.9800
B( 53-C , 54-O ) :   1.2526 B( 53-C , 56-C ) :   1.3314 B( 54-O , 55-C ) :   0.9271
B( 55-C , 97-H ) :   0.9734 B( 55-C , 98-H ) :   0.9766 B( 55-C , 99-H ) :   0.9769
B( 56-C , 57-C ) :   1.3454 B( 56-C , 59-C ) :   1.0364 B( 57-C , 58-C ) :   1.3709
B( 57-C ,100-H ) :   0.9985 B( 58-C ,101-H ) :   0.9954 B( 59-C , 60-C ) :   1.7059
B( 59-C ,102-H ) :   0.9405 B( 60-C , 61-C ) :   0.9321 B( 60-C , 75-C ) :   1.0203
B( 61-C , 62-O ) :   2.2865 B( 61-C , 63-C ) :   0.9126 B( 63-C , 64-C ) :   1.4710
B( 63-C , 74-C ) :   1.2230 B( 64-C , 65-C ) :   1.1947 B( 64-C ,103-H ) :   1.0166
B( 65-C , 66-C ) :   1.2572 B( 65-C , 70-C ) :   1.1917 B( 66-C , 67-C ) :   1.1868
B( 66-C , 73-C ) :   1.2167 B( 67-C , 68-C ) :   1.4427 B( 67-C , 70-C ) :   0.1091
B( 67-C ,104-H ) :   1.0075 B( 68-C , 69-C ) :   1.1900 B( 68-C , 72-F ) :   1.1358
B( 69-C , 70-C ) :   1.4438 B( 69-C , 71-F ) :   1.1325 B( 70-C ,105-H ) :   1.0075
B( 73-C , 74-C ) :   1.4525 B( 73-C ,106-H ) :   0.9953 B( 74-C , 75-C ) :   0.9964
B( 75-C , 76-C ) :   1.6800 B( 76-C , 77-C ) :   1.1544 B( 76-C , 79-C ) :   1.1308
B( 77-C , 78-N ) :   2.9999 B( 79-C , 80-N ) :   2.9895

-----------------------------------------------------------------------------
         ABSORPTION SPECTRUM VIA TRANSITION ELECTRIC DIPOLE MOMENTS
-----------------------------------------------------------------------------
State   Energy  Wavelength   fosc         T2         TX        TY        TZ
        (cm-1)    (nm)                  (au**2)     (au)      (au)      (au)
-----------------------------------------------------------------------------
   0   16218.3    616.6   0.534042775  10.84040   1.81939   2.69578   0.51284
   1   19309.8    517.9   0.014999742   0.25573  -0.16302   0.06697  -0.47399
   2   20735.7    482.3   0.050654390   0.80422   0.52883   0.71353  -0.12421
   3   23057.3    433.7   0.045487086   0.64946   0.47383   0.56823   0.31946
   4   23570.4    424.3   0.339220872   4.73796  -1.46853  -1.47888   0.62794
   5   24784.6    403.5   0.297918878   3.95723  -1.17043  -1.47516  -0.64127
   6   26401.5    378.8   0.006091438   0.07596  -0.10337  -0.16539   0.19472
   7   26981.1    370.6   0.006063764   0.07399  -0.10592   0.24285  -0.06160
   8   27253.9    366.9   0.062735128   0.75781   0.64708   0.12533   0.56867
   9   27713.4    360.8   0.090047532   1.06969  -0.55573  -0.87220  -0.01104
  10   27868.8    358.8   0.049570619   0.58557   0.17999   0.70524  -0.23626
  11   28315.4    353.2   0.164187529   1.90895   1.27845   0.43662  -0.28962
  12   28780.0    347.5   0.057603567   0.65892   0.65120  -0.07375  -0.47898
  13   29062.3    344.1   0.003288133   0.03725   0.02014   0.00547  -0.19186
  14   29307.6    341.2   0.005945016   0.06678   0.14602  -0.07968  -0.19776
  15   29634.7    337.4   0.012242584   0.13600   0.00955   0.34002   0.14247
  16   29701.6    336.7   0.029787656   0.33017  -0.12146  -0.49004   0.27437
  17   30524.9    327.6   0.027910191   0.30101  -0.07677  -0.27620   0.46780
  18   30586.6    326.9   0.011380459   0.12249   0.17251  -0.16102  -0.25847
  19   30821.0    324.5   0.217726143   2.32562   1.43207   0.10517  -0.51356
  20   31595.1    316.5   0.171814661   1.79026  -0.13460   1.32888   0.07889
  21   31802.6    314.4   0.142829411   1.47853   0.76520  -0.92465  -0.19500
  22   32333.0    309.3   0.088426024   0.90035  -0.65183  -0.53800   0.43130
  23   32576.9    307.0   0.142394205   1.43899  -0.51264  -0.78665   0.74657
  24   32774.0    305.1   0.019892900   0.19982   0.34332   0.25924   0.12143
  25   33004.5    303.0   0.160383565   1.59979   1.07185   0.59442   0.31237
  26   33292.4    300.4   0.137929048   1.36391  -0.70472   0.72725   0.58172
  27   33578.9    297.8   0.094154763   0.92311   0.86348   0.33990  -0.24897
  28   33791.0    295.9   0.231520144   2.25560   0.29049   1.32893  -0.63652
  29   33894.1    295.0   0.169916610   1.65039   1.21257   0.12685  -0.40494
  30   34231.7    292.1   0.095697146   0.92033   0.90767   0.00118  -0.31059
  31   34413.6    290.6   0.408302615   3.90596   1.73563   0.07824  -0.94204
  32   35107.8    284.8   0.064965276   0.60919   0.26624  -0.08366  -0.72891
  33   35476.6    281.9   0.467295265   4.33635  -0.01248   2.04267  -0.40458
  34   35651.4    280.5   0.660910835   6.10297   2.29016  -0.02987  -0.92589
  35   35833.7    279.1   0.379039953   3.48232  -0.62066   1.75751  -0.09100
  36   36074.9    277.2   0.045803635   0.41799   0.35085  -0.38110  -0.38686
  37   36125.4    276.8   0.012254732   0.11168  -0.14207  -0.19415   0.23195
  38   36359.3    275.0   0.020690274   0.18734  -0.12377   0.40997  -0.06278
  39   36771.9    271.9   0.168224216   1.50608  -0.36456  -0.59206   1.01126
  40   36979.2    270.4   0.037290721   0.33199  -0.51864  -0.01125   0.25073
  41   37263.0    268.4   0.004166565   0.03681   0.14870   0.10175   0.06592
  42   37321.2    267.9   0.045995724   0.40573  -0.58017   0.14619   0.21854
  43   37886.4    263.9   0.002478986   0.02154   0.13215  -0.02597  -0.05832
  44   38028.0    263.0   0.180940367   1.56642   0.98890  -0.34713  -0.68411
  45   38106.5    262.4   0.005586761   0.04827   0.09291   0.08120  -0.18177
  46   38744.9    258.1   0.026879135   0.22839  -0.18742  -0.41858  -0.13437
  47   38920.0    256.9   0.023106350   0.19545   0.25113  -0.26807  -0.24601
  48   39072.7    255.9   0.029682841   0.25010   0.14675  -0.22919  -0.41957
  49   39422.7    253.7   0.023520570   0.19642   0.42559  -0.08290  -0.09176
  50   39459.5    253.4   0.107525576   0.89709  -0.78247  -0.53369   0.00174
  51   39661.8    252.1   0.010083752   0.08370  -0.04044   0.12050   0.25989
  52   39665.2    252.1   0.179625075   1.49085  -0.61429  -0.93824  -0.48292
  53   39816.3    251.2   0.030064469   0.24858   0.02803   0.42134   0.26508
  54   39965.3    250.2   0.019887380   0.16382   0.16490  -0.16544  -0.33054
  55   40170.0    248.9   0.233913852   1.91703  -1.10799  -0.81959   0.13292

FINAL SINGLE POINT ENERGY     -4093.612998474740

DIPOLE MOMENT
-------------
                                X             Y             Z
Electronic contribution:     12.94591      -7.73563      14.19851
Nuclear contribution   :     -9.68145       5.81891     -16.13857
                        -----------------------------------------
Total Dipole Moment    :      3.26447      -1.91672      -1.94006
                        -----------------------------------------
Magnitude (a.u.)       :      4.25375
Magnitude (Debye)      :     10.81217

Rotational constants in cm-1:     0.001635     0.000226     0.000218
Rotational constants in MHz :    49.030408     6.777635     6.524237

                             ****ORCA TERMINATED NORMALLY****
TOTAL RUN TIME: 0 days 0 hours 13 minutes 4 seconds 206 msec
