                         Program Version 4.2.0 -  RELEASE  -
|  1> # ORCA input file
|  2> # SCF done       -192.910821490522          0.000676637928
|  3> ! CAM-B3LYP def2-SVP def2/J RIJCOSX Grid4 TightSCF
|  4> %maxcore 5000
|  5> %tddft
|  6>     Mode sTDDFT
|  7>     Ethresh 5.0
|  8>     maxcore 5000
|  9> end
| 10>
| 11> %pal
| 12>   nprocs 6
| 13>   end
| 14> * xyz 0 1
| 15>    C      -12.21979        -5.13019        -6.98870
| 16>    C      -13.41722        -4.50662        -6.77485
| 17>    F      -14.19182        -4.16225        -7.81200
| 18>    C      -13.85185        -4.21857        -5.46587
| 19>    F      -15.03067        -3.60759        -5.28496
| 20>    C      -13.08226        -4.55744        -4.38820
| 21>    C      -11.84361        -5.20012        -4.57602
| 22>    C      -11.40275        -5.49207        -5.89914
| 23>    C      -10.16234        -6.13745        -6.11210
| 24>    C       -9.38730        -6.47698        -5.03507
| 25>    C       -9.83759        -6.18423        -3.71738
| 26>    C      -11.03054        -5.56611        -3.47992
| 27>    C       -8.84897        -6.68168        -2.74440
| 28>    O       -8.96588        -6.68891        -1.53130
| 29>    C       -7.75985        -7.27240        -3.53704
| 30>    C       -8.08563        -7.13407        -4.94337
| 31>    C       -7.29046        -7.47609        -6.00567
| 32>    C       -5.99658        -8.03032        -5.90715
| 33>    N       -4.93302        -8.46307        -5.90691
| 34>    C       -7.65495        -7.28885        -7.35584
| 35>    N       -7.89676        -7.16212        -8.47066
| 36>    C       -6.70444        -7.98339        -3.02191
| 37>    C       -6.23603        -8.00086        -1.69820
| 38>    C       -6.30942        -7.09557        -0.64338
| 39>    C       -5.59255        -7.48418         0.52014
| 40>    C       -5.65048        -6.46579         1.51163
| 41>    C       -6.33703        -5.35764         1.12607
| 42>    S       -6.99890        -5.52796        -0.48643
| 43>    C       -6.57217        -4.12359         1.91562
| 44>    F       -5.06070        -6.54956         2.70955
| 45>    C       -4.98329        -8.73164         0.38329
| 46>    S       -5.23898        -9.36229        -1.20935
| 47>    C       -4.28194        -9.47292         1.35769
| 48>    N       -4.14151        -9.10478         2.59752
| 49>    C       -3.47768       -10.01422         3.29542
| 50>    C       -3.06418       -11.16948         2.59327
| 51>    S       -3.55278       -11.05931         0.95452
| 52>    N       -2.42655       -12.09369         3.30210
| 53>    C       -2.31230       -11.72006         4.54878
| 54>    S       -3.00877       -10.13195         4.94188
| 55>    C       -1.70600       -12.54394         5.51909
| 56>    C       -1.16997       -13.79845         5.28448
| 57>    C       -0.63429       -14.43252         6.43140
| 58>    C       -0.20188       -15.74383         6.09330
| 59>    C       -0.33673       -16.06186         4.77681
| 60>    S       -1.04698       -14.75287         3.85564
| 61>    C        0.04769       -17.33571         4.12190
| 62>    F        0.24298       -16.63933         6.99689
| 63>    C       -0.72561       -13.63412         7.57448
| 64>    S       -1.55921       -12.14358         7.19666
| 65>    C       -0.28781       -13.84914         8.89736
| 66>    C        0.72676       -14.63762         9.35374
| 67>    C        0.73400       -15.04229        10.78846
| 68>    O        0.05185       -14.57974        11.67226
| 69>    C        1.70331       -16.15244        10.86922
| 70>    C        1.99046       -16.96368        11.92858
| 71>    C        2.93708       -17.99957        11.76267
| 72>    C        3.56619       -18.17580        10.49592
| 73>    C        4.50113       -19.21794        10.33506
| 74>    C        4.79963       -20.04385        11.38228
| 75>    C        4.17858       -19.86715        12.63497
| 76>    C        3.26665       -18.86652        12.82263
| 77>    F        4.48985       -20.69221        13.64367
| 78>    F        5.68871       -21.03362        11.22677
| 79>    C        3.25538       -17.31329         9.41947
| 80>    C        2.34047       -16.31254         9.60549
| 81>    C        1.84335       -15.27969         8.70016
| 82>    C        2.47045       -14.86277         7.55390
| 83>    C        2.10413       -13.71261         6.83024
| 84>    N        1.86237       -12.76995         6.22040
| 85>    C        3.58831       -15.51126         6.99122
| 86>    N        4.48077       -16.01274         6.47215
| 87>    H      -11.90195        -5.34312        -7.99741
| 88>    H      -13.42963        -4.33098        -3.39232
| 89>    H       -9.86130        -6.35105        -7.12485
| 90>    H      -11.34928        -5.35883        -2.46980
| 91>    H       -6.16558        -8.64225        -3.69149
| 92>    H       -6.06310        -4.19644         2.87378
| 93>    H       -7.63838        -3.98187         2.08938
| 94>    H       -6.20254        -3.25102         1.37851
| 95>    H        0.32604       -18.07189         4.87256
| 96>    H        0.89570       -17.17554         3.45598
| 97>    H       -0.77683       -17.72109         3.52483
| 98>    H       -0.85887       -13.34626         9.67247
| 99>    H        1.49968       -16.82043        12.87917
|100>    H        4.98809       -19.36555         9.38380
|101>    H        2.79935       -18.74472        13.78726
|102>    H        3.73828       -17.47450         8.46904
|103> *
|104>
|105>                          ****END OF INPUT****

CARTESIAN COORDINATES (ANGSTROEM)
---------------------------------
  C    -12.219790   -5.130190   -6.988700
  C    -13.417220   -4.506620   -6.774850
  F    -14.191820   -4.162250   -7.812000
  C    -13.851850   -4.218570   -5.465870
  F    -15.030670   -3.607590   -5.284960
  C    -13.082260   -4.557440   -4.388200
  C    -11.843610   -5.200120   -4.576020
  C    -11.402750   -5.492070   -5.899140
  C    -10.162340   -6.137450   -6.112100
  C     -9.387300   -6.476980   -5.035070
  C     -9.837590   -6.184230   -3.717380
  C    -11.030540   -5.566110   -3.479920
  C     -8.848970   -6.681680   -2.744400
  O     -8.965880   -6.688910   -1.531300
  C     -7.759850   -7.272400   -3.537040
  C     -8.085630   -7.134070   -4.943370
  C     -7.290460   -7.476090   -6.005670
  C     -5.996580   -8.030320   -5.907150
  N     -4.933020   -8.463070   -5.906910
  C     -7.654950   -7.288850   -7.355840
  N     -7.896760   -7.162120   -8.470660
  C     -6.704440   -7.983390   -3.021910
  C     -6.236030   -8.000860   -1.698200
  C     -6.309420   -7.095570   -0.643380
  C     -5.592550   -7.484180    0.520140
  C     -5.650480   -6.465790    1.511630
  C     -6.337030   -5.357640    1.126070
  S     -6.998900   -5.527960   -0.486430
  C     -6.572170   -4.123590    1.915620
  F     -5.060700   -6.549560    2.709550
  C     -4.983290   -8.731640    0.383290
  S     -5.238980   -9.362290   -1.209350
  C     -4.281940   -9.472920    1.357690
  N     -4.141510   -9.104780    2.597520
  C     -3.477680  -10.014220    3.295420
  C     -3.064180  -11.169480    2.593270
  S     -3.552780  -11.059310    0.954520
  N     -2.426550  -12.093690    3.302100
  C     -2.312300  -11.720060    4.548780
  S     -3.008770  -10.131950    4.941880
  C     -1.706000  -12.543940    5.519090
  C     -1.169970  -13.798450    5.284480
  C     -0.634290  -14.432520    6.431400
  C     -0.201880  -15.743830    6.093300
  C     -0.336730  -16.061860    4.776810
  S     -1.046980  -14.752870    3.855640
  C      0.047690  -17.335710    4.121900
  F      0.242980  -16.639330    6.996890
  C     -0.725610  -13.634120    7.574480
  S     -1.559210  -12.143580    7.196660
  C     -0.287810  -13.849140    8.897360
  C      0.726760  -14.637620    9.353740
  C      0.734000  -15.042290   10.788460
  O      0.051850  -14.579740   11.672260
  C      1.703310  -16.152440   10.869220
  C      1.990460  -16.963680   11.928580
  C      2.937080  -17.999570   11.762670
  C      3.566190  -18.175800   10.495920
  C      4.501130  -19.217940   10.335060
  C      4.799630  -20.043850   11.382280
  C      4.178580  -19.867150   12.634970
  C      3.266650  -18.866520   12.822630
  F      4.489850  -20.692210   13.643670
  F      5.688710  -21.033620   11.226770
  C      3.255380  -17.313290    9.419470
  C      2.340470  -16.312540    9.605490
  C      1.843350  -15.279690    8.700160
  C      2.470450  -14.862770    7.553900
  C      2.104130  -13.712610    6.830240
  N      1.862370  -12.769950    6.220400
  C      3.588310  -15.511260    6.991220
  N      4.480770  -16.012740    6.472150
  H    -11.901950   -5.343120   -7.997410
  H    -13.429630   -4.330980   -3.392320
  H     -9.861300   -6.351050   -7.124850
  H    -11.349280   -5.358830   -2.469800
  H     -6.165580   -8.642250   -3.691490
  H     -6.063100   -4.196440    2.873780
  H     -7.638380   -3.981870    2.089380
  H     -6.202540   -3.251020    1.378510
  H      0.326040  -18.071890    4.872560
  H      0.895700  -17.175540    3.455980
  H     -0.776830  -17.721090    3.524830
  H     -0.858870  -13.346260    9.672470
  H      1.499680  -16.820430   12.879170
  H      4.988090  -19.365550    9.383800
  H      2.799350  -18.744720   13.787260
  H      3.738280  -17.474500    8.469040

 Total Charge           Charge          ....    0
 Multiplicity           Mult            ....    1
 Number of Electrons    NEL             ....  536
 Basis Dimension        Dim             .... 1112

ORBITAL ENERGIES
----------------

  NO   OCC          E(Eh)            E(eV)
   0   2.0000     -88.988739     -2421.5067
   1   2.0000     -88.987639     -2421.4768
   2   2.0000     -88.987610     -2421.4760
   3   2.0000     -88.986656     -2421.4500
   4   2.0000     -88.970815     -2421.0190
   5   2.0000     -88.969052     -2420.9710
   6   2.0000     -24.802675      -674.9151
   7   2.0000     -24.798674      -674.8062
   8   2.0000     -24.798348      -674.7974
   9   2.0000     -24.797714      -674.7801
  10   2.0000     -24.797360      -674.7705
  11   2.0000     -24.784975      -674.4334
  12   2.0000     -19.218990      -522.9753
  13   2.0000     -19.217884      -522.9452
  14   2.0000     -14.442847      -393.0099
  15   2.0000     -14.439677      -392.9236
  16   2.0000     -14.418200      -392.3392
  17   2.0000     -14.416789      -392.3008
  18   2.0000     -14.416013      -392.2796
  19   2.0000     -14.414423      -392.2364
  20   2.0000     -10.381572      -282.4969
  21   2.0000     -10.381308      -282.4897
  22   2.0000     -10.380960      -282.4803
  23   2.0000     -10.380475      -282.4671
  24   2.0000     -10.371184      -282.2143
  25   2.0000     -10.370651      -282.1997
  26   2.0000     -10.368851      -282.1508
  27   2.0000     -10.368370      -282.1377
  28   2.0000     -10.366391      -282.0838
  29   2.0000     -10.363275      -281.9990
  30   2.0000     -10.350615      -281.6545
  31   2.0000     -10.348193      -281.5887
  32   2.0000     -10.346931      -281.5543
  33   2.0000     -10.344512      -281.4885
  34   2.0000     -10.343168      -281.4519
  35   2.0000     -10.342282      -281.4278
  36   2.0000     -10.341406      -281.4040
  37   2.0000     -10.339128      -281.3420
  38   2.0000     -10.335348      -281.2391
  39   2.0000     -10.333877      -281.1991
  40   2.0000     -10.328833      -281.0618
  41   2.0000     -10.327414      -281.0232
  42   2.0000     -10.326456      -280.9972
  43   2.0000     -10.326186      -280.9898
  44   2.0000     -10.325142      -280.9614
  45   2.0000     -10.320875      -280.8453
  46   2.0000     -10.319659      -280.8122
  47   2.0000     -10.319028      -280.7950
  48   2.0000     -10.316914      -280.7375
  49   2.0000     -10.316412      -280.7238
  50   2.0000     -10.312862      -280.6273
  51   2.0000     -10.312632      -280.6210
  52   2.0000     -10.310692      -280.5682
  53   2.0000     -10.310415      -280.5607
  54   2.0000     -10.310281      -280.5570
  55   2.0000     -10.309937      -280.5476
  56   2.0000     -10.307565      -280.4831
  57   2.0000     -10.307247      -280.4744
  58   2.0000     -10.303138      -280.3626
  59   2.0000     -10.302775      -280.3527
  60   2.0000     -10.302297      -280.3398
  61   2.0000     -10.302250      -280.3385
  62   2.0000     -10.301788      -280.3259
  63   2.0000     -10.301660      -280.3224
  64   2.0000     -10.301264      -280.3116
  65   2.0000     -10.301241      -280.3110
  66   2.0000     -10.300528      -280.2916
  67   2.0000     -10.300351      -280.2868
  68   2.0000     -10.294136      -280.1177
  69   2.0000     -10.293276      -280.0943
  70   2.0000     -10.290580      -280.0209
  71   2.0000     -10.285320      -279.8778
  72   2.0000      -8.083867      -219.9732
  73   2.0000      -8.083632      -219.9668
  74   2.0000      -8.083067      -219.9514
  75   2.0000      -8.082586      -219.9383
  76   2.0000      -8.065915      -219.4847
  77   2.0000      -8.063817      -219.4276
  78   2.0000      -6.053252      -164.7173
  79   2.0000      -6.052770      -164.7042
  80   2.0000      -6.052473      -164.6962
  81   2.0000      -6.051711      -164.6754
  82   2.0000      -6.049103      -164.6045
  83   2.0000      -6.049070      -164.6036
  84   2.0000      -6.048277      -164.5820
  85   2.0000      -6.048048      -164.5758
  86   2.0000      -6.045815      -164.5150
  87   2.0000      -6.045339      -164.5020
  88   2.0000      -6.044928      -164.4909
  89   2.0000      -6.044332      -164.4746
  90   2.0000      -6.035708      -164.2400
  91   2.0000      -6.033524      -164.1805
  92   2.0000      -6.031472      -164.1247
  93   2.0000      -6.029083      -164.0597
  94   2.0000      -6.026963      -164.0020
  95   2.0000      -6.025265      -163.9558
  96   2.0000      -1.320961       -35.9452
  97   2.0000      -1.320918       -35.9440
  98   2.0000      -1.313759       -35.7492
  99   2.0000      -1.306105       -35.5409
 100   2.0000      -1.306045       -35.5393
 101   2.0000      -1.299797       -35.3693
 102   2.0000      -1.133965       -30.8568
 103   2.0000      -1.133587       -30.8465
 104   2.0000      -1.114145       -30.3174
 105   2.0000      -1.074840       -29.2479
 106   2.0000      -1.033000       -28.1094
 107   2.0000      -1.029239       -28.0070
 108   2.0000      -1.021042       -27.7840
 109   2.0000      -1.018824       -27.7236
 110   2.0000      -1.005099       -27.3501
 111   2.0000      -1.004111       -27.3233
 112   2.0000      -0.996150       -27.1066
 113   2.0000      -0.993914       -27.0458
 114   2.0000      -0.982660       -26.7395
 115   2.0000      -0.982432       -26.7333
 116   2.0000      -0.972401       -26.4604
 117   2.0000      -0.969629       -26.3850
 118   2.0000      -0.939336       -25.5606
 119   2.0000      -0.935402       -25.4536
 120   2.0000      -0.931197       -25.3392
 121   2.0000      -0.919858       -25.0306
 122   2.0000      -0.911072       -24.7915
 123   2.0000      -0.901511       -24.5314
 124   2.0000      -0.895410       -24.3653
 125   2.0000      -0.894710       -24.3463
 126   2.0000      -0.890762       -24.2389
 127   2.0000      -0.889534       -24.2055
 128   2.0000      -0.873866       -23.7791
 129   2.0000      -0.868469       -23.6323
 130   2.0000      -0.861012       -23.4293
 131   2.0000      -0.856935       -23.3184
 132   2.0000      -0.842552       -22.9270
 133   2.0000      -0.840755       -22.8781
 134   2.0000      -0.840075       -22.8596
 135   2.0000      -0.825318       -22.4580
 136   2.0000      -0.814852       -22.1732
 137   2.0000      -0.804287       -21.8858
 138   2.0000      -0.795008       -21.6333
 139   2.0000      -0.792182       -21.5564
 140   2.0000      -0.772660       -21.0252
 141   2.0000      -0.768253       -20.9052
 142   2.0000      -0.765337       -20.8259
 143   2.0000      -0.753356       -20.4999
 144   2.0000      -0.738114       -20.0851
 145   2.0000      -0.729796       -19.8587
 146   2.0000      -0.718660       -19.5557
 147   2.0000      -0.717701       -19.5296
 148   2.0000      -0.710036       -19.3211
 149   2.0000      -0.704588       -19.1728
 150   2.0000      -0.695486       -18.9251
 151   2.0000      -0.692231       -18.8366
 152   2.0000      -0.684858       -18.6359
 153   2.0000      -0.682829       -18.5807
 154   2.0000      -0.675884       -18.3917
 155   2.0000      -0.672195       -18.2914
 156   2.0000      -0.668169       -18.1818
 157   2.0000      -0.663132       -18.0447
 158   2.0000      -0.661819       -18.0090
 159   2.0000      -0.656903       -17.8752
 160   2.0000      -0.654955       -17.8222
 161   2.0000      -0.651936       -17.7401
 162   2.0000      -0.645528       -17.5657
 163   2.0000      -0.642318       -17.4784
 164   2.0000      -0.641498       -17.4561
 165   2.0000      -0.627166       -17.0661
 166   2.0000      -0.616287       -16.7700
 167   2.0000      -0.611960       -16.6523
 168   2.0000      -0.610891       -16.6232
 169   2.0000      -0.600551       -16.3418
 170   2.0000      -0.593951       -16.1622
 171   2.0000      -0.590554       -16.0698
 172   2.0000      -0.585575       -15.9343
 173   2.0000      -0.585525       -15.9329
 174   2.0000      -0.584617       -15.9082
 175   2.0000      -0.583901       -15.8888
 176   2.0000      -0.580006       -15.7828
 177   2.0000      -0.578458       -15.7406
 178   2.0000      -0.573489       -15.6054
 179   2.0000      -0.569636       -15.5006
 180   2.0000      -0.567324       -15.4377
 181   2.0000      -0.560885       -15.2625
 182   2.0000      -0.555815       -15.1245
 183   2.0000      -0.554290       -15.0830
 184   2.0000      -0.552395       -15.0314
 185   2.0000      -0.549230       -14.9453
 186   2.0000      -0.547227       -14.8908
 187   2.0000      -0.547215       -14.8905
 188   2.0000      -0.543234       -14.7821
 189   2.0000      -0.540771       -14.7151
 190   2.0000      -0.539992       -14.6939
 191   2.0000      -0.537873       -14.6363
 192   2.0000      -0.535249       -14.5649
 193   2.0000      -0.532127       -14.4799
 194   2.0000      -0.530429       -14.4337
 195   2.0000      -0.528918       -14.3926
 196   2.0000      -0.526575       -14.3288
 197   2.0000      -0.524252       -14.2656
 198   2.0000      -0.520525       -14.1642
 199   2.0000      -0.518387       -14.1060
 200   2.0000      -0.517367       -14.0783
 201   2.0000      -0.514470       -13.9994
 202   2.0000      -0.514077       -13.9888
 203   2.0000      -0.512053       -13.9337
 204   2.0000      -0.511786       -13.9264
 205   2.0000      -0.510585       -13.8937
 206   2.0000      -0.507797       -13.8179
 207   2.0000      -0.505021       -13.7423
 208   2.0000      -0.503429       -13.6990
 209   2.0000      -0.498111       -13.5543
 210   2.0000      -0.497351       -13.5336
 211   2.0000      -0.497233       -13.5304
 212   2.0000      -0.492906       -13.4127
 213   2.0000      -0.490032       -13.3345
 214   2.0000      -0.489380       -13.3167
 215   2.0000      -0.485816       -13.2197
 216   2.0000      -0.483793       -13.1647
 217   2.0000      -0.480208       -13.0671
 218   2.0000      -0.474107       -12.9011
 219   2.0000      -0.470188       -12.7945
 220   2.0000      -0.466251       -12.6873
 221   2.0000      -0.464358       -12.6358
 222   2.0000      -0.464001       -12.6261
 223   2.0000      -0.462865       -12.5952
 224   2.0000      -0.452871       -12.3232
 225   2.0000      -0.451672       -12.2906
 226   2.0000      -0.451389       -12.2829
 227   2.0000      -0.448244       -12.1973
 228   2.0000      -0.446706       -12.1555
 229   2.0000      -0.445968       -12.1354
 230   2.0000      -0.445542       -12.1238
 231   2.0000      -0.443811       -12.0767
 232   2.0000      -0.438820       -11.9409
 233   2.0000      -0.434789       -11.8312
 234   2.0000      -0.431633       -11.7453
 235   2.0000      -0.431529       -11.7425
 236   2.0000      -0.429777       -11.6948
 237   2.0000      -0.428516       -11.6605
 238   2.0000      -0.425748       -11.5852
 239   2.0000      -0.425309       -11.5732
 240   2.0000      -0.422934       -11.5086
 241   2.0000      -0.421283       -11.4637
 242   2.0000      -0.417416       -11.3585
 243   2.0000      -0.415398       -11.3036
 244   2.0000      -0.412598       -11.2274
 245   2.0000      -0.410689       -11.1754
 246   2.0000      -0.406237       -11.0543
 247   2.0000      -0.398402       -10.8411
 248   2.0000      -0.392093       -10.6694
 249   2.0000      -0.389565       -10.6006
 250   2.0000      -0.386570       -10.5191
 251   2.0000      -0.376785       -10.2528
 252   2.0000      -0.367048        -9.9879
 253   2.0000      -0.361729        -9.8431
 254   2.0000      -0.348056        -9.4711
 255   2.0000      -0.347674        -9.4607
 256   2.0000      -0.342585        -9.3222
 257   2.0000      -0.333670        -9.0796
 258   2.0000      -0.329225        -8.9587
 259   2.0000      -0.325977        -8.8703
 260   2.0000      -0.318389        -8.6638
 261   2.0000      -0.317033        -8.6269
 262   2.0000      -0.315918        -8.5966
 263   2.0000      -0.308235        -8.3875
 264   2.0000      -0.300515        -8.1774
 265   2.0000      -0.300328        -8.1723
 266   2.0000      -0.278133        -7.5684
 267   2.0000      -0.252485        -6.8705
 268   0.0000      -0.115862        -3.1528
 269   0.0000      -0.097279        -2.6471
 270   0.0000      -0.069366        -1.8875
 271   0.0000      -0.060440        -1.6447
 272   0.0000      -0.050753        -1.3811

MULLIKEN ATOMIC CHARGES
-----------------------
   0 C :   -0.114800
   1 C :    0.244048
   2 F :   -0.170991
   3 C :    0.241591
   4 F :   -0.171990
   5 C :   -0.111977
   6 C :    0.124231
   7 C :    0.119014
   8 C :   -0.092055
   9 C :    0.051308
  10 C :    0.005131
  11 C :   -0.092413
  12 C :    0.130905
  13 O :   -0.166976
  14 C :   -0.093262
  15 C :    0.314893
  16 C :   -0.344339
  17 C :   -0.201502
  18 N :    0.160343
  19 C :   -0.180773
  20 N :    0.144760
  21 C :    0.014602
  22 C :   -0.152151
  23 C :   -0.005051
  24 C :    0.070875
  25 C :    0.227419
  26 C :   -0.311323
  27 S :    0.202887
  28 C :    0.116382
  29 F :   -0.165877
  30 C :   -0.062791
  31 S :    0.178780
  32 C :   -0.129603
  33 N :    0.001616
  34 C :   -0.061098
  35 C :   -0.047544
  36 S :    0.138750
  37 N :   -0.046494
  38 C :   -0.112306
  39 S :    0.153506
  40 C :   -0.095657
  41 C :   -0.034465
  42 C :    0.108348
  43 C :    0.218239
  44 C :   -0.287614
  45 S :    0.199180
  46 C :    0.113509
  47 F :   -0.186059
  48 C :   -0.156504
  49 S :    0.197902
  50 C :    0.068992
  51 C :   -0.133465
  52 C :    0.133764
  53 O :   -0.140217
  54 C :    0.016673
  55 C :   -0.081991
  56 C :    0.111462
  57 C :    0.111749
  58 C :   -0.106362
  59 C :    0.241201
  60 C :    0.237310
  61 C :   -0.101721
  62 F :   -0.172193
  63 F :   -0.171870
  64 C :   -0.082379
  65 C :    0.038727
  66 C :    0.295610
  67 C :   -0.346971
  68 C :   -0.207025
  69 N :    0.165351
  70 C :   -0.180283
  71 N :    0.153171
  72 H :    0.006812
  73 H :   -0.002722
  74 H :   -0.006865
  75 H :   -0.014199
  76 H :    0.021657
  77 H :    0.036253
  78 H :    0.042605
  79 H :    0.038041
  80 H :    0.038213
  81 H :    0.055199
  82 H :    0.038840
  83 H :    0.025758
  84 H :   -0.009688
  85 H :    0.004839
  86 H :   -0.001215
  87 H :   -0.005665
Sum of atomic charges:   -0.0000000

LOEWDIN ATOMIC CHARGES
----------------------
   0 C :   -0.029035
   1 C :    0.065259
   2 F :   -0.049390
   3 C :    0.067332
   4 F :   -0.049931
   5 C :   -0.034416
   6 C :   -0.008312
   7 C :   -0.008074
   8 C :    0.017722
   9 C :   -0.023638
  10 C :   -0.049002
  11 C :    0.024739
  12 C :    0.063481
  13 O :   -0.163675
  14 C :   -0.101433
  15 C :    0.075735
  16 C :   -0.139164
  17 C :   -0.024340
  18 N :   -0.050181
  19 C :   -0.017231
  20 N :   -0.053524
  21 C :    0.035117
  22 C :   -0.187287
  23 C :   -0.157091
  24 C :   -0.075499
  25 C :    0.031059
  26 C :   -0.190070
  27 S :    0.483363
  28 C :   -0.056240
  29 F :   -0.048022
  30 C :   -0.171740
  31 S :    0.468901
  32 C :   -0.137791
  33 N :   -0.073937
  34 C :   -0.207929
  35 C :   -0.201498
  36 S :    0.415962
  37 N :   -0.102949
  38 C :   -0.129399
  39 S :    0.426427
  40 C :   -0.204638
  41 C :   -0.163173
  42 C :   -0.067159
  43 C :    0.023071
  44 C :   -0.167751
  45 S :    0.451978
  46 C :   -0.055433
  47 F :   -0.057537
  48 C :   -0.173833
  49 S :    0.481970
  50 C :    0.039114
  51 C :   -0.086247
  52 C :    0.083120
  53 O :   -0.141264
  54 C :   -0.053879
  55 C :    0.030613
  56 C :   -0.010025
  57 C :   -0.005272
  58 C :   -0.030776
  59 C :    0.066924
  60 C :    0.066166
  61 C :   -0.032680
  62 F :   -0.049931
  63 F :   -0.049266
  64 C :    0.013974
  65 C :   -0.016602
  66 C :    0.067211
  67 C :   -0.141172
  68 C :   -0.019104
  69 N :   -0.053116
  70 C :   -0.018495
  71 N :   -0.056680
  72 H :    0.047480
  73 H :    0.044020
  74 H :    0.039712
  75 H :    0.038684
  76 H :    0.044829
  77 H :    0.043633
  78 H :    0.042367
  79 H :    0.040796
  80 H :    0.044027
  81 H :    0.049106
  82 H :    0.042228
  83 H :    0.047232
  84 H :    0.040444
  85 H :    0.046907
  86 H :    0.044671
  87 H :    0.039456

  Mayer bond orders larger than 0.100000
B(  0-C ,  1-C ) :   1.4385 B(  0-C ,  5-C ) :   0.1091 B(  0-C ,  7-C ) :   1.1869
B(  0-C , 72-H ) :   1.0084 B(  1-C ,  2-F ) :   1.1352 B(  1-C ,  3-C ) :   1.1931
B(  3-C ,  4-F ) :   1.1336 B(  3-C ,  5-C ) :   1.4398 B(  5-C ,  6-C ) :   1.1916
B(  5-C , 73-H ) :   1.0084 B(  6-C ,  7-C ) :   1.2595 B(  6-C , 11-C ) :   1.1810
B(  7-C ,  8-C ) :   1.2110 B(  8-C ,  9-C ) :   1.4501 B(  8-C , 74-H ) :   0.9916
B(  9-C , 10-C ) :   1.2218 B(  9-C , 15-C ) :   0.9831 B( 10-C , 11-C ) :   1.4735
B( 10-C , 12-C ) :   0.9343 B( 11-C , 75-H ) :   1.0181 B( 12-C , 13-O ) :   2.1629
B( 12-C , 14-C ) :   0.9850 B( 14-C , 15-C ) :   1.0785 B( 14-C , 21-C ) :   1.5292
B( 15-C , 16-C ) :   1.6352 B( 16-C , 17-C ) :   1.1399 B( 16-C , 19-C ) :   1.1446
B( 17-C , 18-N ) :   2.9855 B( 19-C , 20-N ) :   2.9623 B( 21-C , 22-C ) :   1.2481
B( 21-C , 76-H ) :   0.9259 B( 22-C , 23-C ) :   1.4239 B( 22-C , 31-S ) :   1.0963
B( 23-C , 24-C ) :   1.2477 B( 23-C , 27-S ) :   1.1181 B( 24-C , 25-C ) :   1.0922
B( 24-C , 30-C ) :   1.3879 B( 25-C , 26-C ) :   1.6317 B( 25-C , 29-F ) :   1.1781
B( 26-C , 27-S ) :   1.0686 B( 26-C , 28-C ) :   1.0676 B( 28-C , 77-H ) :   0.9545
B( 28-C , 78-H ) :   0.9490 B( 28-C , 79-H ) :   0.9476 B( 30-C , 31-S ) :   1.1622
B( 30-C , 32-C ) :   1.1303 B( 32-C , 33-N ) :   1.7167 B( 32-C , 36-S ) :   1.0701
B( 33-N , 34-C ) :   1.4255 B( 33-N , 36-S ) :   0.1060 B( 34-C , 35-C ) :   1.2625
B( 34-C , 39-S ) :   1.0993 B( 35-C , 36-S ) :   1.1152 B( 35-C , 37-N ) :   1.4156
B( 37-N , 38-C ) :   1.6819 B( 38-C , 39-S ) :   1.0878 B( 38-C , 40-C ) :   1.1359
B( 40-C , 41-C ) :   1.5191 B( 40-C , 48-C ) :   0.1067 B( 40-C , 49-S ) :   1.1515
B( 41-C , 42-C ) :   1.2547 B( 41-C , 45-S ) :   1.0699 B( 42-C , 43-C ) :   1.1028
B( 42-C , 48-C ) :   1.3571 B( 43-C , 44-C ) :   1.6259 B( 43-C , 47-F ) :   1.1155
B( 44-C , 45-S ) :   1.0650 B( 44-C , 46-C ) :   1.0722 B( 46-C , 80-H ) :   0.9559
B( 46-C , 81-H ) :   0.9459 B( 46-C , 82-H ) :   0.9446 B( 48-C , 49-S ) :   1.1092
B( 48-C , 50-C ) :   1.1495 B( 50-C , 51-C ) :   1.6512 B( 50-C , 83-H ) :   0.9290
B( 51-C , 52-C ) :   0.9415 B( 51-C , 66-C ) :   1.0507 B( 52-C , 53-O ) :   2.2736
B( 52-C , 54-C ) :   0.9168 B( 54-C , 55-C ) :   1.4727 B( 54-C , 65-C ) :   1.2216
B( 55-C , 56-C ) :   1.1929 B( 55-C , 84-H ) :   1.0156 B( 56-C , 57-C ) :   1.2580
B( 56-C , 61-C ) :   1.1934 B( 57-C , 58-C ) :   1.1892 B( 57-C , 64-C ) :   1.2114
B( 58-C , 59-C ) :   1.4411 B( 58-C , 61-C ) :   0.1090 B( 58-C , 85-H ) :   1.0068
B( 59-C , 60-C ) :   1.1936 B( 59-C , 63-F ) :   1.1335 B( 60-C , 61-C ) :   1.4429
B( 60-C , 62-F ) :   1.1329 B( 61-C , 86-H ) :   1.0066 B( 64-C , 65-C ) :   1.4608
B( 64-C , 87-H ) :   0.9932 B( 65-C , 66-C ) :   0.9984 B( 66-C , 67-C ) :   1.6325
B( 67-C , 68-C ) :   1.1772 B( 67-C , 70-C ) :   1.1355 B( 68-C , 69-N ) :   2.9992
B( 70-C , 71-N ) :   2.9833

-----------------------------------------------------------------------------
         ABSORPTION SPECTRUM VIA TRANSITION ELECTRIC DIPOLE MOMENTS
-----------------------------------------------------------------------------
State   Energy  Wavelength   fosc         T2         TX        TY        TZ
        (cm-1)    (nm)                  (au**2)     (au)      (au)      (au)
-----------------------------------------------------------------------------
   0   14892.6    671.5   2.160960503  47.76951   3.82712  -3.02398   4.89675
   1   18805.9    531.7   0.024291809   0.42525  -0.18641   0.10289   0.61637
   2   22158.9    451.3   0.026599750   0.39519  -0.12424   0.23726  -0.56874
   3   24063.2    415.6   0.143531728   1.96368   0.39151  -1.12254   0.74182
   4   24697.8    404.9   0.067732059   0.90284  -0.33017   0.79353   0.40515
   5   25528.4    391.7   0.039908598   0.51466  -0.19758   0.52536  -0.44679
   6   26043.7    384.0   0.130028263   1.64365   0.36762  -1.22780  -0.03172
   7   27191.4    367.8   0.096798955   1.17196  -0.92985  -0.07270   0.54959
   8   27416.8    364.7   0.097275074   1.16805  -0.54599  -0.22001  -0.90639
   9   27941.3    357.9   0.008619909   0.10156   0.25423  -0.06367  -0.18131
  10   28099.4    355.9   0.031064118   0.36395  -0.41982  -0.35472   0.24874
  11   28697.1    348.5   0.135553311   1.55506  -0.97260   0.65099  -0.43048
  12   29064.8    344.1   0.038510826   0.43620   0.12873  -0.37382  -0.52905
  13   29173.5    342.8   0.100147977   1.13013  -0.31334   0.60733  -0.81431
  14   29846.2    335.1   0.116313932   1.28297  -0.47425  -0.59889  -0.83630
  15   30683.4    325.9   0.192113963   2.06125  -0.65203   1.15897  -0.54121
  16   31153.4    321.0   0.027636291   0.29205   0.11076  -0.09272   0.52075
  17   32019.9    312.3   0.033762845   0.34713   0.30110  -0.08661  -0.49897
  18   32207.7    310.5   0.049125834   0.50214   0.39169   0.08018   0.58506
  19   32726.3    305.6   0.124982965   1.25727  -1.09744   0.22923  -0.01877
  20   33275.6    300.5   0.625762405   6.19098  -2.11881   1.09444  -0.70979
  21   33526.0    298.3   0.026061115   0.25591   0.36439   0.07057  -0.34373
  22   33582.6    297.8   0.240310694   2.35578   0.08921  -0.84282   1.27964
  23   33810.1    295.8   0.232822552   2.26701   0.09622  -0.88991   1.21071
  24   34465.8    290.1   0.005667999   0.05414   0.14514   0.16897   0.06727
  25   34605.2    289.0   0.008353197   0.07947  -0.20385   0.11233   0.15904
  26   34803.6    287.3   0.072149760   0.68247   0.42973  -0.63691   0.30355
  27   35075.7    285.1   0.172657800   1.62053  -0.78697   0.96748  -0.25531
  28   35599.5    280.9   0.007824727   0.07236   0.19106  -0.17799  -0.06463
  29   36113.4    276.9   0.061616599   0.56170  -0.16864   0.18326   0.70688
  30   36273.5    275.7   0.007264374   0.06593   0.05779  -0.06004  -0.24287
  31   36411.1    274.6   0.037213853   0.33647   0.27425   0.06707  -0.50671
  32   36662.7    272.8   0.005221606   0.04689  -0.13308   0.14693   0.08711
  33   37001.0    270.3   0.179420273   1.59637  -0.69792   0.80894   0.67446
  34   37111.8    269.5   0.130036097   1.15353   0.30544   0.03450  -1.02910
  35   37508.9    266.6   0.155564052   1.36537   0.25047   0.75933  -0.85209
  36   37946.9    263.5   0.092105184   0.79907  -0.42201   0.78614  -0.05441
  37   38276.1    261.3   0.009535422   0.08201  -0.03689  -0.27540  -0.06935
  38   38461.1    260.0   0.074242461   0.63549   0.04126  -0.15357  -0.78115
  39   38986.9    256.5   0.071724001   0.60565  -0.04082   0.20207   0.75043
  40   39180.9    255.2   0.018013685   0.15136   0.00841  -0.31666   0.22587
  41   39255.2    254.7   0.022385270   0.18773  -0.39632   0.16385  -0.06178
  42   39430.2    253.6   0.134830478   1.12573   0.67246  -0.34567  -0.74434
  43   39873.0    250.8   0.008074108   0.06666   0.12130   0.22706  -0.01987
  44   39980.5    250.1   0.174379371   1.43589  -0.28462  -0.23742  -1.13953

FINAL SINGLE POINT ENERGY     -5453.784860840410

DIPOLE MOMENT
-------------
                                X             Y             Z
Electronic contribution:     -0.82608      -3.63849       2.29124
Nuclear contribution   :     -0.90233       3.44209      -0.34041
                        -----------------------------------------
Total Dipole Moment    :     -1.72841      -0.19640       1.95084
                        -----------------------------------------
Magnitude (a.u.)       :      2.61376
Magnitude (Debye)      :      6.64366

Rotational constants in cm-1:     0.003119     0.000183     0.000178
Rotational constants in MHz :    93.498359     5.484367     5.341459

                             ****ORCA TERMINATED NORMALLY****
TOTAL RUN TIME: 0 days 0 hours 9 minutes 17 seconds 655 msec
