                         Program Version 4.2.0 -  RELEASE  -
|  1> # ORCA input file
|  2> # SCF done       -214.127121336928          0.000861431533
|  3> ! CAM-B3LYP def2-SVP def2/J RIJCOSX Grid4 TightSCF
|  4> %maxcore 5000
|  5> %tddft
|  6>     Mode sTDDFT
|  7>     Ethresh 5.0
|  8>     maxcore 5000
|  9> end
| 10>
| 11> %pal
| 12>   nprocs 6
| 13>   end
| 14> * xyz 0 1
| 15>    C      -10.12593         1.18789         4.98217
| 16>    C      -10.38763         1.34845         6.31426
| 17>    F      -11.08758         2.40727         6.73980
| 18>    C       -9.92534         0.40620         7.25481
| 19>    F      -10.19569         0.58890         8.55366
| 20>    C       -9.20715        -0.68412         6.84987
| 21>    C       -8.91982        -0.87592         5.48476
| 22>    C       -9.38687         0.07564         4.53249
| 23>    C       -9.10585        -0.09286         3.15654
| 24>    C       -8.37499        -1.17606         2.74613
| 25>    C       -7.91129        -2.11935         3.70593
| 26>    C       -8.17162        -1.98823         5.03926
| 27>    C       -7.14020        -3.16706         3.01681
| 28>    O       -6.62781        -4.14601         3.53112
| 29>    C       -7.11429        -2.78968         1.59925
| 30>    C       -7.91519        -1.59476         1.42264
| 31>    C       -8.21419        -0.96051         0.24431
| 32>    C       -7.78459        -1.36238        -1.03809
| 33>    N       -7.47573        -1.62499        -2.11267
| 34>    C       -9.01919         0.19507         0.15493
| 35>    N       -9.66617         1.13329         0.01800
| 36>    C       -6.38648        -3.43112         0.62763
| 37>    C       -5.54467        -4.54415         0.73312
| 38>    C       -4.75703        -4.99074        -0.33343
| 39>    C       -3.92511        -6.09253        -0.05140
| 40>    C       -3.06258        -6.34818        -1.15414
| 41>    C       -3.27855        -5.55444        -2.23705
| 42>    S       -4.55309        -4.39510        -1.94058
| 43>    C       -2.57767        -5.59736        -3.54318
| 44>    F       -2.05114        -7.23290        -1.12771
| 45>    C       -4.12626        -6.56348         1.25262
| 46>    S       -5.23766        -5.55195         2.13174
| 47>    C       -3.60497        -7.72268         1.88097
| 48>    C       -3.23153        -8.89136         1.17141
| 49>    C       -2.60364       -10.01585         1.82416
| 50>    N       -2.15972       -11.03335         1.08053
| 51>    C       -2.37901       -11.04981        -0.21406
| 52>    C       -3.16616       -10.02117        -0.81914
| 53>    N       -3.54949        -8.97938        -0.12407
| 54>    C       -3.53262       -10.09249        -2.18655
| 55>    N       -3.80638       -10.14691        -3.29695
| 56>    C       -1.85980       -12.11021        -0.99554
| 57>    N       -1.46468       -12.95211        -1.66438
| 58>    C       -2.46109       -10.07772         3.23259
| 59>    C       -2.97684        -8.97032         3.94561
| 60>    C       -3.51152        -7.81015         3.28670
| 61>    N       -3.87622        -6.87271         4.16059
| 62>    S       -3.59732        -7.39152         5.64922
| 63>    N       -2.99231        -8.83350         5.27083
| 64>    C       -1.82310       -11.13376         3.92269
| 65>    C       -1.06545       -12.21000         3.47156
| 66>    C       -0.50654       -12.99430         4.50936
| 67>    C        0.29312       -14.03961         3.98270
| 68>    C        0.35136       -14.06531         2.62458
| 69>    S       -0.61414       -12.78787         1.90753
| 70>    C        1.09905       -15.01538         1.76824
| 71>    F        0.93082       -14.92820         4.76184
| 72>    C       -0.84174       -12.54463         5.79174
| 73>    S       -1.86814       -11.13664         5.66367
| 74>    C       -0.51922       -13.17458         7.00412
| 75>    C       -0.78949       -12.76439         8.28102
| 76>    C       -0.88888       -13.78280         9.36193
| 77>    O       -0.46088       -14.91211         9.34359
| 78>    C       -1.69334       -13.13315        10.42021
| 79>    C       -2.19571       -13.67368        11.56809
| 80>    C       -2.98364       -12.86636        12.41972
| 81>    C       -3.23546       -11.50947        12.06317
| 82>    C       -4.03134       -10.71488        12.91232
| 83>    C       -4.55114       -11.24108        14.06156
| 84>    C       -4.29987       -12.58217        14.41418
| 85>    C       -3.53186       -13.37859        13.61162
| 86>    F       -4.82371       -13.07186        15.54566
| 87>    F       -5.30869       -10.48356        14.86560
| 88>    C       -2.69061       -10.97300        10.87371
| 89>    C       -1.92935       -11.77361        10.06619
| 90>    C       -1.22320       -11.49583         8.81835
| 91>    C       -0.82607       -10.25395         8.39212
| 92>    C        0.15042       -10.06314         7.39181
| 93>    N        0.98840        -9.87424         6.63052
| 94>    C       -1.29760        -9.04526         8.93610
| 95>    N       -1.69160        -8.03169         9.30590
| 96>    H      -10.48740         1.91881         4.27588
| 97>    H       -8.85958        -1.39589         7.58209
| 98>    H       -9.47179         0.64747         2.46407
| 99>    H       -7.80660        -2.71951         5.74415
|100>    H       -6.41914        -3.01907        -0.37462
|101>    H       -1.74237        -6.29176        -3.49107
|102>    H       -2.21058        -4.60916        -3.81605
|103>    H       -3.25925        -5.93019        -4.32605
|104>    H        1.52900       -15.80926         2.37460
|105>    H        1.90153       -14.49757         1.24287
|106>    H        0.43964       -15.44731         1.01700
|107>    H       -0.09620       -14.17132         6.92115
|108>    H       -1.99777       -14.70358        11.82296
|109>    H       -4.23096        -9.68535        12.65938
|110>    H       -3.34919       -14.40324        13.89514
|111>    H       -2.89899        -9.94516        10.62194
|112> *
|113>
|114>                          ****END OF INPUT****

CARTESIAN COORDINATES (ANGSTROEM)
---------------------------------
  C    -10.125930    1.187890    4.982170
  C    -10.387630    1.348450    6.314260
  F    -11.087580    2.407270    6.739800
  C     -9.925340    0.406200    7.254810
  F    -10.195690    0.588900    8.553660
  C     -9.207150   -0.684120    6.849870
  C     -8.919820   -0.875920    5.484760
  C     -9.386870    0.075640    4.532490
  C     -9.105850   -0.092860    3.156540
  C     -8.374990   -1.176060    2.746130
  C     -7.911290   -2.119350    3.705930
  C     -8.171620   -1.988230    5.039260
  C     -7.140200   -3.167060    3.016810
  O     -6.627810   -4.146010    3.531120
  C     -7.114290   -2.789680    1.599250
  C     -7.915190   -1.594760    1.422640
  C     -8.214190   -0.960510    0.244310
  C     -7.784590   -1.362380   -1.038090
  N     -7.475730   -1.624990   -2.112670
  C     -9.019190    0.195070    0.154930
  N     -9.666170    1.133290    0.018000
  C     -6.386480   -3.431120    0.627630
  C     -5.544670   -4.544150    0.733120
  C     -4.757030   -4.990740   -0.333430
  C     -3.925110   -6.092530   -0.051400
  C     -3.062580   -6.348180   -1.154140
  C     -3.278550   -5.554440   -2.237050
  S     -4.553090   -4.395100   -1.940580
  C     -2.577670   -5.597360   -3.543180
  F     -2.051140   -7.232900   -1.127710
  C     -4.126260   -6.563480    1.252620
  S     -5.237660   -5.551950    2.131740
  C     -3.604970   -7.722680    1.880970
  C     -3.231530   -8.891360    1.171410
  C     -2.603640  -10.015850    1.824160
  N     -2.159720  -11.033350    1.080530
  C     -2.379010  -11.049810   -0.214060
  C     -3.166160  -10.021170   -0.819140
  N     -3.549490   -8.979380   -0.124070
  C     -3.532620  -10.092490   -2.186550
  N     -3.806380  -10.146910   -3.296950
  C     -1.859800  -12.110210   -0.995540
  N     -1.464680  -12.952110   -1.664380
  C     -2.461090  -10.077720    3.232590
  C     -2.976840   -8.970320    3.945610
  C     -3.511520   -7.810150    3.286700
  N     -3.876220   -6.872710    4.160590
  S     -3.597320   -7.391520    5.649220
  N     -2.992310   -8.833500    5.270830
  C     -1.823100  -11.133760    3.922690
  C     -1.065450  -12.210000    3.471560
  C     -0.506540  -12.994300    4.509360
  C      0.293120  -14.039610    3.982700
  C      0.351360  -14.065310    2.624580
  S     -0.614140  -12.787870    1.907530
  C      1.099050  -15.015380    1.768240
  F      0.930820  -14.928200    4.761840
  C     -0.841740  -12.544630    5.791740
  S     -1.868140  -11.136640    5.663670
  C     -0.519220  -13.174580    7.004120
  C     -0.789490  -12.764390    8.281020
  C     -0.888880  -13.782800    9.361930
  O     -0.460880  -14.912110    9.343590
  C     -1.693340  -13.133150   10.420210
  C     -2.195710  -13.673680   11.568090
  C     -2.983640  -12.866360   12.419720
  C     -3.235460  -11.509470   12.063170
  C     -4.031340  -10.714880   12.912320
  C     -4.551140  -11.241080   14.061560
  C     -4.299870  -12.582170   14.414180
  C     -3.531860  -13.378590   13.611620
  F     -4.823710  -13.071860   15.545660
  F     -5.308690  -10.483560   14.865600
  C     -2.690610  -10.973000   10.873710
  C     -1.929350  -11.773610   10.066190
  C     -1.223200  -11.495830    8.818350
  C     -0.826070  -10.253950    8.392120
  C      0.150420  -10.063140    7.391810
  N      0.988400   -9.874240    6.630520
  C     -1.297600   -9.045260    8.936100
  N     -1.691600   -8.031690    9.305900
  H    -10.487400    1.918810    4.275880
  H     -8.859580   -1.395890    7.582090
  H     -9.471790    0.647470    2.464070
  H     -7.806600   -2.719510    5.744150
  H     -6.419140   -3.019070   -0.374620
  H     -1.742370   -6.291760   -3.491070
  H     -2.210580   -4.609160   -3.816050
  H     -3.259250   -5.930190   -4.326050
  H      1.529000  -15.809260    2.374600
  H      1.901530  -14.497570    1.242870
  H      0.439640  -15.447310    1.017000
  H     -0.096200  -14.171320    6.921150
  H     -1.997770  -14.703580   11.822960
  H     -4.230960   -9.685350   12.659380
  H     -3.349190  -14.403240   13.895140
  H     -2.898990   -9.945160   10.621940

 Total Charge           Charge          ....    0
 Multiplicity           Mult            ....    1
 Number of Electrons    NEL             ....  584
 Basis Dimension        Dim             .... 1234

ORBITAL ENERGIES
----------------

  NO   OCC          E(Eh)            E(eV)
   0   2.0000     -89.061648     -2423.4906
   1   2.0000     -88.980880     -2421.2928
   2   2.0000     -88.980450     -2421.2811
   3   2.0000     -88.972884     -2421.0753
   4   2.0000     -88.971703     -2421.0431
   5   2.0000     -24.802686      -674.9154
   6   2.0000     -24.802220      -674.9027
   7   2.0000     -24.801639      -674.8869
   8   2.0000     -24.800673      -674.8606
   9   2.0000     -24.800506      -674.8561
  10   2.0000     -24.796880      -674.7574
  11   2.0000     -19.231124      -523.3055
  12   2.0000     -19.217415      -522.9325
  13   2.0000     -14.480619      -394.0377
  14   2.0000     -14.472579      -393.8189
  15   2.0000     -14.470114      -393.7518
  16   2.0000     -14.469178      -393.7263
  17   2.0000     -14.442468      -392.9995
  18   2.0000     -14.438281      -392.8856
  19   2.0000     -14.424324      -392.5058
  20   2.0000     -14.423908      -392.4945
  21   2.0000     -14.420597      -392.4044
  22   2.0000     -14.417009      -392.3068
  23   2.0000     -10.395573      -282.8779
  24   2.0000     -10.391868      -282.7771
  25   2.0000     -10.386252      -282.6243
  26   2.0000     -10.385378      -282.6005
  27   2.0000     -10.383908      -282.5605
  28   2.0000     -10.383585      -282.5517
  29   2.0000     -10.378731      -282.4196
  30   2.0000     -10.370251      -282.1889
  31   2.0000     -10.369676      -282.1732
  32   2.0000     -10.369643      -282.1723
  33   2.0000     -10.365706      -282.0652
  34   2.0000     -10.365118      -282.0492
  35   2.0000     -10.360099      -281.9126
  36   2.0000     -10.359350      -281.8923
  37   2.0000     -10.349317      -281.6192
  38   2.0000     -10.348670      -281.6016
  39   2.0000     -10.348003      -281.5835
  40   2.0000     -10.346354      -281.5386
  41   2.0000     -10.345487      -281.5150
  42   2.0000     -10.341162      -281.3973
  43   2.0000     -10.336842      -281.2798
  44   2.0000     -10.336477      -281.2698
  45   2.0000     -10.336330      -281.2658
  46   2.0000     -10.333731      -281.1951
  47   2.0000     -10.332105      -281.1509
  48   2.0000     -10.331780      -281.1420
  49   2.0000     -10.329466      -281.0791
  50   2.0000     -10.328767      -281.0600
  51   2.0000     -10.328638      -281.0565
  52   2.0000     -10.327558      -281.0271
  53   2.0000     -10.326334      -280.9938
  54   2.0000     -10.324904      -280.9549
  55   2.0000     -10.323522      -280.9173
  56   2.0000     -10.321268      -280.8560
  57   2.0000     -10.319357      -280.8040
  58   2.0000     -10.315743      -280.7056
  59   2.0000     -10.315393      -280.6961
  60   2.0000     -10.313728      -280.6508
  61   2.0000     -10.313273      -280.6384
  62   2.0000     -10.313041      -280.6321
  63   2.0000     -10.312936      -280.6293
  64   2.0000     -10.312836      -280.6265
  65   2.0000     -10.312170      -280.6084
  66   2.0000     -10.311523      -280.5908
  67   2.0000     -10.308861      -280.5184
  68   2.0000     -10.308462      -280.5075
  69   2.0000     -10.307571      -280.4833
  70   2.0000     -10.305987      -280.4402
  71   2.0000     -10.305696      -280.4322
  72   2.0000     -10.305237      -280.4197
  73   2.0000     -10.304882      -280.4101
  74   2.0000     -10.303718      -280.3784
  75   2.0000     -10.303404      -280.3699
  76   2.0000     -10.302445      -280.3438
  77   2.0000     -10.299737      -280.2701
  78   2.0000     -10.296873      -280.1922
  79   2.0000     -10.287559      -279.9387
  80   2.0000     -10.284366      -279.8518
  81   2.0000      -8.152281      -221.8348
  82   2.0000      -8.073892      -219.7018
  83   2.0000      -8.073143      -219.6814
  84   2.0000      -8.068524      -219.5557
  85   2.0000      -8.064619      -219.4494
  86   2.0000      -6.123325      -166.6241
  87   2.0000      -6.115554      -166.4127
  88   2.0000      -6.115167      -166.4022
  89   2.0000      -6.043424      -164.4499
  90   2.0000      -6.042628      -164.4283
  91   2.0000      -6.038876      -164.3262
  92   2.0000      -6.038211      -164.3081
  93   2.0000      -6.038002      -164.3024
  94   2.0000      -6.035845      -164.2437
  95   2.0000      -6.035226      -164.2268
  96   2.0000      -6.034562      -164.2088
  97   2.0000      -6.034059      -164.1951
  98   2.0000      -6.030081      -164.0868
  99   2.0000      -6.029707      -164.0767
 100   2.0000      -6.025902      -163.9731
 101   2.0000      -1.325386       -36.0656
 102   2.0000      -1.323563       -36.0160
 103   2.0000      -1.314475       -35.7687
 104   2.0000      -1.310499       -35.6605
 105   2.0000      -1.308999       -35.6197
 106   2.0000      -1.308728       -35.6123
 107   2.0000      -1.159613       -31.5547
 108   2.0000      -1.146404       -31.1952
 109   2.0000      -1.137270       -30.9467
 110   2.0000      -1.133521       -30.8447
 111   2.0000      -1.064183       -28.9579
 112   2.0000      -1.034513       -28.1505
 113   2.0000      -1.033106       -28.1123
 114   2.0000      -1.026450       -27.9311
 115   2.0000      -1.025136       -27.8954
 116   2.0000      -1.023105       -27.8401
 117   2.0000      -1.014749       -27.6127
 118   2.0000      -1.012843       -27.5608
 119   2.0000      -1.010707       -27.5027
 120   2.0000      -1.008079       -27.4312
 121   2.0000      -1.000735       -27.2314
 122   2.0000      -0.999071       -27.1861
 123   2.0000      -0.995478       -27.0883
 124   2.0000      -0.988055       -26.8864
 125   2.0000      -0.985219       -26.8092
 126   2.0000      -0.967664       -26.3315
 127   2.0000      -0.964359       -26.2415
 128   2.0000      -0.940416       -25.5900
 129   2.0000      -0.936139       -25.4737
 130   2.0000      -0.926962       -25.2239
 131   2.0000      -0.924144       -25.1472
 132   2.0000      -0.914639       -24.8886
 133   2.0000      -0.905313       -24.6348
 134   2.0000      -0.899051       -24.4644
 135   2.0000      -0.896337       -24.3906
 136   2.0000      -0.893545       -24.3146
 137   2.0000      -0.882354       -24.0101
 138   2.0000      -0.868261       -23.6266
 139   2.0000      -0.864821       -23.5330
 140   2.0000      -0.859359       -23.3844
 141   2.0000      -0.854277       -23.2461
 142   2.0000      -0.849412       -23.1137
 143   2.0000      -0.846040       -23.0219
 144   2.0000      -0.843689       -22.9579
 145   2.0000      -0.826700       -22.4957
 146   2.0000      -0.821338       -22.3498
 147   2.0000      -0.814366       -22.1600
 148   2.0000      -0.802406       -21.8346
 149   2.0000      -0.793308       -21.5870
 150   2.0000      -0.792140       -21.5552
 151   2.0000      -0.775577       -21.1045
 152   2.0000      -0.775001       -21.0889
 153   2.0000      -0.768723       -20.9180
 154   2.0000      -0.761882       -20.7319
 155   2.0000      -0.748751       -20.3746
 156   2.0000      -0.741917       -20.1886
 157   2.0000      -0.731856       -19.9148
 158   2.0000      -0.724532       -19.7155
 159   2.0000      -0.721139       -19.6232
 160   2.0000      -0.720419       -19.6036
 161   2.0000      -0.710595       -19.3363
 162   2.0000      -0.707160       -19.2428
 163   2.0000      -0.703086       -19.1319
 164   2.0000      -0.693102       -18.8603
 165   2.0000      -0.688452       -18.7337
 166   2.0000      -0.684741       -18.6328
 167   2.0000      -0.678565       -18.4647
 168   2.0000      -0.672934       -18.3115
 169   2.0000      -0.668246       -18.1839
 170   2.0000      -0.665758       -18.1162
 171   2.0000      -0.662371       -18.0240
 172   2.0000      -0.658694       -17.9240
 173   2.0000      -0.656079       -17.8528
 174   2.0000      -0.653968       -17.7954
 175   2.0000      -0.648129       -17.6365
 176   2.0000      -0.646187       -17.5836
 177   2.0000      -0.642019       -17.4702
 178   2.0000      -0.639814       -17.4102
 179   2.0000      -0.638988       -17.3878
 180   2.0000      -0.624595       -16.9961
 181   2.0000      -0.618819       -16.8389
 182   2.0000      -0.616555       -16.7773
 183   2.0000      -0.614560       -16.7230
 184   2.0000      -0.606248       -16.4968
 185   2.0000      -0.599985       -16.3264
 186   2.0000      -0.597322       -16.2540
 187   2.0000      -0.589797       -16.0492
 188   2.0000      -0.588898       -16.0247
 189   2.0000      -0.588141       -16.0041
 190   2.0000      -0.586577       -15.9616
 191   2.0000      -0.584961       -15.9176
 192   2.0000      -0.581046       -15.8111
 193   2.0000      -0.576465       -15.6864
 194   2.0000      -0.572856       -15.5882
 195   2.0000      -0.571274       -15.5452
 196   2.0000      -0.570288       -15.5183
 197   2.0000      -0.568009       -15.4563
 198   2.0000      -0.561913       -15.2904
 199   2.0000      -0.558240       -15.1905
 200   2.0000      -0.556783       -15.1508
 201   2.0000      -0.551288       -15.0013
 202   2.0000      -0.550531       -14.9807
 203   2.0000      -0.549734       -14.9590
 204   2.0000      -0.549443       -14.9511
 205   2.0000      -0.546778       -14.8786
 206   2.0000      -0.545374       -14.8404
 207   2.0000      -0.540711       -14.7135
 208   2.0000      -0.539172       -14.6716
 209   2.0000      -0.536454       -14.5977
 210   2.0000      -0.536092       -14.5878
 211   2.0000      -0.530508       -14.4359
 212   2.0000      -0.528009       -14.3678
 213   2.0000      -0.524298       -14.2669
 214   2.0000      -0.522815       -14.2265
 215   2.0000      -0.521271       -14.1845
 216   2.0000      -0.519978       -14.1493
 217   2.0000      -0.517791       -14.0898
 218   2.0000      -0.515825       -14.0363
 219   2.0000      -0.512970       -13.9586
 220   2.0000      -0.511546       -13.9199
 221   2.0000      -0.509930       -13.8759
 222   2.0000      -0.509134       -13.8542
 223   2.0000      -0.507865       -13.8197
 224   2.0000      -0.504410       -13.7257
 225   2.0000      -0.502614       -13.6768
 226   2.0000      -0.501474       -13.6458
 227   2.0000      -0.498924       -13.5764
 228   2.0000      -0.495724       -13.4893
 229   2.0000      -0.494402       -13.4534
 230   2.0000      -0.491090       -13.3632
 231   2.0000      -0.489393       -13.3171
 232   2.0000      -0.486053       -13.2262
 233   2.0000      -0.483567       -13.1585
 234   2.0000      -0.482636       -13.1332
 235   2.0000      -0.476784       -12.9739
 236   2.0000      -0.475394       -12.9361
 237   2.0000      -0.472799       -12.8655
 238   2.0000      -0.470502       -12.8030
 239   2.0000      -0.468960       -12.7610
 240   2.0000      -0.467400       -12.7186
 241   2.0000      -0.466816       -12.7027
 242   2.0000      -0.462987       -12.5985
 243   2.0000      -0.462296       -12.5797
 244   2.0000      -0.459330       -12.4990
 245   2.0000      -0.457007       -12.4358
 246   2.0000      -0.456204       -12.4139
 247   2.0000      -0.455582       -12.3970
 248   2.0000      -0.452475       -12.3125
 249   2.0000      -0.450407       -12.2562
 250   2.0000      -0.450053       -12.2466
 251   2.0000      -0.449052       -12.2193
 252   2.0000      -0.447306       -12.1718
 253   2.0000      -0.446011       -12.1366
 254   2.0000      -0.442228       -12.0336
 255   2.0000      -0.439215       -11.9517
 256   2.0000      -0.437303       -11.8996
 257   2.0000      -0.434412       -11.8209
 258   2.0000      -0.434172       -11.8144
 259   2.0000      -0.432898       -11.7798
 260   2.0000      -0.431124       -11.7315
 261   2.0000      -0.430394       -11.7116
 262   2.0000      -0.430090       -11.7033
 263   2.0000      -0.429191       -11.6789
 264   2.0000      -0.424193       -11.5429
 265   2.0000      -0.423528       -11.5248
 266   2.0000      -0.415244       -11.2994
 267   2.0000      -0.412337       -11.2203
 268   2.0000      -0.409422       -11.1409
 269   2.0000      -0.405234       -11.0270
 270   2.0000      -0.403740       -10.9863
 271   2.0000      -0.396150       -10.7798
 272   2.0000      -0.393710       -10.7134
 273   2.0000      -0.390203       -10.6180
 274   2.0000      -0.380664       -10.3584
 275   2.0000      -0.378640       -10.3033
 276   2.0000      -0.373310       -10.1583
 277   2.0000      -0.365144        -9.9361
 278   2.0000      -0.362878        -9.8744
 279   2.0000      -0.346491        -9.4285
 280   2.0000      -0.343138        -9.3373
 281   2.0000      -0.336271        -9.1504
 282   2.0000      -0.331885        -9.0311
 283   2.0000      -0.330340        -8.9890
 284   2.0000      -0.324994        -8.8435
 285   2.0000      -0.319502        -8.6941
 286   2.0000      -0.313512        -8.5311
 287   2.0000      -0.311154        -8.4669
 288   2.0000      -0.305486        -8.3127
 289   2.0000      -0.303965        -8.2713
 290   2.0000      -0.281982        -7.6731
 291   2.0000      -0.248852        -6.7716
 292   0.0000      -0.148687        -4.0460
 293   0.0000      -0.100693        -2.7400
 294   0.0000      -0.094739        -2.5780
 295   0.0000      -0.068863        -1.8738
 296   0.0000      -0.063629        -1.7314

MULLIKEN ATOMIC CHARGES
-----------------------
   0 C :   -0.106477
   1 C :    0.241476
   2 F :   -0.169525
   3 C :    0.238381
   4 F :   -0.170458
   5 C :   -0.103909
   6 C :    0.114946
   7 C :    0.113333
   8 C :   -0.083351
   9 C :    0.046718
  10 C :    0.001949
  11 C :   -0.080476
  12 C :    0.167366
  13 O :   -0.178114
  14 C :   -0.097226
  15 C :    0.328868
  16 C :   -0.352659
  17 C :   -0.190523
  18 N :    0.153255
  19 C :   -0.182305
  20 N :    0.150541
  21 C :   -0.050993
  22 C :   -0.073990
  23 C :   -0.076596
  24 C :    0.165825
  25 C :    0.222100
  26 C :   -0.293530
  27 S :    0.164716
  28 C :    0.120538
  29 F :   -0.188114
  30 C :   -0.213245
  31 S :    0.254433
  32 C :    0.124160
  33 C :   -0.084526
  34 C :   -0.033872
  35 N :   -0.010355
  36 C :   -0.061196
  37 C :   -0.138256
  38 N :    0.056981
  39 C :   -0.219424
  40 N :    0.244770
  41 C :   -0.239948
  42 N :    0.244903
  43 C :    0.174425
  44 C :   -0.018151
  45 C :    0.002463
  46 N :   -0.278700
  47 S :    0.591222
  48 N :   -0.323645
  49 C :   -0.203496
  50 C :   -0.019048
  51 C :    0.124023
  52 C :    0.217977
  53 C :   -0.276284
  54 S :    0.158975
  55 C :    0.121282
  56 F :   -0.180935
  57 C :   -0.093565
  58 S :    0.180044
  59 C :    0.030595
  60 C :   -0.139000
  61 C :    0.142567
  62 O :   -0.137211
  63 C :    0.008280
  64 C :   -0.081580
  65 C :    0.111222
  66 C :    0.114892
  67 C :   -0.108010
  68 C :    0.241002
  69 C :    0.238785
  70 C :   -0.102874
  71 F :   -0.171666
  72 F :   -0.171611
  73 C :   -0.086204
  74 C :    0.045362
  75 C :    0.247063
  76 C :   -0.315698
  77 C :   -0.218527
  78 N :    0.175566
  79 C :   -0.174006
  80 N :    0.144770
  81 H :    0.009452
  82 H :   -0.001166
  83 H :   -0.005996
  84 H :   -0.012205
  85 H :    0.014035
  86 H :    0.037624
  87 H :    0.038259
  88 H :    0.052713
  89 H :    0.035619
  90 H :    0.047306
  91 H :    0.043469
  92 H :    0.026670
  93 H :   -0.007910
  94 H :    0.003032
  95 H :    0.000454
  96 H :   -0.007850
Sum of atomic charges:   -0.0000000

LOEWDIN ATOMIC CHARGES
----------------------
   0 C :   -0.028627
   1 C :    0.067235
   2 F :   -0.047392
   3 C :    0.068231
   4 F :   -0.048105
   5 C :   -0.033399
   6 C :   -0.008939
   7 C :   -0.006152
   8 C :    0.018505
   9 C :   -0.021863
  10 C :   -0.052259
  11 C :    0.029650
  12 C :    0.084294
  13 O :   -0.164817
  14 C :   -0.100193
  15 C :    0.074075
  16 C :   -0.139185
  17 C :   -0.022415
  18 N :   -0.049306
  19 C :   -0.017375
  20 N :   -0.051932
  21 C :    0.050587
  22 C :   -0.198710
  23 C :   -0.163190
  24 C :   -0.082011
  25 C :    0.032008
  26 C :   -0.180662
  27 S :    0.435729
  28 C :   -0.054513
  29 F :   -0.060117
  30 C :   -0.149734
  31 S :    0.562157
  32 C :   -0.041544
  33 C :   -0.001304
  34 C :    0.002323
  35 N :   -0.019418
  36 C :   -0.021830
  37 C :   -0.025084
  38 N :    0.013104
  39 C :   -0.035468
  40 N :   -0.003844
  41 C :   -0.044943
  42 N :   -0.002739
  43 C :   -0.041929
  44 C :   -0.045007
  45 C :   -0.044586
  46 N :   -0.280194
  47 S :    0.709063
  48 N :   -0.298173
  49 C :   -0.156369
  50 C :   -0.176146
  51 C :   -0.060801
  52 C :    0.027223
  53 C :   -0.184400
  54 S :    0.468784
  55 C :   -0.055724
  56 F :   -0.059003
  57 C :   -0.174009
  58 S :    0.537563
  59 C :    0.050645
  60 C :   -0.093989
  61 C :    0.081573
  62 O :   -0.139280
  63 C :   -0.052315
  64 C :    0.030123
  65 C :   -0.009538
  66 C :   -0.005966
  67 C :   -0.031939
  68 C :    0.066753
  69 C :    0.066510
  70 C :   -0.032314
  71 F :   -0.049241
  72 F :   -0.049132
  73 C :    0.009883
  74 C :   -0.018055
  75 C :    0.060139
  76 C :   -0.148117
  77 C :   -0.042771
  78 N :   -0.046965
  79 C :   -0.017955
  80 N :   -0.063531
  81 H :    0.048408
  82 H :    0.044626
  83 H :    0.040347
  84 H :    0.039616
  85 H :    0.046084
  86 H :    0.044415
  87 H :    0.041160
  88 H :    0.047795
  89 H :    0.042851
  90 H :    0.046011
  91 H :    0.044548
  92 H :    0.052124
  93 H :    0.041091
  94 H :    0.046005
  95 H :    0.045177
  96 H :    0.038104

  Mayer bond orders larger than 0.100000
B(  0-C ,  1-C ) :   1.4387 B(  0-C ,  5-C ) :   0.1082 B(  0-C ,  7-C ) :   1.1909
B(  0-C , 81-H ) :   1.0062 B(  1-C ,  2-F ) :   1.1358 B(  1-C ,  3-C ) :   1.1942
B(  3-C ,  4-F ) :   1.1346 B(  3-C ,  5-C ) :   1.4416 B(  5-C ,  6-C ) :   1.1932
B(  5-C , 82-H ) :   1.0065 B(  6-C ,  7-C ) :   1.2565 B(  6-C , 11-C ) :   1.1873
B(  7-C ,  8-C ) :   1.2130 B(  8-C ,  9-C ) :   1.4568 B(  8-C , 83-H ) :   0.9888
B(  9-C , 10-C ) :   1.2204 B(  9-C , 15-C ) :   0.9815 B( 10-C , 11-C ) :   1.4705
B( 10-C , 12-C ) :   0.9543 B( 11-C , 84-H ) :   1.0158 B( 12-C , 13-O ) :   2.1289
B( 12-C , 14-C ) :   0.9789 B( 14-C , 15-C ) :   1.0801 B( 14-C , 21-C ) :   1.5077
B( 15-C , 16-C ) :   1.6238 B( 16-C , 17-C ) :   1.1464 B( 16-C , 19-C ) :   1.1493
B( 17-C , 18-N ) :   2.9596 B( 19-C , 20-N ) :   2.9596 B( 21-C , 22-C ) :   1.2752
B( 21-C , 85-H ) :   0.9410 B( 22-C , 23-C ) :   1.3648 B( 22-C , 31-S ) :   1.0885
B( 23-C , 24-C ) :   1.2847 B( 23-C , 27-S ) :   1.0966 B( 24-C , 25-C ) :   1.0836
B( 24-C , 30-C ) :   1.2892 B( 25-C , 26-C ) :   1.6476 B( 25-C , 29-F ) :   1.1234
B( 26-C , 27-S ) :   1.0643 B( 26-C , 28-C ) :   1.0668 B( 28-C , 86-H ) :   0.9547
B( 28-C , 87-H ) :   0.9468 B( 28-C , 88-H ) :   0.9465 B( 30-C , 31-S ) :   1.1454
B( 30-C , 32-C ) :   1.1914 B( 32-C , 33-C ) :   1.2596 B( 32-C , 43-C ) :   0.1170
B( 32-C , 45-C ) :   1.2016 B( 33-C , 34-C ) :   1.0969 B( 33-C , 38-N ) :   1.4511
B( 34-C , 35-N ) :   1.4339 B( 34-C , 43-C ) :   1.2297 B( 35-N , 36-C ) :   1.6480
B( 36-C , 37-C ) :   1.2216 B( 36-C , 41-C ) :   1.1530 B( 37-C , 38-N ) :   1.6968
B( 37-C , 39-C ) :   1.1697 B( 39-C , 40-N ) :   3.0511 B( 41-C , 42-N ) :   3.0280
B( 43-C , 44-C ) :   1.1841 B( 43-C , 49-C ) :   1.2331 B( 44-C , 45-C ) :   1.1261
B( 44-C , 48-N ) :   1.4811 B( 45-C , 46-N ) :   1.5040 B( 46-N , 47-S ) :   1.2938
B( 46-N , 48-N ) :   0.1469 B( 47-S , 48-N ) :   1.2707 B( 49-C , 50-C ) :   1.4198
B( 49-C , 58-S ) :   1.1689 B( 50-C , 51-C ) :   1.2691 B( 50-C , 54-S ) :   1.0699
B( 51-C , 52-C ) :   1.1123 B( 51-C , 57-C ) :   1.3300 B( 52-C , 53-C ) :   1.6297
B( 52-C , 56-F ) :   1.1366 B( 53-C , 54-S ) :   1.0360 B( 53-C , 55-C ) :   1.0666
B( 55-C , 89-H ) :   0.9561 B( 55-C , 90-H ) :   0.9457 B( 55-C , 91-H ) :   0.9446
B( 57-C , 58-S ) :   1.0649 B( 57-C , 59-C ) :   1.2106 B( 59-C , 60-C ) :   1.5836
B( 59-C , 92-H ) :   0.9451 B( 60-C , 61-C ) :   0.9461 B( 60-C , 75-C ) :   1.0473
B( 61-C , 62-O ) :   2.2707 B( 61-C , 63-C ) :   0.9149 B( 63-C , 64-C ) :   1.4808
B( 63-C , 74-C ) :   1.2196 B( 64-C , 65-C ) :   1.1922 B( 64-C , 93-H ) :   1.0159
B( 65-C , 66-C ) :   1.2586 B( 65-C , 70-C ) :   1.1948 B( 66-C , 67-C ) :   1.1907
B( 66-C , 73-C ) :   1.2103 B( 67-C , 68-C ) :   1.4413 B( 67-C , 70-C ) :   0.1087
B( 67-C , 94-H ) :   1.0064 B( 68-C , 69-C ) :   1.1927 B( 68-C , 72-F ) :   1.1334
B( 69-C , 70-C ) :   1.4417 B( 69-C , 71-F ) :   1.1335 B( 70-C , 95-H ) :   1.0069
B( 73-C , 74-C ) :   1.4619 B( 73-C , 96-H ) :   0.9941 B( 74-C , 75-C ) :   1.0086
B( 75-C , 76-C ) :   1.6364 B( 76-C , 77-C ) :   1.1471 B( 76-C , 79-C ) :   1.1437
B( 77-C , 78-N ) :   3.0299 B( 79-C , 80-N ) :   2.9792

-----------------------------------------------------------------------------
         ABSORPTION SPECTRUM VIA TRANSITION ELECTRIC DIPOLE MOMENTS
-----------------------------------------------------------------------------
State   Energy  Wavelength   fosc         T2         TX        TY        TZ
        (cm-1)    (nm)                  (au**2)     (au)      (au)      (au)
-----------------------------------------------------------------------------
   0    7026.4   1423.2   0.514607471  24.11104  -2.12430   3.54980  -2.64525
   1   13826.4    723.3   0.098475389   2.34474  -0.40839   1.07702   1.00896
   2   17380.9    575.3   0.261394028   4.95108   0.01912   0.29002   2.20604
   3   18198.3    549.5   0.424179315   7.67351  -1.60627   2.22711   0.36520
   4   18592.2    537.9   0.073699107   1.30499   0.50129  -0.66857  -0.77892
   5   19570.9    511.0   0.109643675   1.84438   0.78860  -0.87943  -0.67014
   6   20408.8    490.0   0.016227123   0.26176   0.34392   0.35183   0.14034
   7   22222.6    450.0   0.009444058   0.13991  -0.16265  -0.05162   0.33285
   8   22527.1    443.9   0.028687680   0.41924  -0.22138   0.48112  -0.37250
   9   23621.9    423.3   0.052754697   0.73523  -0.29459   0.57236   0.56643
  10   23887.3    418.6   0.050983403   0.70265   0.58999  -0.59538  -0.00885
  11   24333.9    410.9   0.034953832   0.47289  -0.05375  -0.66145  -0.18023
  12   24467.7    408.7   0.034189720   0.46002  -0.15637   0.55445  -0.35799
  13   24746.5    404.1   0.030201289   0.40178   0.28846  -0.32116  -0.46414
  14   25307.3    395.1   0.072253854   0.93992   0.35845  -0.28884  -0.85323
  15   25874.1    386.5   0.032073420   0.40809  -0.33157   0.24280   0.48908
  16   25951.6    385.3   0.034298599   0.43510  -0.06553  -0.37519   0.53855
  17   26079.0    383.5   0.026907474   0.33967  -0.00343   0.32606  -0.48306
  18   26366.7    379.3   0.028515939   0.35605   0.18841  -0.55581  -0.10784
  19   26680.1    374.8   0.042149688   0.52009   0.29456  -0.42569   0.50212
  20   27089.0    369.2   0.269908444   3.28019  -0.82851   0.56042   1.50987
  21   27366.5    365.4   0.157740866   1.89758  -0.10774   0.54070  -1.26238
  22   28820.9    347.0   0.055056361   0.62889  -0.58226   0.09480   0.52998
  23   28857.1    346.5   0.073273562   0.83593  -0.24005   0.25911   0.84331
  24   29366.8    340.5   0.009340939   0.10472  -0.22534  -0.19588  -0.12476
  25   29948.8    333.9   0.123160489   1.35384  -0.35434  -0.94638   0.57676
  26   30046.0    332.8   0.378558152   4.14784  -0.83368   0.49803   1.79019
  27   30249.7    330.6   0.223042753   2.42741   0.22276  -1.03645  -1.14173
  28   30863.2    324.0   0.140557736   1.49930   0.23572  -0.34183   1.15191
  29   31131.8    321.2   0.019781014   0.20918   0.24366  -0.37162  -0.10821
  30   31229.7    320.2   0.002026548   0.02136  -0.10002  -0.07770   0.07295
  31   31688.8    315.6   0.009695568   0.10073  -0.28779   0.04434   0.12625
  32   32117.8    311.4   0.065591188   0.67232  -0.33081   0.37693   0.64870
  33   32691.0    305.9   0.154425167   1.55512   0.23879  -0.60918  -1.06160
  34   33009.0    302.9   0.023077437   0.23016  -0.07176   0.46685  -0.08404
  35   33163.6    301.5   0.082244678   0.81644  -0.36928   0.62294   0.54038
  36   33391.7    299.5   0.058736179   0.57908  -0.36323  -0.51740   0.42361
  37   33663.8    297.1   0.164909961   1.61272  -0.20176   0.14329   1.24559
  38   33827.7    295.6   0.089244744   0.86853  -0.23160   0.52416  -0.73494
  39   34054.8    293.6   0.016737980   0.16181  -0.28249   0.28461   0.03167
  40   34467.3    290.1   0.041218653   0.39370  -0.15423  -0.56757   0.21857
  41   34729.1    287.9   0.004608562   0.04369  -0.05193   0.20066  -0.02691
  42   34901.2    286.5   0.117433790   1.10772  -0.15434   0.38024  -0.96918
  43   34987.1    285.8   0.658842902   6.19939   0.65061  -0.72329  -2.29193
  44   35098.3    284.9   0.041408097   0.38840  -0.32444   0.30785  -0.43401
  45   35212.7    284.0   0.071219880   0.66585   0.12631  -0.34492   0.72865
  46   35533.3    281.4   0.699750302   6.48311   1.02629   0.74500  -2.20790
  47   35947.8    278.2   0.022528636   0.20632   0.01783  -0.31211   0.32952
  48   36099.3    277.0   0.065691943   0.59909   0.38551   0.48133  -0.46775
  49   36195.4    276.3   0.024099390   0.21919   0.44015  -0.12743  -0.09607
  50   36261.2    275.8   0.010426589   0.09466   0.14576  -0.09290  -0.25453
  51   36610.9    273.1   0.011184549   0.10057  -0.23784   0.00003   0.20977
  52   36716.5    272.4   0.030569756   0.27410  -0.38218   0.33967  -0.11251
  53   36788.1    271.8   0.027763995   0.24846   0.26956  -0.00118  -0.41927
  54   37174.3    269.0   0.040173104   0.35577  -0.07390  -0.50089  -0.31530
  55   37265.0    268.3   0.004529876   0.04002   0.12081  -0.13383   0.08668
  56   37432.7    267.1   0.060010645   0.52778   0.36646  -0.55248  -0.29707
  57   37929.0    263.7   0.107402540   0.93222  -0.46385   0.50501   0.67973
  58   38082.4    262.6   0.007679322   0.06639  -0.04166  -0.20338   0.15260
  59   38685.6    258.5   0.151827074   1.29204  -0.50960   0.73520   0.70131
  60   38813.4    257.6   0.020401334   0.17304   0.09921  -0.18114  -0.36109
  61   38871.5    257.3   0.002147347   0.01819  -0.10556  -0.00913  -0.08343
  62   39113.7    255.7   0.028817259   0.24255   0.33565  -0.34933  -0.08863
  63   39301.9    254.4   0.029772444   0.24939  -0.21316   0.17965  -0.41434
  64   39415.8    253.7   0.008947482   0.07473  -0.25311  -0.00314   0.10324
  65   39530.5    253.0   0.134111285   1.11689   0.51233  -0.87438   0.29978
  66   39659.3    252.1   0.059990270   0.49798  -0.20127  -0.41688   0.53262
  67   39760.2    251.5   0.000934146   0.00773  -0.08036   0.02141  -0.02861
  68   40180.8    248.9   0.127740491   1.04661  -0.08102   0.97895  -0.28585

FINAL SINGLE POINT ENERGY     -5502.731084946372

DIPOLE MOMENT
-------------
                                X             Y             Z
Electronic contribution:    -13.15597       8.13766      24.46714
Nuclear contribution   :     12.99701      -8.77281     -23.06337
                        -----------------------------------------
Total Dipole Moment    :     -0.15896      -0.63515       1.40377
                        -----------------------------------------
Magnitude (a.u.)       :      1.54895
Magnitude (Debye)      :      3.93713

Rotational constants in cm-1:     0.000714     0.000394     0.000262
Rotational constants in MHz :    21.411424    11.819963     7.841831

                             ****ORCA TERMINATED NORMALLY****
TOTAL RUN TIME: 0 days 0 hours 12 minutes 48 seconds 546 msec
