                         Program Version 4.2.0 -  RELEASE  -
|  1> # ORCA input file
|  2> # SCF done       -266.541679074668          0.000972561487
|  3> ! CAM-B3LYP def2-SVP def2/J RIJCOSX Grid4 TightSCF
|  4> %maxcore 5000
|  5> %tddft
|  6>     Mode sTDDFT
|  7>     Ethresh 5.0
|  8>     maxcore 5000
|  9> end
| 10>
| 11> %pal
| 12>   nprocs 6
| 13>   end
| 14> * xyz 0 1
| 15>    C        0.42705        -4.73279        -1.14148
| 16>    C        0.16013        -5.99689        -0.47514
| 17>    C       -0.23429        -6.09155         0.86398
| 18>    C       -0.53145        -7.31221         1.45530
| 19>    C       -0.45686        -8.48515         0.70854
| 20>    C       -0.09649        -8.41918        -0.63516
| 21>    C        0.19580        -7.18851        -1.20735
| 22>    F        0.54466        -7.13917        -2.49659
| 23>    F       -0.03224        -9.53399        -1.36329
| 24>    F       -0.73485        -9.65878         1.27314
| 25>    F       -0.89363        -7.36179         2.73849
| 26>    F       -0.36076        -4.98300         1.60126
| 27>    C        1.11188        -3.68225        -0.63756
| 28>    C        1.13784        -2.41219        -1.39606
| 29>    C       -0.03413        -1.84886        -1.90222
| 30>    C       -0.02694        -0.64598        -2.60061
| 31>    C        1.17538         0.02225        -2.81627
| 32>    C        2.35963        -0.52348        -2.32790
| 33>    C        2.32959        -1.72325        -1.62613
| 34>    F        3.48591        -2.23520        -1.19391
| 35>    F        3.51818         0.09892        -2.53923
| 36>    F        1.19327         1.16846        -3.48947
| 37>    F       -1.16572        -0.13505        -3.06529
| 38>    F       -1.20351        -2.46036        -1.69999
| 39>    C        1.88230        -3.68650         0.58210
| 40>    C        2.10592        -2.60386         1.40569
| 41>    C        2.92902        -2.92627         2.48481
| 42>    C        3.35021        -4.26827         2.46831
| 43>    S        2.72880        -5.12465         1.13218
| 44>    C        4.17202        -4.50950         3.59663
| 45>    C        4.26610        -3.30890         4.32954
| 46>    C        3.49817        -2.27553         3.65105
| 47>    C        3.35491        -0.96913         4.01688
| 48>    C        3.95240        -0.44047         5.18046
| 49>    N        4.43574        -0.00108         6.12276
| 50>    C        2.60090        -0.06560         3.23880
| 51>    N        1.99680         0.66314         2.59136
| 52>    C        5.05055        -3.43508         5.46730
| 53>    C        5.55650        -4.72229         5.60686
| 54>    S        5.05718        -5.79144         4.31100
| 55>    C        6.38822        -5.20019         6.65087
| 56>    C        6.84194        -6.54158         6.65750
| 57>    C        7.68334        -7.08542         7.68251
| 58>    N        8.06251        -8.37557         7.59845
| 59>    C        7.65894        -9.09649         6.59046
| 60>    C        6.83195        -8.56134         5.58221
| 61>    N        6.44527        -7.31819         5.63310
| 62>    C        8.11746        -6.28649         8.77395
| 63>    C        7.66493        -4.95035         8.76604
| 64>    C        6.81863        -4.40603         7.73341
| 65>    N        6.53485        -3.12153         7.96297
| 66>    S        7.24533        -2.64837         9.31533
| 67>    N        7.95598        -4.03694         9.69561
| 68>    C        8.95234        -6.75438         9.82467
| 69>    C        9.48559        -8.02593         9.99661
| 70>    C       10.25485        -8.11715        11.14779
| 71>    C       10.31996        -6.90352        11.86440
| 72>    S        9.42634        -5.65640        11.11475
| 73>    C       11.13387        -7.10720        13.00779
| 74>    C       11.56356        -8.44650        13.01921
| 75>    C       11.06636        -9.11185        11.82982
| 76>    C       11.39940       -10.36675        11.40663
| 77>    C       12.33825       -11.13245        12.12821
| 78>    N       13.13980       -11.69982        12.72193
| 79>    C       10.88196       -10.93122        10.22247
| 80>    N       10.45193       -11.39434         9.26595
| 81>    C       12.35059        -8.75749        14.12522
| 82>    C       12.56613        -7.66259        14.93315
| 83>    S       11.73830        -6.23020        14.33833
| 84>    C       13.39030        -7.60620        16.11477
| 85>    C       13.00556        -6.62219        17.14897
| 86>    C       13.94393        -5.75422        17.70735
| 87>    C       13.58830        -4.81146        18.66614
| 88>    C       12.26690        -4.72734        19.09667
| 89>    C       11.31429        -5.59075        18.56246
| 90>    C       11.68929        -6.52174        17.60047
| 91>    F       10.76093        -7.35567        17.12319
| 92>    F       10.04892        -5.52508        18.97457
| 93>    F       11.91737        -3.82976        20.01407
| 94>    F       14.50662        -3.98938        19.17162
| 95>    F       15.21448        -5.80550        17.30207
| 96>    C       14.45355        -8.41150        16.33678
| 97>    C       15.04743        -9.35967        15.40276
| 98>    C       15.31481        -9.06551        14.06201
| 99>    C       15.89557        -9.99329        13.20885
|100>    C       16.25014       -11.25374        13.68398
|101>    C       16.02616       -11.56460        15.02248
|102>    C       15.44228       -10.62126        15.85870
|103>    F       15.22655       -10.93550        17.14070
|104>    F       16.37648       -12.75807        15.49916
|105>    F       16.81387       -12.14196        12.87213
|106>    F       16.12032        -9.67302        11.93317
|107>    F       15.01860        -7.85358        13.57642
|108>    H        0.02867        -4.66332        -2.14399
|109>    H        1.66382        -1.63818         1.23837
|110>    H        5.26351        -2.65869         6.17897
|111>    H        7.99263       -10.12438         6.56914
|112>    H        6.49163        -9.14883         4.74179
|113>    H        9.29641        -8.81897         9.29750
|114>    H       12.72362        -9.73833        14.35270
|115>    H       14.91567        -8.40072        17.31433
|116> *
|117>
|118>                          ****END OF INPUT****

CARTESIAN COORDINATES (ANGSTROEM)
---------------------------------
  C      0.427050   -4.732790   -1.141480
  C      0.160130   -5.996890   -0.475140
  C     -0.234290   -6.091550    0.863980
  C     -0.531450   -7.312210    1.455300
  C     -0.456860   -8.485150    0.708540
  C     -0.096490   -8.419180   -0.635160
  C      0.195800   -7.188510   -1.207350
  F      0.544660   -7.139170   -2.496590
  F     -0.032240   -9.533990   -1.363290
  F     -0.734850   -9.658780    1.273140
  F     -0.893630   -7.361790    2.738490
  F     -0.360760   -4.983000    1.601260
  C      1.111880   -3.682250   -0.637560
  C      1.137840   -2.412190   -1.396060
  C     -0.034130   -1.848860   -1.902220
  C     -0.026940   -0.645980   -2.600610
  C      1.175380    0.022250   -2.816270
  C      2.359630   -0.523480   -2.327900
  C      2.329590   -1.723250   -1.626130
  F      3.485910   -2.235200   -1.193910
  F      3.518180    0.098920   -2.539230
  F      1.193270    1.168460   -3.489470
  F     -1.165720   -0.135050   -3.065290
  F     -1.203510   -2.460360   -1.699990
  C      1.882300   -3.686500    0.582100
  C      2.105920   -2.603860    1.405690
  C      2.929020   -2.926270    2.484810
  C      3.350210   -4.268270    2.468310
  S      2.728800   -5.124650    1.132180
  C      4.172020   -4.509500    3.596630
  C      4.266100   -3.308900    4.329540
  C      3.498170   -2.275530    3.651050
  C      3.354910   -0.969130    4.016880
  C      3.952400   -0.440470    5.180460
  N      4.435740   -0.001080    6.122760
  C      2.600900   -0.065600    3.238800
  N      1.996800    0.663140    2.591360
  C      5.050550   -3.435080    5.467300
  C      5.556500   -4.722290    5.606860
  S      5.057180   -5.791440    4.311000
  C      6.388220   -5.200190    6.650870
  C      6.841940   -6.541580    6.657500
  C      7.683340   -7.085420    7.682510
  N      8.062510   -8.375570    7.598450
  C      7.658940   -9.096490    6.590460
  C      6.831950   -8.561340    5.582210
  N      6.445270   -7.318190    5.633100
  C      8.117460   -6.286490    8.773950
  C      7.664930   -4.950350    8.766040
  C      6.818630   -4.406030    7.733410
  N      6.534850   -3.121530    7.962970
  S      7.245330   -2.648370    9.315330
  N      7.955980   -4.036940    9.695610
  C      8.952340   -6.754380    9.824670
  C      9.485590   -8.025930    9.996610
  C     10.254850   -8.117150   11.147790
  C     10.319960   -6.903520   11.864400
  S      9.426340   -5.656400   11.114750
  C     11.133870   -7.107200   13.007790
  C     11.563560   -8.446500   13.019210
  C     11.066360   -9.111850   11.829820
  C     11.399400  -10.366750   11.406630
  C     12.338250  -11.132450   12.128210
  N     13.139800  -11.699820   12.721930
  C     10.881960  -10.931220   10.222470
  N     10.451930  -11.394340    9.265950
  C     12.350590   -8.757490   14.125220
  C     12.566130   -7.662590   14.933150
  S     11.738300   -6.230200   14.338330
  C     13.390300   -7.606200   16.114770
  C     13.005560   -6.622190   17.148970
  C     13.943930   -5.754220   17.707350
  C     13.588300   -4.811460   18.666140
  C     12.266900   -4.727340   19.096670
  C     11.314290   -5.590750   18.562460
  C     11.689290   -6.521740   17.600470
  F     10.760930   -7.355670   17.123190
  F     10.048920   -5.525080   18.974570
  F     11.917370   -3.829760   20.014070
  F     14.506620   -3.989380   19.171620
  F     15.214480   -5.805500   17.302070
  C     14.453550   -8.411500   16.336780
  C     15.047430   -9.359670   15.402760
  C     15.314810   -9.065510   14.062010
  C     15.895570   -9.993290   13.208850
  C     16.250140  -11.253740   13.683980
  C     16.026160  -11.564600   15.022480
  C     15.442280  -10.621260   15.858700
  F     15.226550  -10.935500   17.140700
  F     16.376480  -12.758070   15.499160
  F     16.813870  -12.141960   12.872130
  F     16.120320   -9.673020   11.933170
  F     15.018600   -7.853580   13.576420
  H      0.028670   -4.663320   -2.143990
  H      1.663820   -1.638180    1.238370
  H      5.263510   -2.658690    6.178970
  H      7.992630  -10.124380    6.569140
  H      6.491630   -9.148830    4.741790
  H      9.296410   -8.818970    9.297500
  H     12.723620   -9.738330   14.352700
  H     14.915670   -8.400720   17.314330

 Total Charge           Charge          ....    0
 Multiplicity           Mult            ....    1
 Number of Electrons    NEL             ....  684
 Basis Dimension        Dim             .... 1362

ORBITAL ENERGIES
----------------

  NO   OCC          E(Eh)            E(eV)
   0   2.0000     -89.050120     -2423.1770
   1   2.0000     -88.990674     -2421.5593
   2   2.0000     -88.989569     -2421.5293
   3   2.0000     -88.982650     -2421.3410
   4   2.0000     -88.980745     -2421.2892
   5   2.0000     -24.818813      -675.3542
   6   2.0000     -24.817255      -675.3118
   7   2.0000     -24.815161      -675.2548
   8   2.0000     -24.814975      -675.2498
   9   2.0000     -24.814947      -675.2490
  10   2.0000     -24.814764      -675.2441
  11   2.0000     -24.813780      -675.2173
  12   2.0000     -24.813723      -675.2157
  13   2.0000     -24.812766      -675.1897
  14   2.0000     -24.812558      -675.1840
  15   2.0000     -24.812512      -675.1828
  16   2.0000     -24.811831      -675.1642
  17   2.0000     -24.811541      -675.1564
  18   2.0000     -24.809983      -675.1139
  19   2.0000     -24.809660      -675.1052
  20   2.0000     -24.806824      -675.0280
  21   2.0000     -24.805880      -675.0023
  22   2.0000     -24.805856      -675.0017
  23   2.0000     -24.802162      -674.9011
  24   2.0000     -24.802019      -674.8972
  25   2.0000     -14.458031      -393.4230
  26   2.0000     -14.457741      -393.4151
  27   2.0000     -14.451719      -393.2513
  28   2.0000     -14.445066      -393.0702
  29   2.0000     -14.433620      -392.7588
  30   2.0000     -14.429297      -392.6411
  31   2.0000     -14.427759      -392.5993
  32   2.0000     -14.426280      -392.5590
  33   2.0000     -10.401946      -283.0514
  34   2.0000     -10.399713      -282.9906
  35   2.0000     -10.398213      -282.9498
  36   2.0000     -10.398052      -282.9454
  37   2.0000     -10.398033      -282.9449
  38   2.0000     -10.395311      -282.8708
  39   2.0000     -10.395259      -282.8694
  40   2.0000     -10.395153      -282.8665
  41   2.0000     -10.395120      -282.8656
  42   2.0000     -10.394861      -282.8585
  43   2.0000     -10.394358      -282.8449
  44   2.0000     -10.393652      -282.8256
  45   2.0000     -10.392730      -282.8006
  46   2.0000     -10.391553      -282.7685
  47   2.0000     -10.391256      -282.7605
  48   2.0000     -10.388479      -282.6849
  49   2.0000     -10.386112      -282.6205
  50   2.0000     -10.385430      -282.6019
  51   2.0000     -10.382735      -282.5286
  52   2.0000     -10.382048      -282.5099
  53   2.0000     -10.362289      -281.9722
  54   2.0000     -10.359947      -281.9085
  55   2.0000     -10.350876      -281.6616
  56   2.0000     -10.347923      -281.5813
  57   2.0000     -10.345205      -281.5073
  58   2.0000     -10.345153      -281.5059
  59   2.0000     -10.344065      -281.4763
  60   2.0000     -10.342635      -281.4374
  61   2.0000     -10.340600      -281.3820
  62   2.0000     -10.340479      -281.3787
  63   2.0000     -10.335311      -281.2381
  64   2.0000     -10.332200      -281.1535
  65   2.0000     -10.331214      -281.1266
  66   2.0000     -10.330167      -281.0981
  67   2.0000     -10.328628      -281.0562
  68   2.0000     -10.327987      -281.0388
  69   2.0000     -10.326915      -281.0097
  70   2.0000     -10.326575      -281.0004
  71   2.0000     -10.325718      -280.9771
  72   2.0000     -10.325503      -280.9712
  73   2.0000     -10.324515      -280.9443
  74   2.0000     -10.324189      -280.9355
  75   2.0000     -10.323430      -280.9148
  76   2.0000     -10.322844      -280.8989
  77   2.0000     -10.321390      -280.8593
  78   2.0000     -10.319399      -280.8051
  79   2.0000     -10.318983      -280.7938
  80   2.0000     -10.318639      -280.7844
  81   2.0000     -10.318377      -280.7773
  82   2.0000     -10.317734      -280.7598
  83   2.0000     -10.308594      -280.5111
  84   2.0000     -10.308376      -280.5052
  85   2.0000     -10.301297      -280.3126
  86   2.0000     -10.300839      -280.3001
  87   2.0000     -10.300135      -280.2809
  88   2.0000     -10.299110      -280.2530
  89   2.0000     -10.296558      -280.1836
  90   2.0000     -10.295210      -280.1469
  91   2.0000     -10.292658      -280.0775
  92   2.0000     -10.291064      -280.0341
  93   2.0000      -8.140985      -221.5275
  94   2.0000      -8.085019      -220.0046
  95   2.0000      -8.083665      -219.9677
  96   2.0000      -8.075731      -219.7518
  97   2.0000      -8.072715      -219.6697
  98   2.0000      -6.112052      -166.3174
  99   2.0000      -6.104291      -166.1062
 100   2.0000      -6.103837      -166.0938
 101   2.0000      -6.054177      -164.7425
 102   2.0000      -6.052912      -164.7081
 103   2.0000      -6.050064      -164.6306
 104   2.0000      -6.048734      -164.5944
 105   2.0000      -6.047551      -164.5622
 106   2.0000      -6.046127      -164.5235
 107   2.0000      -6.045162      -164.4972
 108   2.0000      -6.042378      -164.4215
 109   2.0000      -6.040525      -164.3710
 110   2.0000      -6.038224      -164.3084
 111   2.0000      -6.037404      -164.2861
 112   2.0000      -6.035239      -164.2272
 113   2.0000      -1.346288       -36.6344
 114   2.0000      -1.344120       -36.5754
 115   2.0000      -1.342651       -36.5354
 116   2.0000      -1.338939       -36.4344
 117   2.0000      -1.336934       -36.3798
 118   2.0000      -1.335652       -36.3449
 119   2.0000      -1.334106       -36.3029
 120   2.0000      -1.333588       -36.2888
 121   2.0000      -1.331515       -36.2324
 122   2.0000      -1.330335       -36.2002
 123   2.0000      -1.328035       -36.1377
 124   2.0000      -1.323567       -36.0161
 125   2.0000      -1.322574       -35.9891
 126   2.0000      -1.321642       -35.9637
 127   2.0000      -1.320084       -35.9213
 128   2.0000      -1.319508       -35.9056
 129   2.0000      -1.317250       -35.8442
 130   2.0000      -1.315824       -35.8054
 131   2.0000      -1.312407       -35.7124
 132   2.0000      -1.307634       -35.5825
 133   2.0000      -1.146659       -31.2022
 134   2.0000      -1.106206       -30.1014
 135   2.0000      -1.043008       -28.3817
 136   2.0000      -1.040639       -28.3172
 137   2.0000      -1.031428       -28.0666
 138   2.0000      -1.022651       -27.8277
 139   2.0000      -1.018720       -27.7208
 140   2.0000      -1.010647       -27.5011
 141   2.0000      -1.008776       -27.4502
 142   2.0000      -1.008230       -27.4353
 143   2.0000      -1.004767       -27.3411
 144   2.0000      -1.003994       -27.3201
 145   2.0000      -1.001858       -27.2619
 146   2.0000      -0.996174       -27.1073
 147   2.0000      -0.993832       -27.0436
 148   2.0000      -0.988247       -26.8916
 149   2.0000      -0.974890       -26.5281
 150   2.0000      -0.958756       -26.0891
 151   2.0000      -0.952759       -25.9259
 152   2.0000      -0.939422       -25.5630
 153   2.0000      -0.939110       -25.5545
 154   2.0000      -0.911389       -24.8002
 155   2.0000      -0.902531       -24.5591
 156   2.0000      -0.897318       -24.4173
 157   2.0000      -0.893702       -24.3189
 158   2.0000      -0.889427       -24.2025
 159   2.0000      -0.879185       -23.9238
 160   2.0000      -0.872706       -23.7475
 161   2.0000      -0.870853       -23.6971
 162   2.0000      -0.869077       -23.6488
 163   2.0000      -0.866042       -23.5662
 164   2.0000      -0.862196       -23.4615
 165   2.0000      -0.860499       -23.4154
 166   2.0000      -0.851684       -23.1755
 167   2.0000      -0.850120       -23.1330
 168   2.0000      -0.846974       -23.0473
 169   2.0000      -0.843752       -22.9596
 170   2.0000      -0.819156       -22.2904
 171   2.0000      -0.801240       -21.8028
 172   2.0000      -0.795023       -21.6337
 173   2.0000      -0.786318       -21.3968
 174   2.0000      -0.778444       -21.1825
 175   2.0000      -0.774283       -21.0693
 176   2.0000      -0.772847       -21.0302
 177   2.0000      -0.761976       -20.7344
 178   2.0000      -0.757463       -20.6116
 179   2.0000      -0.755488       -20.5579
 180   2.0000      -0.754927       -20.5426
 181   2.0000      -0.752182       -20.4679
 182   2.0000      -0.747646       -20.3445
 183   2.0000      -0.744310       -20.2537
 184   2.0000      -0.741424       -20.1752
 185   2.0000      -0.722753       -19.6671
 186   2.0000      -0.720190       -19.5974
 187   2.0000      -0.709100       -19.2956
 188   2.0000      -0.702594       -19.1186
 189   2.0000      -0.694479       -18.8977
 190   2.0000      -0.692916       -18.8552
 191   2.0000      -0.692459       -18.8428
 192   2.0000      -0.691449       -18.8153
 193   2.0000      -0.688153       -18.7256
 194   2.0000      -0.685163       -18.6442
 195   2.0000      -0.683634       -18.6026
 196   2.0000      -0.682331       -18.5672
 197   2.0000      -0.680287       -18.5116
 198   2.0000      -0.677516       -18.4362
 199   2.0000      -0.676739       -18.4150
 200   2.0000      -0.671785       -18.2802
 201   2.0000      -0.667924       -18.1751
 202   2.0000      -0.665353       -18.1052
 203   2.0000      -0.660268       -17.9668
 204   2.0000      -0.655783       -17.8448
 205   2.0000      -0.653713       -17.7884
 206   2.0000      -0.645000       -17.5513
 207   2.0000      -0.644623       -17.5411
 208   2.0000      -0.637118       -17.3369
 209   2.0000      -0.635463       -17.2918
 210   2.0000      -0.635206       -17.2848
 211   2.0000      -0.633949       -17.2506
 212   2.0000      -0.633537       -17.2394
 213   2.0000      -0.630719       -17.1627
 214   2.0000      -0.628587       -17.1047
 215   2.0000      -0.627805       -17.0834
 216   2.0000      -0.625976       -17.0337
 217   2.0000      -0.625430       -17.0188
 218   2.0000      -0.621487       -16.9115
 219   2.0000      -0.620774       -16.8921
 220   2.0000      -0.619453       -16.8562
 221   2.0000      -0.618721       -16.8363
 222   2.0000      -0.616557       -16.7774
 223   2.0000      -0.614699       -16.7268
 224   2.0000      -0.614197       -16.7132
 225   2.0000      -0.613726       -16.7003
 226   2.0000      -0.610313       -16.6075
 227   2.0000      -0.608234       -16.5509
 228   2.0000      -0.607057       -16.5189
 229   2.0000      -0.605600       -16.4792
 230   2.0000      -0.602839       -16.4041
 231   2.0000      -0.591870       -16.1056
 232   2.0000      -0.590035       -16.0557
 233   2.0000      -0.588534       -16.0148
 234   2.0000      -0.584546       -15.9063
 235   2.0000      -0.583409       -15.8754
 236   2.0000      -0.581843       -15.8328
 237   2.0000      -0.581296       -15.8179
 238   2.0000      -0.578932       -15.7535
 239   2.0000      -0.576141       -15.6776
 240   2.0000      -0.575885       -15.6706
 241   2.0000      -0.573367       -15.6021
 242   2.0000      -0.568738       -15.4761
 243   2.0000      -0.566208       -15.4073
 244   2.0000      -0.561798       -15.2873
 245   2.0000      -0.559173       -15.2159
 246   2.0000      -0.558858       -15.2073
 247   2.0000      -0.556838       -15.1523
 248   2.0000      -0.556081       -15.1317
 249   2.0000      -0.553289       -15.0558
 250   2.0000      -0.552578       -15.0364
 251   2.0000      -0.550443       -14.9783
 252   2.0000      -0.550369       -14.9763
 253   2.0000      -0.547591       -14.9007
 254   2.0000      -0.544911       -14.8278
 255   2.0000      -0.543159       -14.7801
 256   2.0000      -0.541819       -14.7437
 257   2.0000      -0.541583       -14.7372
 258   2.0000      -0.540114       -14.6972
 259   2.0000      -0.534399       -14.5417
 260   2.0000      -0.533440       -14.5156
 261   2.0000      -0.531270       -14.4566
 262   2.0000      -0.529593       -14.4109
 263   2.0000      -0.528419       -14.3790
 264   2.0000      -0.527396       -14.3512
 265   2.0000      -0.525270       -14.2933
 266   2.0000      -0.524596       -14.2750
 267   2.0000      -0.522092       -14.2069
 268   2.0000      -0.517855       -14.0916
 269   2.0000      -0.517501       -14.0819
 270   2.0000      -0.512857       -13.9555
 271   2.0000      -0.504630       -13.7317
 272   2.0000      -0.504420       -13.7260
 273   2.0000      -0.503867       -13.7109
 274   2.0000      -0.501980       -13.6596
 275   2.0000      -0.501306       -13.6412
 276   2.0000      -0.499997       -13.6056
 277   2.0000      -0.497082       -13.5263
 278   2.0000      -0.496151       -13.5010
 279   2.0000      -0.494768       -13.4633
 280   2.0000      -0.493214       -13.4210
 281   2.0000      -0.492624       -13.4050
 282   2.0000      -0.491106       -13.3637
 283   2.0000      -0.487706       -13.2711
 284   2.0000      -0.486134       -13.2284
 285   2.0000      -0.484488       -13.1836
 286   2.0000      -0.479689       -13.0530
 287   2.0000      -0.476672       -12.9709
 288   2.0000      -0.474476       -12.9111
 289   2.0000      -0.472075       -12.8458
 290   2.0000      -0.471375       -12.8268
 291   2.0000      -0.469782       -12.7834
 292   2.0000      -0.467758       -12.7283
 293   2.0000      -0.465256       -12.6603
 294   2.0000      -0.462863       -12.5951
 295   2.0000      -0.461303       -12.5527
 296   2.0000      -0.460725       -12.5370
 297   2.0000      -0.459091       -12.4925
 298   2.0000      -0.458541       -12.4775
 299   2.0000      -0.456332       -12.4174
 300   2.0000      -0.454174       -12.3587
 301   2.0000      -0.451651       -12.2901
 302   2.0000      -0.450747       -12.2655
 303   2.0000      -0.449810       -12.2399
 304   2.0000      -0.447444       -12.1756
 305   2.0000      -0.443695       -12.0736
 306   2.0000      -0.442839       -12.0503
 307   2.0000      -0.440865       -11.9965
 308   2.0000      -0.439095       -11.9484
 309   2.0000      -0.438331       -11.9276
 310   2.0000      -0.437195       -11.8967
 311   2.0000      -0.435455       -11.8493
 312   2.0000      -0.434982       -11.8365
 313   2.0000      -0.429031       -11.6745
 314   2.0000      -0.426173       -11.5968
 315   2.0000      -0.424642       -11.5551
 316   2.0000      -0.409122       -11.1328
 317   2.0000      -0.408964       -11.1285
 318   2.0000      -0.408330       -11.1112
 319   2.0000      -0.396554       -10.7908
 320   2.0000      -0.395732       -10.7684
 321   2.0000      -0.385969       -10.5028
 322   2.0000      -0.375664       -10.2223
 323   2.0000      -0.372224       -10.1287
 324   2.0000      -0.361775        -9.8444
 325   2.0000      -0.354026        -9.6335
 326   2.0000      -0.351503        -9.5649
 327   2.0000      -0.348761        -9.4903
 328   2.0000      -0.344562        -9.3760
 329   2.0000      -0.343573        -9.3491
 330   2.0000      -0.336688        -9.1617
 331   2.0000      -0.334630        -9.1057
 332   2.0000      -0.331935        -9.0324
 333   2.0000      -0.330997        -9.0069
 334   2.0000      -0.330760        -9.0005
 335   2.0000      -0.324557        -8.8316
 336   2.0000      -0.319347        -8.6899
 337   2.0000      -0.318332        -8.6623
 338   2.0000      -0.314665        -8.5625
 339   2.0000      -0.297560        -8.0970
 340   2.0000      -0.272265        -7.4087
 341   2.0000      -0.236084        -6.4242
 342   0.0000      -0.124014        -3.3746
 343   0.0000      -0.100547        -2.7360
 344   0.0000      -0.094463        -2.5705
 345   0.0000      -0.055950        -1.5225
 346   0.0000      -0.052598        -1.4313

MULLIKEN ATOMIC CHARGES
-----------------------
   0 C :    0.000800
   1 C :   -0.115535
   2 C :    0.194300
   3 C :    0.181428
   4 C :    0.128175
   5 C :    0.174424
   6 C :    0.171524
   7 F :   -0.159183
   8 F :   -0.156156
   9 F :   -0.151362
  10 F :   -0.157094
  11 F :   -0.156912
  12 C :    0.094088
  13 C :   -0.103104
  14 C :    0.171829
  15 C :    0.171863
  16 C :    0.138568
  17 C :    0.176837
  18 C :    0.177760
  19 F :   -0.157585
  20 F :   -0.154054
  21 F :   -0.147110
  22 F :   -0.154155
  23 F :   -0.157678
  24 C :   -0.150150
  25 C :   -0.001671
  26 C :    0.006979
  27 C :   -0.097470
  28 S :    0.182127
  29 C :   -0.065462
  30 C :    0.039166
  31 C :    0.305117
  32 C :   -0.302283
  33 C :   -0.188681
  34 N :    0.174216
  35 C :   -0.188879
  36 N :    0.164422
  37 C :   -0.070312
  38 C :   -0.169929
  39 S :    0.199486
  40 C :    0.168322
  41 C :   -0.045633
  42 C :   -0.066556
  43 N :   -0.021101
  44 C :    0.036903
  45 C :    0.054273
  46 N :   -0.094924
  47 C :    0.197712
  48 C :   -0.024842
  49 C :    0.000935
  50 N :   -0.281257
  51 S :    0.569841
  52 N :   -0.344470
  53 C :   -0.188417
  54 C :   -0.066500
  55 C :    0.044595
  56 C :   -0.073766
  57 S :    0.207107
  58 C :   -0.091798
  59 C :   -0.004263
  60 C :    0.307585
  61 C :   -0.300008
  62 C :   -0.176112
  63 N :    0.144764
  64 C :   -0.182136
  65 N :    0.172164
  66 C :   -0.013766
  67 C :   -0.135345
  68 S :    0.202477
  69 C :    0.098287
  70 C :   -0.139106
  71 C :    0.183414
  72 C :    0.172124
  73 C :    0.134410
  74 C :    0.174334
  75 C :    0.187789
  76 F :   -0.156584
  77 F :   -0.154758
  78 F :   -0.149233
  79 F :   -0.154330
  80 F :   -0.155745
  81 C :   -0.002457
  82 C :   -0.113152
  83 C :    0.175616
  84 C :    0.184359
  85 C :    0.154642
  86 C :    0.176978
  87 C :    0.169885
  88 F :   -0.162308
  89 F :   -0.155968
  90 F :   -0.148459
  91 F :   -0.159837
  92 F :   -0.163305
  93 H :    0.018779
  94 H :    0.010406
  95 H :    0.018000
  96 H :    0.032776
  97 H :    0.020772
  98 H :    0.018838
  99 H :    0.020902
 100 H :    0.018809
Sum of atomic charges:   -0.0000000

LOEWDIN ATOMIC CHARGES
----------------------
   0 C :   -0.012879
   1 C :   -0.094386
   2 C :    0.055803
   3 C :    0.026277
   4 C :    0.041499
   5 C :    0.024921
   6 C :    0.065926
   7 F :   -0.039520
   8 F :   -0.035944
   9 F :   -0.029712
  10 F :   -0.036865
  11 F :   -0.033052
  12 C :   -0.022258
  13 C :   -0.075466
  14 C :    0.065343
  15 C :    0.026829
  16 C :    0.044769
  17 C :    0.028014
  18 C :    0.067453
  19 F :   -0.034623
  20 F :   -0.033654
  21 F :   -0.026024
  22 F :   -0.033947
  23 F :   -0.035692
  24 C :   -0.173203
  25 C :   -0.017383
  26 C :   -0.070187
  27 C :   -0.170236
  28 S :    0.489352
  29 C :   -0.187966
  30 C :   -0.073447
  31 C :    0.084014
  32 C :   -0.106538
  33 C :   -0.016807
  34 N :   -0.035257
  35 C :   -0.014515
  36 N :   -0.040056
  37 C :   -0.012973
  38 C :   -0.164759
  39 S :    0.508511
  40 C :   -0.042164
  41 C :   -0.016159
  42 C :   -0.007188
  43 N :   -0.017762
  44 C :    0.020747
  45 C :    0.023549
  46 N :   -0.050830
  47 C :   -0.045611
  48 C :   -0.047861
  49 C :   -0.039731
  50 N :   -0.272125
  51 S :    0.689028
  52 N :   -0.309439
  53 C :   -0.163285
  54 C :   -0.012161
  55 C :   -0.076036
  56 C :   -0.182841
  57 S :    0.512455
  58 C :   -0.174525
  59 C :   -0.069869
  60 C :    0.088456
  61 C :   -0.110092
  62 C :   -0.004507
  63 N :   -0.049865
  64 C :   -0.015674
  65 N :   -0.037732
  66 C :   -0.021520
  67 C :   -0.168979
  68 S :    0.487229
  69 C :   -0.027385
  70 C :   -0.087322
  71 C :    0.065722
  72 C :    0.026131
  73 C :    0.043330
  74 C :    0.026323
  75 C :    0.060031
  76 F :   -0.035983
  77 F :   -0.034445
  78 F :   -0.027398
  79 F :   -0.034224
  80 F :   -0.034433
  81 C :    0.002907
  82 C :   -0.088691
  83 C :    0.062575
  84 C :    0.029094
  85 C :    0.050488
  86 C :    0.029337
  87 C :    0.065407
  88 F :   -0.042640
  89 F :   -0.035162
  90 F :   -0.025079
  91 F :   -0.037913
  92 F :   -0.036641
  93 H :    0.039392
  94 H :    0.040221
  95 H :    0.037482
  96 H :    0.035221
  97 H :    0.031168
  98 H :    0.036114
  99 H :    0.039897
 100 H :    0.039606

  Mayer bond orders larger than 0.100000
B(  0-C ,  1-C ) :   1.0236 B(  0-C , 12-C ) :   1.7884 B(  0-C , 93-H ) :   0.9553
B(  1-C ,  2-C ) :   1.3081 B(  1-C ,  4-C ) :   0.1089 B(  1-C ,  6-C ) :   1.3191
B(  2-C ,  3-C ) :   1.2910 B(  2-C , 11-F ) :   1.1587 B(  3-C ,  4-C ) :   1.2766
B(  3-C , 10-F ) :   1.1749 B(  4-C ,  5-C ) :   1.2682 B(  4-C ,  9-F ) :   1.1773
B(  5-C ,  6-C ) :   1.2806 B(  5-C ,  8-F ) :   1.1752 B(  6-C ,  7-F ) :   1.1852
B( 12-C , 13-C ) :   0.9676 B( 12-C , 24-C ) :   1.0598 B( 13-C , 14-C ) :   1.3382
B( 13-C , 16-C ) :   0.1058 B( 13-C , 18-C ) :   1.3251 B( 14-C , 15-C ) :   1.2827
B( 14-C , 23-F ) :   1.1654 B( 15-C , 16-C ) :   1.2762 B( 15-C , 22-F ) :   1.1748
B( 16-C , 17-C ) :   1.2738 B( 16-C , 21-F ) :   1.1831 B( 17-C , 18-C ) :   1.2836
B( 17-C , 20-F ) :   1.1758 B( 18-C , 19-F ) :   1.1630 B( 24-C , 25-C ) :   1.4920
B( 24-C , 28-S ) :   1.1009 B( 25-C , 26-C ) :   1.2836 B( 25-C , 94-H ) :   0.9862
B( 26-C , 27-C ) :   1.4346 B( 26-C , 31-C ) :   0.9927 B( 27-C , 28-S ) :   1.1276
B( 27-C , 29-C ) :   1.1939 B( 29-C , 30-C ) :   1.4111 B( 29-C , 39-S ) :   1.0703
B( 30-C , 31-C ) :   0.9876 B( 30-C , 37-C ) :   1.2754 B( 31-C , 32-C ) :   1.7081
B( 32-C , 33-C ) :   1.1396 B( 32-C , 35-C ) :   1.1318 B( 33-C , 34-N ) :   2.9894
B( 35-C , 36-N ) :   2.9880 B( 37-C , 38-C ) :   1.4210 B( 37-C , 95-H ) :   0.9837
B( 38-C , 39-S ) :   1.0896 B( 38-C , 40-C ) :   1.1981 B( 40-C , 41-C ) :   1.2688
B( 40-C , 47-C ) :   0.1341 B( 40-C , 49-C ) :   1.2111 B( 41-C , 42-C ) :   1.1249
B( 41-C , 46-N ) :   1.3876 B( 42-C , 43-N ) :   1.4660 B( 42-C , 47-C ) :   1.2737
B( 43-N , 44-C ) :   1.6721 B( 44-C , 45-C ) :   1.1923 B( 44-C , 96-H ) :   0.9751
B( 45-C , 46-N ) :   1.6519 B( 45-C , 97-H ) :   0.9731 B( 47-C , 48-C ) :   1.1980
B( 47-C , 53-C ) :   1.1874 B( 48-C , 49-C ) :   1.1091 B( 48-C , 52-N ) :   1.4586
B( 49-C , 50-N ) :   1.5023 B( 50-N , 51-S ) :   1.2932 B( 50-N , 52-N ) :   0.1543
B( 51-S , 52-N ) :   1.2723 B( 53-C , 54-C ) :   1.4192 B( 53-C , 57-S ) :   1.0969
B( 54-C , 55-C ) :   1.2563 B( 54-C , 98-H ) :   0.9815 B( 55-C , 56-C ) :   1.4053
B( 55-C , 60-C ) :   0.9922 B( 56-C , 57-S ) :   1.1035 B( 56-C , 58-C ) :   1.1875
B( 58-C , 59-C ) :   1.4348 B( 58-C , 68-S ) :   1.1333 B( 59-C , 60-C ) :   0.9962
B( 59-C , 66-C ) :   1.2936 B( 60-C , 61-C ) :   1.7015 B( 61-C , 62-C ) :   1.1326
B( 61-C , 64-C ) :   1.1365 B( 62-C , 63-N ) :   2.9681 B( 64-C , 65-N ) :   2.9951
B( 66-C , 67-C ) :   1.4789 B( 66-C , 99-H ) :   0.9796 B( 67-C , 68-S ) :   1.1117
B( 67-C , 69-C ) :   1.0656 B( 69-C , 70-C ) :   0.9551 B( 69-C , 81-C ) :   1.8118
B( 70-C , 71-C ) :   1.3356 B( 70-C , 73-C ) :   0.1053 B( 70-C , 75-C ) :   1.3288
B( 71-C , 72-C ) :   1.2804 B( 71-C , 80-F ) :   1.1704 B( 72-C , 73-C ) :   1.2754
B( 72-C , 79-F ) :   1.1756 B( 73-C , 74-C ) :   1.2758 B( 73-C , 78-F ) :   1.1806
B( 74-C , 75-C ) :   1.2800 B( 74-C , 77-F ) :   1.1761 B( 75-C , 76-F ) :   1.1715
B( 81-C , 82-C ) :   1.0100 B( 81-C ,100-H ) :   0.9535 B( 82-C , 83-C ) :   1.3133
B( 82-C , 85-C ) :   0.1084 B( 82-C , 87-C ) :   1.3296 B( 83-C , 84-C ) :   1.3012
B( 83-C , 92-F ) :   1.1450 B( 84-C , 85-C ) :   1.2717 B( 84-C , 91-F ) :   1.1714
B( 85-C , 86-C ) :   1.2780 B( 85-C , 90-F ) :   1.1796 B( 86-C , 87-C ) :   1.2790
B( 86-C , 89-F ) :   1.1766 B( 87-C , 88-F ) :   1.1822

-----------------------------------------------------------------------------
         ABSORPTION SPECTRUM VIA TRANSITION ELECTRIC DIPOLE MOMENTS
-----------------------------------------------------------------------------
State   Energy  Wavelength   fosc         T2         TX        TY        TZ
        (cm-1)    (nm)                  (au**2)     (au)      (au)      (au)
-----------------------------------------------------------------------------
   0    9226.6   1083.8   0.713331817  25.45217   3.08703  -1.51918   3.68979
   1   12436.4    804.1   0.001100961   0.02914   0.10317  -0.06842   0.11755
   2   13496.7    740.9   0.015959671   0.38929   0.33680  -0.36388   0.37875
   3   18127.3    551.7   0.001182220   0.02147  -0.02313   0.14469   0.00110
   4   22215.9    450.1   0.044074530   0.65313  -0.42894   0.21715  -0.64960
   5   23683.3    422.2   0.001617700   0.02249  -0.06428  -0.06558   0.11855
   6   23772.2    420.7   0.000733655   0.01016  -0.01919  -0.04677  -0.08720
   7   25103.5    398.4   0.655756773   8.59973  -2.09942   0.21376  -2.03629
   8   25813.1    387.4   0.248983818   3.17546   1.15587   0.55015   1.23966
   9   26407.6    378.7   0.128134658   1.59740  -0.86545   0.60208  -0.69706
  10   26471.4    377.8   0.045832414   0.57000   0.48848  -0.31319   0.48301
  11   26791.0    373.3   0.026544797   0.32619  -0.38550   0.40506  -0.11618
  12   27291.6    366.4   0.096594435   1.16519   0.59141  -0.86781   0.24967
  13   28041.5    356.6   0.038616354   0.45336   0.43411  -0.42786   0.28610
  14   29269.9    341.6   0.044157341   0.49666   0.55809  -0.22164   0.36887
  15   29998.8    333.3   0.097188102   1.06656  -0.28526   0.98816  -0.09342
  16   30376.6    329.2   0.026139051   0.28329   0.00877  -0.48527  -0.21845
  17   30996.4    322.6   0.019763520   0.20991  -0.17561  -0.37069  -0.20410
  18   31502.7    317.4   0.333246589   3.48252   0.46090  -1.80329   0.13506
  19   31533.4    317.1   0.023746759   0.24792  -0.09275   0.47224  -0.12769
  20   31729.5    315.2   0.555917554   5.76796   1.08156  -1.37972   1.64152
  21   31997.4    312.5   0.126160254   1.29803   0.35164   0.80902   0.72101
  22   32247.0    310.1   0.077906411   0.79535  -0.46718  -0.48062  -0.58831
  23   32827.7    304.6   0.302605019   3.03466  -0.36070  -0.45584  -1.64219
  24   33135.1    301.8   0.214057435   2.12676  -0.53799   1.34948   0.12738
  25   33283.8    300.4   0.000906753   0.00897  -0.09225  -0.02000  -0.00761
  26   33720.8    296.6   0.039626335   0.38687  -0.06276  -0.47182  -0.40040
  27   33963.5    294.4   0.101404355   0.98292   0.41458   0.38314   0.81502
  28   34198.4    292.4   0.003835891   0.03693   0.06942   0.02490  -0.17745
  29   34366.3    291.0   0.002690968   0.02578   0.08751   0.11922   0.06250
  30   34599.5    289.0   0.702267199   6.68203  -0.11143  -2.47088  -0.75123
  31   34710.5    288.1   0.103053330   0.97741  -0.73102   0.62907  -0.21747
  32   35055.9    285.3   0.041149706   0.38644  -0.36905   0.00894  -0.50016
  33   35319.6    283.1   0.124615007   1.16153  -0.74075   0.20250  -0.75618
  34   35513.4    281.6   0.190373234   1.76478   1.14460  -0.67429   0.00012
  35   35557.0    281.2   0.076895212   0.71195   0.52525   0.54388   0.37450
  36   35613.5    280.8   0.001143284   0.01057  -0.01260   0.10147  -0.01067
  37   35925.3    278.4   0.003137892   0.02875   0.02029  -0.11754  -0.12053
  38   35976.8    278.0   0.338242486   3.09515  -0.04031  -1.48722  -0.93900
  39   36761.8    272.0   0.061372302   0.54961  -0.01986   0.73525   0.09285
  40   37001.0    270.3   0.003709822   0.03301  -0.10250   0.10242  -0.10959
  41   37285.9    268.2   0.030702213   0.27108   0.22307   0.18116   0.43417
  42   37683.8    265.4   0.097700570   0.85353   0.01712   0.72638   0.57062
  43   37789.3    264.6   0.008813235   0.07678  -0.09040  -0.10699  -0.23908
  44   37983.9    263.3   0.032411837   0.28092  -0.19787  -0.26040  -0.41708
  45   38143.9    262.2   0.148988867   1.28589  -0.02444  -0.97151  -0.58435
  46   38161.8    262.0   0.001450234   0.01251  -0.06661  -0.08952  -0.00774
  47   38707.1    258.4   0.001045563   0.00889  -0.00576   0.08670   0.03665
  48   38803.1    257.7   0.031571348   0.26786   0.13359   0.39452   0.30719
  49   39103.5    255.7   0.000529494   0.00446  -0.00619  -0.04540   0.04856
  50   39268.8    254.7   0.038622771   0.32380   0.04465  -0.51807   0.23110
  51   39359.1    254.1   0.031648791   0.26472  -0.04094  -0.11206   0.50049
  52   39496.6    253.2   0.107063615   0.89240  -0.07163  -0.81584   0.47082
  53   40002.0    250.0   0.136931741   1.12693  -0.17794   0.79529   0.68028
  54   40038.5    249.8   0.018567194   0.15267   0.15209  -0.22750  -0.27889
  55   40211.1    248.7   0.231675873   1.89675  -0.22385   1.07341   0.83333
  56   40285.7    248.2   0.098805698   0.80743  -0.18093  -0.18356   0.86082

FINAL SINGLE POINT ENERGY     -6710.648923357124

DIPOLE MOMENT
-------------
                                X             Y             Z
Electronic contribution:      0.08202       3.32517       3.22901
Nuclear contribution   :     -0.27599      -3.77178      -3.27523
                        -----------------------------------------
Total Dipole Moment    :     -0.19397      -0.44661      -0.04622
                        -----------------------------------------
Magnitude (a.u.)       :      0.48911
Magnitude (Debye)      :      1.24321

Rotational constants in cm-1:     0.001129     0.000147     0.000138
Rotational constants in MHz :    33.836012     4.395854     4.129044

                             ****ORCA TERMINATED NORMALLY****
TOTAL RUN TIME: 0 days 0 hours 12 minutes 55 seconds 618 msec
