                         Program Version 4.2.0 -  RELEASE  -
|  1> # ORCA input file
|  2> # SCF done       -138.534248437750          0.000903167876
|  3> ! CAM-B3LYP def2-SVP def2/J RIJCOSX Grid4 TightSCF
|  4> %maxcore 5000
|  5> %tddft
|  6>     Mode sTDDFT
|  7>     Ethresh 5.0
|  8>     maxcore 5000
|  9> end
| 10>
| 11> %pal
| 12>   nprocs 6
| 13>   end
| 14> * xyz 0 1
| 15>    C       -1.85198        -3.25322        -3.95676
| 16>    N       -0.75960        -3.08919        -4.63929
| 17>    O        0.00823        -2.20883        -3.98756
| 18>    C       -0.61532        -1.80169        -2.85452
| 19>    C        0.10123        -0.83711        -2.04775
| 20>    O       -0.27041        -0.35575        -1.00476
| 21>    C       -1.84873        -2.45428        -2.77550
| 22>    C       -2.89282        -2.39542        -1.80859
| 23>    C       -2.94374        -1.68207        -0.63156
| 24>    C       -4.14537        -1.89053         0.04464
| 25>    C       -5.02565        -2.76318        -0.61368
| 26>    S       -4.35164        -3.33817        -2.08823
| 27>    C       -6.22182        -2.94661         0.08242
| 28>    C       -6.24689        -2.21174         1.27825
| 29>    S       -4.79190        -1.28968         1.54479
| 30>    C       -7.42414        -2.36591         1.99963
| 31>    C       -8.31484        -3.21572         1.36346
| 32>    S       -7.68403        -3.83477        -0.15051
| 33>    C       -9.61226        -3.58555         1.81546
| 34>    C      -10.44516        -4.43493         1.05699
| 35>    C      -11.76505        -4.80306         1.47976
| 36>    N      -12.50494        -5.61273         0.69562
| 37>    C      -12.01901        -6.04864        -0.41976
| 38>    C      -10.70974        -5.68703        -0.83679
| 39>    N       -9.97260        -4.91071        -0.11269
| 40>    F      -10.20815        -6.13767        -1.98165
| 41>    F      -12.77830        -6.84481        -1.16474
| 42>    C      -12.33007        -4.35138         2.69109
| 43>    C      -11.49587        -3.51240         3.46774
| 44>    C      -10.16589        -3.13511         3.03755
| 45>    N       -9.57292        -2.33892         3.92873
| 46>    S      -10.56241        -2.09006         5.16439
| 47>    N      -11.79821        -2.97045         4.64863
| 48>    C      -13.64722        -4.72039         3.08277
| 49>    C      -14.30074        -4.35486         4.24883
| 50>    C      -15.58392        -4.88338         4.31347
| 51>    C      -15.92819        -5.65775         3.19421
| 52>    S      -14.63653        -5.73540         2.05105
| 53>    C      -17.22358        -6.16845         3.29592
| 54>    C      -17.86196        -5.78934         4.48697
| 55>    S      -16.86011        -4.78620         5.49671
| 56>    C      -19.15732        -6.28873         4.61848
| 57>    C      -19.52135        -7.05011         3.52982
| 58>    S      -18.24520        -7.15319         2.32326
| 59>    C      -20.74873        -7.72878         3.28203
| 60>    C      -21.90747        -7.86710         4.05114
| 61>    O      -22.79216        -8.62138         3.35353
| 62>    N      -22.26237        -8.97380         2.17693
| 63>    C      -21.06859        -8.46821         2.10555
| 64>    C      -22.34691        -7.41737         5.35493
| 65>    O      -21.72126        -6.73121         6.12670
| 66>    H       -2.61796        -3.92157        -4.29620
| 67>    H        1.07141        -0.56715        -2.50044
| 68>    H       -2.14608        -1.04656        -0.29320
| 69>    H       -7.64311        -1.89283         2.93778
| 70>    H      -13.84650        -3.73570         4.99863
| 71>    H      -19.80528        -6.11333         5.45749
| 72>    H      -20.45553        -8.62485         1.24095
| 73>    H      -23.36198        -7.78194         5.59133
| 74> *
| 75>
| 76>                          ****END OF INPUT****

CARTESIAN COORDINATES (ANGSTROEM)
---------------------------------
  C     -1.851980   -3.253220   -3.956760
  N     -0.759600   -3.089190   -4.639290
  O      0.008230   -2.208830   -3.987560
  C     -0.615320   -1.801690   -2.854520
  C      0.101230   -0.837110   -2.047750
  O     -0.270410   -0.355750   -1.004760
  C     -1.848730   -2.454280   -2.775500
  C     -2.892820   -2.395420   -1.808590
  C     -2.943740   -1.682070   -0.631560
  C     -4.145370   -1.890530    0.044640
  C     -5.025650   -2.763180   -0.613680
  S     -4.351640   -3.338170   -2.088230
  C     -6.221820   -2.946610    0.082420
  C     -6.246890   -2.211740    1.278250
  S     -4.791900   -1.289680    1.544790
  C     -7.424140   -2.365910    1.999630
  C     -8.314840   -3.215720    1.363460
  S     -7.684030   -3.834770   -0.150510
  C     -9.612260   -3.585550    1.815460
  C    -10.445160   -4.434930    1.056990
  C    -11.765050   -4.803060    1.479760
  N    -12.504940   -5.612730    0.695620
  C    -12.019010   -6.048640   -0.419760
  C    -10.709740   -5.687030   -0.836790
  N     -9.972600   -4.910710   -0.112690
  F    -10.208150   -6.137670   -1.981650
  F    -12.778300   -6.844810   -1.164740
  C    -12.330070   -4.351380    2.691090
  C    -11.495870   -3.512400    3.467740
  C    -10.165890   -3.135110    3.037550
  N     -9.572920   -2.338920    3.928730
  S    -10.562410   -2.090060    5.164390
  N    -11.798210   -2.970450    4.648630
  C    -13.647220   -4.720390    3.082770
  C    -14.300740   -4.354860    4.248830
  C    -15.583920   -4.883380    4.313470
  C    -15.928190   -5.657750    3.194210
  S    -14.636530   -5.735400    2.051050
  C    -17.223580   -6.168450    3.295920
  C    -17.861960   -5.789340    4.486970
  S    -16.860110   -4.786200    5.496710
  C    -19.157320   -6.288730    4.618480
  C    -19.521350   -7.050110    3.529820
  S    -18.245200   -7.153190    2.323260
  C    -20.748730   -7.728780    3.282030
  C    -21.907470   -7.867100    4.051140
  O    -22.792160   -8.621380    3.353530
  N    -22.262370   -8.973800    2.176930
  C    -21.068590   -8.468210    2.105550
  C    -22.346910   -7.417370    5.354930
  O    -21.721260   -6.731210    6.126700
  H     -2.617960   -3.921570   -4.296200
  H      1.071410   -0.567150   -2.500440
  H     -2.146080   -1.046560   -0.293200
  H     -7.643110   -1.892830    2.937780
  H    -13.846500   -3.735700    4.998630
  H    -19.805280   -6.113330    5.457490
  H    -20.455530   -8.624850    1.240950
  H    -23.361980   -7.781940    5.591330

 Total Charge           Charge          ....    0
 Multiplicity           Mult            ....    1
 Number of Electrons    NEL             ....  404
 Basis Dimension        Dim             ....  782

ORBITAL ENERGIES
----------------

  NO   OCC          E(Eh)            E(eV)
   0   2.0000     -89.044738     -2423.0305
   1   2.0000     -88.967524     -2420.9294
   2   2.0000     -88.967157     -2420.9194
   3   2.0000     -88.958825     -2420.6927
   4   2.0000     -88.958453     -2420.6826
   5   2.0000     -88.958305     -2420.6785
   6   2.0000     -88.957913     -2420.6679
   7   2.0000     -24.820998      -675.4137
   8   2.0000     -24.820868      -675.4101
   9   2.0000     -19.324977      -525.8594
  10   2.0000     -19.324917      -525.8577
  11   2.0000     -19.230155      -523.2791
  12   2.0000     -19.230090      -523.2774
  13   2.0000     -14.476128      -393.9155
  14   2.0000     -14.476087      -393.9143
  15   2.0000     -14.461381      -393.5142
  16   2.0000     -14.461225      -393.5099
  17   2.0000     -14.454170      -393.3180
  18   2.0000     -14.454103      -393.3162
  19   2.0000     -10.437199      -284.0106
  20   2.0000     -10.436917      -284.0029
  21   2.0000     -10.376074      -282.3473
  22   2.0000     -10.376057      -282.3469
  23   2.0000     -10.347786      -281.5776
  24   2.0000     -10.347741      -281.5764
  25   2.0000     -10.347258      -281.5632
  26   2.0000     -10.346978      -281.5556
  27   2.0000     -10.343416      -281.4587
  28   2.0000     -10.343168      -281.4519
  29   2.0000     -10.319976      -280.8208
  30   2.0000     -10.319931      -280.8196
  31   2.0000     -10.318440      -280.7790
  32   2.0000     -10.318423      -280.7786
  33   2.0000     -10.317428      -280.7515
  34   2.0000     -10.317317      -280.7485
  35   2.0000     -10.317076      -280.7419
  36   2.0000     -10.316915      -280.7375
  37   2.0000     -10.312847      -280.6268
  38   2.0000     -10.312695      -280.6227
  39   2.0000     -10.311870      -280.6002
  40   2.0000     -10.311701      -280.5956
  41   2.0000     -10.305281      -280.4209
  42   2.0000     -10.305117      -280.4165
  43   2.0000     -10.302416      -280.3430
  44   2.0000     -10.302267      -280.3389
  45   2.0000     -10.302037      -280.3327
  46   2.0000     -10.301886      -280.3286
  47   2.0000     -10.285596      -279.8853
  48   2.0000     -10.285533      -279.8836
  49   2.0000     -10.283002      -279.8147
  50   2.0000     -10.282896      -279.8118
  51   2.0000      -8.136121      -221.3951
  52   2.0000      -8.062539      -219.3928
  53   2.0000      -8.062347      -219.3876
  54   2.0000      -8.053332      -219.1423
  55   2.0000      -8.053117      -219.1365
  56   2.0000      -8.052181      -219.1110
  57   2.0000      -8.051985      -219.1057
  58   2.0000      -6.107279      -166.1875
  59   2.0000      -6.099324      -165.9711
  60   2.0000      -6.098893      -165.9593
  61   2.0000      -6.032104      -164.1419
  62   2.0000      -6.031899      -164.1363
  63   2.0000      -6.028036      -164.0312
  64   2.0000      -6.027849      -164.0261
  65   2.0000      -6.024157      -163.9257
  66   2.0000      -6.023904      -163.9188
  67   2.0000      -6.023068      -163.8960
  68   2.0000      -6.022840      -163.8898
  69   2.0000      -6.022011      -163.8673
  70   2.0000      -6.021811      -163.8618
  71   2.0000      -6.019207      -163.7909
  72   2.0000      -6.018999      -163.7853
  73   2.0000      -6.017404      -163.7419
  74   2.0000      -6.017204      -163.7364
  75   2.0000      -6.014368      -163.6593
  76   2.0000      -6.014091      -163.6517
  77   2.0000      -6.013792      -163.6436
  78   2.0000      -6.013537      -163.6366
  79   2.0000      -1.349670       -36.7264
  80   2.0000      -1.335612       -36.3438
  81   2.0000      -1.266459       -34.4621
  82   2.0000      -1.266429       -34.4613
  83   2.0000      -1.142699       -31.0944
  84   2.0000      -1.142110       -31.0784
  85   2.0000      -1.142048       -31.0767
  86   2.0000      -1.120782       -30.4980
  87   2.0000      -1.047664       -28.5084
  88   2.0000      -1.019958       -27.7545
  89   2.0000      -1.019465       -27.7411
  90   2.0000      -0.998564       -27.1723
  91   2.0000      -0.990164       -26.9437
  92   2.0000      -0.981868       -26.7180
  93   2.0000      -0.975039       -26.5322
  94   2.0000      -0.971063       -26.4240
  95   2.0000      -0.966141       -26.2900
  96   2.0000      -0.937868       -25.5207
  97   2.0000      -0.931802       -25.3556
  98   2.0000      -0.910271       -24.7697
  99   2.0000      -0.906985       -24.6803
 100   2.0000      -0.889030       -24.1917
 101   2.0000      -0.886604       -24.1257
 102   2.0000      -0.862517       -23.4703
 103   2.0000      -0.854382       -23.2489
 104   2.0000      -0.835906       -22.7462
 105   2.0000      -0.835809       -22.7435
 106   2.0000      -0.821580       -22.3563
 107   2.0000      -0.809581       -22.0298
 108   2.0000      -0.803510       -21.8646
 109   2.0000      -0.795720       -21.6526
 110   2.0000      -0.785299       -21.3691
 111   2.0000      -0.774792       -21.0832
 112   2.0000      -0.772233       -21.0135
 113   2.0000      -0.753811       -20.5122
 114   2.0000      -0.752213       -20.4688
 115   2.0000      -0.735875       -20.0242
 116   2.0000      -0.721406       -19.6305
 117   2.0000      -0.711087       -19.3497
 118   2.0000      -0.703426       -19.1412
 119   2.0000      -0.691819       -18.8254
 120   2.0000      -0.689631       -18.7658
 121   2.0000      -0.680749       -18.5241
 122   2.0000      -0.670647       -18.2492
 123   2.0000      -0.665356       -18.1052
 124   2.0000      -0.645741       -17.5715
 125   2.0000      -0.645304       -17.5596
 126   2.0000      -0.639945       -17.4138
 127   2.0000      -0.637604       -17.3501
 128   2.0000      -0.629456       -17.1284
 129   2.0000      -0.626807       -17.0563
 130   2.0000      -0.624503       -16.9936
 131   2.0000      -0.618031       -16.8175
 132   2.0000      -0.615887       -16.7591
 133   2.0000      -0.612489       -16.6667
 134   2.0000      -0.609023       -16.5723
 135   2.0000      -0.589388       -16.0381
 136   2.0000      -0.588048       -16.0016
 137   2.0000      -0.588018       -16.0008
 138   2.0000      -0.576538       -15.6884
 139   2.0000      -0.570464       -15.5231
 140   2.0000      -0.568655       -15.4739
 141   2.0000      -0.566223       -15.4077
 142   2.0000      -0.561525       -15.2799
 143   2.0000      -0.551769       -15.0144
 144   2.0000      -0.547410       -14.8958
 145   2.0000      -0.540338       -14.7034
 146   2.0000      -0.536197       -14.5907
 147   2.0000      -0.531790       -14.4707
 148   2.0000      -0.530562       -14.4373
 149   2.0000      -0.528345       -14.3770
 150   2.0000      -0.527388       -14.3510
 151   2.0000      -0.525937       -14.3115
 152   2.0000      -0.519565       -14.1381
 153   2.0000      -0.518869       -14.1191
 154   2.0000      -0.517270       -14.0756
 155   2.0000      -0.515399       -14.0247
 156   2.0000      -0.500238       -13.6122
 157   2.0000      -0.498941       -13.5769
 158   2.0000      -0.491525       -13.3751
 159   2.0000      -0.489790       -13.3279
 160   2.0000      -0.489331       -13.3154
 161   2.0000      -0.488795       -13.3008
 162   2.0000      -0.485419       -13.2089
 163   2.0000      -0.484232       -13.1766
 164   2.0000      -0.476776       -12.9737
 165   2.0000      -0.475781       -12.9467
 166   2.0000      -0.471353       -12.8262
 167   2.0000      -0.463647       -12.6165
 168   2.0000      -0.461896       -12.5688
 169   2.0000      -0.454551       -12.3690
 170   2.0000      -0.451910       -12.2971
 171   2.0000      -0.450351       -12.2547
 172   2.0000      -0.443081       -12.0569
 173   2.0000      -0.437717       -11.9109
 174   2.0000      -0.435509       -11.8508
 175   2.0000      -0.426495       -11.6055
 176   2.0000      -0.417571       -11.3627
 177   2.0000      -0.416406       -11.3310
 178   2.0000      -0.410480       -11.1697
 179   2.0000      -0.409271       -11.1368
 180   2.0000      -0.407280       -11.0827
 181   2.0000      -0.389261       -10.5923
 182   2.0000      -0.389255       -10.5922
 183   2.0000      -0.388678       -10.5765
 184   2.0000      -0.388636       -10.5753
 185   2.0000      -0.380694       -10.3592
 186   2.0000      -0.377055       -10.2602
 187   2.0000      -0.372856       -10.1459
 188   2.0000      -0.370750       -10.0886
 189   2.0000      -0.357677        -9.7329
 190   2.0000      -0.353176        -9.6104
 191   2.0000      -0.350432        -9.5357
 192   2.0000      -0.350365        -9.5339
 193   2.0000      -0.346552        -9.4302
 194   2.0000      -0.336951        -9.1689
 195   2.0000      -0.333562        -9.0767
 196   2.0000      -0.333301        -9.0696
 197   2.0000      -0.303061        -8.2467
 198   2.0000      -0.284807        -7.7500
 199   2.0000      -0.284027        -7.7288
 200   2.0000      -0.267572        -7.2810
 201   2.0000      -0.232497        -6.3266
 202   0.0000      -0.116323        -3.1653
 203   0.0000      -0.060269        -1.6400
 204   0.0000      -0.059667        -1.6236
 205   0.0000      -0.028669        -0.7801
 206   0.0000      -0.018982        -0.5165

MULLIKEN ATOMIC CHARGES
-----------------------
   0 C :   -0.009107
   1 N :    0.045203
   2 O :   -0.171601
   3 C :    0.051911
   4 C :    0.160492
   5 O :   -0.168921
   6 C :    0.014806
   7 C :   -0.054595
   8 C :   -0.051377
   9 C :   -0.024805
  10 C :   -0.075851
  11 S :    0.133275
  12 C :   -0.040788
  13 C :   -0.012046
  14 S :    0.160984
  15 C :   -0.049438
  16 C :   -0.172025
  17 S :    0.163063
  18 C :    0.187802
  19 C :   -0.059307
  20 C :   -0.062817
  21 N :   -0.039692
  22 C :    0.146471
  23 C :    0.146588
  24 N :   -0.036301
  25 F :   -0.135133
  26 F :   -0.136253
  27 C :    0.190162
  28 C :   -0.011159
  29 C :   -0.019315
  30 N :   -0.294501
  31 S :    0.547064
  32 N :   -0.296907
  33 C :   -0.173440
  34 C :   -0.053843
  35 C :   -0.010981
  36 C :   -0.041046
  37 S :    0.164081
  38 C :   -0.075585
  39 C :   -0.025245
  40 S :    0.161335
  41 C :   -0.050222
  42 C :   -0.058639
  43 S :    0.133361
  44 C :    0.017176
  45 C :    0.050940
  46 O :   -0.171481
  47 N :    0.045125
  48 C :   -0.008764
  49 C :    0.162360
  50 O :   -0.169847
  51 H :    0.028685
  52 H :    0.009848
  53 H :    0.003666
  54 H :   -0.003431
  55 H :   -0.002374
  56 H :    0.004072
  57 H :    0.028441
  58 H :    0.009925
Sum of atomic charges:   -0.0000000

LOEWDIN ATOMIC CHARGES
----------------------
   0 C :   -0.030484
   1 N :   -0.000498
   2 O :    0.031887
   3 C :   -0.029435
   4 C :    0.099022
   5 O :   -0.124680
   6 C :   -0.058292
   7 C :   -0.169268
   8 C :   -0.040931
   9 C :   -0.190652
  10 C :   -0.210619
  11 S :    0.423349
  12 C :   -0.219051
  13 C :   -0.191399
  14 S :    0.408335
  15 C :   -0.047541
  16 C :   -0.162542
  17 S :    0.456581
  18 C :   -0.042335
  19 C :   -0.016916
  20 C :   -0.016960
  21 N :   -0.051335
  22 C :    0.062127
  23 C :    0.061844
  24 N :   -0.051136
  25 F :   -0.024901
  26 F :   -0.025075
  27 C :   -0.042218
  28 C :   -0.037253
  29 C :   -0.037459
  30 N :   -0.278584
  31 S :    0.670924
  32 N :   -0.279027
  33 C :   -0.162653
  34 C :   -0.047808
  35 C :   -0.191385
  36 C :   -0.219012
  37 S :    0.456736
  38 C :   -0.210770
  39 C :   -0.190794
  40 S :    0.408588
  41 C :   -0.040938
  42 C :   -0.169238
  43 S :    0.423496
  44 C :   -0.058219
  45 C :   -0.029580
  46 O :    0.031991
  47 N :   -0.000563
  48 C :   -0.030333
  49 C :    0.099274
  50 O :   -0.124857
  51 H :    0.032050
  52 H :    0.011614
  53 H :    0.034906
  54 H :    0.031727
  55 H :    0.031839
  56 H :    0.034885
  57 H :    0.031909
  58 H :    0.011658

  Mayer bond orders larger than 0.100000
B(  0-C ,  1-N ) :   1.7307 B(  0-C ,  6-C ) :   1.1928 B(  0-C , 51-H ) :   0.9836
B(  1-N ,  2-O ) :   1.0504 B(  2-O ,  3-C ) :   1.1072 B(  3-C ,  4-C ) :   1.0290
B(  3-C ,  6-C ) :   1.4533 B(  4-C ,  5-O ) :   2.1174 B(  4-C , 52-H ) :   0.9470
B(  6-C ,  7-C ) :   1.1253 B(  7-C ,  8-C ) :   1.5273 B(  7-C , 11-S ) :   1.0774
B(  8-C ,  9-C ) :   1.2450 B(  8-C , 53-H ) :   0.9831 B(  9-C , 10-C ) :   1.4444
B(  9-C , 14-S ) :   1.0528 B( 10-C , 11-S ) :   1.0755 B( 10-C , 12-C ) :   1.3106
B( 12-C , 13-C ) :   1.4329 B( 12-C , 17-S ) :   1.0306 B( 13-C , 14-S ) :   1.0444
B( 13-C , 15-C ) :   1.2607 B( 15-C , 16-C ) :   1.4764 B( 15-C , 54-H ) :   0.9869
B( 16-C , 17-S ) :   1.0813 B( 16-C , 18-C ) :   1.1947 B( 18-C , 19-C ) :   1.2983
B( 18-C , 27-C ) :   0.1263 B( 18-C , 29-C ) :   1.1956 B( 19-C , 20-C ) :   1.1152
B( 19-C , 24-N ) :   1.3779 B( 20-C , 21-N ) :   1.3805 B( 20-C , 27-C ) :   1.2976
B( 21-N , 22-C ) :   1.6599 B( 22-C , 23-C ) :   1.1045 B( 22-C , 26-F ) :   1.1845
B( 23-C , 24-N ) :   1.6617 B( 23-C , 25-F ) :   1.1866 B( 27-C , 28-C ) :   1.1949
B( 27-C , 33-C ) :   1.1940 B( 28-C , 29-C ) :   1.1021 B( 28-C , 32-N ) :   1.5066
B( 29-C , 30-N ) :   1.5093 B( 30-N , 31-S ) :   1.2783 B( 30-N , 32-N ) :   0.1513
B( 31-S , 32-N ) :   1.2778 B( 33-C , 34-C ) :   1.4766 B( 33-C , 37-S ) :   1.0812
B( 34-C , 35-C ) :   1.2611 B( 34-C , 55-H ) :   0.9870 B( 35-C , 36-C ) :   1.4315
B( 35-C , 40-S ) :   1.0452 B( 36-C , 37-S ) :   1.0314 B( 36-C , 38-C ) :   1.3113
B( 38-C , 39-C ) :   1.4430 B( 38-C , 43-S ) :   1.0755 B( 39-C , 40-S ) :   1.0527
B( 39-C , 41-C ) :   1.2454 B( 41-C , 42-C ) :   1.5278 B( 41-C , 56-H ) :   0.9826
B( 42-C , 43-S ) :   1.0784 B( 42-C , 44-C ) :   1.1250 B( 44-C , 45-C ) :   1.4515
B( 44-C , 48-C ) :   1.1946 B( 45-C , 46-O ) :   1.1080 B( 45-C , 49-C ) :   1.0292
B( 46-O , 47-N ) :   1.0510 B( 47-N , 48-C ) :   1.7306 B( 48-C , 57-H ) :   0.9829
B( 49-C , 50-O ) :   2.1160 B( 49-C , 58-H ) :   0.9468

-----------------------------------------------------------------------------
         ABSORPTION SPECTRUM VIA TRANSITION ELECTRIC DIPOLE MOMENTS
-----------------------------------------------------------------------------
State   Energy  Wavelength   fosc         T2         TX        TY        TZ
        (cm-1)    (nm)                  (au**2)     (au)      (au)      (au)
-----------------------------------------------------------------------------
   0   10179.3    982.4   0.801040214  25.90670  -4.67616  -1.32497   1.51152
   1   18700.7    534.7   0.002277956   0.04010   0.04597   0.04953   0.18851
   2   20627.7    484.8   0.013893482   0.22174  -0.42493  -0.12842   0.15709
   3   20882.4    478.9   0.018048348   0.28453   0.07397   0.28997   0.44157
   4   23576.2    424.2   1.667446003  23.28382   4.42189   1.27719  -1.44897
   5   24467.7    408.7   0.018550019   0.24959  -0.08666  -0.20045  -0.44933
   6   25692.1    389.2   0.002625627   0.03364  -0.16979  -0.04401   0.05365
   7   26644.7    375.3   0.065798447   0.81298   0.82863   0.23245  -0.26892
   8   29989.7    333.4   0.001646348   0.01807  -0.08476  -0.04275  -0.09519
   9   30165.9    331.5   0.108972585   1.18926   0.11948   0.59028   0.90915
  10   30842.7    324.2   0.103847416   1.10846  -0.96888  -0.26174   0.31815
  11   30957.2    323.0   0.023927363   0.25445   0.07626   0.29112   0.40483
  12   31229.7    320.2   0.054571193   0.57527  -0.71386  -0.15370   0.20504
  13   32101.2    311.5   0.010267106   0.10529   0.02517   0.17845   0.26984
  14   32257.7    310.0   0.058517872   0.59721  -0.70844  -0.20748   0.22865
  15   32661.4    306.2   0.010272763   0.10354  -0.02798  -0.16711  -0.27356
  16   32743.4    305.4   0.070667346   0.71051   0.10345   0.44830   0.70629
  17   34009.9    294.0   0.005740679   0.05557  -0.00299   0.13368   0.19414
  18   34086.1    293.4   0.363291727   3.50876  -1.71334  -0.50483   0.56423
  19   34616.0    288.9   0.094252767   0.89638   0.10413   0.54723   0.76556
  20   35659.8    280.4   0.000088242   0.00081  -0.02096  -0.01533  -0.01185
  21   36134.4    276.7   0.003708243   0.03378  -0.02318  -0.08770  -0.15986
  22   36523.4    273.8   0.002432419   0.02193   0.14240   0.02089  -0.03479
  23   37313.2    268.0   0.723662918   6.38483   0.29387   1.35349   2.11342
  24   39106.4    255.7   0.039706101   0.33426  -0.53326  -0.14751   0.16774
  25   39420.5    253.7   0.000617398   0.00516  -0.00065   0.02504   0.06730
  26   40279.8    248.3   0.000725678   0.00593   0.05084   0.00530  -0.05761

FINAL SINGLE POINT ENERGY     -4837.210851913494

DIPOLE MOMENT
-------------
                                X             Y             Z
Electronic contribution:     -0.67480      -4.98076      -6.45563
Nuclear contribution   :      0.75126       5.27304       6.95753
                        -----------------------------------------
Total Dipole Moment    :      0.07647       0.29228       0.50189
                        -----------------------------------------
Magnitude (a.u.)       :      0.58581
Magnitude (Debye)      :      1.48901

Rotational constants in cm-1:     0.004950     0.000406     0.000375
Rotational constants in MHz :   148.392670    12.170198    11.251502

                             ****ORCA TERMINATED NORMALLY****
TOTAL RUN TIME: 0 days 0 hours 4 minutes 23 seconds 133 msec
