                         Program Version 4.2.0 -  RELEASE  -
|  1> # ORCA input file
|  2> # SCF done       -156.591492220738          0.000998114473
|  3> ! CAM-B3LYP def2-SVP def2/J RIJCOSX Grid4 TightSCF
|  4> %maxcore 5000
|  5> %tddft
|  6>     Mode sTDDFT
|  7>     Ethresh 5.0
|  8>     maxcore 5000
|  9> end
| 10>
| 11> %pal
| 12>   nprocs 6
| 13>   end
| 14> * xyz 0 1
| 15>    C        1.00555        -1.55320         1.71006
| 16>    C        0.06751        -1.26491         0.79226
| 17>    C       -0.92319        -0.31327         1.21074
| 18>    S       -0.60291         0.21070         2.85085
| 19>    C        0.86196        -0.85544         2.97485
| 20>    O        1.53299        -0.91067         3.96432
| 21>    C       -1.95260         0.08713         0.41128
| 22>    C       -2.98519         1.00333         0.69953
| 23>    C       -3.23173         1.76706         1.83417
| 24>    C       -4.37820         2.54146         1.70641
| 25>    C       -5.02319         2.37571         0.46098
| 26>    S       -4.20659         1.26916        -0.54593
| 27>    C       -6.17649         3.18554         0.43725
| 28>    C       -6.27480         3.87230         1.66754
| 29>    C       -5.12657         3.51444         2.48895
| 30>    C       -4.78967         4.02787         3.70468
| 31>    C       -5.51944         5.06774         4.32402
| 32>    N       -6.06339         5.94068         4.82873
| 33>    C       -3.64392         3.59886         4.41117
| 34>    N       -2.71836         3.25573         4.99357
| 35>    C       -7.41358         4.65992         1.76372
| 36>    C       -8.18148         4.59574         0.60487
| 37>    S       -7.47242         3.54350        -0.61566
| 38>    C       -9.40325         5.25036         0.37291
| 39>    C      -10.16680         5.97003         1.30511
| 40>    C      -11.37504         6.51184         0.74462
| 41>    N      -12.17917         7.29152         1.47054
| 42>    C      -11.85284         7.48324         2.72927
| 43>    C      -12.69406         8.42751         3.51106
| 44>    O      -13.56487         9.09786         3.00179
| 45>    C      -12.36130         8.51125         4.94456
| 46>    C      -11.35206         7.84315         5.51251
| 47>    C      -10.46120         6.92529         4.77906
| 48>    O       -9.60587         6.26750         5.32865
| 49>    C      -10.72087         6.83820         3.31787
| 50>    N       -9.88478         6.12032         2.60086
| 51>    C      -11.55570         6.17472        -0.60532
| 52>    S      -10.20715         5.23592        -1.16650
| 53>    C      -12.65455         6.50795        -1.41628
| 54>    C      -13.84927         7.07786        -0.98760
| 55>    C      -14.73768         7.25467        -2.03891
| 56>    C      -14.21521         6.84458        -3.28511
| 57>    S      -12.63819         6.20277        -3.14961
| 58>    C      -15.17652         7.09959        -4.28617
| 59>    C      -16.31759         7.66609        -3.67954
| 60>    C      -16.09099         7.74899        -2.24503
| 61>    C      -16.99150         8.12682        -1.29406
| 62>    C      -18.29051         8.55563        -1.64193
| 63>    N      -19.34230         8.90042        -1.94183
| 64>    C      -16.72718         8.04845         0.09143
| 65>    N      -16.55758         7.94729         1.22003
| 66>    C      -17.32904         7.96027        -4.58635
| 67>    C      -16.98746         7.62472        -5.88966
| 68>    S      -15.36029         6.94122        -5.97352
| 69>    C      -17.68243         7.75660        -7.11314
| 70>    C      -18.98681         8.07959        -7.34260
| 71>    S      -19.54794         8.25576        -9.00206
| 72>    C      -21.22921         8.65203        -8.46460
| 73>    O      -22.11409         8.90104        -9.23247
| 74>    C      -21.24775         8.59273        -7.01336
| 75>    C      -20.07301         8.29448        -6.43142
| 76>    H        1.82486        -2.23829         1.58349
| 77>    H        0.02597        -1.69337        -0.19484
| 78>    H       -1.99275        -0.35842        -0.57588
| 79>    H       -2.59730         1.74534         2.70035
| 80>    H       -7.71456         5.24909         2.61153
| 81>    H      -12.99517         9.17097         5.52164
| 82>    H      -11.13908         7.93664         6.56889
| 83>    H      -14.01526         7.34178         0.04149
| 84>    H      -18.25298         8.43329        -4.31630
| 85>    H      -17.08263         7.56514        -7.99452
| 86>    H      -22.17285         8.77907        -6.49668
| 87>    H      -19.95127         8.19169        -5.36878
| 88> *
| 89>
| 90>                          ****END OF INPUT****

CARTESIAN COORDINATES (ANGSTROEM)
---------------------------------
  C      1.005550   -1.553200    1.710060
  C      0.067510   -1.264910    0.792260
  C     -0.923190   -0.313270    1.210740
  S     -0.602910    0.210700    2.850850
  C      0.861960   -0.855440    2.974850
  O      1.532990   -0.910670    3.964320
  C     -1.952600    0.087130    0.411280
  C     -2.985190    1.003330    0.699530
  C     -3.231730    1.767060    1.834170
  C     -4.378200    2.541460    1.706410
  C     -5.023190    2.375710    0.460980
  S     -4.206590    1.269160   -0.545930
  C     -6.176490    3.185540    0.437250
  C     -6.274800    3.872300    1.667540
  C     -5.126570    3.514440    2.488950
  C     -4.789670    4.027870    3.704680
  C     -5.519440    5.067740    4.324020
  N     -6.063390    5.940680    4.828730
  C     -3.643920    3.598860    4.411170
  N     -2.718360    3.255730    4.993570
  C     -7.413580    4.659920    1.763720
  C     -8.181480    4.595740    0.604870
  S     -7.472420    3.543500   -0.615660
  C     -9.403250    5.250360    0.372910
  C    -10.166800    5.970030    1.305110
  C    -11.375040    6.511840    0.744620
  N    -12.179170    7.291520    1.470540
  C    -11.852840    7.483240    2.729270
  C    -12.694060    8.427510    3.511060
  O    -13.564870    9.097860    3.001790
  C    -12.361300    8.511250    4.944560
  C    -11.352060    7.843150    5.512510
  C    -10.461200    6.925290    4.779060
  O     -9.605870    6.267500    5.328650
  C    -10.720870    6.838200    3.317870
  N     -9.884780    6.120320    2.600860
  C    -11.555700    6.174720   -0.605320
  S    -10.207150    5.235920   -1.166500
  C    -12.654550    6.507950   -1.416280
  C    -13.849270    7.077860   -0.987600
  C    -14.737680    7.254670   -2.038910
  C    -14.215210    6.844580   -3.285110
  S    -12.638190    6.202770   -3.149610
  C    -15.176520    7.099590   -4.286170
  C    -16.317590    7.666090   -3.679540
  C    -16.090990    7.748990   -2.245030
  C    -16.991500    8.126820   -1.294060
  C    -18.290510    8.555630   -1.641930
  N    -19.342300    8.900420   -1.941830
  C    -16.727180    8.048450    0.091430
  N    -16.557580    7.947290    1.220030
  C    -17.329040    7.960270   -4.586350
  C    -16.987460    7.624720   -5.889660
  S    -15.360290    6.941220   -5.973520
  C    -17.682430    7.756600   -7.113140
  C    -18.986810    8.079590   -7.342600
  S    -19.547940    8.255760   -9.002060
  C    -21.229210    8.652030   -8.464600
  O    -22.114090    8.901040   -9.232470
  C    -21.247750    8.592730   -7.013360
  C    -20.073010    8.294480   -6.431420
  H      1.824860   -2.238290    1.583490
  H      0.025970   -1.693370   -0.194840
  H     -1.992750   -0.358420   -0.575880
  H     -2.597300    1.745340    2.700350
  H     -7.714560    5.249090    2.611530
  H    -12.995170    9.170970    5.521640
  H    -11.139080    7.936640    6.568890
  H    -14.015260    7.341780    0.041490
  H    -18.252980    8.433290   -4.316300
  H    -17.082630    7.565140   -7.994520
  H    -22.172850    8.779070   -6.496680
  H    -19.951270    8.191690   -5.368780

 Total Charge           Charge          ....    0
 Multiplicity           Mult            ....    1
 Number of Electrons    NEL             ....  462
 Basis Dimension        Dim             ....  942

ORBITAL ENERGIES
----------------

  NO   OCC          E(Eh)            E(eV)
   0   2.0000     -89.007597     -2422.0199
   1   2.0000     -89.000429     -2421.8248
   2   2.0000     -88.998923     -2421.7838
   3   2.0000     -88.997468     -2421.7442
   4   2.0000     -88.995489     -2421.6904
   5   2.0000     -88.939911     -2420.1780
   6   2.0000     -88.935428     -2420.0560
   7   2.0000     -19.228720      -523.2401
   8   2.0000     -19.228384      -523.2309
   9   2.0000     -19.214743      -522.8597
  10   2.0000     -19.212134      -522.7888
  11   2.0000     -14.454558      -393.3285
  12   2.0000     -14.454421      -393.3248
  13   2.0000     -14.438281      -392.8856
  14   2.0000     -14.431885      -392.7116
  15   2.0000     -14.430941      -392.6859
  16   2.0000     -14.428372      -392.6160
  17   2.0000     -10.379125      -282.4304
  18   2.0000     -10.377604      -282.3890
  19   2.0000     -10.377454      -282.3849
  20   2.0000     -10.377161      -282.3769
  21   2.0000     -10.372161      -282.2408
  22   2.0000     -10.368862      -282.1511
  23   2.0000     -10.358060      -281.8571
  24   2.0000     -10.353780      -281.7407
  25   2.0000     -10.346014      -281.5294
  26   2.0000     -10.345669      -281.5200
  27   2.0000     -10.344601      -281.4909
  28   2.0000     -10.344266      -281.4818
  29   2.0000     -10.341997      -281.4201
  30   2.0000     -10.341762      -281.4137
  31   2.0000     -10.341551      -281.4079
  32   2.0000     -10.341280      -281.4005
  33   2.0000     -10.340245      -281.3724
  34   2.0000     -10.339962      -281.3647
  35   2.0000     -10.339136      -281.3422
  36   2.0000     -10.338505      -281.3250
  37   2.0000     -10.338047      -281.3125
  38   2.0000     -10.334459      -281.2149
  39   2.0000     -10.330823      -281.1160
  40   2.0000     -10.330597      -281.1098
  41   2.0000     -10.330209      -281.0993
  42   2.0000     -10.327085      -281.0143
  43   2.0000     -10.324481      -280.9434
  44   2.0000     -10.323071      -280.9051
  45   2.0000     -10.314919      -280.6832
  46   2.0000     -10.314599      -280.6745
  47   2.0000     -10.312767      -280.6247
  48   2.0000     -10.311800      -280.5983
  49   2.0000     -10.310756      -280.5699
  50   2.0000     -10.310577      -280.5651
  51   2.0000     -10.310397      -280.5602
  52   2.0000     -10.310190      -280.5545
  53   2.0000     -10.310119      -280.5526
  54   2.0000     -10.309504      -280.5359
  55   2.0000     -10.309420      -280.5336
  56   2.0000     -10.306831      -280.4631
  57   2.0000     -10.305610      -280.4299
  58   2.0000     -10.304488      -280.3994
  59   2.0000     -10.292963      -280.0858
  60   2.0000     -10.289688      -279.9967
  61   2.0000      -8.102477      -220.4796
  62   2.0000      -8.095245      -220.2828
  63   2.0000      -8.093730      -220.2416
  64   2.0000      -8.092294      -220.2025
  65   2.0000      -8.090294      -220.1481
  66   2.0000      -8.037205      -218.7035
  67   2.0000      -8.033471      -218.6019
  68   2.0000      -6.071569      -165.2158
  69   2.0000      -6.067454      -165.1038
  70   2.0000      -6.065059      -165.0386
  71   2.0000      -6.064559      -165.0250
  72   2.0000      -6.063037      -164.9836
  73   2.0000      -6.061455      -164.9406
  74   2.0000      -6.060390      -164.9116
  75   2.0000      -6.059482      -164.8869
  76   2.0000      -6.058908      -164.8713
  77   2.0000      -6.057453      -164.8317
  78   2.0000      -6.057369      -164.8294
  79   2.0000      -6.055921      -164.7900
  80   2.0000      -6.055412      -164.7761
  81   2.0000      -6.054705      -164.7569
  82   2.0000      -6.052672      -164.7016
  83   2.0000      -6.006603      -163.4480
  84   2.0000      -6.002833      -163.3454
  85   2.0000      -6.002822      -163.3451
  86   2.0000      -5.999286      -163.2489
  87   2.0000      -5.998204      -163.2194
  88   2.0000      -5.994209      -163.1107
  89   2.0000      -1.146359       -31.1940
  90   2.0000      -1.141519       -31.0623
  91   2.0000      -1.136659       -30.9301
  92   2.0000      -1.134304       -30.8660
  93   2.0000      -1.106356       -30.1055
  94   2.0000      -1.052798       -28.6481
  95   2.0000      -1.050272       -28.5793
  96   2.0000      -1.033212       -28.1151
  97   2.0000      -1.028140       -27.9771
  98   2.0000      -1.023380       -27.8476
  99   2.0000      -1.020077       -27.7577
 100   2.0000      -1.011734       -27.5307
 101   2.0000      -1.007074       -27.4039
 102   2.0000      -1.005556       -27.3626
 103   2.0000      -0.997393       -27.1404
 104   2.0000      -0.979033       -26.6409
 105   2.0000      -0.977359       -26.5953
 106   2.0000      -0.964753       -26.2523
 107   2.0000      -0.960534       -26.1375
 108   2.0000      -0.941443       -25.6180
 109   2.0000      -0.926983       -25.2245
 110   2.0000      -0.919519       -25.0214
 111   2.0000      -0.892836       -24.2953
 112   2.0000      -0.886006       -24.1094
 113   2.0000      -0.882907       -24.0251
 114   2.0000      -0.879103       -23.9216
 115   2.0000      -0.871717       -23.7206
 116   2.0000      -0.863681       -23.5019
 117   2.0000      -0.861133       -23.4326
 118   2.0000      -0.856733       -23.3129
 119   2.0000      -0.837070       -22.7778
 120   2.0000      -0.835307       -22.7298
 121   2.0000      -0.812871       -22.1193
 122   2.0000      -0.805037       -21.9062
 123   2.0000      -0.797749       -21.7078
 124   2.0000      -0.790460       -21.5095
 125   2.0000      -0.785206       -21.3666
 126   2.0000      -0.779804       -21.2196
 127   2.0000      -0.767154       -20.8753
 128   2.0000      -0.756465       -20.5845
 129   2.0000      -0.738670       -20.1002
 130   2.0000      -0.723683       -19.6924
 131   2.0000      -0.706705       -19.2304
 132   2.0000      -0.701202       -19.0807
 133   2.0000      -0.693888       -18.8816
 134   2.0000      -0.692018       -18.8308
 135   2.0000      -0.684044       -18.6138
 136   2.0000      -0.683360       -18.5952
 137   2.0000      -0.673090       -18.3157
 138   2.0000      -0.666702       -18.1419
 139   2.0000      -0.664669       -18.0866
 140   2.0000      -0.647467       -17.6185
 141   2.0000      -0.640872       -17.4390
 142   2.0000      -0.638334       -17.3700
 143   2.0000      -0.635224       -17.2853
 144   2.0000      -0.629850       -17.1391
 145   2.0000      -0.627745       -17.0818
 146   2.0000      -0.624912       -17.0047
 147   2.0000      -0.616276       -16.7697
 148   2.0000      -0.613886       -16.7047
 149   2.0000      -0.606540       -16.5048
 150   2.0000      -0.601479       -16.3671
 151   2.0000      -0.589464       -16.0401
 152   2.0000      -0.585678       -15.9371
 153   2.0000      -0.573932       -15.6175
 154   2.0000      -0.571677       -15.5561
 155   2.0000      -0.567576       -15.4445
 156   2.0000      -0.561828       -15.2881
 157   2.0000      -0.561178       -15.2704
 158   2.0000      -0.554262       -15.0822
 159   2.0000      -0.551939       -15.0190
 160   2.0000      -0.546288       -14.8652
 161   2.0000      -0.545955       -14.8562
 162   2.0000      -0.543685       -14.7944
 163   2.0000      -0.529874       -14.4186
 164   2.0000      -0.528183       -14.3726
 165   2.0000      -0.527188       -14.3455
 166   2.0000      -0.521467       -14.1898
 167   2.0000      -0.516227       -14.0472
 168   2.0000      -0.514868       -14.0103
 169   2.0000      -0.514420       -13.9981
 170   2.0000      -0.511715       -13.9245
 171   2.0000      -0.509838       -13.8734
 172   2.0000      -0.509277       -13.8581
 173   2.0000      -0.508114       -13.8265
 174   2.0000      -0.506024       -13.7696
 175   2.0000      -0.504734       -13.7345
 176   2.0000      -0.501956       -13.6589
 177   2.0000      -0.501220       -13.6389
 178   2.0000      -0.499411       -13.5897
 179   2.0000      -0.495289       -13.4775
 180   2.0000      -0.494167       -13.4470
 181   2.0000      -0.493681       -13.4337
 182   2.0000      -0.489458       -13.3188
 183   2.0000      -0.485169       -13.2021
 184   2.0000      -0.479953       -13.0602
 185   2.0000      -0.478450       -13.0193
 186   2.0000      -0.472475       -12.8567
 187   2.0000      -0.471245       -12.8232
 188   2.0000      -0.467680       -12.7262
 189   2.0000      -0.463717       -12.6184
 190   2.0000      -0.460665       -12.5353
 191   2.0000      -0.460211       -12.5230
 192   2.0000      -0.458232       -12.4691
 193   2.0000      -0.457387       -12.4461
 194   2.0000      -0.456059       -12.4100
 195   2.0000      -0.451942       -12.2980
 196   2.0000      -0.448246       -12.1974
 197   2.0000      -0.444870       -12.1055
 198   2.0000      -0.443674       -12.0730
 199   2.0000      -0.442824       -12.0498
 200   2.0000      -0.442545       -12.0423
 201   2.0000      -0.440236       -11.9794
 202   2.0000      -0.438623       -11.9355
 203   2.0000      -0.437836       -11.9141
 204   2.0000      -0.430507       -11.7147
 205   2.0000      -0.425391       -11.5755
 206   2.0000      -0.423759       -11.5311
 207   2.0000      -0.423393       -11.5211
 208   2.0000      -0.418230       -11.3806
 209   2.0000      -0.413939       -11.2638
 210   2.0000      -0.412089       -11.2135
 211   2.0000      -0.395655       -10.7663
 212   2.0000      -0.386430       -10.5153
 213   2.0000      -0.373733       -10.1698
 214   2.0000      -0.367493       -10.0000
 215   2.0000      -0.360673        -9.8144
 216   2.0000      -0.360439        -9.8080
 217   2.0000      -0.356268        -9.6945
 218   2.0000      -0.353110        -9.6086
 219   2.0000      -0.347982        -9.4691
 220   2.0000      -0.345267        -9.3952
 221   2.0000      -0.340398        -9.2627
 222   2.0000      -0.337210        -9.1760
 223   2.0000      -0.333812        -9.0835
 224   2.0000      -0.332297        -9.0423
 225   2.0000      -0.329944        -8.9782
 226   2.0000      -0.327978        -8.9247
 227   2.0000      -0.322019        -8.7626
 228   2.0000      -0.292037        -7.9467
 229   2.0000      -0.266453        -7.2506
 230   2.0000      -0.236990        -6.4488
 231   0.0000      -0.123882        -3.3710
 232   0.0000      -0.109503        -2.9797
 233   0.0000      -0.095573        -2.6007
 234   0.0000      -0.088833        -2.4173
 235   0.0000      -0.072767        -1.9801

MULLIKEN ATOMIC CHARGES
-----------------------
   0 C :   -0.008382
   1 C :    0.078504
   2 C :   -0.068987
   3 S :    0.007458
   4 C :    0.092729
   5 O :   -0.148082
   6 C :    0.048995
   7 C :   -0.104502
   8 C :   -0.024577
   9 C :   -0.005186
  10 C :   -0.096517
  11 S :    0.183563
  12 C :   -0.093716
  13 C :    0.030597
  14 C :    0.305716
  15 C :   -0.291558
  16 C :   -0.194733
  17 N :    0.197759
  18 C :   -0.191201
  19 N :    0.184668
  20 C :   -0.055882
  21 C :   -0.093664
  22 S :    0.175571
  23 C :   -0.114505
  24 C :    0.028357
  25 C :    0.020874
  26 N :    0.058687
  27 C :   -0.119100
  28 C :    0.146844
  29 O :   -0.098625
  30 C :   -0.013901
  31 C :   -0.011719
  32 C :    0.143158
  33 O :   -0.095694
  34 C :   -0.117455
  35 N :    0.062193
  36 C :   -0.112078
  37 S :    0.196887
  38 C :   -0.092674
  39 C :   -0.057063
  40 C :    0.027223
  41 C :   -0.091980
  42 S :    0.179051
  43 C :   -0.095428
  44 C :   -0.009086
  45 C :    0.302837
  46 C :   -0.285882
  47 C :   -0.183933
  48 N :    0.166360
  49 C :   -0.192048
  50 N :    0.195597
  51 C :   -0.021650
  52 C :   -0.104395
  53 S :    0.189208
  54 C :    0.105637
  55 C :   -0.110334
  56 S :    0.013337
  57 C :    0.080750
  58 O :   -0.153850
  59 C :   -0.008495
  60 C :    0.074881
  61 H :    0.011109
  62 H :    0.003376
  63 H :   -0.011161
  64 H :    0.032513
  65 H :    0.030539
  66 H :    0.022175
  67 H :    0.022341
  68 H :    0.029833
  69 H :    0.005036
  70 H :   -0.002603
  71 H :    0.015630
  72 H :    0.010650
Sum of atomic charges:    0.0000000

LOEWDIN ATOMIC CHARGES
----------------------
   0 C :   -0.077079
   1 C :    0.010631
   2 C :   -0.158631
   3 S :    0.319443
   4 C :   -0.049309
   5 O :   -0.135216
   6 C :   -0.050233
   7 C :   -0.168020
   8 C :   -0.022210
   9 C :   -0.063400
  10 C :   -0.180282
  11 S :    0.472892
  12 C :   -0.179442
  13 C :   -0.061278
  14 C :    0.073932
  15 C :   -0.087398
  16 C :   -0.022851
  17 N :   -0.012140
  18 C :   -0.018799
  19 N :   -0.020604
  20 C :   -0.006835
  21 C :   -0.183203
  22 S :    0.457638
  23 C :   -0.191349
  24 C :   -0.042930
  25 C :   -0.042590
  26 N :    0.007611
  27 C :   -0.037100
  28 C :    0.055736
  29 O :   -0.092049
  30 C :   -0.011999
  31 C :   -0.011164
  32 C :    0.055164
  33 O :   -0.089791
  34 C :   -0.037465
  35 N :    0.008371
  36 C :   -0.193471
  37 S :    0.485186
  38 C :   -0.182587
  39 C :   -0.007263
  40 C :   -0.063661
  41 C :   -0.179436
  42 S :    0.460775
  43 C :   -0.181392
  44 C :   -0.064702
  45 C :    0.078237
  46 C :   -0.092597
  47 C :   -0.011778
  48 N :   -0.035506
  49 C :   -0.023128
  50 N :   -0.012537
  51 C :   -0.026249
  52 C :   -0.162051
  53 S :    0.479262
  54 C :   -0.050261
  55 C :   -0.151232
  56 S :    0.301733
  57 C :   -0.057148
  58 O :   -0.141707
  59 C :   -0.056588
  60 C :    0.000569
  61 H :    0.039769
  62 H :    0.037872
  63 H :    0.035046
  64 H :    0.030898
  65 H :    0.044969
  66 H :    0.046997
  67 H :    0.047200
  68 H :    0.044634
  69 H :    0.037183
  70 H :    0.034018
  71 H :    0.042022
  72 H :    0.038877

  Mayer bond orders larger than 0.100000
B(  0-C ,  1-C ) :   1.6600 B(  0-C ,  4-C ) :   0.9842 B(  0-C , 61-H ) :   0.9948
B(  1-C ,  2-C ) :   1.0844 B(  1-C , 62-H ) :   0.9972 B(  2-C ,  3-S ) :   1.0399
B(  2-C ,  6-C ) :   1.6768 B(  3-S ,  4-C ) :   0.9692 B(  3-S ,  5-O ) :   0.1051
B(  4-C ,  5-O ) :   2.1491 B(  6-C ,  7-C ) :   1.1430 B(  6-C , 63-H ) :   0.9499
B(  7-C ,  8-C ) :   1.4330 B(  7-C , 11-S ) :   1.0916 B(  8-C ,  9-C ) :   1.3331
B(  8-C , 64-H ) :   0.9734 B(  9-C , 10-C ) :   1.4119 B(  9-C , 14-C ) :   0.9971
B( 10-C , 11-S ) :   1.1275 B( 10-C , 12-C ) :   1.2148 B( 12-C , 13-C ) :   1.4170
B( 12-C , 22-S ) :   1.1174 B( 13-C , 14-C ) :   0.9866 B( 13-C , 20-C ) :   1.2775
B( 14-C , 15-C ) :   1.7207 B( 15-C , 16-C ) :   1.1337 B( 15-C , 18-C ) :   1.1362
B( 16-C , 17-N ) :   3.0010 B( 18-C , 19-N ) :   2.9886 B( 20-C , 21-C ) :   1.4481
B( 20-C , 65-H ) :   0.9871 B( 21-C , 22-S ) :   1.0798 B( 21-C , 23-C ) :   1.1980
B( 23-C , 24-C ) :   1.3633 B( 23-C , 36-C ) :   0.1506 B( 23-C , 37-S ) :   1.1501
B( 24-C , 25-C ) :   1.1857 B( 24-C , 35-N ) :   1.4393 B( 25-C , 26-N ) :   1.4382
B( 25-C , 36-C ) :   1.3670 B( 26-N , 27-C ) :   1.7143 B( 27-C , 28-C ) :   0.8880
B( 27-C , 34-C ) :   1.0919 B( 28-C , 29-O ) :   2.2405 B( 28-C , 30-C ) :   1.0238
B( 30-C , 31-C ) :   1.6874 B( 30-C , 66-H ) :   0.9953 B( 31-C , 32-C ) :   1.0228
B( 31-C , 67-H ) :   0.9943 B( 32-C , 33-O ) :   2.2409 B( 32-C , 34-C ) :   0.8910
B( 34-C , 35-N ) :   1.7152 B( 36-C , 37-S ) :   1.1471 B( 36-C , 38-C ) :   1.1919
B( 38-C , 39-C ) :   1.4502 B( 38-C , 42-S ) :   1.0818 B( 39-C , 40-C ) :   1.2783
B( 39-C , 68-H ) :   0.9867 B( 40-C , 41-C ) :   1.4167 B( 40-C , 45-C ) :   0.9884
B( 41-C , 42-S ) :   1.1188 B( 41-C , 43-C ) :   1.2108 B( 43-C , 44-C ) :   1.4154
B( 43-C , 53-S ) :   1.1270 B( 44-C , 45-C ) :   0.9995 B( 44-C , 51-C ) :   1.3273
B( 45-C , 46-C ) :   1.7198 B( 46-C , 47-C ) :   1.1319 B( 46-C , 49-C ) :   1.1301
B( 47-C , 48-N ) :   2.9933 B( 49-C , 50-N ) :   3.0021 B( 51-C , 52-C ) :   1.4253
B( 51-C , 69-H ) :   0.9855 B( 52-C , 53-S ) :   1.1009 B( 52-C , 54-C ) :   1.1577
B( 54-C , 55-C ) :   1.6858 B( 54-C , 70-H ) :   0.9322 B( 55-C , 56-S ) :   1.0305
B( 55-C , 60-C ) :   1.0750 B( 56-S , 57-C ) :   0.9884 B( 56-S , 58-O ) :   0.1136
B( 57-C , 58-O ) :   2.1377 B( 57-C , 59-C ) :   0.9805 B( 59-C , 60-C ) :   1.6862
B( 59-C , 71-H ) :   0.9912 B( 60-C , 72-H ) :   0.9889

-----------------------------------------------------------------------------
         ABSORPTION SPECTRUM VIA TRANSITION ELECTRIC DIPOLE MOMENTS
-----------------------------------------------------------------------------
State   Energy  Wavelength   fosc         T2         TX        TY        TZ
        (cm-1)    (nm)                  (au**2)     (au)      (au)      (au)
-----------------------------------------------------------------------------
   0    9629.3   1038.5   0.800922087  27.38229  -4.39081   1.87238  -2.14413
   1   11494.8    870.0   0.060003100   1.71849   0.89745  -0.81039  -0.50630
   2   13931.8    717.8   0.275290693   6.50517  -2.15939   0.84290  -1.06382
   3   17654.3    566.4   0.124985922   2.33070  -0.28552   0.67673   1.33836
   4   18002.9    555.5   0.050823897   0.92939  -0.17756   0.51003   0.79858
   5   20102.5    497.4   0.133160764   2.18073  -1.22889   0.46660  -0.67294
   6   22438.8    445.7   1.276772046  18.73224   3.38071  -1.10719   2.46519
   7   23083.1    433.2   0.575332753   8.20540  -2.18961   1.79104   0.45077
   8   24311.5    411.3   0.069365123   0.93930   0.74919  -0.59815   0.14224
   9   24652.6    405.6   0.003199339   0.04272   0.13423   0.15677  -0.01142
  10   24795.1    403.3   0.010209108   0.13555  -0.23210   0.26506   0.10687
  11   25826.5    387.2   0.000096822   0.00123  -0.00669   0.00185   0.03444
  12   26580.4    376.2   0.002186433   0.02708   0.13521   0.09333  -0.00945
  13   27043.2    369.8   0.004003444   0.04874   0.18801  -0.04142   0.10804
  14   27130.7    368.6   0.024460185   0.29681  -0.45978   0.17742  -0.23223
  15   28840.3    346.7   0.009138976   0.10432  -0.31774  -0.01350  -0.05640
  16   29041.4    344.3   0.002653952   0.03009  -0.14650  -0.05505  -0.07478
  17   29210.9    342.3   0.005070151   0.05714  -0.09477  -0.12643  -0.17937
  18   29306.7    341.2   0.058904519   0.66169   0.28699  -0.30059  -0.69927
  19   29549.6    338.4   0.001248439   0.01391   0.04863   0.03173   0.10265
  20   29874.5    334.7   0.287360577   3.16667   0.85734   0.37303   1.51410
  21   30251.3    330.6   0.208767220   2.27192   1.33014  -0.44992  -0.54793
  22   30621.5    326.6   0.096970209   1.04253   0.84895  -0.54184   0.16796
  23   30651.0    326.3   0.026155497   0.28093   0.43187  -0.27208   0.14278
  24   31061.2    321.9   0.022029858   0.23349  -0.01650  -0.14032   0.46209
  25   31937.3    313.1   0.008688962   0.08957  -0.18977  -0.00179  -0.23141
  26   32490.8    307.8   0.194367033   1.96942  -1.21707   0.64514   0.26826
  27   32582.7    306.9   0.179592009   1.81458  -0.75437   0.74538   0.83062
  28   32813.8    304.8   0.124018340   1.24424  -0.22203   0.71187   0.82957
  29   32962.8    303.4   0.136762110   1.36590  -0.61938   0.22485  -0.96525
  30   33496.0    298.5   0.240514752   2.36387   0.42190  -0.02066   1.47833
  31   33768.3    296.1   0.005195326   0.05065   0.06955  -0.08755  -0.19531
  32   33958.8    294.5   0.008823485   0.08554  -0.05265   0.00309  -0.28767
  33   34154.1    292.8   0.002185769   0.02107  -0.12587  -0.02551   0.06763
  34   34324.0    291.3   0.225697950   2.16474   1.39649  -0.17077   0.43056
  35   34619.6    288.9   0.017133061   0.16293  -0.36699   0.11585  -0.12174
  36   34803.6    287.3   0.005094825   0.04819  -0.16310   0.04713   0.13918
  37   34891.9    286.6   0.064850426   0.61188  -0.72718   0.06806  -0.28010
  38   35455.0    282.0   0.039761553   0.36920  -0.20151   0.21778   0.53025
  39   35657.7    280.4   0.131472345   1.21383   0.14982  -0.37936  -1.02346
  40   35876.6    278.7   0.474356127   4.35280   0.47017  -0.76881  -1.88167
  41   35913.9    278.4   0.014230629   0.13045   0.05797  -0.13667  -0.32925
  42   36028.1    277.6   0.002056028   0.01879  -0.05683   0.05926   0.10976
  43   36331.3    275.2   0.024538530   0.22235  -0.25610   0.09383  -0.38465
  44   37087.1    269.6   0.001084715   0.00963   0.09240   0.01849  -0.02738
  45   37172.9    269.0   0.066596578   0.58979   0.12162   0.21347   0.72762
  46   37297.6    268.1   0.001904090   0.01681   0.09903   0.05614   0.06203
  47   37586.5    266.1   0.008467960   0.07417  -0.06988   0.06724   0.25449
  48   37682.8    265.4   0.048373931   0.42261   0.16103  -0.23108  -0.58591
  49   38079.1    262.6   0.070259277   0.60742  -0.34324   0.07002  -0.69621
  50   38155.0    262.1   0.014302782   0.12341  -0.24698   0.19668  -0.15404
  51   38237.8    261.5   0.023216492   0.19988  -0.36662   0.25442   0.02731
  52   38460.1    260.0   0.040722228   0.34858  -0.41618   0.40072   0.12163
  53   38701.6    258.4   0.034784700   0.29589  -0.05248   0.27921   0.46388
  54   38923.8    256.9   0.008809561   0.07451   0.13326  -0.19920  -0.13066
  55   39153.0    255.4   0.002448769   0.02059   0.13612  -0.00861   0.04458
  56   39337.6    254.2   0.014844226   0.12423  -0.15548   0.18094   0.25946
  57   39576.6    252.7   0.025668232   0.21352   0.01143  -0.12388  -0.44502
  58   39698.1    251.9   0.088160079   0.73110  -0.27955   0.38217   0.71197
  59   40016.8    249.9   0.051527856   0.42391   0.00654   0.19533   0.62106
  60   40193.8    248.8   0.037677997   0.30861   0.49346  -0.15676  -0.20132

FINAL SINGLE POINT ENERGY     -5096.743919775668

DIPOLE MOMENT
-------------
                                X             Y             Z
Electronic contribution:      1.35295       1.74981      -3.17483
Nuclear contribution   :     -0.25374      -3.31236       0.62464
                        -----------------------------------------
Total Dipole Moment    :      1.09921      -1.56255      -2.55019
                        -----------------------------------------
Magnitude (a.u.)       :      3.18643
Magnitude (Debye)      :      8.09925

Rotational constants in cm-1:     0.002188     0.000322     0.000282
Rotational constants in MHz :    65.593389     9.654025     8.468260

                             ****ORCA TERMINATED NORMALLY****
TOTAL RUN TIME: 0 days 0 hours 6 minutes 13 seconds 234 msec
