                         Program Version 4.2.0 -  RELEASE  -
|  1> # ORCA input file
|  2> # SCF done       -159.111430497175          0.000800625849
|  3> ! CAM-B3LYP def2-SVP def2/J RIJCOSX Grid4 TightSCF
|  4> %maxcore 5000
|  5> %tddft
|  6>     Mode sTDDFT
|  7>     Ethresh 5.0
|  8>     maxcore 5000
|  9> end
| 10>
| 11> %pal
| 12>   nprocs 6
| 13>   end
| 14> * xyz 0 1
| 15>    C        1.07077        -0.37119         3.77557
| 16>    C        0.08219         0.34361         4.33872
| 17>    C       -0.85501         0.92120         3.41642
| 18>    S       -0.41369         0.51491         1.77192
| 19>    C        1.02896        -0.44112         2.32637
| 20>    O        1.76054        -0.99811         1.56089
| 21>    C       -1.92909         1.66138         3.81558
| 22>    C       -2.92322         2.26853         3.02209
| 23>    C       -3.07137         2.32743         1.63985
| 24>    C       -4.21563         3.01848         1.26689
| 25>    C       -4.96179         3.49746         2.36904
| 26>    S       -4.23677         3.09900         3.85769
| 27>    C       -6.11147         4.16022         1.89348
| 28>    C       -6.09817         4.10763         0.48045
| 29>    C       -4.90780         3.39566         0.04385
| 30>    C       -4.52929         3.13553        -1.23970
| 31>    C       -5.29959         3.55376        -2.34628
| 32>    N       -5.92004         3.88866        -3.25038
| 33>    C       -3.34612         2.43235        -1.55422
| 34>    N       -2.38779         1.86437        -1.82297
| 35>    C       -7.20424         4.71702        -0.08874
| 36>    C       -8.06895         5.23051         0.87443
| 37>    S       -7.49176         4.96266         2.51175
| 38>    C       -9.30625         5.87607         0.64115
| 39>    C      -10.11619         6.31207         1.71772
| 40>    C      -11.41443         6.91505         1.54164
| 41>    N      -12.08398         7.34332         2.62071
| 42>    C      -11.57114         7.18422         3.81660
| 43>    C      -10.30948         6.53227         3.99518
| 44>    N       -9.62850         6.13069         2.94920
| 45>    C       -9.77386         6.32272         5.28942
| 46>    N       -9.35938         6.16389         6.34517
| 47>    C      -12.26757         7.68608         4.94616
| 48>    N      -12.78284         8.08855         5.88599
| 49>    C      -11.97419         7.08112         0.24911
| 50>    C      -11.13717         6.70301        -0.82570
| 51>    C       -9.83480         6.11224        -0.64845
| 52>    N       -9.26085         5.83775        -1.81972
| 53>    S      -10.23719         6.27142        -3.01339
| 54>    N      -11.44911         6.82891        -2.11550
| 55>    C      -13.28188         7.57246         0.00111
| 56>    C      -14.28836         7.84805         0.92125
| 57>    C      -15.45281         8.28015         0.30564
| 58>    C      -15.33900         8.34990        -1.10123
| 59>    S      -13.80063         7.85568        -1.65646
| 60>    C      -16.57062         8.80025        -1.62414
| 61>    C      -17.46804         9.01490        -0.55499
| 62>    C      -16.79621         8.67953         0.69061
| 63>    C      -17.32966         8.69293         1.94570
| 64>    C      -18.66665         9.07904         2.17623
| 65>    N      -19.75720         9.39159         2.34404
| 66>    C      -16.59191         8.28844         3.07947
| 67>    N      -16.00334         7.94078         3.99945
| 68>    C      -18.71701         9.46003        -0.96802
| 69>    C      -18.80368         9.58871        -2.34887
| 70>    S      -17.27910         9.15770        -3.13204
| 71>    C      -19.85297        10.00782        -3.19642
| 72>    C      -21.16452        10.24870        -2.91020
| 73>    S      -22.22315        10.84011        -4.18585
| 74>    C      -23.65066        10.88624        -3.07478
| 75>    O      -24.73523        11.25174        -3.42710
| 76>    C      -23.20710        10.40965        -1.77618
| 77>    C      -21.90659        10.07868        -1.69495
| 78>    H        1.86138        -0.87901         4.29865
| 79>    H       -0.03586         0.49484         5.39828
| 80>    H       -2.04641         1.79531         4.88458
| 81>    H       -2.37032         1.88341         0.95808
| 82>    H       -7.41158         4.79982        -1.13980
| 83>    H      -14.14681         7.72841         1.97904
| 84>    H      -19.51315         9.71040        -0.29421
| 85>    H      -19.56452        10.15125        -4.23062
| 86>    H      -23.92133        10.34375        -0.97436
| 87>    H      -21.45315         9.68960        -0.80196
| 88> *
| 89>
| 90>                          ****END OF INPUT****

CARTESIAN COORDINATES (ANGSTROEM)
---------------------------------
  C      1.070770   -0.371190    3.775570
  C      0.082190    0.343610    4.338720
  C     -0.855010    0.921200    3.416420
  S     -0.413690    0.514910    1.771920
  C      1.028960   -0.441120    2.326370
  O      1.760540   -0.998110    1.560890
  C     -1.929090    1.661380    3.815580
  C     -2.923220    2.268530    3.022090
  C     -3.071370    2.327430    1.639850
  C     -4.215630    3.018480    1.266890
  C     -4.961790    3.497460    2.369040
  S     -4.236770    3.099000    3.857690
  C     -6.111470    4.160220    1.893480
  C     -6.098170    4.107630    0.480450
  C     -4.907800    3.395660    0.043850
  C     -4.529290    3.135530   -1.239700
  C     -5.299590    3.553760   -2.346280
  N     -5.920040    3.888660   -3.250380
  C     -3.346120    2.432350   -1.554220
  N     -2.387790    1.864370   -1.822970
  C     -7.204240    4.717020   -0.088740
  C     -8.068950    5.230510    0.874430
  S     -7.491760    4.962660    2.511750
  C     -9.306250    5.876070    0.641150
  C    -10.116190    6.312070    1.717720
  C    -11.414430    6.915050    1.541640
  N    -12.083980    7.343320    2.620710
  C    -11.571140    7.184220    3.816600
  C    -10.309480    6.532270    3.995180
  N     -9.628500    6.130690    2.949200
  C     -9.773860    6.322720    5.289420
  N     -9.359380    6.163890    6.345170
  C    -12.267570    7.686080    4.946160
  N    -12.782840    8.088550    5.885990
  C    -11.974190    7.081120    0.249110
  C    -11.137170    6.703010   -0.825700
  C     -9.834800    6.112240   -0.648450
  N     -9.260850    5.837750   -1.819720
  S    -10.237190    6.271420   -3.013390
  N    -11.449110    6.828910   -2.115500
  C    -13.281880    7.572460    0.001110
  C    -14.288360    7.848050    0.921250
  C    -15.452810    8.280150    0.305640
  C    -15.339000    8.349900   -1.101230
  S    -13.800630    7.855680   -1.656460
  C    -16.570620    8.800250   -1.624140
  C    -17.468040    9.014900   -0.554990
  C    -16.796210    8.679530    0.690610
  C    -17.329660    8.692930    1.945700
  C    -18.666650    9.079040    2.176230
  N    -19.757200    9.391590    2.344040
  C    -16.591910    8.288440    3.079470
  N    -16.003340    7.940780    3.999450
  C    -18.717010    9.460030   -0.968020
  C    -18.803680    9.588710   -2.348870
  S    -17.279100    9.157700   -3.132040
  C    -19.852970   10.007820   -3.196420
  C    -21.164520   10.248700   -2.910200
  S    -22.223150   10.840110   -4.185850
  C    -23.650660   10.886240   -3.074780
  O    -24.735230   11.251740   -3.427100
  C    -23.207100   10.409650   -1.776180
  C    -21.906590   10.078680   -1.694950
  H      1.861380   -0.879010    4.298650
  H     -0.035860    0.494840    5.398280
  H     -2.046410    1.795310    4.884580
  H     -2.370320    1.883410    0.958080
  H     -7.411580    4.799820   -1.139800
  H    -14.146810    7.728410    1.979040
  H    -19.513150    9.710400   -0.294210
  H    -19.564520   10.151250   -4.230620
  H    -23.921330   10.343750   -0.974360
  H    -21.453150    9.689600   -0.801960

 Total Charge           Charge          ....    0
 Multiplicity           Mult            ....    1
 Number of Electrons    NEL             ....  472
 Basis Dimension        Dim             ....  960

ORBITAL ENERGIES
----------------

  NO   OCC          E(Eh)            E(eV)
   0   2.0000     -89.063641     -2423.5449
   1   2.0000     -88.999245     -2421.7926
   2   2.0000     -88.997237     -2421.7379
   3   2.0000     -88.994606     -2421.6663
   4   2.0000     -88.993016     -2421.6231
   5   2.0000     -88.942825     -2420.2573
   6   2.0000     -88.937536     -2420.1134
   7   2.0000     -19.218012      -522.9487
   8   2.0000     -19.214714      -522.8590
   9   2.0000     -14.481984      -394.0748
  10   2.0000     -14.476210      -393.9177
  11   2.0000     -14.472671      -393.8214
  12   2.0000     -14.472584      -393.8190
  13   2.0000     -14.443477      -393.0270
  14   2.0000     -14.438609      -392.8945
  15   2.0000     -14.436333      -392.8326
  16   2.0000     -14.435256      -392.8033
  17   2.0000     -14.434564      -392.7844
  18   2.0000     -14.433082      -392.7441
  19   2.0000     -10.398460      -282.9565
  20   2.0000     -10.396033      -282.8904
  21   2.0000     -10.382056      -282.5101
  22   2.0000     -10.379731      -282.4468
  23   2.0000     -10.371899      -282.2337
  24   2.0000     -10.370015      -282.1825
  25   2.0000     -10.365748      -282.0663
  26   2.0000     -10.363751      -282.0120
  27   2.0000     -10.361742      -281.9573
  28   2.0000     -10.360735      -281.9299
  29   2.0000     -10.358982      -281.8822
  30   2.0000     -10.356904      -281.8257
  31   2.0000     -10.342512      -281.4341
  32   2.0000     -10.340697      -281.3847
  33   2.0000     -10.339085      -281.3408
  34   2.0000     -10.337728      -281.3039
  35   2.0000     -10.337509      -281.2979
  36   2.0000     -10.337294      -281.2921
  37   2.0000     -10.336808      -281.2789
  38   2.0000     -10.336219      -281.2628
  39   2.0000     -10.335518      -281.2437
  40   2.0000     -10.335002      -281.2297
  41   2.0000     -10.334346      -281.2119
  42   2.0000     -10.334184      -281.2074
  43   2.0000     -10.333703      -281.1943
  44   2.0000     -10.333197      -281.1806
  45   2.0000     -10.332741      -281.1682
  46   2.0000     -10.328442      -281.0512
  47   2.0000     -10.327322      -281.0207
  48   2.0000     -10.326624      -281.0017
  49   2.0000     -10.317000      -280.7398
  50   2.0000     -10.316798      -280.7343
  51   2.0000     -10.315357      -280.6951
  52   2.0000     -10.313872      -280.6547
  53   2.0000     -10.313114      -280.6341
  54   2.0000     -10.312751      -280.6242
  55   2.0000     -10.311845      -280.5996
  56   2.0000     -10.309570      -280.5377
  57   2.0000     -10.308930      -280.5202
  58   2.0000     -10.308035      -280.4959
  59   2.0000     -10.307038      -280.4688
  60   2.0000     -10.306007      -280.4407
  61   2.0000     -10.295495      -280.1547
  62   2.0000     -10.292567      -280.0750
  63   2.0000      -8.154617      -221.8984
  64   2.0000      -8.093962      -220.2479
  65   2.0000      -8.092067      -220.1963
  66   2.0000      -8.087718      -220.0780
  67   2.0000      -8.085421      -220.0155
  68   2.0000      -8.040109      -218.7825
  69   2.0000      -8.035643      -218.6610
  70   2.0000      -6.125725      -166.6895
  71   2.0000      -6.117901      -166.4766
  72   2.0000      -6.117359      -166.4618
  73   2.0000      -6.063105      -164.9855
  74   2.0000      -6.061175      -164.9329
  75   2.0000      -6.059006      -164.8739
  76   2.0000      -6.057178      -164.8242
  77   2.0000      -6.057134      -164.8230
  78   2.0000      -6.056447      -164.8043
  79   2.0000      -6.055047      -164.7662
  80   2.0000      -6.054527      -164.7520
  81   2.0000      -6.052545      -164.6981
  82   2.0000      -6.050153      -164.6330
  83   2.0000      -6.050150      -164.6329
  84   2.0000      -6.047820      -164.5696
  85   2.0000      -6.009507      -163.5270
  86   2.0000      -6.005726      -163.4241
  87   2.0000      -6.004987      -163.4040
  88   2.0000      -6.001455      -163.3079
  89   2.0000      -6.001113      -163.2986
  90   2.0000      -5.996375      -163.1696
  91   2.0000      -1.161328       -31.6013
  92   2.0000      -1.139937       -31.0193
  93   2.0000      -1.138685       -30.9852
  94   2.0000      -1.136817       -30.9344
  95   2.0000      -1.066174       -29.0121
  96   2.0000      -1.052452       -28.6387
  97   2.0000      -1.050038       -28.5730
  98   2.0000      -1.029027       -28.0013
  99   2.0000      -1.027270       -27.9534
 100   2.0000      -1.025650       -27.9094
 101   2.0000      -1.020945       -27.7813
 102   2.0000      -1.014005       -27.5925
 103   2.0000      -1.012703       -27.5570
 104   2.0000      -1.011675       -27.5291
 105   2.0000      -1.009031       -27.4571
 106   2.0000      -1.001722       -27.2582
 107   2.0000      -0.991111       -26.9695
 108   2.0000      -0.980576       -26.6828
 109   2.0000      -0.978585       -26.6287
 110   2.0000      -0.964906       -26.2564
 111   2.0000      -0.961164       -26.1546
 112   2.0000      -0.929928       -25.3046
 113   2.0000      -0.925797       -25.1922
 114   2.0000      -0.920572       -25.0500
 115   2.0000      -0.903436       -24.5837
 116   2.0000      -0.885958       -24.1081
 117   2.0000      -0.884227       -24.0610
 118   2.0000      -0.873608       -23.7721
 119   2.0000      -0.866092       -23.5676
 120   2.0000      -0.862118       -23.4594
 121   2.0000      -0.861850       -23.4521
 122   2.0000      -0.851552       -23.1719
 123   2.0000      -0.839096       -22.8330
 124   2.0000      -0.838552       -22.8182
 125   2.0000      -0.821720       -22.3601
 126   2.0000      -0.816848       -22.2276
 127   2.0000      -0.794007       -21.6060
 128   2.0000      -0.789274       -21.4772
 129   2.0000      -0.783728       -21.3263
 130   2.0000      -0.771403       -20.9909
 131   2.0000      -0.753840       -20.5130
 132   2.0000      -0.752720       -20.4826
 133   2.0000      -0.732661       -19.9367
 134   2.0000      -0.720868       -19.6158
 135   2.0000      -0.713090       -19.4042
 136   2.0000      -0.706827       -19.2338
 137   2.0000      -0.704353       -19.1664
 138   2.0000      -0.699195       -19.0261
 139   2.0000      -0.690345       -18.7852
 140   2.0000      -0.687114       -18.6973
 141   2.0000      -0.675759       -18.3883
 142   2.0000      -0.670904       -18.2562
 143   2.0000      -0.662027       -18.0147
 144   2.0000      -0.649954       -17.6861
 145   2.0000      -0.648368       -17.6430
 146   2.0000      -0.642563       -17.4850
 147   2.0000      -0.637876       -17.3575
 148   2.0000      -0.637346       -17.3431
 149   2.0000      -0.633454       -17.2372
 150   2.0000      -0.628964       -17.1150
 151   2.0000      -0.622719       -16.9450
 152   2.0000      -0.617964       -16.8157
 153   2.0000      -0.614312       -16.7163
 154   2.0000      -0.604098       -16.4383
 155   2.0000      -0.597717       -16.2647
 156   2.0000      -0.590056       -16.0562
 157   2.0000      -0.582515       -15.8510
 158   2.0000      -0.577998       -15.7281
 159   2.0000      -0.575050       -15.6479
 160   2.0000      -0.569974       -15.5098
 161   2.0000      -0.556887       -15.1537
 162   2.0000      -0.554809       -15.0971
 163   2.0000      -0.552950       -15.0465
 164   2.0000      -0.550534       -14.9808
 165   2.0000      -0.545478       -14.8432
 166   2.0000      -0.543600       -14.7921
 167   2.0000      -0.536765       -14.6061
 168   2.0000      -0.524193       -14.2640
 169   2.0000      -0.519720       -14.1423
 170   2.0000      -0.517941       -14.0939
 171   2.0000      -0.516574       -14.0567
 172   2.0000      -0.515175       -14.0186
 173   2.0000      -0.512335       -13.9414
 174   2.0000      -0.511087       -13.9074
 175   2.0000      -0.510056       -13.8793
 176   2.0000      -0.507557       -13.8113
 177   2.0000      -0.506517       -13.7830
 178   2.0000      -0.505544       -13.7566
 179   2.0000      -0.503724       -13.7070
 180   2.0000      -0.503043       -13.6885
 181   2.0000      -0.500585       -13.6216
 182   2.0000      -0.499686       -13.5971
 183   2.0000      -0.489340       -13.3156
 184   2.0000      -0.484233       -13.1766
 185   2.0000      -0.482987       -13.1427
 186   2.0000      -0.482582       -13.1317
 187   2.0000      -0.479055       -13.0357
 188   2.0000      -0.477423       -12.9914
 189   2.0000      -0.473901       -12.8955
 190   2.0000      -0.469014       -12.7625
 191   2.0000      -0.467026       -12.7084
 192   2.0000      -0.466055       -12.6820
 193   2.0000      -0.465680       -12.6718
 194   2.0000      -0.463963       -12.6251
 195   2.0000      -0.462418       -12.5830
 196   2.0000      -0.459902       -12.5146
 197   2.0000      -0.458862       -12.4863
 198   2.0000      -0.455103       -12.3840
 199   2.0000      -0.452991       -12.3265
 200   2.0000      -0.452859       -12.3229
 201   2.0000      -0.450880       -12.2691
 202   2.0000      -0.446912       -12.1611
 203   2.0000      -0.444923       -12.1070
 204   2.0000      -0.444310       -12.0903
 205   2.0000      -0.443059       -12.0563
 206   2.0000      -0.442365       -12.0374
 207   2.0000      -0.436897       -11.8886
 208   2.0000      -0.434226       -11.8159
 209   2.0000      -0.433883       -11.8066
 210   2.0000      -0.431112       -11.7312
 211   2.0000      -0.430566       -11.7163
 212   2.0000      -0.426768       -11.6130
 213   2.0000      -0.425636       -11.5822
 214   2.0000      -0.422431       -11.4949
 215   2.0000      -0.415205       -11.2983
 216   2.0000      -0.413569       -11.2538
 217   2.0000      -0.409181       -11.1344
 218   2.0000      -0.393599       -10.7104
 219   2.0000      -0.389288       -10.5931
 220   2.0000      -0.387076       -10.5329
 221   2.0000      -0.367458        -9.9990
 222   2.0000      -0.365168        -9.9367
 223   2.0000      -0.360707        -9.8153
 224   2.0000      -0.355877        -9.6839
 225   2.0000      -0.354327        -9.6417
 226   2.0000      -0.347381        -9.4527
 227   2.0000      -0.339475        -9.2376
 228   2.0000      -0.336759        -9.1637
 229   2.0000      -0.334569        -9.1041
 230   2.0000      -0.329822        -8.9749
 231   2.0000      -0.328933        -8.9507
 232   2.0000      -0.324127        -8.8199
 233   2.0000      -0.296787        -8.0760
 234   2.0000      -0.269628        -7.3370
 235   2.0000      -0.242181        -6.5901
 236   0.0000      -0.145268        -3.9529
 237   0.0000      -0.111445        -3.0326
 238   0.0000      -0.106895        -2.9088
 239   0.0000      -0.077537        -2.1099
 240   0.0000      -0.074214        -2.0195

MULLIKEN ATOMIC CHARGES
-----------------------
   0 C :   -0.005648
   1 C :    0.077123
   2 C :   -0.067532
   3 S :    0.007872
   4 C :    0.092168
   5 O :   -0.145227
   6 C :    0.044965
   7 C :   -0.103750
   8 C :   -0.022708
   9 C :   -0.001890
  10 C :   -0.105346
  11 S :    0.198745
  12 C :   -0.055915
  13 C :    0.037371
  14 C :    0.312607
  15 C :   -0.300240
  16 C :   -0.185822
  17 N :    0.170231
  18 C :   -0.191129
  19 N :    0.183735
  20 C :   -0.067630
  21 C :   -0.174430
  22 S :    0.210285
  23 C :    0.186546
  24 C :   -0.056371
  25 C :   -0.072968
  26 N :    0.049384
  27 C :   -0.120828
  28 C :   -0.097665
  29 N :   -0.020458
  30 C :   -0.234874
  31 N :    0.252363
  32 C :   -0.219130
  33 N :    0.255885
  34 C :    0.207874
  35 C :   -0.025770
  36 C :   -0.000752
  37 N :   -0.278155
  38 S :    0.580506
  39 N :   -0.337743
  40 C :   -0.184415
  41 C :   -0.060484
  42 C :    0.041803
  43 C :   -0.065735
  44 S :    0.210748
  45 C :   -0.099909
  46 C :   -0.005146
  47 C :    0.304706
  48 C :   -0.294432
  49 C :   -0.185390
  50 N :    0.167932
  51 C :   -0.190764
  52 N :    0.187984
  53 C :   -0.020885
  54 C :   -0.102105
  55 S :    0.193582
  56 C :    0.104101
  57 C :   -0.110668
  58 S :    0.016062
  59 C :    0.079933
  60 O :   -0.149983
  61 C :   -0.009682
  62 C :    0.078751
  63 H :    0.012560
  64 H :    0.007154
  65 H :   -0.006705
  66 H :    0.031987
  67 H :    0.021534
  68 H :    0.022263
  69 H :    0.004025
  70 H :   -0.001314
  71 H :    0.017988
  72 H :    0.008822
Sum of atomic charges:   -0.0000000

LOEWDIN ATOMIC CHARGES
----------------------
   0 C :   -0.074849
   1 C :    0.011400
   2 C :   -0.155826
   3 S :    0.319521
   4 C :   -0.048377
   5 O :   -0.132721
   6 C :   -0.050888
   7 C :   -0.163432
   8 C :   -0.023288
   9 C :   -0.059150
  10 C :   -0.180359
  11 S :    0.485557
  12 C :   -0.174963
  13 C :   -0.071940
  14 C :    0.078241
  15 C :   -0.097981
  16 C :   -0.015062
  17 N :   -0.032948
  18 C :   -0.020994
  19 N :   -0.022387
  20 C :   -0.005965
  21 C :   -0.167428
  22 S :    0.511417
  23 C :   -0.037160
  24 C :   -0.014306
  25 C :   -0.004717
  26 N :    0.009074
  27 C :   -0.019731
  28 C :   -0.021041
  29 N :   -0.020127
  30 C :   -0.039138
  31 N :    0.001920
  32 C :   -0.040673
  33 N :    0.012154
  34 C :   -0.044745
  35 C :   -0.045179
  36 C :   -0.038026
  37 N :   -0.266183
  38 S :    0.696096
  39 N :   -0.303939
  40 C :   -0.163982
  41 C :   -0.007869
  42 C :   -0.071469
  43 C :   -0.178048
  44 S :    0.512826
  45 C :   -0.181788
  46 C :   -0.060444
  47 C :    0.079441
  48 C :   -0.099036
  49 C :   -0.013379
  50 N :   -0.036107
  51 C :   -0.019558
  52 N :   -0.020579
  53 C :   -0.027013
  54 C :   -0.158292
  55 S :    0.483668
  56 C :   -0.051219
  57 C :   -0.149029
  58 S :    0.303670
  59 C :   -0.056958
  60 O :   -0.139136
  61 C :   -0.054961
  62 C :    0.000679
  63 H :    0.040549
  64 H :    0.039064
  65 H :    0.036456
  66 H :    0.030985
  67 H :    0.038571
  68 H :    0.037950
  69 H :    0.037304
  70 H :    0.034485
  71 H :    0.042656
  72 H :    0.038707

  Mayer bond orders larger than 0.100000
B(  0-C ,  1-C ) :   1.6618 B(  0-C ,  4-C ) :   0.9827 B(  0-C , 63-H ) :   0.9946
B(  1-C ,  2-C ) :   1.0827 B(  1-C , 64-H ) :   0.9979 B(  2-C ,  3-S ) :   1.0423
B(  2-C ,  6-C ) :   1.6736 B(  3-S ,  4-C ) :   0.9669 B(  3-S ,  5-O ) :   0.1043
B(  4-C ,  5-O ) :   2.1518 B(  6-C ,  7-C ) :   1.1446 B(  6-C , 65-H ) :   0.9511
B(  7-C ,  8-C ) :   1.4215 B(  7-C , 11-S ) :   1.1004 B(  8-C ,  9-C ) :   1.3393
B(  8-C , 66-H ) :   0.9743 B(  9-C , 10-C ) :   1.4010 B(  9-C , 14-C ) :   0.9941
B( 10-C , 11-S ) :   1.1300 B( 10-C , 12-C ) :   1.2177 B( 12-C , 13-C ) :   1.3882
B( 12-C , 22-S ) :   1.0853 B( 13-C , 14-C ) :   0.9889 B( 13-C , 20-C ) :   1.2912
B( 14-C , 15-C ) :   1.7121 B( 15-C , 16-C ) :   1.1392 B( 15-C , 18-C ) :   1.1331
B( 16-C , 17-N ) :   2.9839 B( 18-C , 19-N ) :   2.9905 B( 20-C , 21-C ) :   1.3957
B( 20-C , 67-H ) :   0.9842 B( 21-C , 22-S ) :   1.0817 B( 21-C , 23-C ) :   1.2257
B( 23-C , 24-C ) :   1.2410 B( 23-C , 34-C ) :   0.1211 B( 23-C , 36-C ) :   1.1955
B( 24-C , 25-C ) :   1.1032 B( 24-C , 29-N ) :   1.4002 B( 25-C , 26-N ) :   1.4538
B( 25-C , 34-C ) :   1.2517 B( 26-N , 27-C ) :   1.7206 B( 27-C , 28-C ) :   1.2168
B( 27-C , 32-C ) :   1.1586 B( 28-C , 29-N ) :   1.6845 B( 28-C , 30-C ) :   1.1619
B( 30-C , 31-N ) :   3.0409 B( 32-C , 33-N ) :   3.0329 B( 34-C , 35-C ) :   1.1875
B( 34-C , 40-C ) :   1.2003 B( 35-C , 36-C ) :   1.1091 B( 35-C , 39-N ) :   1.4753
B( 36-C , 37-N ) :   1.5169 B( 37-N , 38-S ) :   1.2885 B( 37-N , 39-N ) :   0.1480
B( 38-S , 39-N ) :   1.2670 B( 40-C , 41-C ) :   1.3981 B( 40-C , 44-S ) :   1.0946
B( 41-C , 42-C ) :   1.2861 B( 41-C , 68-H ) :   0.9852 B( 42-C , 43-C ) :   1.3894
B( 42-C , 47-C ) :   0.9924 B( 43-C , 44-S ) :   1.1025 B( 43-C , 45-C ) :   1.2079
B( 45-C , 46-C ) :   1.4099 B( 45-C , 55-S ) :   1.1257 B( 46-C , 47-C ) :   0.9953
B( 46-C , 53-C ) :   1.3314 B( 47-C , 48-C ) :   1.7162 B( 48-C , 49-C ) :   1.1314
B( 48-C , 51-C ) :   1.1342 B( 49-C , 50-N ) :   2.9937 B( 51-C , 52-N ) :   2.9927
B( 53-C , 54-C ) :   1.4174 B( 53-C , 69-H ) :   0.9867 B( 54-C , 55-S ) :   1.1064
B( 54-C , 56-C ) :   1.1611 B( 56-C , 57-C ) :   1.6844 B( 56-C , 70-H ) :   0.9311
B( 57-C , 58-S ) :   1.0330 B( 57-C , 62-C ) :   1.0746 B( 58-S , 59-C ) :   0.9877
B( 58-S , 60-O ) :   0.1131 B( 59-C , 60-O ) :   2.1416 B( 59-C , 61-C ) :   0.9796
B( 61-C , 62-C ) :   1.6882 B( 61-C , 71-H ) :   0.9911 B( 62-C , 72-H ) :   0.9888

-----------------------------------------------------------------------------
         ABSORPTION SPECTRUM VIA TRANSITION ELECTRIC DIPOLE MOMENTS
-----------------------------------------------------------------------------
State   Energy  Wavelength   fosc         T2         TX        TY        TZ
        (cm-1)    (nm)                  (au**2)     (au)      (au)      (au)
-----------------------------------------------------------------------------
   0    6836.7   1462.7   0.714268058  34.39461   5.25574  -2.39781   1.01108
   1   12101.7    826.3   0.016876488   0.45911  -0.55165  -0.02289  -0.39276
   2   12748.8    784.4   0.020948041   0.54094   0.58438  -0.39641   0.20566
   3   14797.4    675.8   0.010231114   0.22762   0.06647   0.36891   0.29515
   4   19932.1    501.7   0.068686962   1.13448  -0.92840   0.43656  -0.28630
   5   21050.5    475.0   0.713929210  11.16526   2.92896  -1.04544   1.22208
   6   21703.5    460.8   0.362870504   5.50425  -1.99681   1.23086  -0.04467
   7   22604.6    442.4   0.366982489   5.34471  -2.00009   0.72328  -0.90620
   8   23160.4    431.8   0.406986892   5.78509   2.08331  -1.13613   0.39258
   9   23826.9    419.7   0.205237003   2.83572   1.54782  -0.43518   0.50060
  10   24006.4    416.6   0.041970257   0.57556  -0.64569   0.30724   0.25349
  11   24632.4    406.0   0.141446229   1.89042   1.20491  -0.63830  -0.17665
  12   24856.6    402.3   0.133224798   1.76449  -0.86189   0.84033  -0.56168
  13   25335.7    394.7   0.001219041   0.01584   0.02901  -0.12191  -0.01169
  14   26298.8    380.2   0.000755039   0.00945   0.02012   0.02129  -0.09270
  15   27701.4    361.0   0.024909493   0.29603  -0.51026   0.18511  -0.03738
  16   28106.0    355.8   0.013976702   0.16371  -0.17761   0.17322   0.31963
  17   28482.7    351.1   0.000900290   0.01041   0.09177  -0.03804  -0.02316
  18   28776.1    347.5   0.000549443   0.00629  -0.01470   0.00265   0.07786
  19   29311.0    341.2   0.023032917   0.25870   0.08533  -0.04167  -0.49968
  20   29854.1    335.0   0.134036504   1.47807  -0.35036   0.21881  -1.14343
  21   30309.5    329.9   0.037733544   0.40985  -0.02796  -0.06710  -0.63605
  22   30406.8    328.9   0.064317073   0.69636  -0.50917   0.17899  -0.63645
  23   30524.9    327.6   0.116822346   1.25993  -1.05709   0.24273  -0.28908
  24   30828.2    324.4   0.224155367   2.39373   1.21776  -0.51103  -0.80600
  25   31226.5    320.2   0.220938932   2.32929   0.02007   0.02661   1.52584
  26   31399.3    318.5   0.081173511   0.85108   0.70673  -0.44199  -0.39530
  27   31606.5    316.4   0.020034566   0.20868  -0.34188  -0.08187   0.29171
  28   32248.5    310.1   0.701341093   7.15971  -1.80533   0.81586   1.79858
  29   32739.6    305.4   0.092850817   0.93366  -0.20004   0.48061  -0.81404
  30   33043.2    302.6   0.509161551   5.07281   0.47103  -0.13931   2.19808
  31   33313.2    300.2   0.069883345   0.69061  -0.05623  -0.19030   0.80699
  32   33450.0    299.0   0.100212966   0.98629   0.68646  -0.17915  -0.69495
  33   33564.1    297.9   0.057867150   0.56759  -0.73587   0.15678  -0.03873
  34   33728.6    296.5   0.310908976   3.03467   1.07148  -0.59547  -1.23774
  35   34624.6    288.8   0.000096486   0.00092  -0.00320  -0.01465  -0.02632
  36   34783.7    287.5   0.006777681   0.06415   0.09771   0.04349   0.22958
  37   34954.5    286.1   0.017437277   0.16423   0.18424  -0.00139   0.36095
  38   35083.1    285.0   0.098808281   0.92719   0.36169  -0.24612   0.85779
  39   35412.2    282.4   0.055048119   0.51176   0.40487  -0.22543   0.54500
  40   36075.6    277.2   0.085600016   0.78115   0.16152  -0.03774   0.86812
  41   36161.8    276.5   0.135901107   1.23722   0.67860  -0.32736   0.81826
  42   37105.5    269.5   0.000175907   0.00156   0.01443   0.00919   0.03561
  43   37396.9    267.4   0.057950567   0.51015  -0.06626   0.10879   0.70280
  44   37478.8    266.8   0.015262885   0.13407   0.08494  -0.04905  -0.35277
  45   37491.0    266.7   0.018335117   0.16100  -0.26685   0.08751   0.28659
  46   37676.2    265.4   0.124338806   1.08646   0.40433  -0.20475  -0.93865
  47   38049.5    262.8   0.057538705   0.49784   0.14503  -0.08980   0.68465
  48   38118.5    262.3   0.174820342   1.50984   0.02732  -0.04035  -1.22779
  49   38422.0    260.3   0.045923933   0.39349   0.15377  -0.11400   0.59737
  50   38549.0    259.4   0.006562028   0.05604  -0.02615   0.07714  -0.22227
  51   38646.1    258.8   0.012760681   0.10870  -0.09647   0.01713   0.31481
  52   38817.5    257.6   0.018194052   0.15430  -0.08677  -0.01141  -0.38294
  53   38946.4    256.8   0.019659331   0.16618  -0.36564   0.14129   0.11192
  54   39248.9    254.8   0.034750771   0.29148   0.05241   0.02919  -0.53655
  55   39283.6    254.6   0.002620897   0.02196   0.13255  -0.00624  -0.06600
  56   39361.6    254.1   0.003443495   0.02880  -0.15740  -0.06007  -0.02044
  57   39808.2    251.2   0.003073250   0.02542   0.01356   0.10089  -0.12269

FINAL SINGLE POINT ENERGY     -5163.963106738279

DIPOLE MOMENT
-------------
                                X             Y             Z
Electronic contribution:      1.02100       4.55639      -5.14138
Nuclear contribution   :      0.10087      -4.66468       4.81774
                        -----------------------------------------
Total Dipole Moment    :      1.12186      -0.10829      -0.32364
                        -----------------------------------------
Magnitude (a.u.)       :      1.17262
Magnitude (Debye)      :      2.98058

Rotational constants in cm-1:     0.003025     0.000296     0.000272
Rotational constants in MHz :    90.691690     8.885567     8.158388

                             ****ORCA TERMINATED NORMALLY****
TOTAL RUN TIME: 0 days 0 hours 6 minutes 48 seconds 93 msec
