                         Program Version 4.2.0 -  RELEASE  -
|  1> # ORCA input file
|  2> # SCF done       -121.362976371718          0.000354104164
|  3> ! CAM-B3LYP def2-SVP def2/J RIJCOSX Grid4 TightSCF
|  4> %maxcore 5000
|  5> %tddft
|  6>     Mode sTDDFT
|  7>     Ethresh 5.0
|  8>     maxcore 5000
|  9> end
| 10>
| 11> %pal
| 12>   nprocs 6
| 13>   end
| 14> * xyz 0 1
| 15>    O        7.95539        -1.61960         1.90679
| 16>    C        6.92494        -1.09592         1.58811
| 17>    C        5.72601        -1.69703         1.01764
| 18>    C        4.73979        -0.83095         0.74977
| 19>    C        5.02794         0.54539         1.07574
| 20>    C        4.18437         1.55742         0.76313
| 21>    C        4.33905         2.96806         0.97719
| 22>    C        5.04822         3.54983         2.04382
| 23>    N        5.62043         2.85368         3.06058
| 24>    C        6.19601         3.61409         3.90343
| 25>    S        6.11120         5.32928         3.58523
| 26>    C        5.18228         4.95815         2.16407
| 27>    C        4.63689         5.85398         1.24699
| 28>    C        4.80940         7.28413         1.32968
| 29>    S        4.83619         8.12368         2.84674
| 30>    C        5.01607         9.67360         2.08490
| 31>    C        5.05981        10.86101         2.89880
| 32>    C        5.41839        10.73508         4.25444
| 33>    N        5.76155         9.54806         4.82329
| 34>    C        6.10955         9.67807         6.04228
| 35>    S        6.05621        11.29618         6.68705
| 36>    C        5.48951        11.84343         5.13225
| 37>    C        5.20957        13.14370         4.71452
| 38>    C        5.30471        14.33725         5.51990
| 39>    C        4.91411        14.49440         6.80304
| 40>    C        4.14743        13.59665         7.62779
| 41>    C        3.87055        14.05878         8.85487
| 42>    C        4.40021        15.38325         9.15614
| 43>    O        4.32317        16.01506        10.17097
| 44>    S        5.23760        15.98947         7.67978
| 45>    C        4.86224        13.27384         3.35743
| 46>    N        4.52845        14.46656         2.79424
| 47>    C        4.17356        14.33176         1.57643
| 48>    S        4.20186        12.71642         0.93242
| 49>    C        4.76690        12.16124         2.47877
| 50>    C        5.10672         9.50819         0.71989
| 51>    F        5.35966        10.49420        -0.14933
| 52>    C        4.98515         8.17244         0.29535
| 53>    F        5.11974         7.82450        -0.98574
| 54>    C        3.87055         5.28116         0.21821
| 55>    N        3.17417         5.98809        -0.71406
| 56>    C        2.55498         5.22946        -1.52473
| 57>    S        2.72769         3.50925        -1.26276
| 58>    C        3.73173         3.87684         0.10620
| 59>    S        6.62864         0.67438         1.77724
| 60>    H        5.70384        -2.75827         0.84326
| 61>    H        3.78864        -1.09617         0.32027
| 62>    H        3.28976         1.28581         0.21203
| 63>    H        6.70836         3.25269         4.77318
| 64>    H        6.41828         8.85960         6.66214
| 65>    H        5.69867        15.19894         4.99818
| 66>    H        3.79227        12.65860         7.23914
| 67>    H        3.29657        13.54718         9.60742
| 68>    H        3.87319        15.15299         0.95530
| 69>    H        1.94973         5.58940        -2.33302
| 70> *
| 71>
| 72>                          ****END OF INPUT****

CARTESIAN COORDINATES (ANGSTROEM)
---------------------------------
  O      7.955390   -1.619600    1.906790
  C      6.924940   -1.095920    1.588110
  C      5.726010   -1.697030    1.017640
  C      4.739790   -0.830950    0.749770
  C      5.027940    0.545390    1.075740
  C      4.184370    1.557420    0.763130
  C      4.339050    2.968060    0.977190
  C      5.048220    3.549830    2.043820
  N      5.620430    2.853680    3.060580
  C      6.196010    3.614090    3.903430
  S      6.111200    5.329280    3.585230
  C      5.182280    4.958150    2.164070
  C      4.636890    5.853980    1.246990
  C      4.809400    7.284130    1.329680
  S      4.836190    8.123680    2.846740
  C      5.016070    9.673600    2.084900
  C      5.059810   10.861010    2.898800
  C      5.418390   10.735080    4.254440
  N      5.761550    9.548060    4.823290
  C      6.109550    9.678070    6.042280
  S      6.056210   11.296180    6.687050
  C      5.489510   11.843430    5.132250
  C      5.209570   13.143700    4.714520
  C      5.304710   14.337250    5.519900
  C      4.914110   14.494400    6.803040
  C      4.147430   13.596650    7.627790
  C      3.870550   14.058780    8.854870
  C      4.400210   15.383250    9.156140
  O      4.323170   16.015060   10.170970
  S      5.237600   15.989470    7.679780
  C      4.862240   13.273840    3.357430
  N      4.528450   14.466560    2.794240
  C      4.173560   14.331760    1.576430
  S      4.201860   12.716420    0.932420
  C      4.766900   12.161240    2.478770
  C      5.106720    9.508190    0.719890
  F      5.359660   10.494200   -0.149330
  C      4.985150    8.172440    0.295350
  F      5.119740    7.824500   -0.985740
  C      3.870550    5.281160    0.218210
  N      3.174170    5.988090   -0.714060
  C      2.554980    5.229460   -1.524730
  S      2.727690    3.509250   -1.262760
  C      3.731730    3.876840    0.106200
  S      6.628640    0.674380    1.777240
  H      5.703840   -2.758270    0.843260
  H      3.788640   -1.096170    0.320270
  H      3.289760    1.285810    0.212030
  H      6.708360    3.252690    4.773180
  H      6.418280    8.859600    6.662140
  H      5.698670   15.198940    4.998180
  H      3.792270   12.658600    7.239140
  H      3.296570   13.547180    9.607420
  H      3.873190   15.152990    0.955300
  H      1.949730    5.589400   -2.333020

 Total Charge           Charge          ....    0
 Multiplicity           Mult            ....    1
 Number of Electrons    NEL             ....  364
 Basis Dimension        Dim             ....  708

ORBITAL ENERGIES
----------------

  NO   OCC          E(Eh)            E(eV)
   0   2.0000     -88.978068     -2421.2163
   1   2.0000     -88.969693     -2420.9884
   2   2.0000     -88.968886     -2420.9665
   3   2.0000     -88.968464     -2420.9550
   4   2.0000     -88.968352     -2420.9519
   5   2.0000     -88.932138     -2419.9665
   6   2.0000     -88.925810     -2419.7943
   7   2.0000     -24.801736      -674.8895
   8   2.0000     -24.786418      -674.4727
   9   2.0000     -19.209586      -522.7194
  10   2.0000     -19.202907      -522.5377
  11   2.0000     -14.430636      -392.6776
  12   2.0000     -14.420588      -392.4041
  13   2.0000     -14.417938      -392.3320
  14   2.0000     -14.417810      -392.3286
  15   2.0000     -10.375033      -282.3190
  16   2.0000     -10.371213      -282.2151
  17   2.0000     -10.365385      -282.0565
  18   2.0000     -10.364613      -282.0355
  19   2.0000     -10.354275      -281.7541
  20   2.0000     -10.344394      -281.4853
  21   2.0000     -10.342900      -281.4446
  22   2.0000     -10.342679      -281.4386
  23   2.0000     -10.327328      -281.0209
  24   2.0000     -10.326429      -280.9964
  25   2.0000     -10.323999      -280.9303
  26   2.0000     -10.323581      -280.9189
  27   2.0000     -10.321352      -280.8583
  28   2.0000     -10.320933      -280.8469
  29   2.0000     -10.320528      -280.8358
  30   2.0000     -10.320083      -280.8237
  31   2.0000     -10.318930      -280.7924
  32   2.0000     -10.318899      -280.7915
  33   2.0000     -10.317429      -280.7515
  34   2.0000     -10.314781      -280.6795
  35   2.0000     -10.313069      -280.6329
  36   2.0000     -10.311984      -280.6034
  37   2.0000     -10.310518      -280.5635
  38   2.0000     -10.306617      -280.4573
  39   2.0000     -10.305583      -280.4292
  40   2.0000     -10.301612      -280.3211
  41   2.0000     -10.300922      -280.3023
  42   2.0000     -10.298850      -280.2459
  43   2.0000     -10.290647      -280.0228
  44   2.0000     -10.282002      -279.7875
  45   2.0000      -8.074046      -219.7060
  46   2.0000      -8.065804      -219.4817
  47   2.0000      -8.064733      -219.4526
  48   2.0000      -8.064554      -219.4477
  49   2.0000      -8.062805      -219.4001
  50   2.0000      -8.030134      -218.5111
  51   2.0000      -8.023002      -218.3170
  52   2.0000      -6.043464      -164.4510
  53   2.0000      -6.039225      -164.3357
  54   2.0000      -6.035784      -164.2420
  55   2.0000      -6.035207      -164.2263
  56   2.0000      -6.034057      -164.1950
  57   2.0000      -6.033970      -164.1927
  58   2.0000      -6.032348      -164.1485
  59   2.0000      -6.030903      -164.1092
  60   2.0000      -6.030001      -164.0847
  61   2.0000      -6.029727      -164.0772
  62   2.0000      -6.028146      -164.0342
  63   2.0000      -6.027545      -164.0178
  64   2.0000      -6.026474      -163.9887
  65   2.0000      -6.026266      -163.9830
  66   2.0000      -6.024416      -163.9327
  67   2.0000      -5.999517      -163.2552
  68   2.0000      -5.995979      -163.1589
  69   2.0000      -5.992456      -163.0630
  70   2.0000      -5.990824      -163.0186
  71   2.0000      -5.988611      -162.9584
  72   2.0000      -5.983803      -162.8276
  73   2.0000      -1.318052       -35.8660
  74   2.0000      -1.299099       -35.3503
  75   2.0000      -1.132001       -30.8033
  76   2.0000      -1.124455       -30.5980
  77   2.0000      -1.089840       -29.6560
  78   2.0000      -1.080771       -29.4093
  79   2.0000      -1.077617       -29.3234
  80   2.0000      -1.073074       -29.1998
  81   2.0000      -1.004892       -27.3445
  82   2.0000      -0.978524       -26.6270
  83   2.0000      -0.971640       -26.4397
  84   2.0000      -0.962160       -26.1817
  85   2.0000      -0.955002       -25.9869
  86   2.0000      -0.939119       -25.5547
  87   2.0000      -0.928303       -25.2604
  88   2.0000      -0.902590       -24.5607
  89   2.0000      -0.894914       -24.3519
  90   2.0000      -0.877761       -23.8851
  91   2.0000      -0.871723       -23.7208
  92   2.0000      -0.859012       -23.3749
  93   2.0000      -0.847593       -23.0642
  94   2.0000      -0.837125       -22.7793
  95   2.0000      -0.833717       -22.6866
  96   2.0000      -0.832051       -22.6413
  97   2.0000      -0.827164       -22.5083
  98   2.0000      -0.816207       -22.2101
  99   2.0000      -0.797858       -21.7108
 100   2.0000      -0.765418       -20.8281
 101   2.0000      -0.750957       -20.4346
 102   2.0000      -0.741913       -20.1885
 103   2.0000      -0.731926       -19.9167
 104   2.0000      -0.713409       -19.4129
 105   2.0000      -0.705917       -19.2090
 106   2.0000      -0.689572       -18.7642
 107   2.0000      -0.686769       -18.6879
 108   2.0000      -0.676254       -18.4018
 109   2.0000      -0.664670       -18.0866
 110   2.0000      -0.661121       -17.9900
 111   2.0000      -0.655889       -17.8476
 112   2.0000      -0.644319       -17.5328
 113   2.0000      -0.639057       -17.3896
 114   2.0000      -0.637985       -17.3605
 115   2.0000      -0.629669       -17.1342
 116   2.0000      -0.620688       -16.8898
 117   2.0000      -0.612052       -16.6548
 118   2.0000      -0.608622       -16.5614
 119   2.0000      -0.599190       -16.3048
 120   2.0000      -0.592638       -16.1265
 121   2.0000      -0.585894       -15.9430
 122   2.0000      -0.578406       -15.7392
 123   2.0000      -0.575316       -15.6552
 124   2.0000      -0.573994       -15.6192
 125   2.0000      -0.570103       -15.5133
 126   2.0000      -0.550227       -14.9724
 127   2.0000      -0.549553       -14.9541
 128   2.0000      -0.545946       -14.8559
 129   2.0000      -0.544532       -14.8175
 130   2.0000      -0.541524       -14.7356
 131   2.0000      -0.540240       -14.7007
 132   2.0000      -0.530100       -14.4248
 133   2.0000      -0.528674       -14.3859
 134   2.0000      -0.522717       -14.2239
 135   2.0000      -0.521057       -14.1787
 136   2.0000      -0.514188       -13.9918
 137   2.0000      -0.512410       -13.9434
 138   2.0000      -0.509283       -13.8583
 139   2.0000      -0.506805       -13.7909
 140   2.0000      -0.503836       -13.7101
 141   2.0000      -0.503680       -13.7058
 142   2.0000      -0.501075       -13.6349
 143   2.0000      -0.498435       -13.5631
 144   2.0000      -0.497135       -13.5277
 145   2.0000      -0.489818       -13.3286
 146   2.0000      -0.485104       -13.2004
 147   2.0000      -0.474302       -12.9064
 148   2.0000      -0.473909       -12.8957
 149   2.0000      -0.471970       -12.8429
 150   2.0000      -0.469086       -12.7645
 151   2.0000      -0.465496       -12.6668
 152   2.0000      -0.459772       -12.5110
 153   2.0000      -0.448270       -12.1980
 154   2.0000      -0.443868       -12.0782
 155   2.0000      -0.437497       -11.9049
 156   2.0000      -0.434051       -11.8111
 157   2.0000      -0.429466       -11.6864
 158   2.0000      -0.420359       -11.4385
 159   2.0000      -0.418110       -11.3773
 160   2.0000      -0.414475       -11.2784
 161   2.0000      -0.411514       -11.1979
 162   2.0000      -0.408382       -11.1126
 163   2.0000      -0.399208       -10.8630
 164   2.0000      -0.370101       -10.0710
 165   2.0000      -0.367382        -9.9970
 166   2.0000      -0.365914        -9.9570
 167   2.0000      -0.359398        -9.7797
 168   2.0000      -0.357499        -9.7280
 169   2.0000      -0.354513        -9.6468
 170   2.0000      -0.342114        -9.3094
 171   2.0000      -0.339130        -9.2282
 172   2.0000      -0.331143        -9.0108
 173   2.0000      -0.329528        -8.9669
 174   2.0000      -0.319697        -8.6994
 175   2.0000      -0.318454        -8.6656
 176   2.0000      -0.312079        -8.4921
 177   2.0000      -0.310953        -8.4615
 178   2.0000      -0.308291        -8.3890
 179   2.0000      -0.300247        -8.1701
 180   2.0000      -0.274180        -7.4608
 181   2.0000      -0.253624        -6.9015
 182   0.0000      -0.077246        -2.1020
 183   0.0000      -0.062595        -1.7033
 184   0.0000      -0.038424        -1.0456
 185   0.0000      -0.021121        -0.5747
 186   0.0000      -0.009323        -0.2537

MULLIKEN ATOMIC CHARGES
-----------------------
   0 O :   -0.164822
   1 C :    0.066287
   2 C :    0.003819
   3 C :    0.067809
   4 C :   -0.026598
   5 C :   -0.099438
   6 C :    0.062239
   7 C :    0.007334
   8 N :   -0.063530
   9 C :    0.025187
  10 S :    0.115138
  11 C :   -0.118629
  12 C :    0.102219
  13 C :   -0.266034
  14 S :    0.205389
  15 C :   -0.232578
  16 C :    0.130731
  17 C :    0.002217
  18 N :   -0.089624
  19 C :    0.021450
  20 S :    0.115666
  21 C :   -0.106780
  22 C :   -0.028060
  23 C :    0.015633
  24 C :   -0.112752
  25 C :    0.093500
  26 C :   -0.018368
  27 C :    0.078021
  28 O :   -0.156613
  29 S :    0.024989
  30 C :    0.028510
  31 N :   -0.060636
  32 C :    0.016824
  33 S :    0.140483
  34 C :   -0.144887
  35 C :    0.192276
  36 F :   -0.170577
  37 C :    0.249659
  38 F :   -0.161187
  39 C :   -0.008612
  40 N :   -0.040519
  41 C :    0.016838
  42 S :    0.090586
  43 C :   -0.102131
  44 S :    0.056571
  45 H :    0.006800
  46 H :    0.003024
  47 H :   -0.003398
  48 H :    0.046313
  49 H :    0.047680
  50 H :    0.021951
  51 H :    0.016626
  52 H :    0.010965
  53 H :    0.047129
  54 H :    0.045912
Sum of atomic charges:    0.0000000

LOEWDIN ATOMIC CHARGES
----------------------
   0 O :   -0.149713
   1 C :   -0.063149
   2 C :   -0.070129
   3 C :    0.008382
   4 C :   -0.139367
   5 C :   -0.037320
   6 C :   -0.047590
   7 C :   -0.030834
   8 N :   -0.090838
   9 C :   -0.096347
  10 S :    0.394728
  11 C :   -0.167657
  12 C :   -0.049629
  13 C :   -0.211205
  14 S :    0.502412
  15 C :   -0.206105
  16 C :   -0.047682
  17 C :   -0.037354
  18 N :   -0.102957
  19 C :   -0.096793
  20 S :    0.418818
  21 C :   -0.165954
  22 C :   -0.050357
  23 C :   -0.010086
  24 C :   -0.157046
  25 C :   -0.006011
  26 C :   -0.062429
  27 C :   -0.058795
  28 O :   -0.144413
  29 S :    0.307003
  30 C :   -0.023754
  31 N :   -0.092207
  32 C :   -0.101023
  33 S :    0.421817
  34 C :   -0.169455
  35 C :    0.021569
  36 F :   -0.049187
  37 C :    0.029187
  38 F :   -0.040007
  39 C :   -0.030515
  40 N :   -0.078453
  41 C :   -0.098206
  42 S :    0.387684
  43 C :   -0.159415
  44 S :    0.341077
  45 H :    0.037360
  46 H :    0.036611
  47 H :    0.029411
  48 H :    0.022813
  49 H :    0.023642
  50 H :    0.043486
  51 H :    0.031019
  52 H :    0.039469
  53 H :    0.023106
  54 H :    0.022389

  Mayer bond orders larger than 0.100000
B(  0-O ,  1-C ) :   2.1338 B(  0-O , 44-S ) :   0.1067 B(  1-C ,  2-C ) :   0.9623
B(  1-C , 44-S ) :   0.9978 B(  2-C ,  3-C ) :   1.6878 B(  2-C , 45-H ) :   0.9944
B(  3-C ,  4-C ) :   1.0586 B(  3-C , 46-H ) :   0.9967 B(  4-C ,  5-C ) :   1.7315
B(  4-C , 44-S ) :   1.0421 B(  5-C ,  6-C ) :   1.0472 B(  5-C , 47-H ) :   0.9537
B(  6-C ,  7-C ) :   1.3178 B(  6-C , 43-C ) :   1.3704 B(  7-C ,  8-N ) :   1.3293
B(  7-C , 11-C ) :   1.2751 B(  8-N ,  9-C ) :   1.7482 B(  8-N , 10-S ) :   0.1036
B(  9-C , 10-S ) :   1.1059 B(  9-C , 48-H ) :   0.9623 B( 10-S , 11-C ) :   1.0769
B( 11-C , 12-C ) :   1.3941 B( 12-C , 13-C ) :   0.9928 B( 12-C , 39-C ) :   1.3609
B( 13-C , 14-S ) :   1.1002 B( 13-C , 15-C ) :   0.1398 B( 13-C , 37-C ) :   1.5020
B( 14-S , 15-C ) :   1.1261 B( 15-C , 16-C ) :   1.0545 B( 15-C , 35-C ) :   1.4666
B( 16-C , 17-C ) :   1.3294 B( 16-C , 34-C ) :   1.3895 B( 17-C , 18-N ) :   1.2968
B( 17-C , 21-C ) :   1.2914 B( 18-N , 19-C ) :   1.7500 B( 18-N , 20-S ) :   0.1035
B( 19-C , 20-S ) :   1.1204 B( 19-C , 49-H ) :   0.9640 B( 20-S , 21-C ) :   1.0660
B( 21-C , 22-C ) :   1.3786 B( 22-C , 23-C ) :   1.0842 B( 22-C , 30-C ) :   1.3290
B( 23-C , 24-C ) :   1.7174 B( 23-C , 50-H ) :   0.9470 B( 24-C , 25-C ) :   1.0630
B( 24-C , 29-S ) :   1.0237 B( 25-C , 26-C ) :   1.7088 B( 25-C , 51-H ) :   0.9751
B( 26-C , 27-C ) :   0.9755 B( 26-C , 52-H ) :   0.9919 B( 27-C , 28-O ) :   2.1392
B( 27-C , 29-S ) :   0.9969 B( 28-O , 29-S ) :   0.1149 B( 30-C , 31-N ) :   1.3718
B( 30-C , 34-C ) :   1.2656 B( 31-N , 32-C ) :   1.7490 B( 31-N , 33-S ) :   0.1037
B( 32-C , 33-S ) :   1.1243 B( 32-C , 53-H ) :   0.9634 B( 33-S , 34-C ) :   1.0849
B( 35-C , 36-F ) :   1.1488 B( 35-C , 37-C ) :   1.2028 B( 37-C , 38-F ) :   1.1805
B( 39-C , 40-N ) :   1.3399 B( 39-C , 43-C ) :   1.2843 B( 40-N , 41-C ) :   1.7738
B( 40-N , 42-S ) :   0.1051 B( 41-C , 42-S ) :   1.1006 B( 41-C , 54-H ) :   0.9631
B( 42-S , 43-C ) :   1.0713

-----------------------------------------------------------------------------
         ABSORPTION SPECTRUM VIA TRANSITION ELECTRIC DIPOLE MOMENTS
-----------------------------------------------------------------------------
State   Energy  Wavelength   fosc         T2         TX        TY        TZ
        (cm-1)    (nm)                  (au**2)     (au)      (au)      (au)
-----------------------------------------------------------------------------
   0   22832.4    438.0   1.568244609  22.61198   0.34790  -4.24990  -2.10459
   1   26014.7    384.4   0.267628537   3.38680   0.28332  -0.92909   1.56311
   2   28171.3    355.0   0.041611026   0.48627   0.26830   0.62570  -0.15094
   3   29304.6    341.2   0.012075610   0.13566   0.11916  -0.11941  -0.32742
   4   29741.3    336.2   0.044239343   0.48969  -0.56220   0.07680  -0.40954
   5   31021.2    322.4   0.009562303   0.10148  -0.24138  -0.07394   0.19429
   6   31103.9    321.5   0.013768628   0.14573   0.25708   0.10599  -0.26154
   7   31776.0    314.7   0.039151658   0.40563  -0.46665   0.39558   0.17714
   8   32879.9    304.1   0.007940839   0.07951   0.21220  -0.18496  -0.01642
   9   33393.2    299.5   0.016237943   0.16008   0.06620   0.14729   0.36607
  10   33586.6    297.7   0.037187158   0.36450  -0.03589  -0.18566   0.57336
  11   35073.9    285.1   0.031173915   0.29261   0.25011   0.02203  -0.47913
  12   35543.0    281.3   0.265954748   2.46337   0.71847   0.41586   1.33200
  13   36942.6    270.7   0.019140494   0.17057  -0.12939   0.37702   0.10811
  14   37014.1    270.2   0.349734725   3.11063  -0.65561   1.09963  -1.21311
  15   37641.0    265.7   0.025105594   0.21958  -0.30935  -0.31440   0.15822
  16   38500.4    259.7   0.038367534   0.32808  -0.26686  -0.46736  -0.19605
  17   39167.5    255.3   0.012755201   0.10721   0.02519  -0.22148   0.23984
  18   39654.6    252.2   0.183498787   1.52340   0.54349  -1.06529   0.30525
  19   40046.3    249.7   0.023345523   0.19192   0.25530  -0.27892   0.22123
  20   40202.4    248.7   0.049317818   0.40386   0.30301  -0.55573  -0.05665

FINAL SINGLE POINT ENERGY     -4502.742380293120

DIPOLE MOMENT
-------------
                                X             Y             Z
Electronic contribution:      4.05698       9.63205     -11.29770
Nuclear contribution   :     -5.60588     -10.32415      10.31733
                        -----------------------------------------
Total Dipole Moment    :     -1.54890      -0.69210      -0.98038
                        -----------------------------------------
Magnitude (a.u.)       :      1.95940
Magnitude (Debye)      :      4.98039

Rotational constants in cm-1:     0.004009     0.000732     0.000645
Rotational constants in MHz :   120.191358    21.941345    19.325039

                             ****ORCA TERMINATED NORMALLY****
TOTAL RUN TIME: 0 days 0 hours 3 minutes 44 seconds 914 msec
