                         Program Version 4.2.0 -  RELEASE  -
|  1> # ORCA input file
|  2> # SCF done       -206.379590487259          0.000229601567
|  3> ! CAM-B3LYP def2-SVP def2/J RIJCOSX Grid4 TightSCF
|  4> %maxcore 5000
|  5> %tddft
|  6>     Mode sTDDFT
|  7>     Ethresh 5.0
|  8>     maxcore 5000
|  9> end
| 10>
| 11> %pal
| 12>   nprocs 6
| 13>   end
| 14> * xyz 0 1
| 15>    C        1.98674         4.91447        -0.63931
| 16>    C        1.32846         3.83889        -0.17745
| 17>    C       -0.08211         4.02705         0.01826
| 18>    S       -0.54337         5.66140        -0.42051
| 19>    C        1.16173         6.08827        -0.86405
| 20>    O        1.46879         7.17500        -1.26500
| 21>    C       -0.91961         3.06208         0.48014
| 22>    C       -2.31447         3.15168         0.70607
| 23>    C       -3.10252         2.13215         1.18536
| 24>    C       -4.46133         2.47886         1.33084
| 25>    C       -5.52380         1.67348         1.79689
| 26>    C       -5.32571         0.26624         2.07351
| 27>    C       -4.59889        -0.63021         1.34175
| 28>    C       -4.62960        -1.93090         1.88786
| 29>    C       -5.36542        -2.04486         3.03159
| 30>    S       -6.05338        -0.51191         3.45153
| 31>    C       -5.61143        -3.25042         3.86242
| 32>   Cl       -3.80158        -3.25330         1.15602
| 33>    C       -6.75756         2.29627         1.94495
| 34>    C       -6.99265         3.64437         1.57160
| 35>    C       -5.94670         4.43193         1.04777
| 36>    C       -4.69529         3.83238         0.97322
| 37>    S       -3.23993         4.60676         0.41190
| 38>    C       -6.17659         5.79569         0.61575
| 39>    C       -7.23032         6.28417        -0.10278
| 40>    C       -7.12969         7.67207        -0.33994
| 41>    C       -6.01681         8.25605         0.19251
| 42>    S       -5.05169         7.06898         1.00146
| 43>    C       -5.59667         9.67879         0.14433
| 44>   Cl       -8.32463         8.53985        -1.22805
| 45>    C       -8.33066         4.02874         1.82062
| 46>    C       -9.09910         3.03070         2.35141
| 47>    S       -8.19793         1.55325         2.58213
| 48>    C      -10.48734         3.08942         2.71834
| 49>    C      -11.34816         4.07785         2.27679
| 50>    C      -12.69220         4.10174         2.64905
| 51>    F      -13.42830         5.10906         2.13949
| 52>    C      -13.29910         3.18911         3.50096
| 53>    C      -12.43405         2.16602         3.97560
| 54>    C      -11.05491         2.10723         3.56945
| 55>    N      -10.42261         1.06307         4.09688
| 56>    S      -11.44978         0.23440         5.00893
| 57>    N      -12.74764         1.15548         4.78546
| 58>    C      -14.68473         3.23885         3.88356
| 59>    C      -15.25477         2.59569         4.94496
| 60>    C      -16.64467         2.81959         5.06818
| 61>    C      -17.52284         2.28862         6.03484
| 62>    C      -17.05833         1.50719         7.16188
| 63>    C      -17.66541         0.43676         7.75435
| 64>    C      -16.96441        -0.03078         8.88660
| 65>    C      -15.83322         0.67293         9.18229
| 66>    S      -15.60883         1.94261         8.02853
| 67>    C      -14.87671         0.47304        10.30006
| 68>   Cl      -17.50692        -1.37878         9.81028
| 69>    C      -18.87217         2.58278         5.86998
| 70>    C      -19.37430         3.38513         4.81234
| 71>    C      -18.49122         3.93290         3.85676
| 72>    C      -17.14059         3.64111         4.02430
| 73>    S      -15.85792         4.16625         2.97502
| 74>    C      -18.94227         4.74012         2.74184
| 75>    C      -18.32464         5.82447         2.18647
| 76>    C      -19.00861         6.32765         1.05860
| 77>    C      -20.13838         5.63809         0.72665
| 78>    S      -20.38167         4.33558         1.83995
| 79>    C      -21.08265         5.87564        -0.39360
| 80>   Cl      -18.44854         7.69992         0.18334
| 81>    C      -20.77012         3.58018         4.91488
| 82>    C      -21.34521         2.96205         5.99338
| 83>    S      -20.15236         2.07536         6.93093
| 84>    C      -22.69690         2.88369         6.42680
| 85>    C      -23.75469         3.65497         6.06568
| 86>    S      -25.36817         3.27074         6.66645
| 87>    C      -26.10530         4.65391         5.77477
| 88>    O      -27.27986         4.89422         5.79600
| 89>    C      -25.03252         5.35804         5.09136
| 90>    C      -23.80648         4.83108         5.24592
| 91>    H        3.04051         4.97006        -0.84748
| 92>    H        1.78463         2.88861         0.04282
| 93>    H       -0.47999         2.09832         0.70945
| 94>    H       -2.70276         1.17138         1.45400
| 95>    H       -4.09973        -0.39097         0.42109
| 96>    H       -5.06756        -4.09710         3.45114
| 97>    H       -6.67426        -3.48946         3.88342
| 98>    H       -5.28542        -3.08334         4.88814
| 99>    H       -8.02555         5.67710        -0.49431
|100>    H       -6.31748        10.25664        -0.42868
|101>    H       -4.61611         9.77127        -0.32098
|102>    H       -5.52988        10.09346         1.14977
|103>    H       -8.69172         5.02651         1.65520
|104>    H      -11.00300         4.85439         1.61358
|105>    H      -14.68319         1.96734         5.60000
|106>    H      -18.55856        -0.03239         7.38622
|107>    H      -14.94009         1.29781        11.01026
|108>    H      -13.85426         0.42887         9.92823
|109>    H      -15.10897        -0.45321        10.81961
|110>    H      -17.43315         6.27855         2.57682
|111>    H      -22.10389         5.96321        -0.02543
|112>    H      -21.05260         5.04819        -1.10249
|113>    H      -20.81080         6.79155        -0.91198
|114>    H      -21.33154         4.13284         4.18765
|115>    H      -22.89576         2.09996         7.14700
|116>    H      -25.27067         6.24080         4.52422
|117>    H      -22.91359         5.26139         4.83059
|118> *
|119>
|120>                          ****END OF INPUT****

CARTESIAN COORDINATES (ANGSTROEM)
---------------------------------
  C      1.986740    4.914470   -0.639310
  C      1.328460    3.838890   -0.177450
  C     -0.082110    4.027050    0.018260
  S     -0.543370    5.661400   -0.420510
  C      1.161730    6.088270   -0.864050
  O      1.468790    7.175000   -1.265000
  C     -0.919610    3.062080    0.480140
  C     -2.314470    3.151680    0.706070
  C     -3.102520    2.132150    1.185360
  C     -4.461330    2.478860    1.330840
  C     -5.523800    1.673480    1.796890
  C     -5.325710    0.266240    2.073510
  C     -4.598890   -0.630210    1.341750
  C     -4.629600   -1.930900    1.887860
  C     -5.365420   -2.044860    3.031590
  S     -6.053380   -0.511910    3.451530
  C     -5.611430   -3.250420    3.862420
  Cl    -3.801580   -3.253300    1.156020
  C     -6.757560    2.296270    1.944950
  C     -6.992650    3.644370    1.571600
  C     -5.946700    4.431930    1.047770
  C     -4.695290    3.832380    0.973220
  S     -3.239930    4.606760    0.411900
  C     -6.176590    5.795690    0.615750
  C     -7.230320    6.284170   -0.102780
  C     -7.129690    7.672070   -0.339940
  C     -6.016810    8.256050    0.192510
  S     -5.051690    7.068980    1.001460
  C     -5.596670    9.678790    0.144330
  Cl    -8.324630    8.539850   -1.228050
  C     -8.330660    4.028740    1.820620
  C     -9.099100    3.030700    2.351410
  S     -8.197930    1.553250    2.582130
  C    -10.487340    3.089420    2.718340
  C    -11.348160    4.077850    2.276790
  C    -12.692200    4.101740    2.649050
  F    -13.428300    5.109060    2.139490
  C    -13.299100    3.189110    3.500960
  C    -12.434050    2.166020    3.975600
  C    -11.054910    2.107230    3.569450
  N    -10.422610    1.063070    4.096880
  S    -11.449780    0.234400    5.008930
  N    -12.747640    1.155480    4.785460
  C    -14.684730    3.238850    3.883560
  C    -15.254770    2.595690    4.944960
  C    -16.644670    2.819590    5.068180
  C    -17.522840    2.288620    6.034840
  C    -17.058330    1.507190    7.161880
  C    -17.665410    0.436760    7.754350
  C    -16.964410   -0.030780    8.886600
  C    -15.833220    0.672930    9.182290
  S    -15.608830    1.942610    8.028530
  C    -14.876710    0.473040   10.300060
  Cl   -17.506920   -1.378780    9.810280
  C    -18.872170    2.582780    5.869980
  C    -19.374300    3.385130    4.812340
  C    -18.491220    3.932900    3.856760
  C    -17.140590    3.641110    4.024300
  S    -15.857920    4.166250    2.975020
  C    -18.942270    4.740120    2.741840
  C    -18.324640    5.824470    2.186470
  C    -19.008610    6.327650    1.058600
  C    -20.138380    5.638090    0.726650
  S    -20.381670    4.335580    1.839950
  C    -21.082650    5.875640   -0.393600
  Cl   -18.448540    7.699920    0.183340
  C    -20.770120    3.580180    4.914880
  C    -21.345210    2.962050    5.993380
  S    -20.152360    2.075360    6.930930
  C    -22.696900    2.883690    6.426800
  C    -23.754690    3.654970    6.065680
  S    -25.368170    3.270740    6.666450
  C    -26.105300    4.653910    5.774770
  O    -27.279860    4.894220    5.796000
  C    -25.032520    5.358040    5.091360
  C    -23.806480    4.831080    5.245920
  H      3.040510    4.970060   -0.847480
  H      1.784630    2.888610    0.042820
  H     -0.479990    2.098320    0.709450
  H     -2.702760    1.171380    1.454000
  H     -4.099730   -0.390970    0.421090
  H     -5.067560   -4.097100    3.451140
  H     -6.674260   -3.489460    3.883420
  H     -5.285420   -3.083340    4.888140
  H     -8.025550    5.677100   -0.494310
  H     -6.317480   10.256640   -0.428680
  H     -4.616110    9.771270   -0.320980
  H     -5.529880   10.093460    1.149770
  H     -8.691720    5.026510    1.655200
  H    -11.003000    4.854390    1.613580
  H    -14.683190    1.967340    5.600000
  H    -18.558560   -0.032390    7.386220
  H    -14.940090    1.297810   11.010260
  H    -13.854260    0.428870    9.928230
  H    -15.108970   -0.453210   10.819610
  H    -17.433150    6.278550    2.576820
  H    -22.103890    5.963210   -0.025430
  H    -21.052600    5.048190   -1.102490
  H    -20.810800    6.791550   -0.911980
  H    -21.331540    4.132840    4.187650
  H    -22.895760    2.099960    7.147000
  H    -25.270670    6.240800    4.524220
  H    -22.913590    5.261390    4.830590

 Total Charge           Charge          ....    0
 Multiplicity           Mult            ....    1
 Number of Electrons    NEL             ....  646
 Basis Dimension        Dim             .... 1259

ORBITAL ENERGIES
----------------

  NO   OCC          E(Eh)            E(eV)
   0   2.0000    -101.586947     -2764.3214
   1   2.0000    -101.584313     -2764.2497
   2   2.0000    -101.584247     -2764.2479
   3   2.0000    -101.584068     -2764.2430
   4   2.0000     -89.035871     -2422.7892
   5   2.0000     -88.960756     -2420.7452
   6   2.0000     -88.960383     -2420.7351
   7   2.0000     -88.958672     -2420.6885
   8   2.0000     -88.958090     -2420.6727
   9   2.0000     -88.955606     -2420.6051
  10   2.0000     -88.955341     -2420.5979
  11   2.0000     -88.952938     -2420.5325
  12   2.0000     -88.951430     -2420.4915
  13   2.0000     -88.935060     -2420.0460
  14   2.0000     -88.930741     -2419.9285
  15   2.0000     -24.800833      -674.8650
  16   2.0000     -19.210537      -522.7453
  17   2.0000     -19.207073      -522.6510
  18   2.0000     -14.451640      -393.2491
  19   2.0000     -14.448204      -393.1556
  20   2.0000     -10.381887      -282.5055
  21   2.0000     -10.375079      -282.3202
  22   2.0000     -10.372705      -282.2556
  23   2.0000     -10.339850      -281.3616
  24   2.0000     -10.336599      -281.2732
  25   2.0000     -10.321315      -280.8573
  26   2.0000     -10.319937      -280.8198
  27   2.0000     -10.319318      -280.8029
  28   2.0000     -10.318917      -280.7920
  29   2.0000     -10.318845      -280.7901
  30   2.0000     -10.317851      -280.7630
  31   2.0000     -10.317613      -280.7565
  32   2.0000     -10.315093      -280.6880
  33   2.0000     -10.314472      -280.6710
  34   2.0000     -10.313363      -280.6409
  35   2.0000     -10.313299      -280.6391
  36   2.0000     -10.312147      -280.6078
  37   2.0000     -10.309471      -280.5350
  38   2.0000     -10.309366      -280.5321
  39   2.0000     -10.309028      -280.5229
  40   2.0000     -10.308983      -280.5217
  41   2.0000     -10.307645      -280.4853
  42   2.0000     -10.307595      -280.4839
  43   2.0000     -10.306816      -280.4627
  44   2.0000     -10.306434      -280.4523
  45   2.0000     -10.306373      -280.4507
  46   2.0000     -10.305842      -280.4362
  47   2.0000     -10.305820      -280.4356
  48   2.0000     -10.305551      -280.4283
  49   2.0000     -10.305160      -280.4177
  50   2.0000     -10.304972      -280.4125
  51   2.0000     -10.304549      -280.4010
  52   2.0000     -10.304531      -280.4005
  53   2.0000     -10.304063      -280.3878
  54   2.0000     -10.302119      -280.3349
  55   2.0000     -10.301701      -280.3235
  56   2.0000     -10.301612      -280.3211
  57   2.0000     -10.300677      -280.2957
  58   2.0000     -10.293188      -280.0919
  59   2.0000     -10.293114      -280.0899
  60   2.0000     -10.292448      -280.0718
  61   2.0000     -10.289178      -279.9828
  62   2.0000     -10.288707      -279.9699
  63   2.0000     -10.286430      -279.9080
  64   2.0000     -10.285413      -279.8803
  65   2.0000     -10.283665      -279.8327
  66   2.0000     -10.283628      -279.8317
  67   2.0000     -10.282188      -279.7926
  68   2.0000     -10.281046      -279.7615
  69   2.0000     -10.280592      -279.7491
  70   2.0000     -10.279850      -279.7289
  71   2.0000     -10.279424      -279.7174
  72   2.0000     -10.278251      -279.6854
  73   2.0000     -10.278237      -279.6850
  74   2.0000     -10.274878      -279.5937
  75   2.0000     -10.272611      -279.5320
  76   2.0000      -9.541706      -259.6430
  77   2.0000      -9.539087      -259.5718
  78   2.0000      -9.538975      -259.5687
  79   2.0000      -9.538835      -259.5649
  80   2.0000      -8.127477      -221.1599
  81   2.0000      -8.056158      -219.2192
  82   2.0000      -8.056086      -219.2172
  83   2.0000      -8.054088      -219.1629
  84   2.0000      -8.053791      -219.1548
  85   2.0000      -8.050840      -219.0745
  86   2.0000      -8.050632      -219.0688
  87   2.0000      -8.047524      -218.9843
  88   2.0000      -8.046538      -218.9574
  89   2.0000      -8.032617      -218.5786
  90   2.0000      -8.028765      -218.4738
  91   2.0000      -7.311943      -198.9681
  92   2.0000      -7.309338      -198.8972
  93   2.0000      -7.309205      -198.8936
  94   2.0000      -7.309073      -198.8900
  95   2.0000      -7.301779      -198.6915
  96   2.0000      -7.301708      -198.6896
  97   2.0000      -7.299154      -198.6201
  98   2.0000      -7.299071      -198.6178
  99   2.0000      -7.299051      -198.6173
 100   2.0000      -7.298994      -198.6157
 101   2.0000      -7.298913      -198.6135
 102   2.0000      -7.298826      -198.6112
 103   2.0000      -6.098723      -165.9547
 104   2.0000      -6.090961      -165.7435
 105   2.0000      -6.089847      -165.7132
 106   2.0000      -6.025494      -163.9620
 107   2.0000      -6.025385      -163.9591
 108   2.0000      -6.023417      -163.9055
 109   2.0000      -6.023079      -163.8963
 110   2.0000      -6.021312      -163.8482
 111   2.0000      -6.021169      -163.8443
 112   2.0000      -6.020428      -163.8242
 113   2.0000      -6.020296      -163.8206
 114   2.0000      -6.019239      -163.7918
 115   2.0000      -6.018862      -163.7816
 116   2.0000      -6.018250      -163.7649
 117   2.0000      -6.018181      -163.7630
 118   2.0000      -6.017274      -163.7383
 119   2.0000      -6.016310      -163.7121
 120   2.0000      -6.016248      -163.7104
 121   2.0000      -6.016172      -163.7084
 122   2.0000      -6.016092      -163.7062
 123   2.0000      -6.015907      -163.7012
 124   2.0000      -6.012817      -163.6171
 125   2.0000      -6.012241      -163.6014
 126   2.0000      -6.011942      -163.5933
 127   2.0000      -6.011904      -163.5922
 128   2.0000      -6.008878      -163.5099
 129   2.0000      -6.007871      -163.4825
 130   2.0000      -6.002032      -163.3236
 131   2.0000      -5.998275      -163.2214
 132   2.0000      -5.998104      -163.2167
 133   2.0000      -5.994595      -163.1212
 134   2.0000      -5.993489      -163.0911
 135   2.0000      -5.989518      -162.9831
 136   2.0000      -1.315621       -35.7999
 137   2.0000      -1.137613       -30.9560
 138   2.0000      -1.132159       -30.8076
 139   2.0000      -1.128976       -30.7210
 140   2.0000      -1.016991       -27.6737
 141   2.0000      -1.015348       -27.6290
 142   2.0000      -1.003876       -27.3169
 143   2.0000      -1.003156       -27.2973
 144   2.0000      -1.000006       -27.2115
 145   2.0000      -0.997533       -27.1442
 146   2.0000      -0.995602       -27.0917
 147   2.0000      -0.991877       -26.9903
 148   2.0000      -0.982166       -26.7261
 149   2.0000      -0.976182       -26.5633
 150   2.0000      -0.970306       -26.4034
 151   2.0000      -0.967170       -26.3180
 152   2.0000      -0.946838       -25.7648
 153   2.0000      -0.945661       -25.7328
 154   2.0000      -0.942599       -25.6494
 155   2.0000      -0.941274       -25.6134
 156   2.0000      -0.923736       -25.1361
 157   2.0000      -0.916900       -24.9501
 158   2.0000      -0.902178       -24.5495
 159   2.0000      -0.901668       -24.5356
 160   2.0000      -0.888395       -24.1745
 161   2.0000      -0.875460       -23.8225
 162   2.0000      -0.872913       -23.7532
 163   2.0000      -0.868794       -23.6411
 164   2.0000      -0.861828       -23.4515
 165   2.0000      -0.856822       -23.3153
 166   2.0000      -0.851320       -23.1656
 167   2.0000      -0.850897       -23.1541
 168   2.0000      -0.844683       -22.9850
 169   2.0000      -0.840352       -22.8671
 170   2.0000      -0.833584       -22.6830
 171   2.0000      -0.830294       -22.5935
 172   2.0000      -0.817341       -22.2410
 173   2.0000      -0.811583       -22.0843
 174   2.0000      -0.810177       -22.0460
 175   2.0000      -0.808614       -22.0035
 176   2.0000      -0.807983       -21.9863
 177   2.0000      -0.801042       -21.7975
 178   2.0000      -0.799300       -21.7501
 179   2.0000      -0.791340       -21.5335
 180   2.0000      -0.784275       -21.3412
 181   2.0000      -0.781468       -21.2648
 182   2.0000      -0.767756       -20.8917
 183   2.0000      -0.749527       -20.3957
 184   2.0000      -0.748765       -20.3749
 185   2.0000      -0.746274       -20.3071
 186   2.0000      -0.744251       -20.2521
 187   2.0000      -0.724265       -19.7082
 188   2.0000      -0.719397       -19.5758
 189   2.0000      -0.706076       -19.2133
 190   2.0000      -0.697862       -18.9898
 191   2.0000      -0.684542       -18.6273
 192   2.0000      -0.676262       -18.4020
 193   2.0000      -0.671031       -18.2597
 194   2.0000      -0.664601       -18.0847
 195   2.0000      -0.655556       -17.8386
 196   2.0000      -0.653872       -17.7928
 197   2.0000      -0.651215       -17.7204
 198   2.0000      -0.644525       -17.5384
 199   2.0000      -0.642497       -17.4832
 200   2.0000      -0.638611       -17.3775
 201   2.0000      -0.633726       -17.2446
 202   2.0000      -0.632616       -17.2144
 203   2.0000      -0.630791       -17.1647
 204   2.0000      -0.629642       -17.1334
 205   2.0000      -0.626021       -17.0349
 206   2.0000      -0.623417       -16.9640
 207   2.0000      -0.609603       -16.5881
 208   2.0000      -0.608705       -16.5637
 209   2.0000      -0.607757       -16.5379
 210   2.0000      -0.602359       -16.3910
 211   2.0000      -0.598144       -16.2763
 212   2.0000      -0.590965       -16.0810
 213   2.0000      -0.587064       -15.9748
 214   2.0000      -0.584903       -15.9160
 215   2.0000      -0.584285       -15.8992
 216   2.0000      -0.581021       -15.8104
 217   2.0000      -0.577478       -15.7140
 218   2.0000      -0.577147       -15.7050
 219   2.0000      -0.570689       -15.5292
 220   2.0000      -0.566499       -15.4152
 221   2.0000      -0.554758       -15.0957
 222   2.0000      -0.551769       -15.0144
 223   2.0000      -0.546613       -14.8741
 224   2.0000      -0.545140       -14.8340
 225   2.0000      -0.543567       -14.7912
 226   2.0000      -0.533062       -14.5054
 227   2.0000      -0.529768       -14.4157
 228   2.0000      -0.526389       -14.3238
 229   2.0000      -0.524765       -14.2796
 230   2.0000      -0.524428       -14.2704
 231   2.0000      -0.523128       -14.2350
 232   2.0000      -0.522084       -14.2066
 233   2.0000      -0.521308       -14.1855
 234   2.0000      -0.520677       -14.1683
 235   2.0000      -0.519713       -14.1421
 236   2.0000      -0.517488       -14.0816
 237   2.0000      -0.515113       -14.0169
 238   2.0000      -0.513639       -13.9768
 239   2.0000      -0.512720       -13.9518
 240   2.0000      -0.509828       -13.8731
 241   2.0000      -0.509241       -13.8571
 242   2.0000      -0.507444       -13.8083
 243   2.0000      -0.505126       -13.7452
 244   2.0000      -0.503346       -13.6967
 245   2.0000      -0.500839       -13.6285
 246   2.0000      -0.500428       -13.6173
 247   2.0000      -0.495486       -13.4829
 248   2.0000      -0.494632       -13.4596
 249   2.0000      -0.485576       -13.2132
 250   2.0000      -0.483565       -13.1585
 251   2.0000      -0.483409       -13.1542
 252   2.0000      -0.482515       -13.1299
 253   2.0000      -0.480696       -13.0804
 254   2.0000      -0.480131       -13.0650
 255   2.0000      -0.477781       -13.0011
 256   2.0000      -0.477104       -12.9827
 257   2.0000      -0.475932       -12.9508
 258   2.0000      -0.474020       -12.8987
 259   2.0000      -0.473772       -12.8920
 260   2.0000      -0.472056       -12.8453
 261   2.0000      -0.471645       -12.8341
 262   2.0000      -0.468355       -12.7446
 263   2.0000      -0.465753       -12.6738
 264   2.0000      -0.465410       -12.6645
 265   2.0000      -0.464877       -12.6499
 266   2.0000      -0.464045       -12.6273
 267   2.0000      -0.456130       -12.4119
 268   2.0000      -0.453431       -12.3385
 269   2.0000      -0.451667       -12.2905
 270   2.0000      -0.450599       -12.2614
 271   2.0000      -0.449868       -12.2415
 272   2.0000      -0.445653       -12.1268
 273   2.0000      -0.443482       -12.0678
 274   2.0000      -0.440946       -11.9987
 275   2.0000      -0.440269       -11.9803
 276   2.0000      -0.434799       -11.8315
 277   2.0000      -0.428602       -11.6629
 278   2.0000      -0.427646       -11.6368
 279   2.0000      -0.424639       -11.5550
 280   2.0000      -0.422121       -11.4865
 281   2.0000      -0.421186       -11.4611
 282   2.0000      -0.418638       -11.3917
 283   2.0000      -0.417432       -11.3589
 284   2.0000      -0.417021       -11.3477
 285   2.0000      -0.416530       -11.3343
 286   2.0000      -0.415565       -11.3081
 287   2.0000      -0.412741       -11.2313
 288   2.0000      -0.409366       -11.1394
 289   2.0000      -0.405065       -11.0224
 290   2.0000      -0.401678       -10.9302
 291   2.0000      -0.395355       -10.7582
 292   2.0000      -0.389277       -10.5928
 293   2.0000      -0.387376       -10.5410
 294   2.0000      -0.383789       -10.4434
 295   2.0000      -0.381569       -10.3830
 296   2.0000      -0.380402       -10.3513
 297   2.0000      -0.379331       -10.3221
 298   2.0000      -0.377507       -10.2725
 299   2.0000      -0.376867       -10.2551
 300   2.0000      -0.369280       -10.0486
 301   2.0000      -0.352016        -9.5788
 302   2.0000      -0.343883        -9.3575
 303   2.0000      -0.341938        -9.3046
 304   2.0000      -0.335998        -9.1430
 305   2.0000      -0.335266        -9.1230
 306   2.0000      -0.330106        -8.9826
 307   2.0000      -0.328524        -8.9396
 308   2.0000      -0.327726        -8.9179
 309   2.0000      -0.320144        -8.7116
 310   2.0000      -0.318734        -8.6732
 311   2.0000      -0.317449        -8.6382
 312   2.0000      -0.316123        -8.6022
 313   2.0000      -0.314362        -8.5542
 314   2.0000      -0.302337        -8.2270
 315   2.0000      -0.301801        -8.2124
 316   2.0000      -0.300161        -8.1678
 317   2.0000      -0.295314        -8.0359
 318   2.0000      -0.283226        -7.7070
 319   2.0000      -0.273810        -7.4508
 320   2.0000      -0.267675        -7.2838
 321   2.0000      -0.246983        -6.7207
 322   2.0000      -0.238686        -6.4950
 323   0.0000      -0.091798        -2.4979
 324   0.0000      -0.072481        -1.9723
 325   0.0000      -0.064944        -1.7672
 326   0.0000      -0.031410        -0.8547
 327   0.0000      -0.028404        -0.7729

MULLIKEN ATOMIC CHARGES
-----------------------
   0 C :   -0.005033
   1 C :    0.079541
   2 C :   -0.067932
   3 S :    0.007498
   4 C :    0.086996
   5 O :   -0.156583
   6 C :    0.007986
   7 C :   -0.022749
   8 C :   -0.067846
   9 C :    0.101443
  10 C :    0.136594
  11 C :   -0.206228
  12 C :    0.025910
  13 C :    0.081418
  14 C :   -0.261923
  15 S :    0.146114
  16 C :    0.122143
  17 Cl:   -0.090420
  18 C :   -0.131423
  19 C :    0.097216
  20 C :    0.130370
  21 C :   -0.131218
  22 S :    0.116115
  23 C :   -0.207167
  24 C :    0.025476
  25 C :    0.082906
  26 C :   -0.264954
  27 S :    0.152184
  28 C :    0.124109
  29 Cl:   -0.090055
  30 C :   -0.073735
  31 C :   -0.065645
  32 S :    0.154086
  33 C :    0.161836
  34 C :   -0.125425
  35 C :    0.206071
  36 F :   -0.182605
  37 C :    0.085139
  38 C :    0.001402
  39 C :   -0.006440
  40 N :   -0.291480
  41 S :    0.523901
  42 N :   -0.286774
  43 C :   -0.090188
  44 C :   -0.070840
  45 C :    0.083671
  46 C :    0.149013
  47 C :   -0.207577
  48 C :    0.030924
  49 C :    0.088204
  50 C :   -0.267173
  51 S :    0.141376
  52 C :    0.118867
  53 Cl:   -0.090099
  54 C :   -0.142671
  55 C :    0.068583
  56 C :    0.143005
  57 C :   -0.134382
  58 S :    0.130360
  59 C :   -0.210985
  60 C :    0.034667
  61 C :    0.088634
  62 C :   -0.267736
  63 S :    0.131073
  64 C :    0.119523
  65 Cl:   -0.087022
  66 C :   -0.054227
  67 C :   -0.072603
  68 S :    0.118260
  69 C :    0.106450
  70 C :   -0.109739
  71 S :    0.017751
  72 C :    0.080365
  73 O :   -0.159362
  74 C :   -0.013111
  75 C :    0.083665
  76 H :    0.009361
  77 H :    0.004506
  78 H :   -0.005017
  79 H :   -0.012622
  80 H :   -0.012717
  81 H :    0.024275
  82 H :    0.035377
  83 H :    0.033128
  84 H :   -0.013442
  85 H :    0.024644
  86 H :    0.037931
  87 H :    0.035873
  88 H :   -0.013063
  89 H :   -0.006864
  90 H :    0.001965
  91 H :   -0.007403
  92 H :    0.041365
  93 H :    0.027688
  94 H :    0.024612
  95 H :   -0.003972
  96 H :    0.030578
  97 H :    0.040946
  98 H :    0.025330
  99 H :   -0.018786
 100 H :    0.001916
 101 H :    0.009745
 102 H :    0.007151
Sum of atomic charges:   -0.0000000

LOEWDIN ATOMIC CHARGES
----------------------
   0 C :   -0.076216
   1 C :    0.011654
   2 C :   -0.163473
   3 S :    0.298848
   4 C :   -0.052949
   5 O :   -0.143538
   6 C :   -0.034974
   7 C :   -0.163156
   8 C :   -0.040763
   9 C :   -0.037958
  10 C :   -0.053550
  11 C :   -0.172861
  12 C :   -0.069803
  13 C :   -0.178882
  14 C :   -0.198550
  15 S :    0.439656
  16 C :   -0.061318
  17 Cl:    0.125992
  18 C :   -0.154727
  19 C :   -0.034981
  20 C :   -0.054273
  21 C :   -0.149949
  22 S :    0.408037
  23 C :   -0.174981
  24 C :   -0.070638
  25 C :   -0.179336
  26 C :   -0.196079
  27 S :    0.443226
  28 C :   -0.060829
  29 Cl:    0.126463
  30 C :   -0.046122
  31 C :   -0.152556
  32 S :    0.438453
  33 C :   -0.027803
  34 C :   -0.027818
  35 C :    0.092622
  36 F :   -0.058336
  37 C :   -0.074220
  38 C :   -0.031621
  39 C :   -0.053328
  40 N :   -0.287372
  41 S :    0.650556
  42 N :   -0.279054
  43 C :   -0.153906
  44 C :   -0.050169
  45 C :   -0.041636
  46 C :   -0.052533
  47 C :   -0.170440
  48 C :   -0.076172
  49 C :   -0.177915
  50 C :   -0.199053
  51 S :    0.451897
  52 C :   -0.061534
  53 Cl:    0.127666
  54 C :   -0.144430
  55 C :   -0.041841
  56 C :   -0.053653
  57 C :   -0.145069
  58 S :    0.429060
  59 C :   -0.172062
  60 C :   -0.073677
  61 C :   -0.177085
  62 C :   -0.198531
  63 S :    0.443466
  64 C :   -0.061298
  65 Cl:    0.130183
  66 C :   -0.057414
  67 C :   -0.156820
  68 S :    0.421649
  69 C :   -0.038954
  70 C :   -0.148374
  71 S :    0.304330
  72 C :   -0.059623
  73 O :   -0.146895
  74 C :   -0.062042
  75 C :    0.002666
  76 H :    0.039099
  77 H :    0.038319
  78 H :    0.042445
  79 H :    0.031950
  80 H :    0.032959
  81 H :    0.033917
  82 H :    0.039284
  83 H :    0.038456
  84 H :    0.032276
  85 H :    0.034093
  86 H :    0.041110
  87 H :    0.039706
  88 H :    0.030198
  89 H :    0.044047
  90 H :    0.016901
  91 H :    0.026141
  92 H :    0.041103
  93 H :    0.036342
  94 H :    0.033956
  95 H :    0.027416
  96 H :    0.037558
  97 H :    0.041172
  98 H :    0.034456
  99 H :    0.011926
 100 H :    0.035302
 101 H :    0.039180
 102 H :    0.037402

  Mayer bond orders larger than 0.100000
B(  0-C ,  1-C ) :   1.6671 B(  0-C ,  4-C ) :   0.9822 B(  0-C , 76-H ) :   0.9949
B(  1-C ,  2-C ) :   1.0803 B(  1-C , 77-H ) :   0.9980 B(  2-C ,  3-S ) :   1.0298
B(  2-C ,  6-C ) :   1.6509 B(  3-S ,  4-C ) :   0.9749 B(  3-S ,  5-O ) :   0.1068
B(  4-C ,  5-O ) :   2.1423 B(  6-C ,  7-C ) :   1.1465 B(  6-C , 78-H ) :   0.9719
B(  7-C ,  8-C ) :   1.5010 B(  7-C , 22-S ) :   1.0561 B(  8-C ,  9-C ) :   1.1862
B(  8-C , 79-H ) :   1.0006 B(  9-C , 10-C ) :   1.3058 B(  9-C , 21-C ) :   1.2570
B( 10-C , 11-C ) :   0.9899 B( 10-C , 18-C ) :   1.4002 B( 11-C , 12-C ) :   1.5429
B( 11-C , 15-S ) :   1.1381 B( 12-C , 13-C ) :   1.2185 B( 12-C , 80-H ) :   1.0089
B( 13-C , 14-C ) :   1.5998 B( 13-C , 17-Cl) :   1.0048 B( 14-C , 15-S ) :   1.1284
B( 14-C , 16-C ) :   1.0833 B( 16-C , 81-H ) :   0.9445 B( 16-C , 82-H ) :   0.9482
B( 16-C , 83-H ) :   0.9490 B( 18-C , 19-C ) :   1.2650 B( 18-C , 32-S ) :   1.0442
B( 19-C , 20-C ) :   1.3089 B( 19-C , 30-C ) :   1.1873 B( 20-C , 21-C ) :   1.4100
B( 20-C , 23-C ) :   0.9844 B( 21-C , 22-S ) :   1.0660 B( 23-C , 24-C ) :   1.5446
B( 23-C , 27-S ) :   1.1378 B( 24-C , 25-C ) :   1.2159 B( 24-C , 84-H ) :   1.0087
B( 25-C , 26-C ) :   1.5989 B( 25-C , 29-Cl) :   1.0044 B( 26-C , 27-S ) :   1.1318
B( 26-C , 28-C ) :   1.0845 B( 28-C , 85-H ) :   0.9443 B( 28-C , 86-H ) :   0.9472
B( 28-C , 87-H ) :   0.9482 B( 30-C , 31-C ) :   1.5533 B( 30-C , 88-H ) :   0.9874
B( 31-C , 32-S ) :   1.0841 B( 31-C , 33-C ) :   1.0687 B( 33-C , 34-C ) :   1.4267
B( 33-C , 37-C ) :   0.1076 B( 33-C , 39-C ) :   1.1703 B( 34-C , 35-C ) :   1.2123
B( 34-C , 89-H ) :   1.0046 B( 35-C , 36-F ) :   1.1018 B( 35-C , 37-C ) :   1.3925
B( 37-C , 38-C ) :   1.1862 B( 37-C , 43-C ) :   1.0835 B( 38-C , 39-C ) :   1.1529
B( 38-C , 42-N ) :   1.5337 B( 39-C , 40-N ) :   1.5219 B( 40-N , 41-S ) :   1.2675
B( 40-N , 42-N ) :   0.1459 B( 41-S , 42-N ) :   1.2572 B( 43-C , 44-C ) :   1.5994
B( 43-C , 58-S ) :   1.0635 B( 44-C , 45-C ) :   1.1634 B( 44-C , 90-H ) :   0.9648
B( 45-C , 46-C ) :   1.2934 B( 45-C , 57-C ) :   1.2645 B( 46-C , 47-C ) :   0.9915
B( 46-C , 54-C ) :   1.4169 B( 47-C , 48-C ) :   1.5475 B( 47-C , 51-S ) :   1.1342
B( 48-C , 49-C ) :   1.2232 B( 48-C , 91-H ) :   0.9936 B( 49-C , 50-C ) :   1.6022
B( 49-C , 53-Cl) :   1.0052 B( 50-C , 51-S ) :   1.1340 B( 50-C , 52-C ) :   1.0817
B( 52-C , 92-H ) :   0.9500 B( 52-C , 93-H ) :   0.9483 B( 52-C , 94-H ) :   0.9449
B( 54-C , 55-C ) :   1.2673 B( 54-C , 68-S ) :   1.0652 B( 55-C , 56-C ) :   1.2887
B( 55-C , 66-C ) :   1.1993 B( 56-C , 57-C ) :   1.4203 B( 56-C , 59-C ) :   0.9895
B( 57-C , 58-S ) :   1.0497 B( 59-C , 60-C ) :   1.5521 B( 59-C , 63-S ) :   1.1270
B( 60-C , 61-C ) :   1.2207 B( 60-C , 95-H ) :   0.9932 B( 61-C , 62-C ) :   1.6035
B( 61-C , 65-Cl) :   1.0073 B( 62-C , 63-S ) :   1.1288 B( 62-C , 64-C ) :   1.0817
B( 64-C , 96-H ) :   0.9484 B( 64-C , 97-H ) :   0.9495 B( 64-C , 98-H ) :   0.9446
B( 66-C , 67-C ) :   1.5560 B( 66-C , 99-H ) :   0.9680 B( 67-C , 68-S ) :   1.0639
B( 67-C , 69-C ) :   1.1240 B( 69-C , 70-C ) :   1.7049 B( 69-C ,100-H ) :   0.9376
B( 70-C , 71-S ) :   1.0282 B( 70-C , 75-C ) :   1.0759 B( 71-S , 72-C ) :   0.9955
B( 71-S , 73-O ) :   0.1146 B( 72-C , 73-O ) :   2.1333 B( 72-C , 74-C ) :   0.9800
B( 74-C , 75-C ) :   1.6849 B( 74-C ,101-H ) :   0.9920 B( 75-C ,102-H ) :   0.9859

-----------------------------------------------------------------------------
         ABSORPTION SPECTRUM VIA TRANSITION ELECTRIC DIPOLE MOMENTS
-----------------------------------------------------------------------------
State   Energy  Wavelength   fosc         T2         TX        TY        TZ
        (cm-1)    (nm)                  (au**2)     (au)      (au)      (au)
-----------------------------------------------------------------------------
   0   17669.0    566.0   1.473148476  27.44792   4.75139   1.06783  -1.93183
   1   19822.8    504.5   0.046304216   0.76901   0.05938   0.82286   0.29730
   2   22432.1    445.8   0.083263335   1.22196   0.63293   0.41122  -0.80763
   3   23299.3    429.2   0.426582433   6.02748   1.87375  -1.57174   0.21491
   4   23490.2    425.7   1.147314853  16.07945  -3.89486  -0.52133   0.79860
   5   25837.1    387.0   0.099728308   1.27072  -0.03250   0.90089  -0.67680
   6   27310.7    366.2   0.275228606   3.31769  -1.81470   0.06003   0.14475
   7   28388.4    352.3   0.013816041   0.16022   0.12453  -0.13739   0.35473
   8   28528.4    350.5   0.025606669   0.29550   0.07855   0.30535  -0.44281
   9   29356.2    340.6   0.385213803   4.31993   1.13673  -0.99188   1.42967
  10   29682.0    336.9   0.235525795   2.61229   0.89781  -1.21340   0.57783
  11   30007.5    333.2   0.133991323   1.47002   0.70154  -0.95091  -0.27135
  12   30209.9    331.0   0.036811844   0.40116   0.39202  -0.43910   0.23381
  13   30405.2    328.9   0.059593117   0.64524   0.07648   0.62260  -0.50177
  14   30834.7    324.3   0.032761646   0.34979   0.55493   0.07244  -0.19130
  15   30861.2    324.0   0.079064147   0.84342   0.57975   0.66501  -0.25509
  16   31206.3    320.4   0.000311370   0.00328  -0.02781  -0.00285  -0.05003
  17   31977.3    312.7   0.025189011   0.25933   0.10731  -0.31935   0.38188
  18   32455.2    308.1   0.005080716   0.05154   0.21954  -0.04208  -0.03962
  19   32740.3    305.4   0.006585936   0.06622  -0.05312  -0.12477  -0.21871
  20   33245.0    300.8   0.201527215   1.99564  -1.26264   0.59005  -0.23073
  21   33640.9    297.3   0.108750830   1.06424   0.58690   0.67341  -0.51605
  22   33802.1    295.8   0.069269744   0.67465  -0.76657   0.06367   0.28803
  23   33965.7    294.4   0.064184915   0.62211   0.69365  -0.25918  -0.27164
  24   34506.8    289.8   0.030567092   0.29162   0.48074  -0.13941  -0.20267
  25   34656.8    288.5   0.257466229   2.44572  -1.56207   0.07505   0.00441
  26   34787.6    287.5   0.064757743   0.61283   0.78193   0.00428   0.03752
  27   35033.2    285.4   0.016848000   0.15832  -0.32672  -0.13581   0.18202
  28   35317.5    283.1   0.051101801   0.47635   0.52474  -0.41889   0.15977
  29   35328.4    283.1   0.031033706   0.28919   0.50973  -0.17090  -0.01273
  30   35631.6    280.6   0.035368758   0.32678   0.31812   0.40994  -0.23986
  31   36013.6    277.7   0.027659104   0.25284  -0.32005   0.35536   0.15534
  32   36523.4    273.8   0.042812586   0.38590  -0.55733   0.14868  -0.23061
  33   36587.5    273.3   0.061676600   0.55496  -0.69946  -0.01477   0.25593
  34   36764.1    272.0   0.017428883   0.15607  -0.21326   0.28504  -0.17130
  35   37343.1    267.8   0.085193625   0.75106  -0.52125   0.64258  -0.25778
  36   37385.3    267.5   0.070690427   0.62249   0.02083   0.68749  -0.38655
  37   37714.4    265.2   0.043058903   0.37586  -0.58971  -0.16609  -0.02288
  38   37867.1    264.1   0.020003581   0.17391   0.19643   0.29495  -0.21984
  39   38147.2    262.1   0.028780697   0.24838   0.31908   0.38284  -0.00037
  40   38266.7    261.3   0.108398038   0.93256   0.63066  -0.68899   0.24521
  41   38470.7    259.9   0.020418580   0.17473  -0.37013   0.19175  -0.03113
  42   38701.6    258.4   0.052597340   0.44741   0.62043  -0.21096  -0.13406
  43   38841.8    257.5   0.027926699   0.23670   0.05970  -0.48284  -0.00197
  44   39390.3    253.9   0.004878621   0.04077   0.14592   0.13434  -0.03787
  45   39490.9    253.2   0.017723100   0.14775   0.05504  -0.33689   0.17671
  46   39610.4    252.5   0.005718921   0.04753   0.03496  -0.16951  -0.13257
  47   39821.3    251.1   0.003237402   0.02676  -0.02316   0.16140   0.01335
  48   39998.2    250.0   0.011454194   0.09428  -0.27594  -0.01833   0.13340
  49   40274.9    248.3   0.000354522   0.00290  -0.04569  -0.02847   0.00050

FINAL SINGLE POINT ENERGY     -8725.911180462386

DIPOLE MOMENT
-------------
                                X             Y             Z
Electronic contribution:     -7.05182      -4.38227      -2.55883
Nuclear contribution   :      9.32574       2.85811       3.09095
                        -----------------------------------------
Total Dipole Moment    :      2.27393      -1.52415       0.53212
                        -----------------------------------------
Magnitude (a.u.)       :      2.78872
Magnitude (Debye)      :      7.08835

Rotational constants in cm-1:     0.001016     0.000210     0.000182
Rotational constants in MHz :    30.467225     6.293059     5.462249

                             ****ORCA TERMINATED NORMALLY****
TOTAL RUN TIME: 0 days 0 hours 10 minutes 50 seconds 868 msec
