                         Program Version 4.2.0 -  RELEASE  -
|  1> # ORCA input file
|  2> # SCF done       -190.430158659467          0.000295419478
|  3> ! CAM-B3LYP def2-SVP def2/J RIJCOSX Grid4 TightSCF
|  4> %maxcore 5000
|  5> %tddft
|  6>     Mode sTDDFT
|  7>     Ethresh 5.0
|  8>     maxcore 5000
|  9> end
| 10>
| 11> %pal
| 12>   nprocs 6
| 13>   end
| 14> * xyz 0 1
| 15>    C       13.01202         5.22459       -12.83309
| 16>    C       12.37873         6.33938       -13.31392
| 17>    C       12.89778         7.24151       -14.26077
| 18>    N       13.26528         8.01202       -15.02800
| 19>    C       11.08609         6.66047       -12.84515
| 20>    N       10.03745         6.92508       -12.46498
| 21>    N       14.24709         4.76137       -13.15640
| 22>    C       15.12867         5.39638       -14.10691
| 23>    C       14.65558         3.60354       -12.50779
| 24>    O       15.72820         3.07855       -12.69264
| 25>    C       13.61221         3.14084       -11.59245
| 26>    S       12.22351         4.19614       -11.64709
| 27>    C       13.77647         2.03528       -10.82049
| 28>    C       12.87396         1.48405        -9.89224
| 29>    C       13.12177         0.37171        -9.09187
| 30>    C       12.05143         0.07648        -8.26148
| 31>    C       10.96391         0.96540        -8.42908
| 32>    S       11.27350         2.16138        -9.60432
| 33>    C        9.93135         0.59866        -7.53911
| 34>    C       10.36667        -0.52371        -6.79804
| 35>    C       11.70495        -0.88943        -7.23054
| 36>    C       12.47169        -1.91642        -6.76478
| 37>    C       13.76507        -2.17406        -7.26703
| 38>    N       14.81593        -2.38368        -7.67445
| 39>    C       12.02349        -2.78853        -5.74955
| 40>    N       11.66715        -3.50024        -4.92439
| 41>    C        9.42828        -0.95396        -5.87369
| 42>    C        8.27516        -0.17513        -5.90383
| 43>    S        8.35433         1.10383        -7.10453
| 44>    C        7.13651        -0.32282        -5.07453
| 45>    C        6.00849         0.51918        -5.22472
| 46>    C        4.83777         0.43795        -4.38718
| 47>    N        3.83104         1.29909        -4.59298
| 48>    C        3.91276         2.18706        -5.55277
| 49>    C        5.06546         2.25111        -6.40024
| 50>    N        6.06540         1.42746        -6.20549
| 51>    C        5.14212         3.19596        -7.45350
| 52>    N        5.18100         3.96563        -8.30028
| 53>    C        2.84908         3.10550        -5.75114
| 54>    N        2.02521         3.87502        -5.94882
| 55>    C        4.74932        -0.51930        -3.34320
| 56>    C        5.87356        -1.36523        -3.20322
| 57>    C        7.04143        -1.28360        -4.04332
| 58>    N        7.95411        -2.19289        -3.69858
| 59>    S        7.41488        -3.05633        -2.46307
| 60>    N        5.99322        -2.32831        -2.28878
| 61>    C        3.64444        -0.64815        -2.46134
| 62>    C        2.43677         0.04384        -2.47749
| 63>    C        1.60241        -0.33747        -1.43815
| 64>    C        2.17602        -1.32876        -0.61062
| 65>    S        3.73265        -1.79990        -1.13396
| 66>    C        1.26290        -1.62730         0.42141
| 67>    C        0.10499        -0.83082         0.25553
| 68>    C        0.28144        -0.00177        -0.92695
| 69>    C       -0.59835         0.89186        -1.45961
| 70>    C       -1.86519         1.16197        -0.89643
| 71>    N       -2.89781         1.40507        -0.46316
| 72>    C       -0.30088         1.61073        -2.63929
| 73>    N       -0.06476         2.18551        -3.60221
| 74>    C       -0.85462        -1.04739         1.23374
| 75>    C       -0.45186        -2.00286         2.16015
| 76>    S        1.15788        -2.63746         1.78592
| 77>    C       -1.06744        -2.53696         3.31037
| 78>    C       -2.28024        -2.28933         3.88279
| 79>    C       -3.36256        -1.39156         3.48896
| 80>    O       -3.40070        -0.65200         2.53110
| 81>    N       -4.41793        -1.48207         4.38845
| 82>    C       -4.26491        -2.34479         5.42595
| 83>    C       -5.14983        -2.61007         6.43853
| 84>    C       -6.41972        -2.02801         6.60353
| 85>    N       -7.46414        -1.59237         6.79604
| 86>    C       -4.80261        -3.54714         7.43511
| 87>    N       -4.52357        -4.30691         8.24728
| 88>    S       -2.71643        -3.15159         5.35092
| 89>    C       -5.59684        -0.67448         4.18083
| 90>    H       14.67002         5.43468       -15.09519
| 91>    H       16.03421         4.79015       -14.14609
| 92>    H       15.37880         6.40839       -13.78776
| 93>    H       14.72647         1.52580       -10.93334
| 94>    H       14.04818        -0.17226        -9.13028
| 95>    H        9.53977        -1.77993        -5.19555
| 96>    H        2.21231         0.78409        -3.22245
| 97>    H       -1.80545        -0.54998         1.29602
| 98>    H       -0.46241        -3.27354         3.82854
| 99>    H       -5.42401        -0.09279         3.27471
|100>    H       -5.75757        -0.00143         5.02314
|101>    H       -6.47762        -1.30336         4.05017
|102> *
|103>
|104>                          ****END OF INPUT****

CARTESIAN COORDINATES (ANGSTROEM)
---------------------------------
  C     13.012020    5.224590  -12.833090
  C     12.378730    6.339380  -13.313920
  C     12.897780    7.241510  -14.260770
  N     13.265280    8.012020  -15.028000
  C     11.086090    6.660470  -12.845150
  N     10.037450    6.925080  -12.464980
  N     14.247090    4.761370  -13.156400
  C     15.128670    5.396380  -14.106910
  C     14.655580    3.603540  -12.507790
  O     15.728200    3.078550  -12.692640
  C     13.612210    3.140840  -11.592450
  S     12.223510    4.196140  -11.647090
  C     13.776470    2.035280  -10.820490
  C     12.873960    1.484050   -9.892240
  C     13.121770    0.371710   -9.091870
  C     12.051430    0.076480   -8.261480
  C     10.963910    0.965400   -8.429080
  S     11.273500    2.161380   -9.604320
  C      9.931350    0.598660   -7.539110
  C     10.366670   -0.523710   -6.798040
  C     11.704950   -0.889430   -7.230540
  C     12.471690   -1.916420   -6.764780
  C     13.765070   -2.174060   -7.267030
  N     14.815930   -2.383680   -7.674450
  C     12.023490   -2.788530   -5.749550
  N     11.667150   -3.500240   -4.924390
  C      9.428280   -0.953960   -5.873690
  C      8.275160   -0.175130   -5.903830
  S      8.354330    1.103830   -7.104530
  C      7.136510   -0.322820   -5.074530
  C      6.008490    0.519180   -5.224720
  C      4.837770    0.437950   -4.387180
  N      3.831040    1.299090   -4.592980
  C      3.912760    2.187060   -5.552770
  C      5.065460    2.251110   -6.400240
  N      6.065400    1.427460   -6.205490
  C      5.142120    3.195960   -7.453500
  N      5.181000    3.965630   -8.300280
  C      2.849080    3.105500   -5.751140
  N      2.025210    3.875020   -5.948820
  C      4.749320   -0.519300   -3.343200
  C      5.873560   -1.365230   -3.203220
  C      7.041430   -1.283600   -4.043320
  N      7.954110   -2.192890   -3.698580
  S      7.414880   -3.056330   -2.463070
  N      5.993220   -2.328310   -2.288780
  C      3.644440   -0.648150   -2.461340
  C      2.436770    0.043840   -2.477490
  C      1.602410   -0.337470   -1.438150
  C      2.176020   -1.328760   -0.610620
  S      3.732650   -1.799900   -1.133960
  C      1.262900   -1.627300    0.421410
  C      0.104990   -0.830820    0.255530
  C      0.281440   -0.001770   -0.926950
  C     -0.598350    0.891860   -1.459610
  C     -1.865190    1.161970   -0.896430
  N     -2.897810    1.405070   -0.463160
  C     -0.300880    1.610730   -2.639290
  N     -0.064760    2.185510   -3.602210
  C     -0.854620   -1.047390    1.233740
  C     -0.451860   -2.002860    2.160150
  S      1.157880   -2.637460    1.785920
  C     -1.067440   -2.536960    3.310370
  C     -2.280240   -2.289330    3.882790
  C     -3.362560   -1.391560    3.488960
  O     -3.400700   -0.652000    2.531100
  N     -4.417930   -1.482070    4.388450
  C     -4.264910   -2.344790    5.425950
  C     -5.149830   -2.610070    6.438530
  C     -6.419720   -2.028010    6.603530
  N     -7.464140   -1.592370    6.796040
  C     -4.802610   -3.547140    7.435110
  N     -4.523570   -4.306910    8.247280
  S     -2.716430   -3.151590    5.350920
  C     -5.596840   -0.674480    4.180830
  H     14.670020    5.434680  -15.095190
  H     16.034210    4.790150  -14.146090
  H     15.378800    6.408390  -13.787760
  H     14.726470    1.525800  -10.933340
  H     14.048180   -0.172260   -9.130280
  H      9.539770   -1.779930   -5.195550
  H      2.212310    0.784090   -3.222450
  H     -1.805450   -0.549980    1.296020
  H     -0.462410   -3.273540    3.828540
  H     -5.424010   -0.092790    3.274710
  H     -5.757570   -0.001430    5.023140
  H     -6.477620   -1.303360    4.050170

 Total Charge           Charge          ....    0
 Multiplicity           Mult            ....    1
 Number of Electrons    NEL             ....  552
 Basis Dimension        Dim             .... 1138

ORBITAL ENERGIES
----------------

  NO   OCC          E(Eh)            E(eV)
   0   2.0000     -89.072289     -2423.7802
   1   2.0000     -89.011487     -2422.1257
   2   2.0000     -89.006676     -2421.9948
   3   2.0000     -89.002343     -2421.8769
   4   2.0000     -89.001128     -2421.8438
   5   2.0000     -88.998206     -2421.7643
   6   2.0000     -88.991500     -2421.5818
   7   2.0000     -19.235560      -523.4262
   8   2.0000     -19.231120      -523.3054
   9   2.0000     -14.507560      -394.7708
  10   2.0000     -14.506545      -394.7431
  11   2.0000     -14.488808      -394.2605
  12   2.0000     -14.483008      -394.1027
  13   2.0000     -14.480620      -394.0377
  14   2.0000     -14.480261      -394.0279
  15   2.0000     -14.447647      -393.1405
  16   2.0000     -14.444239      -393.0477
  17   2.0000     -14.444117      -393.0444
  18   2.0000     -14.440507      -392.9462
  19   2.0000     -14.437078      -392.8529
  20   2.0000     -14.435910      -392.8211
  21   2.0000     -14.415378      -392.2624
  22   2.0000     -14.414772      -392.2459
  23   2.0000     -14.411575      -392.1589
  24   2.0000     -14.411012      -392.1436
  25   2.0000     -10.423683      -283.6428
  26   2.0000     -10.419453      -283.5277
  27   2.0000     -10.408795      -283.2377
  28   2.0000     -10.405692      -283.1533
  29   2.0000     -10.405456      -283.1469
  30   2.0000     -10.403046      -283.0813
  31   2.0000     -10.379953      -282.4529
  32   2.0000     -10.375485      -282.3313
  33   2.0000     -10.373720      -282.2833
  34   2.0000     -10.371795      -282.2309
  35   2.0000     -10.369775      -282.1759
  36   2.0000     -10.368731      -282.1475
  37   2.0000     -10.367137      -282.1041
  38   2.0000     -10.361191      -281.9423
  39   2.0000     -10.354448      -281.7588
  40   2.0000     -10.352835      -281.7150
  41   2.0000     -10.348305      -281.5917
  42   2.0000     -10.345848      -281.5248
  43   2.0000     -10.345805      -281.5237
  44   2.0000     -10.345689      -281.5205
  45   2.0000     -10.345327      -281.5107
  46   2.0000     -10.344320      -281.4833
  47   2.0000     -10.344273      -281.4820
  48   2.0000     -10.344063      -281.4763
  49   2.0000     -10.343725      -281.4671
  50   2.0000     -10.343382      -281.4577
  51   2.0000     -10.343087      -281.4497
  52   2.0000     -10.342864      -281.4436
  53   2.0000     -10.342499      -281.4337
  54   2.0000     -10.342373      -281.4303
  55   2.0000     -10.341740      -281.4131
  56   2.0000     -10.340242      -281.3723
  57   2.0000     -10.336362      -281.2667
  58   2.0000     -10.334794      -281.2241
  59   2.0000     -10.334652      -281.2202
  60   2.0000     -10.332028      -281.1488
  61   2.0000     -10.327581      -281.0278
  62   2.0000     -10.325655      -280.9753
  63   2.0000     -10.324252      -280.9372
  64   2.0000     -10.324170      -280.9349
  65   2.0000     -10.321242      -280.8553
  66   2.0000     -10.319514      -280.8082
  67   2.0000     -10.318085      -280.7694
  68   2.0000     -10.317967      -280.7662
  69   2.0000     -10.317336      -280.7490
  70   2.0000     -10.316867      -280.7362
  71   2.0000     -10.315439      -280.6974
  72   2.0000     -10.315195      -280.6907
  73   2.0000     -10.313981      -280.6577
  74   2.0000     -10.312028      -280.6045
  75   2.0000      -8.163166      -222.1310
  76   2.0000      -8.105807      -220.5702
  77   2.0000      -8.101479      -220.4524
  78   2.0000      -8.094590      -220.2650
  79   2.0000      -8.094246      -220.2556
  80   2.0000      -8.093914      -220.2466
  81   2.0000      -8.087851      -220.0816
  82   2.0000      -6.134251      -166.9215
  83   2.0000      -6.126401      -166.7078
  84   2.0000      -6.126001      -166.6970
  85   2.0000      -6.074983      -165.3087
  86   2.0000      -6.070787      -165.1945
  87   2.0000      -6.070584      -165.1890
  88   2.0000      -6.068316      -165.1273
  89   2.0000      -6.066543      -165.0790
  90   2.0000      -6.064179      -165.0147
  91   2.0000      -6.063966      -165.0089
  92   2.0000      -6.063847      -165.0057
  93   2.0000      -6.063696      -165.0016
  94   2.0000      -6.059754      -164.8943
  95   2.0000      -6.059306      -164.8821
  96   2.0000      -6.059090      -164.8762
  97   2.0000      -6.057748      -164.8397
  98   2.0000      -6.057089      -164.8218
  99   2.0000      -6.056660      -164.8101
 100   2.0000      -6.054314      -164.7463
 101   2.0000      -6.053828      -164.7330
 102   2.0000      -6.048056      -164.5760
 103   2.0000      -1.181527       -32.1510
 104   2.0000      -1.178104       -32.0578
 105   2.0000      -1.169644       -31.8276
 106   2.0000      -1.145889       -31.1812
 107   2.0000      -1.108120       -30.1535
 108   2.0000      -1.108029       -30.1510
 109   2.0000      -1.073244       -29.2044
 110   2.0000      -1.060831       -28.8667
 111   2.0000      -1.057962       -28.7886
 112   2.0000      -1.036395       -28.2017
 113   2.0000      -1.031991       -28.0819
 114   2.0000      -1.030332       -28.0368
 115   2.0000      -1.027944       -27.9718
 116   2.0000      -1.021708       -27.8021
 117   2.0000      -1.018472       -27.7140
 118   2.0000      -1.016486       -27.6600
 119   2.0000      -1.013514       -27.5791
 120   2.0000      -1.011581       -27.5265
 121   2.0000      -1.009906       -27.4810
 122   2.0000      -1.007987       -27.4287
 123   2.0000      -0.998965       -27.1832
 124   2.0000      -0.994874       -27.0719
 125   2.0000      -0.991365       -26.9764
 126   2.0000      -0.981293       -26.7023
 127   2.0000      -0.977218       -26.5915
 128   2.0000      -0.969255       -26.3748
 129   2.0000      -0.966092       -26.2887
 130   2.0000      -0.940422       -25.5902
 131   2.0000      -0.937089       -25.4995
 132   2.0000      -0.932783       -25.3823
 133   2.0000      -0.932023       -25.3616
 134   2.0000      -0.923647       -25.1337
 135   2.0000      -0.908379       -24.7182
 136   2.0000      -0.893334       -24.3089
 137   2.0000      -0.888302       -24.1719
 138   2.0000      -0.880575       -23.9617
 139   2.0000      -0.872351       -23.7379
 140   2.0000      -0.871276       -23.7086
 141   2.0000      -0.868069       -23.6214
 142   2.0000      -0.858290       -23.3553
 143   2.0000      -0.834743       -22.7145
 144   2.0000      -0.832467       -22.6526
 145   2.0000      -0.830070       -22.5874
 146   2.0000      -0.829294       -22.5662
 147   2.0000      -0.815097       -22.1799
 148   2.0000      -0.805678       -21.9236
 149   2.0000      -0.794340       -21.6151
 150   2.0000      -0.788481       -21.4556
 151   2.0000      -0.782357       -21.2890
 152   2.0000      -0.768043       -20.8995
 153   2.0000      -0.756824       -20.5942
 154   2.0000      -0.745177       -20.2773
 155   2.0000      -0.732947       -19.9445
 156   2.0000      -0.726176       -19.7603
 157   2.0000      -0.718625       -19.5548
 158   2.0000      -0.714423       -19.4404
 159   2.0000      -0.708449       -19.2779
 160   2.0000      -0.708283       -19.2734
 161   2.0000      -0.702635       -19.1197
 162   2.0000      -0.697035       -18.9673
 163   2.0000      -0.693866       -18.8811
 164   2.0000      -0.690645       -18.7934
 165   2.0000      -0.681646       -18.5485
 166   2.0000      -0.673065       -18.3150
 167   2.0000      -0.665096       -18.0982
 168   2.0000      -0.652027       -17.7426
 169   2.0000      -0.651192       -17.7198
 170   2.0000      -0.649125       -17.6636
 171   2.0000      -0.646089       -17.5810
 172   2.0000      -0.644563       -17.5395
 173   2.0000      -0.641920       -17.4675
 174   2.0000      -0.635261       -17.2863
 175   2.0000      -0.629188       -17.1211
 176   2.0000      -0.623580       -16.9685
 177   2.0000      -0.622886       -16.9496
 178   2.0000      -0.609723       -16.5914
 179   2.0000      -0.606001       -16.4901
 180   2.0000      -0.605191       -16.4681
 181   2.0000      -0.605122       -16.4662
 182   2.0000      -0.598593       -16.2885
 183   2.0000      -0.591385       -16.0924
 184   2.0000      -0.585982       -15.9454
 185   2.0000      -0.582504       -15.8507
 186   2.0000      -0.579999       -15.7826
 187   2.0000      -0.571597       -15.5540
 188   2.0000      -0.563611       -15.3366
 189   2.0000      -0.563172       -15.3247
 190   2.0000      -0.559819       -15.2334
 191   2.0000      -0.555402       -15.1132
 192   2.0000      -0.552929       -15.0460
 193   2.0000      -0.550890       -14.9905
 194   2.0000      -0.538995       -14.6668
 195   2.0000      -0.530377       -14.4323
 196   2.0000      -0.527175       -14.3452
 197   2.0000      -0.525484       -14.2991
 198   2.0000      -0.524911       -14.2836
 199   2.0000      -0.523390       -14.2422
 200   2.0000      -0.521856       -14.2004
 201   2.0000      -0.516332       -14.0501
 202   2.0000      -0.513937       -13.9849
 203   2.0000      -0.513135       -13.9631
 204   2.0000      -0.512252       -13.9391
 205   2.0000      -0.511386       -13.9155
 206   2.0000      -0.510194       -13.8831
 207   2.0000      -0.509720       -13.8702
 208   2.0000      -0.509109       -13.8536
 209   2.0000      -0.507402       -13.8071
 210   2.0000      -0.505637       -13.7591
 211   2.0000      -0.502797       -13.6818
 212   2.0000      -0.499763       -13.5992
 213   2.0000      -0.495681       -13.4882
 214   2.0000      -0.494624       -13.4594
 215   2.0000      -0.489566       -13.3218
 216   2.0000      -0.487727       -13.2717
 217   2.0000      -0.483553       -13.1581
 218   2.0000      -0.475040       -12.9265
 219   2.0000      -0.474610       -12.9148
 220   2.0000      -0.474305       -12.9065
 221   2.0000      -0.471452       -12.8289
 222   2.0000      -0.470063       -12.7911
 223   2.0000      -0.469765       -12.7830
 224   2.0000      -0.468720       -12.7545
 225   2.0000      -0.467959       -12.7338
 226   2.0000      -0.463332       -12.6079
 227   2.0000      -0.461944       -12.5701
 228   2.0000      -0.460047       -12.5185
 229   2.0000      -0.456394       -12.4191
 230   2.0000      -0.455846       -12.4042
 231   2.0000      -0.454812       -12.3761
 232   2.0000      -0.453722       -12.3464
 233   2.0000      -0.453106       -12.3296
 234   2.0000      -0.451378       -12.2826
 235   2.0000      -0.448078       -12.1928
 236   2.0000      -0.446573       -12.1519
 237   2.0000      -0.445788       -12.1305
 238   2.0000      -0.445583       -12.1249
 239   2.0000      -0.444839       -12.1047
 240   2.0000      -0.443427       -12.0663
 241   2.0000      -0.441926       -12.0254
 242   2.0000      -0.440606       -11.9895
 243   2.0000      -0.439623       -11.9628
 244   2.0000      -0.438410       -11.9297
 245   2.0000      -0.436639       -11.8815
 246   2.0000      -0.433885       -11.8066
 247   2.0000      -0.431266       -11.7354
 248   2.0000      -0.430260       -11.7080
 249   2.0000      -0.429157       -11.6779
 250   2.0000      -0.427890       -11.6435
 251   2.0000      -0.427560       -11.6345
 252   2.0000      -0.424683       -11.5562
 253   2.0000      -0.418504       -11.3881
 254   2.0000      -0.416261       -11.3270
 255   2.0000      -0.415818       -11.3150
 256   2.0000      -0.413480       -11.2514
 257   2.0000      -0.410114       -11.1598
 258   2.0000      -0.397698       -10.8219
 259   2.0000      -0.396051       -10.7771
 260   2.0000      -0.389881       -10.6092
 261   2.0000      -0.382158       -10.3991
 262   2.0000      -0.381860       -10.3909
 263   2.0000      -0.374658       -10.1950
 264   2.0000      -0.371949       -10.1213
 265   2.0000      -0.369026       -10.0417
 266   2.0000      -0.363048        -9.8790
 267   2.0000      -0.360478        -9.8091
 268   2.0000      -0.350591        -9.5401
 269   2.0000      -0.337594        -9.1864
 270   2.0000      -0.333740        -9.0815
 271   2.0000      -0.331222        -9.0130
 272   2.0000      -0.319788        -8.7019
 273   2.0000      -0.303231        -8.2513
 274   2.0000      -0.282194        -7.6789
 275   2.0000      -0.254573        -6.9273
 276   0.0000      -0.153743        -4.1835
 277   0.0000      -0.119886        -3.2623
 278   0.0000      -0.113925        -3.1001
 279   0.0000      -0.084453        -2.2981
 280   0.0000      -0.083112        -2.2616

MULLIKEN ATOMIC CHARGES
-----------------------
   0 C :    0.157990
   1 C :   -0.310621
   2 C :   -0.196766
   3 N :    0.173339
   4 C :   -0.213580
   5 N :    0.156279
   6 N :   -0.233370
   7 C :    0.115122
   8 C :    0.212880
   9 O :   -0.170037
  10 C :   -0.147584
  11 S :    0.120934
  12 C :    0.009236
  13 C :   -0.057637
  14 C :   -0.031571
  15 C :    0.027779
  16 C :   -0.089264
  17 S :    0.188703
  18 C :   -0.055614
  19 C :    0.037187
  20 C :    0.305503
  21 C :   -0.293899
  22 C :   -0.192375
  23 N :    0.182372
  24 C :   -0.183957
  25 N :    0.171059
  26 C :   -0.065598
  27 C :   -0.173067
  28 S :    0.220906
  29 C :    0.187186
  30 C :   -0.060648
  31 C :   -0.068731
  32 N :    0.056889
  33 C :   -0.117339
  34 C :   -0.092927
  35 N :   -0.016141
  36 C :   -0.243679
  37 N :    0.266193
  38 C :   -0.218935
  39 N :    0.260754
  40 C :    0.215175
  41 C :   -0.031562
  42 C :    0.001886
  43 N :   -0.278869
  44 S :    0.586485
  45 N :   -0.336853
  46 C :   -0.182440
  47 C :   -0.065203
  48 C :    0.047548
  49 C :   -0.068043
  50 S :    0.210617
  51 C :   -0.092573
  52 C :    0.000722
  53 C :    0.311478
  54 C :   -0.296124
  55 C :   -0.190961
  56 N :    0.196573
  57 C :   -0.198904
  58 N :    0.190263
  59 C :   -0.012406
  60 C :   -0.117965
  61 S :    0.188038
  62 C :    0.095847
  63 C :   -0.173881
  64 C :    0.243497
  65 O :   -0.175873
  66 N :   -0.238712
  67 C :    0.127139
  68 C :   -0.303108
  69 C :   -0.192604
  70 N :    0.173294
  71 C :   -0.218845
  72 N :    0.145616
  73 S :    0.149267
  74 C :    0.112357
  75 H :    0.066954
  76 H :    0.068645
  77 H :    0.066186
  78 H :    0.038656
  79 H :    0.018413
  80 H :    0.022460
  81 H :    0.025466
  82 H :    0.037943
  83 H :    0.008032
  84 H :    0.076219
  85 H :    0.066951
  86 H :    0.066227
Sum of atomic charges:   -0.0000000

LOEWDIN ATOMIC CHARGES
----------------------
   0 C :   -0.027363
   1 C :   -0.202246
   2 C :   -0.033681
   3 N :   -0.053488
   4 C :   -0.042798
   5 N :   -0.042106
   6 N :   -0.006394
   7 C :    0.039884
   8 C :    0.070258
   9 O :   -0.163478
  10 C :   -0.224560
  11 S :    0.415853
  12 C :   -0.002032
  13 C :   -0.175827
  14 C :   -0.004878
  15 C :   -0.064473
  16 C :   -0.168986
  17 S :    0.487132
  18 C :   -0.179655
  19 C :   -0.068653
  20 C :    0.078653
  21 C :   -0.097807
  22 C :   -0.018451
  23 N :   -0.026924
  24 C :   -0.015694
  25 N :   -0.029671
  26 C :   -0.006895
  27 C :   -0.163645
  28 S :    0.519462
  29 C :   -0.036540
  30 C :   -0.012563
  31 C :   -0.003758
  32 N :    0.010728
  33 C :   -0.015976
  34 C :   -0.015927
  35 N :   -0.020303
  36 C :   -0.041577
  37 N :    0.012182
  38 C :   -0.042370
  39 N :    0.020108
  40 C :   -0.040813
  41 C :   -0.045105
  42 C :   -0.037172
  43 N :   -0.266700
  44 S :    0.702031
  45 N :   -0.302825
  46 C :   -0.159865
  47 C :   -0.008621
  48 C :   -0.062094
  49 C :   -0.184136
  50 S :    0.512958
  51 C :   -0.168966
  52 C :   -0.064702
  53 C :    0.072223
  54 C :   -0.089437
  55 C :   -0.023169
  56 N :   -0.013856
  57 C :   -0.018443
  58 N :   -0.018494
  59 C :    0.002927
  60 C :   -0.172068
  61 S :    0.479922
  62 C :   -0.012922
  63 C :   -0.211962
  64 C :    0.075701
  65 O :   -0.153746
  66 N :   -0.003528
  67 C :   -0.032793
  68 C :   -0.208485
  69 C :   -0.034706
  70 N :   -0.057343
  71 C :   -0.041150
  72 N :   -0.048590
  73 S :    0.427837
  74 C :    0.038980
  75 H :    0.041547
  76 H :    0.044954
  77 H :    0.041366
  78 H :    0.060082
  79 H :    0.046492
  80 H :    0.038773
  81 H :    0.038428
  82 H :    0.042825
  83 H :    0.038941
  84 H :    0.046683
  85 H :    0.041803
  86 H :    0.041677

  Mayer bond orders larger than 0.100000
B(  0-C ,  1-C ) :   1.5951 B(  0-C ,  6-N ) :   1.2003 B(  0-C , 11-S ) :   1.0678
B(  1-C ,  2-C ) :   1.1641 B(  1-C ,  4-C ) :   1.1411 B(  2-C ,  3-N ) :   3.0128
B(  4-C ,  5-N ) :   3.0355 B(  6-N ,  7-C ) :   0.9312 B(  6-N ,  8-C ) :   1.0489
B(  7-C , 75-H ) :   0.9693 B(  7-C , 76-H ) :   0.9443 B(  7-C , 77-H ) :   0.9693
B(  8-C ,  9-O ) :   2.1683 B(  8-C , 10-C ) :   0.9621 B( 10-C , 11-S ) :   1.0001
B( 10-C , 12-C ) :   1.6783 B( 12-C , 13-C ) :   1.1678 B( 12-C , 78-H ) :   0.9615
B( 13-C , 14-C ) :   1.3895 B( 13-C , 17-S ) :   1.0798 B( 14-C , 15-C ) :   1.3160
B( 14-C , 79-H ) :   1.0051 B( 15-C , 16-C ) :   1.3889 B( 15-C , 20-C ) :   0.9861
B( 16-C , 17-S ) :   1.1511 B( 16-C , 18-C ) :   1.2145 B( 18-C , 19-C ) :   1.3880
B( 18-C , 28-S ) :   1.0857 B( 19-C , 20-C ) :   0.9929 B( 19-C , 26-C ) :   1.2882
B( 20-C , 21-C ) :   1.7183 B( 21-C , 22-C ) :   1.1311 B( 21-C , 24-C ) :   1.1369
B( 22-C , 23-N ) :   2.9951 B( 24-C , 25-N ) :   2.9839 B( 26-C , 27-C ) :   1.4025
B( 26-C , 80-H ) :   0.9832 B( 27-C , 28-S ) :   1.0888 B( 27-C , 29-C ) :   1.2157
B( 29-C , 30-C ) :   1.2470 B( 29-C , 40-C ) :   0.1231 B( 29-C , 42-C ) :   1.2027
B( 30-C , 31-C ) :   1.1074 B( 30-C , 35-N ) :   1.3995 B( 31-C , 32-N ) :   1.4534
B( 31-C , 40-C ) :   1.2525 B( 32-N , 33-C ) :   1.7313 B( 33-C , 34-C ) :   1.2140
B( 33-C , 38-C ) :   1.1571 B( 34-C , 35-N ) :   1.6893 B( 34-C , 36-C ) :   1.1663
B( 36-C , 37-N ) :   3.0430 B( 38-C , 39-N ) :   3.0237 B( 40-C , 41-C ) :   1.1886
B( 40-C , 46-C ) :   1.2021 B( 41-C , 42-C ) :   1.1084 B( 41-C , 45-N ) :   1.4729
B( 42-C , 43-N ) :   1.5114 B( 43-N , 44-S ) :   1.2923 B( 43-N , 45-N ) :   0.1488
B( 44-S , 45-N ) :   1.2721 B( 46-C , 47-C ) :   1.3932 B( 46-C , 50-S ) :   1.0995
B( 47-C , 48-C ) :   1.2831 B( 47-C , 81-H ) :   0.9844 B( 48-C , 49-C ) :   1.3913
B( 48-C , 53-C ) :   0.9894 B( 49-C , 50-S ) :   1.0946 B( 49-C , 51-C ) :   1.2114
B( 51-C , 52-C ) :   1.3907 B( 51-C , 61-S ) :   1.1438 B( 52-C , 53-C ) :   0.9929
B( 52-C , 59-C ) :   1.3065 B( 53-C , 54-C ) :   1.7199 B( 54-C , 55-C ) :   1.1334
B( 54-C , 57-C ) :   1.1376 B( 55-C , 56-N ) :   2.9974 B( 57-C , 58-N ) :   2.9915
B( 59-C , 60-C ) :   1.4156 B( 59-C , 82-H ) :   0.9705 B( 60-C , 61-S ) :   1.0787
B( 60-C , 62-C ) :   1.2060 B( 62-C , 63-C ) :   1.6940 B( 62-C , 83-H ) :   0.9244
B( 63-C , 64-C ) :   0.9641 B( 63-C , 73-S ) :   1.0163 B( 64-C , 65-O ) :   2.0652
B( 64-C , 66-N ) :   1.0667 B( 66-N , 67-C ) :   1.2009 B( 66-N , 74-C ) :   0.9300
B( 67-C , 68-C ) :   1.5585 B( 67-C , 73-S ) :   1.0869 B( 68-C , 69-C ) :   1.1671
B( 68-C , 71-C ) :   1.1479 B( 69-C , 70-N ) :   3.0123 B( 71-C , 72-N ) :   3.0325
B( 74-C , 84-H ) :   0.9432 B( 74-C , 85-H ) :   0.9689 B( 74-C , 86-H ) :   0.9691

-----------------------------------------------------------------------------
         ABSORPTION SPECTRUM VIA TRANSITION ELECTRIC DIPOLE MOMENTS
-----------------------------------------------------------------------------
State   Energy  Wavelength   fosc         T2         TX        TY        TZ
        (cm-1)    (nm)                  (au**2)     (au)      (au)      (au)
-----------------------------------------------------------------------------
   0    7499.7   1333.4   0.794013440  34.85475  -4.42207  -1.00881   3.77919
   1   13189.8    758.2   0.005597149   0.13970  -0.09497   0.36147  -0.00488
   2   14025.0    713.0   0.081504533   1.91317  -0.81214  -0.40499   1.04383
   3   15615.0    640.4   0.003758813   0.07925  -0.08620   0.22166   0.15061
   4   20637.3    484.6   0.163521984   2.60854  -0.60645  -0.86163   1.22407
   5   21928.7    456.0   1.326980155  19.92175   2.88990   1.15552  -3.19922
   6   22395.1    446.5   0.175190791   2.57534  -1.21578  -0.46504   0.93859
   7   23304.6    429.1   0.070147176   0.99093   0.41636   0.42378  -0.79874
   8   23714.7    421.7   0.254144757   3.52809   0.56335   1.27208  -1.26196
   9   24048.3    415.8   0.135055814   1.84887  -1.02624  -0.04863   0.89069
  10   24457.5    408.9   0.088762785   1.19480  -0.67938  -0.19027   0.83489
  11   24515.8    407.9   0.164664134   2.21120  -1.13379  -0.32058   0.90716
  12   25119.8    398.1   0.173801638   2.27779   0.40358  -1.31974   0.61089
  13   25240.5    396.2   0.021207379   0.27661   0.17764  -0.38105   0.31599
  14   25528.4    391.7   0.050510520   0.65138   0.15507   0.62526  -0.48620
  15   27226.5    367.3   0.019528991   0.23614   0.18898  -0.36964   0.25257
  16   28401.1    352.1   0.002232784   0.02588  -0.12519  -0.07961   0.06221
  17   29276.2    341.6   0.075816729   0.85256  -0.43148  -0.42652   0.69604
  18   29959.9    333.8   0.098605815   1.08352   0.40572  -0.75528   0.59031
  19   30177.4    331.4   0.021080021   0.22997  -0.09175  -0.34754   0.31744
  20   30256.2    330.5   0.156792788   1.70603   0.19230  -1.03404   0.77447
  21   30436.1    328.6   0.070038918   0.75757   0.50556  -0.59775   0.38035
  22   30734.7    325.4   0.001703398   0.01825  -0.08038   0.08185  -0.07131
  23   31170.1    320.8   0.195899414   2.06905   0.85383   0.48810  -1.04966
  24   31453.8    317.9   0.053009198   0.55482   0.02131  -0.64304   0.37533
  25   31522.0    317.2   1.101037436  11.49911   2.51110  -2.23228   0.45872
  26   32071.4    311.8   0.068806136   0.70629  -0.74374   0.36868  -0.13120
  27   32520.1    307.5   0.051748454   0.52387  -0.48677   0.50741  -0.17165
  28   32550.3    307.2   0.515255605   5.21127   1.56410  -1.52901   0.65344
  29   32814.1    304.7   0.014962830   0.15012  -0.15219   0.27092  -0.23143
  30   33244.6    300.8   0.333941468   3.30692   0.97441  -1.29828   0.81971
  31   34078.4    293.4   0.234881825   2.26906  -0.53458  -0.77325   1.17702
  32   34710.1    288.1   0.027051920   0.25658  -0.38176  -0.13826   0.30286
  33   34809.3    287.3   0.004275070   0.04043   0.05549  -0.18533  -0.05483
  34   35030.0    285.5   0.023076564   0.21687  -0.23177  -0.23348   0.32961
  35   35382.4    282.6   0.191842574   1.78498  -0.77566  -0.43007   0.99918
  36   35868.6    278.8   0.000140172   0.00129  -0.03489  -0.00235  -0.00799
  37   35960.2    278.1   0.041840429   0.38304   0.26924  -0.53035   0.17114
  38   36320.3    275.3   0.077739256   0.70464   0.00677  -0.61230   0.57418
  39   36664.4    272.7   0.102732213   0.92244   0.19582  -0.68806   0.64083
  40   36820.8    271.6   0.116940728   1.04556  -0.79871   0.63277  -0.08497
  41   36945.9    270.7   0.037732330   0.33622  -0.41133   0.40431  -0.05966
  42   36975.8    270.4   0.001517295   0.01351  -0.08791   0.06952  -0.03081
  43   37175.9    269.0   0.054691762   0.48432   0.63814  -0.19193  -0.20067
  44   37468.5    266.9   0.018042188   0.15853   0.24289  -0.28490   0.13551
  45   37700.3    265.3   0.017774477   0.15521   0.28387   0.07278  -0.26331
  46   38039.7    262.9   0.009155115   0.07923   0.20100  -0.11204   0.16211
  47   38125.4    262.3   0.158304565   1.36696   0.80249  -0.77707   0.34516
  48   38527.5    259.6   0.015353888   0.13120   0.02388  -0.25234   0.25875
  49   38733.4    258.2   0.019681208   0.16728   0.13564   0.25483  -0.28972
  50   38844.4    257.4   0.198148131   1.67934   0.16561  -0.93234   0.88468
  51   39109.9    255.7   0.050046521   0.42127   0.36648  -0.46431   0.26718
  52   39264.1    254.7   0.041321990   0.34647   0.39042   0.15145  -0.41365
  53   39373.9    254.0   0.003975614   0.03324   0.10867   0.12958  -0.06812
  54   39537.1    252.9   0.003305446   0.02752  -0.13368  -0.08196   0.05418
  55   40248.1    248.5   0.026316716   0.21526   0.35572  -0.01125  -0.29765

FINAL SINGLE POINT ENERGY     -5721.592695879196

DIPOLE MOMENT
-------------
                                X             Y             Z
Electronic contribution:      1.85966      -9.99953       4.97539
Nuclear contribution   :      1.61434       6.98094      -4.56260
                        -----------------------------------------
Total Dipole Moment    :      3.47400      -3.01860       0.41279
                        -----------------------------------------
Magnitude (a.u.)       :      4.62071
Magnitude (Debye)      :     11.74492

Rotational constants in cm-1:     0.002033     0.000198     0.000181
Rotational constants in MHz :    60.961228     5.941146     5.435255

                             ****ORCA TERMINATED NORMALLY****
TOTAL RUN TIME: 0 days 0 hours 8 minutes 10 seconds 922 msec
