                         Program Version 4.2.0 -  RELEASE  -
|  1> # ORCA input file
|  2> # SCF done       -189.867932859824          0.003241311783
|  3> ! CAM-B3LYP def2-SVP def2/J RIJCOSX Grid4 TightSCF
|  4> %maxcore 5000
|  5> %tddft
|  6>     Mode sTDDFT
|  7>     Ethresh 5.0
|  8>     maxcore 5000
|  9> end
| 10>
| 11> %pal
| 12>   nprocs 6
| 13>   end
| 14> * xyz 0 1
| 15>    C       10.89642        -9.25979       -11.24637
| 16>    C        9.93139        -9.89163       -11.98550
| 17>    C       10.14083       -10.95084       -12.88715
| 18>    N       10.24518       -11.81688       -13.63301
| 19>    C        8.58643        -9.48066       -11.86482
| 20>    N        7.49284        -9.15230       -11.76344
| 21>    N       12.23020        -9.51209       -11.22312
| 22>    C       12.87609       -10.53207       -12.01427
| 23>    C       12.98878        -8.72042       -10.36914
| 24>    O       14.18573        -8.83294       -10.24525
| 25>    C       12.13089        -7.76870        -9.66550
| 26>    S       10.46580        -7.94934       -10.16034
| 27>    C       12.62127        -6.89981        -8.74340
| 28>    C       11.90605        -5.95916        -7.97951
| 29>    C       12.44428        -5.13731        -6.99293
| 30>    C       11.47974        -4.34368        -6.38912
| 31>    C       10.18810        -4.54747        -6.92570
| 32>    S       10.16983        -5.71941        -8.16211
| 33>    C        9.27127        -3.72094        -6.23994
| 34>    C        9.97942        -2.99492        -5.25711
| 35>    C       11.38580        -3.35629        -5.32375
| 36>    C       12.39999        -2.88048        -4.54633
| 37>    C       12.18532        -1.92500        -3.52985
| 38>    N       12.01923        -1.15047        -2.70114
| 39>    C       13.73331        -3.31373        -4.70787
| 40>    N       14.81684        -3.66572        -4.83808
| 41>    C        9.15538        -2.17362        -4.50086
| 42>    C        7.82556        -2.26115        -4.89936
| 43>    S        7.59954        -3.36636        -6.24357
| 44>    C        6.71504        -1.60089        -4.30965
| 45>    C        5.41059        -1.74169        -4.83161
| 46>    C        4.26455        -1.14267        -4.21536
| 47>    N        3.04967        -1.32408        -4.76924
| 48>    C        2.93197        -2.03125        -5.84624
| 49>    C        4.06768        -2.62626        -6.45657
| 50>    N        5.24892        -2.47537        -5.95055
| 51>    F        3.95107        -3.35085        -7.56234
| 52>    F        1.71838        -2.18238        -6.36291
| 53>    C        4.35166        -0.37862        -3.03051
| 54>    C        5.66130        -0.19633        -2.52405
| 55>    C        6.81964        -0.79069        -3.15364
| 56>    N        7.94000        -0.48590        -2.49721
| 57>    S        7.59014         0.44146        -1.23903
| 58>    N        6.00306         0.50926        -1.44510
| 59>    C        3.19299         0.13430        -2.38982
| 60>    C        3.14749         0.82407        -1.18248
| 61>    C        1.84828         1.14338        -0.81596
| 62>    C        0.89032         0.70288        -1.75646
| 63>    S        1.59810        -0.11101        -3.08098
| 64>    C       -0.39617         1.05768        -1.29049
| 65>    C       -0.25235         1.72197        -0.04859
| 66>    C        1.16178         1.79431         0.28659
| 67>    C        1.72155         2.33926         1.40461
| 68>    C        0.93980         2.93764         2.41536
| 69>    N        0.30245         3.42111         3.23688
| 70>    C        3.11468         2.33268         1.62848
| 71>    N        4.24411         2.32765         1.82064
| 72>    C       -1.46928         2.09191         0.49299
| 73>    C       -2.54799         1.71832        -0.31570
| 74>    S       -2.01982         0.89813        -1.78100
| 75>    C       -3.88217         1.97465         0.04836
| 76>    C       -5.04459         1.66979        -0.59722
| 77>    C       -5.21860         0.99566        -1.86791
| 78>    O       -4.33661         0.58892        -2.60255
| 79>    N       -6.56090         0.85650        -2.17343
| 80>    C       -7.43993         1.35721        -1.26239
| 81>    C       -8.80905         1.33784        -1.32250
| 82>    C       -9.58431         0.78518        -2.35715
| 83>    N      -10.27138         0.35343        -3.16918
| 84>    C       -9.55928         1.90660        -0.27109
| 85>    N      -10.17403         2.36549         0.58090
| 86>    S       -6.60550         2.07956         0.09350
| 87>    C       -6.95192         0.20015        -3.39860
| 88>    H       12.73121       -10.34660       -13.07879
| 89>    H       12.48669       -11.51966       -11.76596
| 90>    H       13.93896       -10.48624       -11.77519
| 91>    H       13.68993        -6.95434        -8.57152
| 92>    H       13.48938        -5.14643        -6.74138
| 93>    H        9.46597        -1.53879        -3.69166
| 94>    H        4.03665         1.05700        -0.62622
| 95>    H       -1.60164         2.60403         1.42927
| 96>    H       -3.98918         2.48904         0.99680
| 97>    H       -6.03229        -0.09047        -3.90719
| 98>    H       -7.52398         0.87643        -4.03428
| 99>    H       -7.55046        -0.68647        -3.18830
|100> *
|101>
|102>                          ****END OF INPUT****

CARTESIAN COORDINATES (ANGSTROEM)
---------------------------------
  C     10.896420   -9.259790  -11.246370
  C      9.931390   -9.891630  -11.985500
  C     10.140830  -10.950840  -12.887150
  N     10.245180  -11.816880  -13.633010
  C      8.586430   -9.480660  -11.864820
  N      7.492840   -9.152300  -11.763440
  N     12.230200   -9.512090  -11.223120
  C     12.876090  -10.532070  -12.014270
  C     12.988780   -8.720420  -10.369140
  O     14.185730   -8.832940  -10.245250
  C     12.130890   -7.768700   -9.665500
  S     10.465800   -7.949340  -10.160340
  C     12.621270   -6.899810   -8.743400
  C     11.906050   -5.959160   -7.979510
  C     12.444280   -5.137310   -6.992930
  C     11.479740   -4.343680   -6.389120
  C     10.188100   -4.547470   -6.925700
  S     10.169830   -5.719410   -8.162110
  C      9.271270   -3.720940   -6.239940
  C      9.979420   -2.994920   -5.257110
  C     11.385800   -3.356290   -5.323750
  C     12.399990   -2.880480   -4.546330
  C     12.185320   -1.925000   -3.529850
  N     12.019230   -1.150470   -2.701140
  C     13.733310   -3.313730   -4.707870
  N     14.816840   -3.665720   -4.838080
  C      9.155380   -2.173620   -4.500860
  C      7.825560   -2.261150   -4.899360
  S      7.599540   -3.366360   -6.243570
  C      6.715040   -1.600890   -4.309650
  C      5.410590   -1.741690   -4.831610
  C      4.264550   -1.142670   -4.215360
  N      3.049670   -1.324080   -4.769240
  C      2.931970   -2.031250   -5.846240
  C      4.067680   -2.626260   -6.456570
  N      5.248920   -2.475370   -5.950550
  F      3.951070   -3.350850   -7.562340
  F      1.718380   -2.182380   -6.362910
  C      4.351660   -0.378620   -3.030510
  C      5.661300   -0.196330   -2.524050
  C      6.819640   -0.790690   -3.153640
  N      7.940000   -0.485900   -2.497210
  S      7.590140    0.441460   -1.239030
  N      6.003060    0.509260   -1.445100
  C      3.192990    0.134300   -2.389820
  C      3.147490    0.824070   -1.182480
  C      1.848280    1.143380   -0.815960
  C      0.890320    0.702880   -1.756460
  S      1.598100   -0.111010   -3.080980
  C     -0.396170    1.057680   -1.290490
  C     -0.252350    1.721970   -0.048590
  C      1.161780    1.794310    0.286590
  C      1.721550    2.339260    1.404610
  C      0.939800    2.937640    2.415360
  N      0.302450    3.421110    3.236880
  C      3.114680    2.332680    1.628480
  N      4.244110    2.327650    1.820640
  C     -1.469280    2.091910    0.492990
  C     -2.547990    1.718320   -0.315700
  S     -2.019820    0.898130   -1.781000
  C     -3.882170    1.974650    0.048360
  C     -5.044590    1.669790   -0.597220
  C     -5.218600    0.995660   -1.867910
  O     -4.336610    0.588920   -2.602550
  N     -6.560900    0.856500   -2.173430
  C     -7.439930    1.357210   -1.262390
  C     -8.809050    1.337840   -1.322500
  C     -9.584310    0.785180   -2.357150
  N    -10.271380    0.353430   -3.169180
  C     -9.559280    1.906600   -0.271090
  N    -10.174030    2.365490    0.580900
  S     -6.605500    2.079560    0.093500
  C     -6.951920    0.200150   -3.398600
  H     12.731210  -10.346600  -13.078790
  H     12.486690  -11.519660  -11.765960
  H     13.938960  -10.486240  -11.775190
  H     13.689930   -6.954340   -8.571520
  H     13.489380   -5.146430   -6.741380
  H      9.465970   -1.538790   -3.691660
  H      4.036650    1.057000   -0.626220
  H     -1.601640    2.604030    1.429270
  H     -3.989180    2.489040    0.996800
  H     -6.032290   -0.090470   -3.907190
  H     -7.523980    0.876430   -4.034280
  H     -7.550460   -0.686470   -3.188300

 Total Charge           Charge          ....    0
 Multiplicity           Mult            ....    1
 Number of Electrons    NEL             ....  544
 Basis Dimension        Dim             .... 1110

ORBITAL ENERGIES
----------------

  NO   OCC          E(Eh)            E(eV)
   0   2.0000     -89.057884     -2423.3882
   1   2.0000     -89.007693     -2422.0225
   2   2.0000     -88.997612     -2421.7481
   3   2.0000     -88.996464     -2421.7169
   4   2.0000     -88.996009     -2421.7045
   5   2.0000     -88.994495     -2421.6633
   6   2.0000     -88.991790     -2421.5897
   7   2.0000     -24.838088      -675.8787
   8   2.0000     -24.837956      -675.8751
   9   2.0000     -19.238375      -523.5028
  10   2.0000     -19.228695      -523.2394
  11   2.0000     -14.509182      -394.8149
  12   2.0000     -14.505875      -394.7249
  13   2.0000     -14.480545      -394.0357
  14   2.0000     -14.480386      -394.0313
  15   2.0000     -14.466433      -393.6517
  16   2.0000     -14.466262      -393.6470
  17   2.0000     -14.439995      -392.9322
  18   2.0000     -14.438753      -392.8984
  19   2.0000     -14.437589      -392.8668
  20   2.0000     -14.435894      -392.8206
  21   2.0000     -14.414718      -392.2444
  22   2.0000     -14.414185      -392.2299
  23   2.0000     -14.412150      -392.1745
  24   2.0000     -14.411488      -392.1565
  25   2.0000     -10.455970      -284.5214
  26   2.0000     -10.455579      -284.5108
  27   2.0000     -10.424299      -283.6596
  28   2.0000     -10.417092      -283.4635
  29   2.0000     -10.407395      -283.1996
  30   2.0000     -10.406298      -283.1698
  31   2.0000     -10.375102      -282.3209
  32   2.0000     -10.371173      -282.2140
  33   2.0000     -10.365951      -282.0719
  34   2.0000     -10.365605      -282.0625
  35   2.0000     -10.362564      -281.9797
  36   2.0000     -10.359659      -281.9007
  37   2.0000     -10.358334      -281.8646
  38   2.0000     -10.358091      -281.8580
  39   2.0000     -10.350842      -281.6607
  40   2.0000     -10.346524      -281.5432
  41   2.0000     -10.343514      -281.4613
  42   2.0000     -10.342290      -281.4280
  43   2.0000     -10.341012      -281.3933
  44   2.0000     -10.340820      -281.3880
  45   2.0000     -10.340012      -281.3660
  46   2.0000     -10.339363      -281.3484
  47   2.0000     -10.338733      -281.3312
  48   2.0000     -10.338136      -281.3150
  49   2.0000     -10.338008      -281.3115
  50   2.0000     -10.337935      -281.3095
  51   2.0000     -10.337409      -281.2952
  52   2.0000     -10.336504      -281.2706
  53   2.0000     -10.336200      -281.2623
  54   2.0000     -10.336145      -281.2608
  55   2.0000     -10.336010      -281.2571
  56   2.0000     -10.335781      -281.2509
  57   2.0000     -10.333851      -281.1984
  58   2.0000     -10.332524      -281.1623
  59   2.0000     -10.328623      -281.0561
  60   2.0000     -10.326340      -280.9940
  61   2.0000     -10.322263      -280.8830
  62   2.0000     -10.320284      -280.8292
  63   2.0000     -10.319508      -280.8081
  64   2.0000     -10.319061      -280.7959
  65   2.0000     -10.318551      -280.7820
  66   2.0000     -10.318310      -280.7755
  67   2.0000     -10.315028      -280.6862
  68   2.0000     -10.313206      -280.6366
  69   2.0000     -10.312711      -280.6231
  70   2.0000     -10.310848      -280.5724
  71   2.0000     -10.307308      -280.4761
  72   2.0000     -10.306174      -280.4453
  73   2.0000      -8.148937      -221.7438
  74   2.0000      -8.101986      -220.4662
  75   2.0000      -8.091666      -220.1854
  76   2.0000      -8.090389      -220.1507
  77   2.0000      -8.089224      -220.1190
  78   2.0000      -8.087979      -220.0851
  79   2.0000      -8.087360      -220.0683
  80   2.0000      -6.120019      -166.5342
  81   2.0000      -6.112076      -166.3180
  82   2.0000      -6.111844      -166.3117
  83   2.0000      -6.071195      -165.2056
  84   2.0000      -6.066974      -165.0908
  85   2.0000      -6.064491      -165.0232
  86   2.0000      -6.061637      -164.9455
  87   2.0000      -6.059689      -164.8925
  88   2.0000      -6.058720      -164.8662
  89   2.0000      -6.057915      -164.8443
  90   2.0000      -6.057503      -164.8330
  91   2.0000      -6.056806      -164.8141
  92   2.0000      -6.055115      -164.7681
  93   2.0000      -6.053979      -164.7371
  94   2.0000      -6.053955      -164.7365
  95   2.0000      -6.052945      -164.7090
  96   2.0000      -6.052099      -164.6860
  97   2.0000      -6.052054      -164.6848
  98   2.0000      -6.051723      -164.6757
  99   2.0000      -6.049871      -164.6254
 100   2.0000      -6.048153      -164.5786
 101   2.0000      -1.367137       -37.2017
 102   2.0000      -1.353088       -36.8194
 103   2.0000      -1.183689       -32.2098
 104   2.0000      -1.175806       -31.9953
 105   2.0000      -1.156082       -31.4586
 106   2.0000      -1.139284       -31.0015
 107   2.0000      -1.110290       -30.2125
 108   2.0000      -1.106144       -30.0997
 109   2.0000      -1.066982       -29.0341
 110   2.0000      -1.056100       -28.7379
 111   2.0000      -1.051588       -28.6152
 112   2.0000      -1.031559       -28.0702
 113   2.0000      -1.028779       -27.9945
 114   2.0000      -1.017420       -27.6854
 115   2.0000      -1.015500       -27.6332
 116   2.0000      -1.014864       -27.6158
 117   2.0000      -1.012797       -27.5596
 118   2.0000      -1.011057       -27.5123
 119   2.0000      -1.008671       -27.4473
 120   2.0000      -1.003678       -27.3115
 121   2.0000      -0.994631       -27.0653
 122   2.0000      -0.992577       -27.0094
 123   2.0000      -0.991299       -26.9746
 124   2.0000      -0.978355       -26.6224
 125   2.0000      -0.974864       -26.5274
 126   2.0000      -0.965438       -26.2709
 127   2.0000      -0.962117       -26.1805
 128   2.0000      -0.937675       -25.5154
 129   2.0000      -0.936525       -25.4841
 130   2.0000      -0.928293       -25.2601
 131   2.0000      -0.920442       -25.0465
 132   2.0000      -0.905886       -24.6504
 133   2.0000      -0.901599       -24.5338
 134   2.0000      -0.889403       -24.2019
 135   2.0000      -0.886091       -24.1118
 136   2.0000      -0.875398       -23.8208
 137   2.0000      -0.867554       -23.6074
 138   2.0000      -0.864833       -23.5333
 139   2.0000      -0.862385       -23.4667
 140   2.0000      -0.837847       -22.7990
 141   2.0000      -0.834391       -22.7049
 142   2.0000      -0.832816       -22.6621
 143   2.0000      -0.826250       -22.4834
 144   2.0000      -0.816850       -22.2276
 145   2.0000      -0.803397       -21.8616
 146   2.0000      -0.795978       -21.6597
 147   2.0000      -0.788127       -21.4460
 148   2.0000      -0.785517       -21.3750
 149   2.0000      -0.774788       -21.0831
 150   2.0000      -0.771056       -20.9815
 151   2.0000      -0.756364       -20.5817
 152   2.0000      -0.738987       -20.1089
 153   2.0000      -0.724384       -19.7115
 154   2.0000      -0.715518       -19.4702
 155   2.0000      -0.710983       -19.3468
 156   2.0000      -0.708656       -19.2835
 157   2.0000      -0.702468       -19.1151
 158   2.0000      -0.701559       -19.0904
 159   2.0000      -0.700846       -19.0710
 160   2.0000      -0.694930       -18.9100
 161   2.0000      -0.689620       -18.7655
 162   2.0000      -0.688733       -18.7414
 163   2.0000      -0.679468       -18.4893
 164   2.0000      -0.669899       -18.2289
 165   2.0000      -0.661280       -17.9943
 166   2.0000      -0.650704       -17.7066
 167   2.0000      -0.649814       -17.6823
 168   2.0000      -0.647904       -17.6304
 169   2.0000      -0.645577       -17.5670
 170   2.0000      -0.642475       -17.4826
 171   2.0000      -0.641389       -17.4531
 172   2.0000      -0.635906       -17.3039
 173   2.0000      -0.630543       -17.1580
 174   2.0000      -0.629288       -17.1238
 175   2.0000      -0.623536       -16.9673
 176   2.0000      -0.616726       -16.7820
 177   2.0000      -0.614118       -16.7110
 178   2.0000      -0.607699       -16.5363
 179   2.0000      -0.604261       -16.4428
 180   2.0000      -0.593624       -16.1533
 181   2.0000      -0.592473       -16.1220
 182   2.0000      -0.591200       -16.0874
 183   2.0000      -0.583668       -15.8824
 184   2.0000      -0.579792       -15.7770
 185   2.0000      -0.579599       -15.7717
 186   2.0000      -0.572012       -15.5652
 187   2.0000      -0.561704       -15.2847
 188   2.0000      -0.558833       -15.2066
 189   2.0000      -0.556040       -15.1306
 190   2.0000      -0.555096       -15.1049
 191   2.0000      -0.554853       -15.0983
 192   2.0000      -0.548277       -14.9194
 193   2.0000      -0.542725       -14.7683
 194   2.0000      -0.539644       -14.6845
 195   2.0000      -0.534553       -14.5459
 196   2.0000      -0.534041       -14.5320
 197   2.0000      -0.529934       -14.4202
 198   2.0000      -0.525859       -14.3093
 199   2.0000      -0.525433       -14.2978
 200   2.0000      -0.524325       -14.2676
 201   2.0000      -0.522188       -14.2095
 202   2.0000      -0.515355       -14.0235
 203   2.0000      -0.511510       -13.9189
 204   2.0000      -0.510906       -13.9025
 205   2.0000      -0.509258       -13.8576
 206   2.0000      -0.508876       -13.8472
 207   2.0000      -0.508723       -13.8431
 208   2.0000      -0.506775       -13.7901
 209   2.0000      -0.505117       -13.7449
 210   2.0000      -0.503315       -13.6959
 211   2.0000      -0.502190       -13.6653
 212   2.0000      -0.498874       -13.5750
 213   2.0000      -0.498450       -13.5635
 214   2.0000      -0.493871       -13.4389
 215   2.0000      -0.490930       -13.3589
 216   2.0000      -0.486513       -13.2387
 217   2.0000      -0.478129       -13.0105
 218   2.0000      -0.475122       -12.9287
 219   2.0000      -0.474131       -12.9018
 220   2.0000      -0.473176       -12.8758
 221   2.0000      -0.470189       -12.7945
 222   2.0000      -0.468086       -12.7373
 223   2.0000      -0.467884       -12.7318
 224   2.0000      -0.465114       -12.6564
 225   2.0000      -0.462932       -12.5970
 226   2.0000      -0.457179       -12.4405
 227   2.0000      -0.452998       -12.3267
 228   2.0000      -0.451879       -12.2963
 229   2.0000      -0.449823       -12.2403
 230   2.0000      -0.448544       -12.2055
 231   2.0000      -0.448196       -12.1960
 232   2.0000      -0.447711       -12.1828
 233   2.0000      -0.447300       -12.1717
 234   2.0000      -0.446285       -12.1440
 235   2.0000      -0.445906       -12.1337
 236   2.0000      -0.443618       -12.0714
 237   2.0000      -0.443491       -12.0680
 238   2.0000      -0.442590       -12.0435
 239   2.0000      -0.440909       -11.9977
 240   2.0000      -0.436431       -11.8759
 241   2.0000      -0.433942       -11.8082
 242   2.0000      -0.432417       -11.7667
 243   2.0000      -0.431377       -11.7384
 244   2.0000      -0.429601       -11.6900
 245   2.0000      -0.427930       -11.6446
 246   2.0000      -0.427736       -11.6393
 247   2.0000      -0.425145       -11.5688
 248   2.0000      -0.423198       -11.5158
 249   2.0000      -0.414426       -11.2771
 250   2.0000      -0.413178       -11.2431
 251   2.0000      -0.412488       -11.2244
 252   2.0000      -0.410738       -11.1767
 253   2.0000      -0.405909       -11.0453
 254   2.0000      -0.392245       -10.6735
 255   2.0000      -0.392085       -10.6692
 256   2.0000      -0.386403       -10.5146
 257   2.0000      -0.382779       -10.4159
 258   2.0000      -0.379835       -10.3358
 259   2.0000      -0.376427       -10.2431
 260   2.0000      -0.364749        -9.9253
 261   2.0000      -0.361843        -9.8462
 262   2.0000      -0.358453        -9.7540
 263   2.0000      -0.354087        -9.6352
 264   2.0000      -0.347978        -9.4690
 265   2.0000      -0.333141        -9.0652
 266   2.0000      -0.329878        -8.9764
 267   2.0000      -0.329245        -8.9592
 268   2.0000      -0.317470        -8.6388
 269   2.0000      -0.300264        -8.1706
 270   2.0000      -0.278007        -7.5650
 271   2.0000      -0.249999        -6.8028
 272   0.0000      -0.139528        -3.7968
 273   0.0000      -0.114127        -3.1056
 274   0.0000      -0.106222        -2.8904
 275   0.0000      -0.081371        -2.2142
 276   0.0000      -0.079470        -2.1625

MULLIKEN ATOMIC CHARGES
-----------------------
   0 C :    0.160501
   1 C :   -0.315010
   2 C :   -0.196235
   3 N :    0.173842
   4 C :   -0.214319
   5 N :    0.147576
   6 N :   -0.233801
   7 C :    0.113538
   8 C :    0.214022
   9 O :   -0.172102
  10 C :   -0.150815
  11 S :    0.114001
  12 C :    0.015450
  13 C :   -0.060571
  14 C :   -0.030995
  15 C :    0.025676
  16 C :   -0.085611
  17 S :    0.177299
  18 C :   -0.063317
  19 C :    0.041124
  20 C :    0.302423
  21 C :   -0.295680
  22 C :   -0.185778
  23 N :    0.175978
  24 C :   -0.191045
  25 N :    0.177705
  26 C :   -0.060257
  27 C :   -0.176519
  28 S :    0.212188
  29 C :    0.178602
  30 C :   -0.056200
  31 C :   -0.055752
  32 N :   -0.049605
  33 C :    0.154559
  34 C :    0.154377
  35 N :   -0.050121
  36 F :   -0.129138
  37 F :   -0.131200
  38 C :    0.181367
  39 C :   -0.011413
  40 C :   -0.009056
  41 N :   -0.287710
  42 S :    0.584030
  43 N :   -0.286128
  44 C :   -0.178101
  45 C :   -0.061660
  46 C :    0.042656
  47 C :   -0.069136
  48 S :    0.211546
  49 C :   -0.081121
  50 C :    0.037259
  51 C :    0.305623
  52 C :   -0.301247
  53 C :   -0.192956
  54 N :    0.174041
  55 C :   -0.185959
  56 N :    0.173920
  57 C :   -0.049642
  58 C :   -0.059673
  59 S :    0.239221
  60 C :    0.032246
  61 C :   -0.175165
  62 C :    0.244540
  63 O :   -0.216843
  64 N :   -0.235603
  65 C :    0.126633
  66 C :   -0.304443
  67 C :   -0.194316
  68 N :    0.170635
  69 C :   -0.217981
  70 N :    0.147604
  71 S :    0.162643
  72 C :    0.114612
  73 H :    0.066729
  74 H :    0.065927
  75 H :    0.069442
  76 H :    0.038707
  77 H :    0.018227
  78 H :    0.022153
  79 H :    0.022458
  80 H :    0.011658
  81 H :    0.016495
  82 H :    0.067830
  83 H :    0.067411
  84 H :    0.067744
Sum of atomic charges:   -0.0000000

LOEWDIN ATOMIC CHARGES
----------------------
   0 C :   -0.027030
   1 C :   -0.205785
   2 C :   -0.034131
   3 N :   -0.055712
   4 C :   -0.041324
   5 N :   -0.048454
   6 N :   -0.006694
   7 C :    0.039348
   8 C :    0.070188
   9 O :   -0.164967
  10 C :   -0.228756
  11 S :    0.412181
  12 C :    0.001148
  13 C :   -0.180430
  14 C :   -0.003303
  15 C :   -0.068523
  16 C :   -0.165806
  17 S :    0.480857
  18 C :   -0.188197
  19 C :   -0.066805
  20 C :    0.079012
  21 C :   -0.098236
  22 C :   -0.016713
  23 N :   -0.027787
  24 C :   -0.017746
  25 N :   -0.029206
  26 C :   -0.011646
  27 C :   -0.160947
  28 S :    0.515674
  29 C :   -0.043496
  30 C :   -0.016073
  31 C :   -0.016863
  32 N :   -0.055415
  33 C :    0.065463
  34 C :    0.066112
  35 N :   -0.056536
  36 F :   -0.018992
  37 F :   -0.020536
  38 C :   -0.040644
  39 C :   -0.038335
  40 C :   -0.037776
  41 N :   -0.274288
  42 S :    0.702504
  43 N :   -0.272836
  44 C :   -0.162209
  45 C :   -0.011313
  46 C :   -0.066442
  47 C :   -0.184986
  48 S :    0.515269
  49 C :   -0.172755
  50 C :   -0.072747
  51 C :    0.079827
  52 C :   -0.103500
  53 C :   -0.017005
  54 N :   -0.033791
  55 C :   -0.017195
  56 N :   -0.031160
  57 C :   -0.003377
  58 C :   -0.182677
  59 S :    0.542356
  60 C :    0.006593
  61 C :   -0.231883
  62 C :    0.070246
  63 O :   -0.193910
  64 N :   -0.001465
  65 C :   -0.032095
  66 C :   -0.209130
  67 C :   -0.034638
  68 N :   -0.059130
  69 C :   -0.041317
  70 N :   -0.046848
  71 S :    0.431263
  72 C :    0.039086
  73 H :    0.041322
  74 H :    0.041195
  75 H :    0.044990
  76 H :    0.060132
  77 H :    0.046339
  78 H :    0.038545
  79 H :    0.038398
  80 H :    0.042643
  81 H :    0.051173
  82 H :    0.043653
  83 H :    0.042010
  84 H :    0.042035

  Mayer bond orders larger than 0.100000
B(  0-C ,  1-C ) :   1.5876 B(  0-C ,  6-N ) :   1.2044 B(  0-C , 11-S ) :   1.0708
B(  1-C ,  2-C ) :   1.1650 B(  1-C ,  4-C ) :   1.1446 B(  2-C ,  3-N ) :   3.0140
B(  4-C ,  5-N ) :   3.0330 B(  6-N ,  7-C ) :   0.9313 B(  6-N ,  8-C ) :   1.0437
B(  7-C , 73-H ) :   0.9694 B(  7-C , 74-H ) :   0.9693 B(  7-C , 75-H ) :   0.9443
B(  8-C ,  9-O ) :   2.1670 B(  8-C , 10-C ) :   0.9669 B( 10-C , 11-S ) :   0.9944
B( 10-C , 12-C ) :   1.6760 B( 12-C , 13-C ) :   1.1704 B( 12-C , 76-H ) :   0.9614
B( 13-C , 14-C ) :   1.3925 B( 13-C , 17-S ) :   1.0729 B( 14-C , 15-C ) :   1.3139
B( 14-C , 77-H ) :   1.0049 B( 15-C , 16-C ) :   1.3928 B( 15-C , 20-C ) :   0.9865
B( 16-C , 17-S ) :   1.1545 B( 16-C , 18-C ) :   1.2066 B( 18-C , 19-C ) :   1.3964
B( 18-C , 28-S ) :   1.0882 B( 19-C , 20-C ) :   0.9967 B( 19-C , 26-C ) :   1.2762
B( 20-C , 21-C ) :   1.7158 B( 21-C , 22-C ) :   1.1394 B( 21-C , 24-C ) :   1.1309
B( 22-C , 23-N ) :   2.9858 B( 24-C , 25-N ) :   2.9941 B( 26-C , 27-C ) :   1.4183
B( 26-C , 78-H ) :   0.9825 B( 27-C , 28-S ) :   1.0952 B( 27-C , 29-C ) :   1.1894
B( 29-C , 30-C ) :   1.2978 B( 29-C , 38-C ) :   0.1281 B( 29-C , 40-C ) :   1.1967
B( 30-C , 31-C ) :   1.1238 B( 30-C , 35-N ) :   1.3767 B( 31-C , 32-N ) :   1.3778
B( 31-C , 38-C ) :   1.2927 B( 32-N , 33-C ) :   1.6524 B( 33-C , 34-C ) :   1.1072
B( 33-C , 37-F ) :   1.1908 B( 34-C , 35-N ) :   1.6501 B( 34-C , 36-F ) :   1.1935
B( 38-C , 39-C ) :   1.1959 B( 38-C , 44-C ) :   1.1931 B( 39-C , 40-C ) :   1.1028
B( 39-C , 43-N ) :   1.5112 B( 40-C , 41-N ) :   1.5104 B( 41-N , 42-S ) :   1.2845
B( 41-N , 43-N ) :   0.1485 B( 42-S , 43-N ) :   1.2860 B( 44-C , 45-C ) :   1.4176
B( 44-C , 48-S ) :   1.0938 B( 45-C , 46-C ) :   1.2764 B( 45-C , 79-H ) :   0.9816
B( 46-C , 47-C ) :   1.3971 B( 46-C , 51-C ) :   0.9954 B( 47-C , 48-S ) :   1.0912
B( 47-C , 49-C ) :   1.2067 B( 49-C , 50-C ) :   1.3671 B( 49-C , 59-S ) :   1.1187
B( 50-C , 51-C ) :   0.9851 B( 50-C , 57-C ) :   1.3299 B( 51-C , 52-C ) :   1.7117
B( 52-C , 53-C ) :   1.1348 B( 52-C , 55-C ) :   1.1381 B( 53-C , 54-N ) :   2.9921
B( 55-C , 56-N ) :   2.9867 B( 57-C , 58-C ) :   1.3519 B( 57-C , 80-H ) :   1.0051
B( 58-C , 59-S ) :   1.0880 B( 58-C , 60-C ) :   1.2514 B( 60-C , 61-C ) :   1.6177
B( 60-C , 81-H ) :   0.9525 B( 61-C , 62-C ) :   1.0040 B( 61-C , 71-S ) :   1.0071
B( 62-C , 63-O ) :   2.0280 B( 62-C , 64-N ) :   1.0819 B( 64-N , 65-C ) :   1.1915
B( 64-N , 72-C ) :   0.9326 B( 65-C , 66-C ) :   1.5582 B( 65-C , 71-S ) :   1.0935
B( 66-C , 67-C ) :   1.1676 B( 66-C , 69-C ) :   1.1481 B( 67-C , 68-N ) :   3.0110
B( 69-C , 70-N ) :   3.0332 B( 72-C , 82-H ) :   0.9441 B( 72-C , 83-H ) :   0.9692
B( 72-C , 84-H ) :   0.9688

-----------------------------------------------------------------------------
         ABSORPTION SPECTRUM VIA TRANSITION ELECTRIC DIPOLE MOMENTS
-----------------------------------------------------------------------------
State   Energy  Wavelength   fosc         T2         TX        TY        TZ
        (cm-1)    (nm)                  (au**2)     (au)      (au)      (au)
-----------------------------------------------------------------------------
   0    9419.6   1061.6   0.989930108  34.59777  -4.67520   2.54076   2.50696
   1   13236.8    755.5   0.040814433   1.01510  -0.84787  -0.44679  -0.31080
   2   14411.6    693.9   0.006538384   0.14936   0.20348  -0.22237  -0.24189
   3   17394.4    574.9   0.056776045   1.07456  -0.76578  -0.58987  -0.37443
   4   21769.7    459.4   0.150655052   2.27828  -1.38249   0.46380   0.38974
   5   22254.4    449.3   1.020954017  15.10306   3.73774  -0.84892  -0.64165
   6   23081.0    433.3   0.540665434   7.71169  -0.56441   2.02576   1.81368
   7   24463.6    408.8   0.298361697   4.01511  -0.41382  -1.38020  -1.39245
   8   24517.3    407.9   0.272333589   3.65682  -1.25594  -0.88571  -1.13796
   9   26070.4    383.6   0.013274413   0.16763   0.39774   0.03330  -0.09123
  10   26500.4    377.4   0.009992100   0.12413   0.35047  -0.00326   0.03594
  11   26804.9    373.1   0.011556187   0.14193   0.17236  -0.27449  -0.19204
  12   27021.6    370.1   0.122487608   1.49230   0.85105   0.46733   0.74136
  13   28750.2    347.8   0.019481212   0.22307  -0.43582   0.16355   0.07992
  14   29434.7    339.7   0.004915920   0.05498  -0.14339  -0.07081  -0.17149
  15   29957.5    333.8   0.001858901   0.02043  -0.08902   0.07856   0.07957
  16   30309.1    329.9   0.104742240   1.13769   0.09353   0.49574   0.93978
  17   30526.9    327.6   0.057100542   0.61579   0.66320   0.20771   0.36444
  18   30714.5    325.6   0.129321283   1.38612   0.90866   0.31443   0.67941
  19   31301.2    319.5   0.207027146   2.17742   1.29556   0.55967   0.43095
  20   31404.5    318.4   0.360281837   3.77682  -1.35918  -0.80029  -1.13533
  21   31717.0    315.3   0.023442260   0.24332  -0.20614  -0.24974  -0.37210
  22   31837.3    314.1   0.527855020   5.45826   2.31124  -0.34018   0.02692
  23   32031.5    312.2   0.193778612   1.99161   0.28742  -0.79085  -1.13294
  24   32089.2    311.6   0.322784170   3.31153   0.30986   0.94741   1.52248
  25   32853.8    304.4   0.240521073   2.41014  -0.74848  -0.61494  -1.21317
  26   33019.9    302.8   0.090830270   0.90559   0.61027   0.25741   0.68330
  27   33686.6    296.9   0.060059936   0.58695  -0.56279   0.35381   0.38083
  28   34258.9    291.9   0.036991620   0.35547  -0.01151   0.32830   0.49755
  29   34591.9    289.1   0.082836641   0.78836   0.64360  -0.42528  -0.43962
  30   34933.2    286.3   0.004299818   0.04052   0.08526  -0.03566   0.17883
  31   35313.6    283.2   0.257767900   2.40305   1.54149  -0.03237   0.16068
  32   35518.9    281.5   0.501493523   4.64816  -1.12208  -0.86440  -1.62539
  33   35997.8    277.8   0.095470633   0.87311   0.05523   0.58094   0.72978
  34   36324.8    275.3   0.045709422   0.41426  -0.02437   0.47336   0.43543
  35   36677.3    272.6   0.074325748   0.66714  -0.69580   0.27627   0.32663
  36   36838.7    271.5   0.003950290   0.03530   0.02280   0.07306   0.17160
  37   36940.6    270.7   0.109807874   0.97860   0.73041   0.32700   0.58152
  38   37199.0    268.8   0.169672652   1.50161   1.10047   0.20583   0.49820
  39   37317.2    268.0   0.009367526   0.08264   0.04521   0.23160   0.16419
  40   37535.0    266.4   0.075407664   0.66139   0.51441   0.33866   0.53111
  41   37849.7    264.2   0.015375605   0.13374  -0.26261   0.18049   0.17943
  42   38143.9    262.2   0.003307988   0.02855   0.08330   0.10254   0.10535
  43   38379.4    260.6   0.008914285   0.07647  -0.14589   0.16310   0.16906
  44   38509.4    259.7   0.030070641   0.25707  -0.19089  -0.25471  -0.39466
  45   38735.9    258.2   0.011977361   0.10179  -0.26352  -0.15046  -0.09856
  46   38951.2    256.7   0.020963825   0.17718   0.25084  -0.14429  -0.30569
  47   39063.2    256.0   0.009777834   0.08240  -0.13856  -0.12515  -0.21804
  48   39202.1    255.1   0.059177575   0.49696   0.42754   0.25807   0.49757
  49   39724.3    251.7   0.018562635   0.15384   0.28978  -0.17334  -0.19955
  50   40133.9    249.2   0.015400002   0.12632  -0.24912  -0.17675  -0.18172

FINAL SINGLE POINT ENERGY     -5735.650524271129

DIPOLE MOMENT
-------------
                                X             Y             Z
Electronic contribution:     -1.98141      12.64818       6.21007
Nuclear contribution   :      4.16862     -12.15335      -6.47953
                        -----------------------------------------
Total Dipole Moment    :      2.18721       0.49482      -0.26946
                        -----------------------------------------
Magnitude (a.u.)       :      2.25861
Magnitude (Debye)      :      5.74094

Rotational constants in cm-1:     0.001342     0.000230     0.000198
Rotational constants in MHz :    40.247033     6.909293     5.932728

                             ****ORCA TERMINATED NORMALLY****
TOTAL RUN TIME: 0 days 0 hours 8 minutes 29 seconds 791 msec
