                         Program Version 4.2.0 -  RELEASE  -
|  1> # ORCA input file
|  2> # SCF done       -153.492578802417          0.000810245711
|  3> ! CAM-B3LYP def2-SVP def2/J RIJCOSX Grid4 TightSCF
|  4> %maxcore 5000
|  5> %tddft
|  6>     Mode sTDDFT
|  7>     Ethresh 5.0
|  8>     maxcore 5000
|  9> end
| 10>
| 11> %pal
| 12>   nprocs 6
| 13>   end
| 14> * xyz 0 1
| 15>    C        4.41934        -1.90720         6.47542
| 16>    C        3.98275        -2.78341         7.43570
| 17>    C        3.55535        -2.44500         8.73140
| 18>    N        3.19177        -2.23184         9.79940
| 19>    C        3.93880        -4.16187         7.14109
| 20>    N        3.90247        -5.28297         6.90047
| 21>    N        4.53125        -0.55778         6.56535
| 22>    C        4.19682         0.20671         7.74248
| 23>    C        4.99756         0.09617         5.42898
| 24>    O        5.14255         1.29607         5.36954
| 25>    C        5.26890        -0.86229         4.36422
| 26>    S        4.91814        -2.49070         4.90130
| 27>    C        5.71871        -0.46721         3.14452
| 28>    C        6.01407        -1.26728         2.02335
| 29>    C        5.96298        -2.64720         1.86228
| 30>    C        6.32117        -3.07100         0.59209
| 31>    C        6.65171        -2.00229        -0.24251
| 32>    S        6.52814        -0.48229         0.54213
| 33>    C        7.01837        -2.33188        -1.56982
| 34>    C        7.01616        -3.68950        -1.88938
| 35>   Si        6.48910        -4.69670        -0.37260
| 36>    C        4.82163        -5.57354        -0.60603
| 37>    C        7.86786        -5.81006         0.30707
| 38>    C        7.38096        -3.90276        -3.21514
| 39>    C        7.65109        -2.73120        -3.89197
| 40>    S        7.46239        -1.32591        -2.89301
| 41>    C        8.02417        -2.56903        -5.26575
| 42>    N        8.17212        -1.32516        -5.71302
| 43>    C        8.48409        -1.21084        -7.00185
| 44>    N        8.66547        -2.25168        -7.82585
| 45>    C        8.51148        -3.43523        -7.27013
| 46>    N        8.18823        -3.66886        -6.01396
| 47>    C        8.62126         0.10722        -7.54335
| 48>    C        8.49461         1.30875        -6.87365
| 49>    C        8.66474         2.41051        -7.70408
| 50>    C        8.92085         2.02382        -9.02048
| 51>    S        8.96015         0.31648        -9.23047
| 52>    C        9.08756         3.07249        -9.95649
| 53>    C        8.97945         4.37316        -9.45723
| 54>   Si        8.63715         4.30313        -7.59357
| 55>    C       10.06294         5.01254        -6.55989
| 56>    C        6.93004         4.99438        -7.13279
| 57>    C        9.13780         5.33044       -10.44522
| 58>    C        9.36550         4.79374       -11.70730
| 59>    S        9.38843         3.03379       -11.64196
| 60>    C        9.55702         5.38092       -12.97236
| 61>    C        9.57143         6.68665       -13.37007
| 62>    C        9.40816         7.92647       -12.62819
| 63>    O        9.23393         8.07097       -11.43519
| 64>    N        9.47850         9.01944       -13.48720
| 65>    C        9.68111         8.75258       -14.80374
| 66>    C        9.77778         9.65094       -15.83664
| 67>    C        9.67735        11.04873       -15.73110
| 68>    N        9.60247        12.19454       -15.71331
| 69>    C        9.99360         9.18027       -17.14851
| 70>    N       10.16809         8.80672       -18.21888
| 71>    S        9.81531         7.03689       -15.08167
| 72>    C        9.33832        10.35239       -12.95250
| 73>    H        4.81048        -0.09879         8.59037
| 74>    H        3.14423         0.08353         7.99897
| 75>    H        4.39617         1.25154         7.50214
| 76>    H        5.85533         0.60261         3.03664
| 77>    H        5.67491        -3.31808         2.65089
| 78>    H        4.46364        -5.97397         0.33695
| 79>    H        4.91760        -6.40151        -1.30080
| 80>    H        4.06310        -4.89963        -0.99254
| 81>    H        8.80151        -5.26882         0.42605
| 82>    H        8.04929        -6.64573        -0.36088
| 83>    H        7.59060        -6.21550         1.27475
| 84>    H        7.45077        -4.86133        -3.69530
| 85>    H        8.66014        -4.29918        -7.90675
| 86>    H        8.28365         1.34873        -5.82077
| 87>    H        9.90088         4.82822        -5.50289
| 88>    H       10.13783         6.08589        -6.70101
| 89>    H       11.01685         4.57252        -6.83390
| 90>    H        6.14238         4.55942        -7.74028
| 91>    H        6.90393         6.07011        -7.27272
| 92>    H        6.70072         4.79027        -6.09198
| 93>    H        9.09068         6.38964       -10.27775
| 94>    H        9.71059         4.66373       -13.77185
| 95>    H        9.20518        10.24527       -11.87550
| 96>    H        8.46947        10.85252       -13.38124
| 97>    H       10.22994        10.94617       -13.15491
| 98> *
| 99>
|100>                          ****END OF INPUT****

CARTESIAN COORDINATES (ANGSTROEM)
---------------------------------
  C      4.419340   -1.907200    6.475420
  C      3.982750   -2.783410    7.435700
  C      3.555350   -2.445000    8.731400
  N      3.191770   -2.231840    9.799400
  C      3.938800   -4.161870    7.141090
  N      3.902470   -5.282970    6.900470
  N      4.531250   -0.557780    6.565350
  C      4.196820    0.206710    7.742480
  C      4.997560    0.096170    5.428980
  O      5.142550    1.296070    5.369540
  C      5.268900   -0.862290    4.364220
  S      4.918140   -2.490700    4.901300
  C      5.718710   -0.467210    3.144520
  C      6.014070   -1.267280    2.023350
  C      5.962980   -2.647200    1.862280
  C      6.321170   -3.071000    0.592090
  C      6.651710   -2.002290   -0.242510
  S      6.528140   -0.482290    0.542130
  C      7.018370   -2.331880   -1.569820
  C      7.016160   -3.689500   -1.889380
  Si     6.489100   -4.696700   -0.372600
  C      4.821630   -5.573540   -0.606030
  C      7.867860   -5.810060    0.307070
  C      7.380960   -3.902760   -3.215140
  C      7.651090   -2.731200   -3.891970
  S      7.462390   -1.325910   -2.893010
  C      8.024170   -2.569030   -5.265750
  N      8.172120   -1.325160   -5.713020
  C      8.484090   -1.210840   -7.001850
  N      8.665470   -2.251680   -7.825850
  C      8.511480   -3.435230   -7.270130
  N      8.188230   -3.668860   -6.013960
  C      8.621260    0.107220   -7.543350
  C      8.494610    1.308750   -6.873650
  C      8.664740    2.410510   -7.704080
  C      8.920850    2.023820   -9.020480
  S      8.960150    0.316480   -9.230470
  C      9.087560    3.072490   -9.956490
  C      8.979450    4.373160   -9.457230
  Si     8.637150    4.303130   -7.593570
  C     10.062940    5.012540   -6.559890
  C      6.930040    4.994380   -7.132790
  C      9.137800    5.330440  -10.445220
  C      9.365500    4.793740  -11.707300
  S      9.388430    3.033790  -11.641960
  C      9.557020    5.380920  -12.972360
  C      9.571430    6.686650  -13.370070
  C      9.408160    7.926470  -12.628190
  O      9.233930    8.070970  -11.435190
  N      9.478500    9.019440  -13.487200
  C      9.681110    8.752580  -14.803740
  C      9.777780    9.650940  -15.836640
  C      9.677350   11.048730  -15.731100
  N      9.602470   12.194540  -15.713310
  C      9.993600    9.180270  -17.148510
  N     10.168090    8.806720  -18.218880
  S      9.815310    7.036890  -15.081670
  C      9.338320   10.352390  -12.952500
  H      4.810480   -0.098790    8.590370
  H      3.144230    0.083530    7.998970
  H      4.396170    1.251540    7.502140
  H      5.855330    0.602610    3.036640
  H      5.674910   -3.318080    2.650890
  H      4.463640   -5.973970    0.336950
  H      4.917600   -6.401510   -1.300800
  H      4.063100   -4.899630   -0.992540
  H      8.801510   -5.268820    0.426050
  H      8.049290   -6.645730   -0.360880
  H      7.590600   -6.215500    1.274750
  H      7.450770   -4.861330   -3.695300
  H      8.660140   -4.299180   -7.906750
  H      8.283650    1.348730   -5.820770
  H      9.900880    4.828220   -5.502890
  H     10.137830    6.085890   -6.701010
  H     11.016850    4.572520   -6.833900
  H      6.142380    4.559420   -7.740280
  H      6.903930    6.070110   -7.272720
  H      6.700720    4.790270   -6.091980
  H      9.090680    6.389640  -10.277750
  H      9.710590    4.663730  -13.771850
  H      9.205180   10.245270  -11.875500
  H      8.469470   10.852520  -13.381240
  H     10.229940   10.946170  -13.154910

 Total Charge           Charge          ....    0
 Multiplicity           Mult            ....    1
 Number of Electrons    NEL             ....  462
 Basis Dimension        Dim             ....  969

ORBITAL ENERGIES
----------------

  NO   OCC          E(Eh)            E(eV)
   0   2.0000     -88.989035     -2421.5148
   1   2.0000     -88.982788     -2421.3448
   2   2.0000     -88.981249     -2421.3029
   3   2.0000     -88.979036     -2421.2427
   4   2.0000     -88.976349     -2421.1696
   5   2.0000     -88.975444     -2421.1449
   6   2.0000     -66.214386     -1801.7850
   7   2.0000     -66.212277     -1801.7277
   8   2.0000     -19.225956      -523.1649
   9   2.0000     -19.221905      -523.0546
  10   2.0000     -14.500061      -394.5667
  11   2.0000     -14.498616      -394.5274
  12   2.0000     -14.425327      -392.5331
  13   2.0000     -14.420509      -392.4020
  14   2.0000     -14.419839      -392.3838
  15   2.0000     -14.409893      -392.1131
  16   2.0000     -14.409207      -392.0945
  17   2.0000     -14.404111      -391.9558
  18   2.0000     -14.403719      -391.9451
  19   2.0000     -10.414496      -283.3929
  20   2.0000     -10.410387      -283.2810
  21   2.0000     -10.401737      -283.0456
  22   2.0000     -10.397185      -282.9218
  23   2.0000     -10.371424      -282.2208
  24   2.0000     -10.371060      -282.2109
  25   2.0000     -10.357220      -281.8343
  26   2.0000     -10.340169      -281.3703
  27   2.0000     -10.333777      -281.1964
  28   2.0000     -10.332899      -281.1725
  29   2.0000     -10.331729      -281.1406
  30   2.0000     -10.330332      -281.1026
  31   2.0000     -10.329293      -281.0744
  32   2.0000     -10.328864      -281.0627
  33   2.0000     -10.324776      -280.9515
  34   2.0000     -10.324242      -280.9369
  35   2.0000     -10.323649      -280.9208
  36   2.0000     -10.322326      -280.8848
  37   2.0000     -10.321718      -280.8682
  38   2.0000     -10.320746      -280.8418
  39   2.0000     -10.319810      -280.8163
  40   2.0000     -10.315553      -280.7005
  41   2.0000     -10.313820      -280.6533
  42   2.0000     -10.311046      -280.5778
  43   2.0000     -10.308927      -280.5202
  44   2.0000     -10.308633      -280.5122
  45   2.0000     -10.307758      -280.4884
  46   2.0000     -10.302787      -280.3531
  47   2.0000     -10.292806      -280.0815
  48   2.0000     -10.292264      -280.0667
  49   2.0000     -10.290091      -280.0076
  50   2.0000     -10.276195      -279.6295
  51   2.0000     -10.272329      -279.5243
  52   2.0000     -10.271327      -279.4970
  53   2.0000     -10.271124      -279.4915
  54   2.0000     -10.263203      -279.2759
  55   2.0000     -10.263032      -279.2713
  56   2.0000     -10.261871      -279.2397
  57   2.0000     -10.261799      -279.2377
  58   2.0000      -8.084413      -219.9881
  59   2.0000      -8.078281      -219.8212
  60   2.0000      -8.077624      -219.8033
  61   2.0000      -8.074605      -219.7212
  62   2.0000      -8.071264      -219.6303
  63   2.0000      -8.070306      -219.6042
  64   2.0000      -6.054346      -164.7471
  65   2.0000      -6.050266      -164.6361
  66   2.0000      -6.047518      -164.5613
  67   2.0000      -6.047349      -164.5567
  68   2.0000      -6.044924      -164.4907
  69   2.0000      -6.043619      -164.4552
  70   2.0000      -6.043587      -164.4544
  71   2.0000      -6.043423      -164.4499
  72   2.0000      -6.040609      -164.3733
  73   2.0000      -6.040376      -164.3670
  74   2.0000      -6.039779      -164.3507
  75   2.0000      -6.039395      -164.3403
  76   2.0000      -6.037850      -164.2982
  77   2.0000      -6.036956      -164.2739
  78   2.0000      -6.036306      -164.2562
  79   2.0000      -6.035314      -164.2293
  80   2.0000      -6.033714      -164.1857
  81   2.0000      -6.032805      -164.1610
  82   2.0000      -5.379378      -146.3803
  83   2.0000      -5.377164      -146.3201
  84   2.0000      -3.743061      -101.8539
  85   2.0000      -3.741560      -101.8130
  86   2.0000      -3.740825      -101.7930
  87   2.0000      -3.740277      -101.7781
  88   2.0000      -3.739356      -101.7531
  89   2.0000      -3.738117      -101.7193
  90   2.0000      -1.171386       -31.8750
  91   2.0000      -1.169127       -31.8136
  92   2.0000      -1.128419       -30.7058
  93   2.0000      -1.099849       -29.9284
  94   2.0000      -1.098730       -29.8980
  95   2.0000      -1.020598       -27.7719
  96   2.0000      -1.016134       -27.6504
  97   2.0000      -1.007028       -27.4026
  98   2.0000      -1.005941       -27.3730
  99   2.0000      -1.003085       -27.2953
 100   2.0000      -1.000608       -27.2279
 101   2.0000      -0.989553       -26.9271
 102   2.0000      -0.985730       -26.8231
 103   2.0000      -0.984119       -26.7793
 104   2.0000      -0.981161       -26.6987
 105   2.0000      -0.965858       -26.2823
 106   2.0000      -0.963706       -26.2238
 107   2.0000      -0.930307       -25.3149
 108   2.0000      -0.926469       -25.2105
 109   2.0000      -0.901934       -24.5429
 110   2.0000      -0.900385       -24.5007
 111   2.0000      -0.867471       -23.6051
 112   2.0000      -0.864017       -23.5111
 113   2.0000      -0.859446       -23.3867
 114   2.0000      -0.855346       -23.2751
 115   2.0000      -0.840970       -22.8840
 116   2.0000      -0.837998       -22.8031
 117   2.0000      -0.826979       -22.5032
 118   2.0000      -0.824864       -22.4457
 119   2.0000      -0.822025       -22.3684
 120   2.0000      -0.814710       -22.1694
 121   2.0000      -0.803641       -21.8682
 122   2.0000      -0.802477       -21.8365
 123   2.0000      -0.794300       -21.6140
 124   2.0000      -0.790287       -21.5048
 125   2.0000      -0.779870       -21.2214
 126   2.0000      -0.778545       -21.1853
 127   2.0000      -0.761788       -20.7293
 128   2.0000      -0.753897       -20.5146
 129   2.0000      -0.729849       -19.8602
 130   2.0000      -0.717635       -19.5278
 131   2.0000      -0.703409       -19.1407
 132   2.0000      -0.697629       -18.9834
 133   2.0000      -0.690106       -18.7787
 134   2.0000      -0.687655       -18.7120
 135   2.0000      -0.681896       -18.5553
 136   2.0000      -0.665362       -18.1054
 137   2.0000      -0.659457       -17.9448
 138   2.0000      -0.646424       -17.5901
 139   2.0000      -0.643046       -17.4982
 140   2.0000      -0.639950       -17.4139
 141   2.0000      -0.634862       -17.2755
 142   2.0000      -0.630738       -17.1633
 143   2.0000      -0.623275       -16.9602
 144   2.0000      -0.616711       -16.7816
 145   2.0000      -0.613856       -16.7039
 146   2.0000      -0.598551       -16.2874
 147   2.0000      -0.597436       -16.2571
 148   2.0000      -0.596685       -16.2366
 149   2.0000      -0.593115       -16.1395
 150   2.0000      -0.589356       -16.0372
 151   2.0000      -0.576402       -15.6847
 152   2.0000      -0.573424       -15.6037
 153   2.0000      -0.559815       -15.2333
 154   2.0000      -0.558503       -15.1976
 155   2.0000      -0.554799       -15.0968
 156   2.0000      -0.548979       -14.9385
 157   2.0000      -0.543151       -14.7799
 158   2.0000      -0.532681       -14.4950
 159   2.0000      -0.528692       -14.3864
 160   2.0000      -0.522402       -14.2153
 161   2.0000      -0.521704       -14.1963
 162   2.0000      -0.519577       -14.1384
 163   2.0000      -0.517479       -14.0813
 164   2.0000      -0.511966       -13.9313
 165   2.0000      -0.510485       -13.8910
 166   2.0000      -0.510185       -13.8828
 167   2.0000      -0.505672       -13.7600
 168   2.0000      -0.503946       -13.7131
 169   2.0000      -0.501781       -13.6542
 170   2.0000      -0.500798       -13.6274
 171   2.0000      -0.500052       -13.6071
 172   2.0000      -0.499811       -13.6006
 173   2.0000      -0.498126       -13.5547
 174   2.0000      -0.495838       -13.4924
 175   2.0000      -0.494315       -13.4510
 176   2.0000      -0.488524       -13.2934
 177   2.0000      -0.487894       -13.2763
 178   2.0000      -0.484991       -13.1973
 179   2.0000      -0.483795       -13.1647
 180   2.0000      -0.482938       -13.1414
 181   2.0000      -0.481988       -13.1156
 182   2.0000      -0.481283       -13.0964
 183   2.0000      -0.473700       -12.8900
 184   2.0000      -0.473187       -12.8761
 185   2.0000      -0.465938       -12.6788
 186   2.0000      -0.464828       -12.6486
 187   2.0000      -0.458554       -12.4779
 188   2.0000      -0.458216       -12.4687
 189   2.0000      -0.452112       -12.3026
 190   2.0000      -0.448472       -12.2035
 191   2.0000      -0.445179       -12.1139
 192   2.0000      -0.443725       -12.0744
 193   2.0000      -0.443631       -12.0718
 194   2.0000      -0.443187       -12.0597
 195   2.0000      -0.439672       -11.9641
 196   2.0000      -0.439212       -11.9516
 197   2.0000      -0.438395       -11.9293
 198   2.0000      -0.436688       -11.8829
 199   2.0000      -0.433801       -11.8043
 200   2.0000      -0.429374       -11.6839
 201   2.0000      -0.425116       -11.5680
 202   2.0000      -0.423084       -11.5127
 203   2.0000      -0.420451       -11.4410
 204   2.0000      -0.417828       -11.3697
 205   2.0000      -0.412402       -11.2220
 206   2.0000      -0.411271       -11.1912
 207   2.0000      -0.408429       -11.1139
 208   2.0000      -0.403930       -10.9915
 209   2.0000      -0.403133       -10.9698
 210   2.0000      -0.402216       -10.9448
 211   2.0000      -0.396744       -10.7960
 212   2.0000      -0.394653       -10.7391
 213   2.0000      -0.391009       -10.6399
 214   2.0000      -0.387788       -10.5523
 215   2.0000      -0.373379       -10.1602
 216   2.0000      -0.372494       -10.1361
 217   2.0000      -0.370151       -10.0723
 218   2.0000      -0.366400        -9.9703
 219   2.0000      -0.350999        -9.5512
 220   2.0000      -0.347990        -9.4693
 221   2.0000      -0.346178        -9.4200
 222   2.0000      -0.341229        -9.2853
 223   2.0000      -0.338238        -9.2039
 224   2.0000      -0.337040        -9.1713
 225   2.0000      -0.333591        -9.0775
 226   2.0000      -0.331922        -9.0321
 227   2.0000      -0.306142        -8.3306
 228   2.0000      -0.302121        -8.2211
 229   2.0000      -0.263252        -7.1634
 230   2.0000      -0.259170        -7.0524
 231   0.0000      -0.090826        -2.4715
 232   0.0000      -0.086051        -2.3416
 233   0.0000      -0.048231        -1.3124
 234   0.0000      -0.040894        -1.1128
 235   0.0000      -0.012549        -0.3415

MULLIKEN ATOMIC CHARGES
-----------------------
   0 C :    0.155759
   1 C :   -0.313234
   2 C :   -0.193390
   3 N :    0.171780
   4 C :   -0.213444
   5 N :    0.138916
   6 N :   -0.236058
   7 C :    0.116620
   8 C :    0.211963
   9 O :   -0.181206
  10 C :   -0.150753
  11 S :    0.107805
  12 C :    0.065256
  13 C :   -0.100314
  14 C :   -0.021455
  15 C :   -0.138455
  16 C :   -0.080577
  17 S :    0.170775
  18 C :   -0.077971
  19 C :   -0.126551
  20 Si:    0.552716
  21 C :   -0.206524
  22 C :   -0.205862
  23 C :   -0.028275
  24 C :   -0.061895
  25 S :    0.197348
  26 C :   -0.021281
  27 N :   -0.062382
  28 C :   -0.025542
  29 N :   -0.110899
  30 C :    0.115756
  31 N :   -0.099192
  32 C :   -0.061340
  33 C :   -0.027757
  34 C :   -0.126295
  35 C :   -0.077339
  36 S :    0.211737
  37 C :   -0.076801
  38 C :   -0.135644
  39 Si:    0.556483
  40 C :   -0.207504
  41 C :   -0.207181
  42 C :   -0.011684
  43 C :   -0.115859
  44 S :    0.154700
  45 C :    0.113682
  46 C :   -0.190024
  47 C :    0.245032
  48 O :   -0.194951
  49 N :   -0.239766
  50 C :    0.127377
  51 C :   -0.306740
  52 C :   -0.197251
  53 N :    0.163409
  54 C :   -0.219142
  55 N :    0.144042
  56 S :    0.143495
  57 C :    0.115331
  58 H :    0.063925
  59 H :    0.063983
  60 H :    0.067049
  61 H :    0.025637
  62 H :    0.001470
  63 H :    0.051203
  64 H :    0.050051
  65 H :    0.057123
  66 H :    0.056604
  67 H :    0.049251
  68 H :    0.050094
  69 H :   -0.002223
  70 H :    0.018813
  71 H :   -0.006670
  72 H :    0.046830
  73 H :    0.051453
  74 H :    0.056350
  75 H :    0.056916
  76 H :    0.051495
  77 H :    0.046313
  78 H :    0.012636
  79 H :    0.007003
  80 H :    0.065100
  81 H :    0.064772
  82 H :    0.065381
Sum of atomic charges:    0.0000000

LOEWDIN ATOMIC CHARGES
----------------------
   0 C :   -0.027627
   1 C :   -0.210405
   2 C :   -0.034158
   3 N :   -0.059929
   4 C :   -0.040490
   5 N :   -0.053965
   6 N :   -0.007419
   7 C :    0.038762
   8 C :    0.070053
   9 O :   -0.171908
  10 C :   -0.225131
  11 S :    0.427119
  12 C :    0.000351
  13 C :   -0.189594
  14 C :   -0.038732
  15 C :   -0.199165
  16 C :   -0.178907
  17 S :    0.456894
  18 C :   -0.188790
  19 C :   -0.201249
  20 Si:    0.682111
  21 C :   -0.240905
  22 C :   -0.240989
  23 C :   -0.016091
  24 C :   -0.199032
  25 S :    0.476323
  26 C :    0.036496
  27 N :   -0.119922
  28 C :    0.037596
  29 N :   -0.129630
  30 C :    0.075748
  31 N :   -0.117815
  32 C :   -0.200538
  33 C :   -0.017761
  34 C :   -0.199820
  35 C :   -0.189253
  36 S :    0.485900
  37 C :   -0.175434
  38 C :   -0.203331
  39 Si:    0.682300
  40 C :   -0.241363
  41 C :   -0.241301
  42 C :   -0.015159
  43 C :   -0.184798
  44 S :    0.448252
  45 C :   -0.001166
  46 C :   -0.223959
  47 C :    0.076080
  48 O :   -0.172736
  49 N :   -0.005161
  50 C :   -0.034070
  51 C :   -0.215278
  52 C :   -0.034440
  53 N :   -0.065574
  54 C :   -0.041005
  55 N :   -0.053290
  56 S :    0.423306
  57 C :    0.037027
  58 H :    0.040458
  59 H :    0.040449
  60 H :    0.044009
  61 H :    0.049633
  62 H :    0.020530
  63 H :    0.038428
  64 H :    0.037866
  65 H :    0.041885
  66 H :    0.041744
  67 H :    0.037846
  68 H :    0.038225
  69 H :    0.036618
  70 H :    0.023414
  71 H :    0.034240
  72 H :    0.036447
  73 H :    0.038422
  74 H :    0.041457
  75 H :    0.041533
  76 H :    0.038301
  77 H :    0.036387
  78 H :    0.032699
  79 H :    0.038709
  80 H :    0.042115
  81 H :    0.040670
  82 H :    0.040886

  Mayer bond orders larger than 0.100000
B(  0-C ,  1-C ) :   1.5704 B(  0-C ,  6-N ) :   1.2092 B(  0-C , 11-S ) :   1.0755
B(  1-C ,  2-C ) :   1.1661 B(  1-C ,  4-C ) :   1.1464 B(  2-C ,  3-N ) :   3.0130
B(  4-C ,  5-N ) :   3.0321 B(  6-N ,  7-C ) :   0.9349 B(  6-N ,  8-C ) :   1.0359
B(  7-C , 58-H ) :   0.9693 B(  7-C , 59-H ) :   0.9693 B(  7-C , 60-H ) :   0.9441
B(  8-C ,  9-O ) :   2.1565 B(  8-C , 10-C ) :   0.9757 B( 10-C , 11-S ) :   0.9923
B( 10-C , 12-C ) :   1.7179 B( 12-C , 13-C ) :   1.1481 B( 12-C , 61-H ) :   0.9433
B( 13-C , 14-C ) :   1.4325 B( 13-C , 17-S ) :   1.0922 B( 14-C , 15-C ) :   1.3212
B( 14-C , 62-H ) :   0.9795 B( 15-C , 16-C ) :   1.5025 B( 15-C , 20-Si) :   0.8600
B( 16-C , 17-S ) :   1.1405 B( 16-C , 18-C ) :   1.1534 B( 18-C , 19-C ) :   1.5063
B( 18-C , 24-C ) :   0.1072 B( 18-C , 25-S ) :   1.1242 B( 19-C , 20-Si) :   0.8741
B( 19-C , 23-C ) :   1.2458 B( 20-Si, 21-C ) :   1.0566 B( 20-Si, 22-C ) :   1.0540
B( 21-C , 63-H ) :   0.9544 B( 21-C , 64-H ) :   0.9548 B( 21-C , 65-H ) :   0.9506
B( 22-C , 66-H ) :   0.9510 B( 22-C , 67-H ) :   0.9553 B( 22-C , 68-H ) :   0.9550
B( 23-C , 24-C ) :   1.4995 B( 23-C , 69-H ) :   1.0083 B( 24-C , 25-S ) :   1.1147
B( 24-C , 26-C ) :   1.0367 B( 26-C , 27-N ) :   1.5753 B( 26-C , 31-N ) :   1.5749
B( 27-N , 28-C ) :   1.5715 B( 28-C , 29-N ) :   1.5791 B( 28-C , 32-C ) :   1.0503
B( 29-N , 30-C ) :   1.5066 B( 30-C , 31-N ) :   1.5103 B( 30-C , 70-H ) :   0.9762
B( 32-C , 33-C ) :   1.4888 B( 32-C , 35-C ) :   0.1058 B( 32-C , 36-S ) :   1.1150
B( 33-C , 34-C ) :   1.2564 B( 33-C , 71-H ) :   1.0056 B( 34-C , 35-C ) :   1.4991
B( 34-C , 39-Si) :   0.8715 B( 35-C , 36-S ) :   1.1248 B( 35-C , 37-C ) :   1.1550
B( 37-C , 38-C ) :   1.4810 B( 37-C , 44-S ) :   1.1481 B( 38-C , 39-Si) :   0.8649
B( 38-C , 42-C ) :   1.2832 B( 39-Si, 40-C ) :   1.0538 B( 39-Si, 41-C ) :   1.0549
B( 40-C , 72-H ) :   0.9553 B( 40-C , 73-H ) :   0.9551 B( 40-C , 74-H ) :   0.9514
B( 41-C , 75-H ) :   0.9508 B( 41-C , 76-H ) :   0.9551 B( 41-C , 77-H ) :   0.9553
B( 42-C , 43-C ) :   1.4299 B( 42-C , 78-H ) :   0.9820 B( 43-C , 44-S ) :   1.0736
B( 43-C , 45-C ) :   1.2252 B( 45-C , 46-C ) :   1.6712 B( 45-C , 79-H ) :   0.9248
B( 46-C , 47-C ) :   0.9838 B( 46-C , 56-S ) :   1.0057 B( 47-C , 48-O ) :   2.0546
B( 47-C , 49-N ) :   1.0620 B( 49-N , 50-C ) :   1.2024 B( 49-N , 57-C ) :   0.9347
B( 50-C , 51-C ) :   1.5423 B( 50-C , 56-S ) :   1.0989 B( 51-C , 52-C ) :   1.1706
B( 51-C , 54-C ) :   1.1511 B( 52-C , 53-N ) :   3.0092 B( 54-C , 55-N ) :   3.0329
B( 57-C , 80-H ) :   0.9426 B( 57-C , 81-H ) :   0.9693 B( 57-C , 82-H ) :   0.9690

-----------------------------------------------------------------------------
         ABSORPTION SPECTRUM VIA TRANSITION ELECTRIC DIPOLE MOMENTS
-----------------------------------------------------------------------------
State   Energy  Wavelength   fosc         T2         TX        TY        TZ
        (cm-1)    (nm)                  (au**2)     (au)      (au)      (au)
-----------------------------------------------------------------------------
   0   20963.1    477.0   2.828493285  44.41976  -1.23675  -3.50433   5.53262
   1   22866.0    437.3   0.907594261  13.06702  -1.05738   2.33134   2.55222
   2   27100.0    369.0   0.022317590   0.27112  -0.10359  -0.12459   0.49484
   3   27923.5    358.1   0.000746736   0.00880  -0.02807  -0.02266  -0.08662
   4   31138.6    321.1   0.003135542   0.03315   0.04456   0.12979  -0.11967
   5   31652.4    315.9   0.001505878   0.01566   0.01660  -0.12270   0.01821
   6   32099.3    311.5   0.024832282   0.25468   0.06579   0.19646  -0.46017
   7   32940.2    303.6   0.138239701   1.38160   0.24001   1.15011   0.03522
   8   35105.0    284.9   0.000032801   0.00031  -0.00111   0.01739   0.00199
   9   35832.7    279.1   0.000021439   0.00020   0.00365   0.01268  -0.00477
  10   36841.3    271.4   0.011376933   0.10166  -0.09713   0.01484   0.30333
  11   36943.6    270.7   0.027617995   0.24611  -0.11870  -0.04583   0.47950
  12   37277.3    268.3   0.040768876   0.36005   0.04958   0.58973  -0.09905
  13   38039.4    262.9   0.050097095   0.43357  -0.06193  -0.58195   0.30176
  14   38495.6    259.8   0.037708189   0.32248  -0.04341   0.52700   0.20704
  15   38867.3    257.3   0.077037799   0.65252  -0.11306   0.10441   0.79299
  16   38975.4    256.6   0.083986954   0.70941  -0.16816   0.25475   0.78501
  17   39560.6    252.8   0.032523201   0.27065   0.10490   0.36966  -0.35071
  18   39708.7    251.8   0.036160920   0.29980   0.01522  -0.54566  -0.04266

FINAL SINGLE POINT ENERGY     -5108.983950940665

DIPOLE MOMENT
-------------
                                X             Y             Z
Electronic contribution:      5.16906       1.18477     -24.16881
Nuclear contribution   :     -4.72793      -2.60201      25.02153
                        -----------------------------------------
Total Dipole Moment    :      0.44113      -1.41724       0.85272
                        -----------------------------------------
Magnitude (a.u.)       :      1.71182
Magnitude (Debye)      :      4.35109

Rotational constants in cm-1:     0.002483     0.000244     0.000224
Rotational constants in MHz :    74.432428     7.320869     6.708884

                             ****ORCA TERMINATED NORMALLY****
TOTAL RUN TIME: 0 days 0 hours 6 minutes 11 seconds 927 msec
