                         Program Version 4.2.0 -  RELEASE  -
|  1> # ORCA input file
|  2> # SCF done       -243.420507508970          0.000504531920
|  3> ! CAM-B3LYP def2-SVP def2/J RIJCOSX Grid4 TightSCF
|  4> %maxcore 5000
|  5> %tddft
|  6>     Mode sTDDFT
|  7>     Ethresh 5.0
|  8>     maxcore 5000
|  9> end
| 10>
| 11> %pal
| 12>   nprocs 6
| 13>   end
| 14> * xyz 0 1
| 15>    C       11.52734         4.57923         4.96272
| 16>    C       12.19532         4.72958         3.77909
| 17>    C       13.39023         4.04789         3.45738
| 18>    N       14.35458         3.50776         3.15288
| 19>    C       11.82405         5.65802         2.78537
| 20>    N       11.59201         6.43768         1.97472
| 21>    C       12.03481         3.87666         6.13893
| 22>    C       11.36981         4.36164         7.28233
| 23>    C       11.68877         3.91686         8.55088
| 24>    C       12.69663         2.96873         8.68099
| 25>    C       13.35152         2.47363         7.54810
| 26>    C       13.02703         2.92043         6.26890
| 27>    C       14.44833         1.48592         7.76060
| 28>    O       15.01174         1.33987         8.81699
| 29>    O       14.73541         0.80118         6.65788
| 30>    C       15.78118        -0.15603         6.77044
| 31>    C       13.04270         2.41124        10.03642
| 32>    O       12.59365         1.37997        10.45721
| 33>    O       13.82718         3.24549        10.70730
| 34>    C       14.27850         2.78841        11.97728
| 35>    C       10.34838         5.35435         6.88016
| 36>    O        9.63039         6.01727         7.58674
| 37>    C       10.35541         5.32648         5.38785
| 38>    C        9.33756         5.87323         4.68379
| 39>    C        9.02276         5.64630         3.30989
| 40>    C        8.57542         6.56968         2.39783
| 41>    C        8.44625         6.06816         1.09185
| 42>    C        7.98875         6.91007        -0.04817
| 43>    C        8.72755         4.71877         1.03074
| 44>    S        9.18986         4.07710         2.57430
| 45>    C        8.60116         3.86288        -0.13083
| 46>    C        7.79065         2.64129         0.01251
| 47>    C        6.52836         2.66209         0.60542
| 48>    C        5.79334         1.49838         0.79056
| 49>    C        6.33201         0.27216         0.40854
| 50>    C        7.60037         0.22188        -0.16307
| 51>    C        8.30739         1.40057        -0.36812
| 52>    F        9.52503         1.33348        -0.91045
| 53>    F        8.13676        -0.95018        -0.48937
| 54>    F        5.63918        -0.84757         0.60197
| 55>    F        4.57995         1.55100         1.34175
| 56>    F        5.99891         3.83154         0.98084
| 57>    C        9.20388         4.17229        -1.30979
| 58>    C       10.34624         5.10005        -1.36886
| 59>    C       11.45933         4.90935        -0.54774
| 60>    C       12.58733         5.71618        -0.64376
| 61>    C       12.61167         6.75889        -1.56601
| 62>    C       11.51484         6.96784        -2.39849
| 63>    C       10.40752         6.13469        -2.30275
| 64>    F        9.36671         6.34629        -3.11646
| 65>    F       11.53332         7.95920        -3.29074
| 66>    F       13.68219         7.54196        -1.66609
| 67>    F       13.65004         5.48127         0.12101
| 68>    F       11.46872         3.89836         0.32381
| 69>    C        8.76918         3.60346        -2.56904
| 70>    C        9.53211         3.11809        -3.59882
| 71>    C        8.78226         2.63903        -4.68515
| 72>    C        9.42688         2.08869        -5.90918
| 73>    C        7.41794         2.81481        -4.49742
| 74>    S        7.08428         3.56224        -2.96155
| 75>    C        6.33138         2.57275        -5.38272
| 76>    C        6.19073         1.57017        -6.28785
| 77>    C        6.87953         0.30595        -6.43138
| 78>    C        7.44609        -0.41074        -5.41064
| 79>    C        8.05305        -1.67324        -5.57638
| 80>    N        8.57904        -2.68747        -5.67602
| 81>    C        7.36893         0.01136        -4.06881
| 82>    N        7.25080         0.31478        -2.96809
| 83>    C        6.62342        -0.17700        -7.78597
| 84>    C        5.62859         0.62923        -8.37320
| 85>    C        5.24219         1.70617        -7.43086
| 86>    O        4.38486         2.54330        -7.56612
| 87>    C        5.15897         0.38640        -9.64883
| 88>    C        5.69805        -0.68320       -10.35541
| 89>    C        6.69206        -1.48165        -9.78037
| 90>    C        7.16140        -1.23897        -8.49046
| 91>    C        7.20758        -2.62809       -10.58194
| 92>    O        6.62339        -3.08982       -11.53048
| 93>    O        8.37235        -3.08178       -10.12714
| 94>    C        8.93380        -4.18052       -10.83432
| 95>    C        5.27811        -0.93767       -11.77910
| 96>    O        5.89325        -0.52591       -12.72511
| 97>    O        4.12342        -1.58872       -11.82935
| 98>    C        3.66723        -1.94380       -13.13003
| 99>    H       11.16715         4.30342         9.41271
|100>    H       13.54797         2.51408         5.41737
|101>    H       16.72932         0.34481         6.97545
|102>    H       15.82062        -0.67351         5.81584
|103>    H       15.56805        -0.85413         7.58223
|104>    H       14.95418         1.94280        11.83926
|105>    H       13.43188         2.47432        12.59076
|106>    H       14.79915         3.62577        12.43405
|107>    H        8.66689         6.52557         5.23467
|108>    H        8.39937         7.59902         2.65353
|109>    H        8.79938         7.55883        -0.38014
|110>    H        7.16418         7.54292         0.27233
|111>    H        7.66001         6.30297        -0.88716
|112>    H       10.60566         3.06696        -3.55621
|113>    H       10.35779         2.61653        -6.10459
|114>    H        8.77741         2.17926        -6.77727
|115>    H        9.66791         1.03299        -5.76854
|116>    H        5.53878         3.31501        -5.37869
|117>    H        4.39575         1.01569       -10.07981
|118>    H        7.92977        -1.87236        -8.07774
|119>    H        8.25669        -5.03616       -10.80215
|120>    H        9.87052        -4.41329       -10.33528
|121>    H        9.10796        -3.90797       -11.87699
|122>    H        3.63435        -1.06320       -13.77446
|123>    H        2.67449        -2.36580       -12.99896
|124>    H        4.34563        -2.68008       -13.56399
|125> *
|126>
|127>                          ****END OF INPUT****

CARTESIAN COORDINATES (ANGSTROEM)
---------------------------------
  C     11.527340    4.579230    4.962720
  C     12.195320    4.729580    3.779090
  C     13.390230    4.047890    3.457380
  N     14.354580    3.507760    3.152880
  C     11.824050    5.658020    2.785370
  N     11.592010    6.437680    1.974720
  C     12.034810    3.876660    6.138930
  C     11.369810    4.361640    7.282330
  C     11.688770    3.916860    8.550880
  C     12.696630    2.968730    8.680990
  C     13.351520    2.473630    7.548100
  C     13.027030    2.920430    6.268900
  C     14.448330    1.485920    7.760600
  O     15.011740    1.339870    8.816990
  O     14.735410    0.801180    6.657880
  C     15.781180   -0.156030    6.770440
  C     13.042700    2.411240   10.036420
  O     12.593650    1.379970   10.457210
  O     13.827180    3.245490   10.707300
  C     14.278500    2.788410   11.977280
  C     10.348380    5.354350    6.880160
  O      9.630390    6.017270    7.586740
  C     10.355410    5.326480    5.387850
  C      9.337560    5.873230    4.683790
  C      9.022760    5.646300    3.309890
  C      8.575420    6.569680    2.397830
  C      8.446250    6.068160    1.091850
  C      7.988750    6.910070   -0.048170
  C      8.727550    4.718770    1.030740
  S      9.189860    4.077100    2.574300
  C      8.601160    3.862880   -0.130830
  C      7.790650    2.641290    0.012510
  C      6.528360    2.662090    0.605420
  C      5.793340    1.498380    0.790560
  C      6.332010    0.272160    0.408540
  C      7.600370    0.221880   -0.163070
  C      8.307390    1.400570   -0.368120
  F      9.525030    1.333480   -0.910450
  F      8.136760   -0.950180   -0.489370
  F      5.639180   -0.847570    0.601970
  F      4.579950    1.551000    1.341750
  F      5.998910    3.831540    0.980840
  C      9.203880    4.172290   -1.309790
  C     10.346240    5.100050   -1.368860
  C     11.459330    4.909350   -0.547740
  C     12.587330    5.716180   -0.643760
  C     12.611670    6.758890   -1.566010
  C     11.514840    6.967840   -2.398490
  C     10.407520    6.134690   -2.302750
  F      9.366710    6.346290   -3.116460
  F     11.533320    7.959200   -3.290740
  F     13.682190    7.541960   -1.666090
  F     13.650040    5.481270    0.121010
  F     11.468720    3.898360    0.323810
  C      8.769180    3.603460   -2.569040
  C      9.532110    3.118090   -3.598820
  C      8.782260    2.639030   -4.685150
  C      9.426880    2.088690   -5.909180
  C      7.417940    2.814810   -4.497420
  S      7.084280    3.562240   -2.961550
  C      6.331380    2.572750   -5.382720
  C      6.190730    1.570170   -6.287850
  C      6.879530    0.305950   -6.431380
  C      7.446090   -0.410740   -5.410640
  C      8.053050   -1.673240   -5.576380
  N      8.579040   -2.687470   -5.676020
  C      7.368930    0.011360   -4.068810
  N      7.250800    0.314780   -2.968090
  C      6.623420   -0.177000   -7.785970
  C      5.628590    0.629230   -8.373200
  C      5.242190    1.706170   -7.430860
  O      4.384860    2.543300   -7.566120
  C      5.158970    0.386400   -9.648830
  C      5.698050   -0.683200  -10.355410
  C      6.692060   -1.481650   -9.780370
  C      7.161400   -1.238970   -8.490460
  C      7.207580   -2.628090  -10.581940
  O      6.623390   -3.089820  -11.530480
  O      8.372350   -3.081780  -10.127140
  C      8.933800   -4.180520  -10.834320
  C      5.278110   -0.937670  -11.779100
  O      5.893250   -0.525910  -12.725110
  O      4.123420   -1.588720  -11.829350
  C      3.667230   -1.943800  -13.130030
  H     11.167150    4.303420    9.412710
  H     13.547970    2.514080    5.417370
  H     16.729320    0.344810    6.975450
  H     15.820620   -0.673510    5.815840
  H     15.568050   -0.854130    7.582230
  H     14.954180    1.942800   11.839260
  H     13.431880    2.474320   12.590760
  H     14.799150    3.625770   12.434050
  H      8.666890    6.525570    5.234670
  H      8.399370    7.599020    2.653530
  H      8.799380    7.558830   -0.380140
  H      7.164180    7.542920    0.272330
  H      7.660010    6.302970   -0.887160
  H     10.605660    3.066960   -3.556210
  H     10.357790    2.616530   -6.104590
  H      8.777410    2.179260   -6.777270
  H      9.667910    1.032990   -5.768540
  H      5.538780    3.315010   -5.378690
  H      4.395750    1.015690  -10.079810
  H      7.929770   -1.872360   -8.077740
  H      8.256690   -5.036160  -10.802150
  H      9.870520   -4.413290  -10.335280
  H      9.107960   -3.907970  -11.876990
  H      3.634350   -1.063200  -13.774460
  H      2.674490   -2.365800  -12.998960
  H      4.345630   -2.680080  -13.563990

 Total Charge           Charge          ....    0
 Multiplicity           Mult            ....    1
 Number of Electrons    NEL             ....  604
 Basis Dimension        Dim             .... 1314

ORBITAL ENERGIES
----------------

  NO   OCC          E(Eh)            E(eV)
   0   2.0000     -88.972764     -2421.0720
   1   2.0000     -88.970417     -2421.0081
   2   2.0000     -24.810776      -675.1355
   3   2.0000     -24.810297      -675.1225
   4   2.0000     -24.809121      -675.0905
   5   2.0000     -24.806348      -675.0151
   6   2.0000     -24.804636      -674.9685
   7   2.0000     -24.804102      -674.9539
   8   2.0000     -24.803752      -674.9444
   9   2.0000     -24.803448      -674.9361
  10   2.0000     -24.801004      -674.8696
  11   2.0000     -24.797191      -674.7659
  12   2.0000     -19.276404      -524.5376
  13   2.0000     -19.273560      -524.4602
  14   2.0000     -19.260451      -524.1035
  15   2.0000     -19.258103      -524.0396
  16   2.0000     -19.229021      -523.2483
  17   2.0000     -19.226695      -523.1850
  18   2.0000     -19.220591      -523.0189
  19   2.0000     -19.217730      -522.9410
  20   2.0000     -19.203246      -522.5469
  21   2.0000     -19.200870      -522.4822
  22   2.0000     -14.427581      -392.5945
  23   2.0000     -14.425590      -392.5403
  24   2.0000     -14.423134      -392.4734
  25   2.0000     -14.421018      -392.4158
  26   2.0000     -10.416542      -283.4485
  27   2.0000     -10.413794      -283.3737
  28   2.0000     -10.404634      -283.1245
  29   2.0000     -10.402068      -283.0547
  30   2.0000     -10.391448      -282.7657
  31   2.0000     -10.389342      -282.7084
  32   2.0000     -10.389193      -282.7043
  33   2.0000     -10.386403      -282.6284
  34   2.0000     -10.385522      -282.6044
  35   2.0000     -10.384652      -282.5807
  36   2.0000     -10.383456      -282.5482
  37   2.0000     -10.382653      -282.5263
  38   2.0000     -10.380521      -282.4683
  39   2.0000     -10.379301      -282.4351
  40   2.0000     -10.378526      -282.4141
  41   2.0000     -10.376947      -282.3711
  42   2.0000     -10.355307      -281.7822
  43   2.0000     -10.353042      -281.7206
  44   2.0000     -10.352686      -281.7109
  45   2.0000     -10.350070      -281.6397
  46   2.0000     -10.331575      -281.1365
  47   2.0000     -10.330891      -281.1178
  48   2.0000     -10.330450      -281.1058
  49   2.0000     -10.328619      -281.0560
  50   2.0000     -10.328591      -281.0552
  51   2.0000     -10.327705      -281.0311
  52   2.0000     -10.326795      -281.0064
  53   2.0000     -10.324661      -280.9483
  54   2.0000     -10.322818      -280.8982
  55   2.0000     -10.322214      -280.8817
  56   2.0000     -10.321308      -280.8571
  57   2.0000     -10.321094      -280.8512
  58   2.0000     -10.320665      -280.8396
  59   2.0000     -10.319513      -280.8082
  60   2.0000     -10.319008      -280.7945
  61   2.0000     -10.318783      -280.7884
  62   2.0000     -10.318721      -280.7867
  63   2.0000     -10.317853      -280.7631
  64   2.0000     -10.317564      -280.7552
  65   2.0000     -10.317035      -280.7408
  66   2.0000     -10.315913      -280.7103
  67   2.0000     -10.315685      -280.7041
  68   2.0000     -10.315383      -280.6958
  69   2.0000     -10.314781      -280.6794
  70   2.0000     -10.312656      -280.6216
  71   2.0000     -10.311192      -280.5818
  72   2.0000     -10.309748      -280.5425
  73   2.0000     -10.309215      -280.5280
  74   2.0000     -10.308331      -280.5040
  75   2.0000     -10.308232      -280.5012
  76   2.0000     -10.307719      -280.4873
  77   2.0000     -10.307123      -280.4711
  78   2.0000     -10.306861      -280.4639
  79   2.0000     -10.295096      -280.1438
  80   2.0000     -10.291212      -280.0381
  81   2.0000     -10.289149      -279.9820
  82   2.0000     -10.285825      -279.8915
  83   2.0000     -10.274595      -279.5860
  84   2.0000      -8.067917      -219.5392
  85   2.0000      -8.065334      -219.4689
  86   2.0000      -6.037244      -164.2818
  87   2.0000      -6.034709      -164.2128
  88   2.0000      -6.033042      -164.1674
  89   2.0000      -6.030491      -164.0980
  90   2.0000      -6.030020      -164.0852
  91   2.0000      -6.027416      -164.0143
  92   2.0000      -1.337446       -36.3938
  93   2.0000      -1.331831       -36.2410
  94   2.0000      -1.331489       -36.2317
  95   2.0000      -1.326280       -36.0899
  96   2.0000      -1.325383       -36.0655
  97   2.0000      -1.320440       -35.9310
  98   2.0000      -1.315899       -35.8074
  99   2.0000      -1.310748       -35.6673
 100   2.0000      -1.310187       -35.6520
 101   2.0000      -1.304893       -35.5080
 102   2.0000      -1.209867       -32.9221
 103   2.0000      -1.207127       -32.8476
 104   2.0000      -1.193365       -32.4731
 105   2.0000      -1.190872       -32.4053
 106   2.0000      -1.144722       -31.1495
 107   2.0000      -1.142437       -31.0873
 108   2.0000      -1.114896       -30.3379
 109   2.0000      -1.112070       -30.2610
 110   2.0000      -1.099088       -29.9077
 111   2.0000      -1.096654       -29.8415
 112   2.0000      -1.031892       -28.0792
 113   2.0000      -1.028346       -27.9827
 114   2.0000      -1.015834       -27.6423
 115   2.0000      -1.010388       -27.4940
 116   2.0000      -1.007587       -27.4178
 117   2.0000      -1.006312       -27.3831
 118   2.0000      -1.003080       -27.2952
 119   2.0000      -0.998728       -27.1768
 120   2.0000      -0.994769       -27.0690
 121   2.0000      -0.989116       -26.9152
 122   2.0000      -0.968799       -26.3624
 123   2.0000      -0.965756       -26.2796
 124   2.0000      -0.947830       -25.7918
 125   2.0000      -0.916863       -24.9491
 126   2.0000      -0.914112       -24.8742
 127   2.0000      -0.909754       -24.7557
 128   2.0000      -0.901281       -24.5251
 129   2.0000      -0.891545       -24.2602
 130   2.0000      -0.886976       -24.1358
 131   2.0000      -0.883869       -24.0513
 132   2.0000      -0.880161       -23.9504
 133   2.0000      -0.868507       -23.6333
 134   2.0000      -0.863814       -23.5056
 135   2.0000      -0.857837       -23.3429
 136   2.0000      -0.854428       -23.2502
 137   2.0000      -0.852258       -23.1911
 138   2.0000      -0.836713       -22.7681
 139   2.0000      -0.832413       -22.6511
 140   2.0000      -0.829757       -22.5788
 141   2.0000      -0.822406       -22.3788
 142   2.0000      -0.813523       -22.1371
 143   2.0000      -0.796815       -21.6824
 144   2.0000      -0.794253       -21.6127
 145   2.0000      -0.785916       -21.3859
 146   2.0000      -0.778320       -21.1792
 147   2.0000      -0.776306       -21.1244
 148   2.0000      -0.768718       -20.9179
 149   2.0000      -0.761549       -20.7228
 150   2.0000      -0.748507       -20.3679
 151   2.0000      -0.743911       -20.2428
 152   2.0000      -0.741027       -20.1644
 153   2.0000      -0.731255       -19.8985
 154   2.0000      -0.727002       -19.7827
 155   2.0000      -0.723157       -19.6781
 156   2.0000      -0.711598       -19.3636
 157   2.0000      -0.698884       -19.0176
 158   2.0000      -0.694620       -18.9016
 159   2.0000      -0.693226       -18.8636
 160   2.0000      -0.686997       -18.6941
 161   2.0000      -0.682546       -18.5730
 162   2.0000      -0.677305       -18.4304
 163   2.0000      -0.675537       -18.3823
 164   2.0000      -0.674209       -18.3462
 165   2.0000      -0.670312       -18.2401
 166   2.0000      -0.663541       -18.0559
 167   2.0000      -0.662777       -18.0351
 168   2.0000      -0.660578       -17.9752
 169   2.0000      -0.654336       -17.8054
 170   2.0000      -0.649539       -17.6748
 171   2.0000      -0.647508       -17.6196
 172   2.0000      -0.647173       -17.6105
 173   2.0000      -0.632445       -17.2097
 174   2.0000      -0.630425       -17.1547
 175   2.0000      -0.629424       -17.1275
 176   2.0000      -0.629237       -17.1224
 177   2.0000      -0.628373       -17.0989
 178   2.0000      -0.626683       -17.0529
 179   2.0000      -0.623550       -16.9677
 180   2.0000      -0.620743       -16.8913
 181   2.0000      -0.615406       -16.7460
 182   2.0000      -0.614289       -16.7157
 183   2.0000      -0.610670       -16.6172
 184   2.0000      -0.609355       -16.5814
 185   2.0000      -0.605092       -16.4654
 186   2.0000      -0.603735       -16.4285
 187   2.0000      -0.601895       -16.3784
 188   2.0000      -0.597350       -16.2547
 189   2.0000      -0.592621       -16.1260
 190   2.0000      -0.589074       -16.0295
 191   2.0000      -0.586031       -15.9467
 192   2.0000      -0.584562       -15.9067
 193   2.0000      -0.581959       -15.8359
 194   2.0000      -0.580084       -15.7849
 195   2.0000      -0.578999       -15.7554
 196   2.0000      -0.578496       -15.7417
 197   2.0000      -0.574993       -15.6464
 198   2.0000      -0.572401       -15.5758
 199   2.0000      -0.572294       -15.5729
 200   2.0000      -0.568073       -15.4580
 201   2.0000      -0.567156       -15.4331
 202   2.0000      -0.559779       -15.2324
 203   2.0000      -0.553981       -15.0746
 204   2.0000      -0.553732       -15.0678
 205   2.0000      -0.551948       -15.0193
 206   2.0000      -0.550840       -14.9891
 207   2.0000      -0.549219       -14.9450
 208   2.0000      -0.547798       -14.9063
 209   2.0000      -0.547408       -14.8957
 210   2.0000      -0.546594       -14.8736
 211   2.0000      -0.546409       -14.8685
 212   2.0000      -0.545078       -14.8323
 213   2.0000      -0.542433       -14.7603
 214   2.0000      -0.540911       -14.7189
 215   2.0000      -0.540126       -14.6976
 216   2.0000      -0.537187       -14.6176
 217   2.0000      -0.535880       -14.5820
 218   2.0000      -0.531111       -14.4523
 219   2.0000      -0.528103       -14.3704
 220   2.0000      -0.527869       -14.3640
 221   2.0000      -0.526491       -14.3265
 222   2.0000      -0.524652       -14.2765
 223   2.0000      -0.523512       -14.2455
 224   2.0000      -0.521237       -14.1836
 225   2.0000      -0.518980       -14.1222
 226   2.0000      -0.517964       -14.0945
 227   2.0000      -0.514940       -14.0122
 228   2.0000      -0.514346       -13.9961
 229   2.0000      -0.509887       -13.8747
 230   2.0000      -0.504742       -13.7347
 231   2.0000      -0.504007       -13.7147
 232   2.0000      -0.502552       -13.6751
 233   2.0000      -0.500699       -13.6247
 234   2.0000      -0.497705       -13.5432
 235   2.0000      -0.495846       -13.4927
 236   2.0000      -0.494945       -13.4681
 237   2.0000      -0.493068       -13.4171
 238   2.0000      -0.490661       -13.3516
 239   2.0000      -0.488580       -13.2949
 240   2.0000      -0.487024       -13.2526
 241   2.0000      -0.485279       -13.2051
 242   2.0000      -0.483649       -13.1608
 243   2.0000      -0.479515       -13.0483
 244   2.0000      -0.474866       -12.9218
 245   2.0000      -0.473750       -12.8914
 246   2.0000      -0.471694       -12.8354
 247   2.0000      -0.469328       -12.7711
 248   2.0000      -0.466584       -12.6964
 249   2.0000      -0.466372       -12.6906
 250   2.0000      -0.464280       -12.6337
 251   2.0000      -0.462705       -12.5909
 252   2.0000      -0.461881       -12.5684
 253   2.0000      -0.460635       -12.5345
 254   2.0000      -0.460061       -12.5189
 255   2.0000      -0.459825       -12.5125
 256   2.0000      -0.457941       -12.4612
 257   2.0000      -0.456683       -12.4270
 258   2.0000      -0.454096       -12.3566
 259   2.0000      -0.450070       -12.2470
 260   2.0000      -0.448386       -12.2012
 261   2.0000      -0.445840       -12.1319
 262   2.0000      -0.442822       -12.0498
 263   2.0000      -0.440496       -11.9865
 264   2.0000      -0.439813       -11.9679
 265   2.0000      -0.436371       -11.8743
 266   2.0000      -0.434680       -11.8283
 267   2.0000      -0.433778       -11.8037
 268   2.0000      -0.431858       -11.7514
 269   2.0000      -0.430817       -11.7231
 270   2.0000      -0.429172       -11.6784
 271   2.0000      -0.427841       -11.6422
 272   2.0000      -0.424767       -11.5585
 273   2.0000      -0.423307       -11.5188
 274   2.0000      -0.418223       -11.3804
 275   2.0000      -0.416431       -11.3317
 276   2.0000      -0.414204       -11.2711
 277   2.0000      -0.394296       -10.7293
 278   2.0000      -0.391455       -10.6520
 279   2.0000      -0.388051       -10.5594
 280   2.0000      -0.377195       -10.2640
 281   2.0000      -0.375294       -10.2123
 282   2.0000      -0.372811       -10.1447
 283   2.0000      -0.371077       -10.0975
 284   2.0000      -0.368567       -10.0292
 285   2.0000      -0.367236        -9.9930
 286   2.0000      -0.357383        -9.7249
 287   2.0000      -0.355495        -9.6735
 288   2.0000      -0.354548        -9.6478
 289   2.0000      -0.352973        -9.6049
 290   2.0000      -0.348631        -9.4867
 291   2.0000      -0.347115        -9.4455
 292   2.0000      -0.346197        -9.4205
 293   2.0000      -0.333351        -9.0710
 294   2.0000      -0.329180        -8.9575
 295   2.0000      -0.326311        -8.8794
 296   2.0000      -0.323035        -8.7902
 297   2.0000      -0.320068        -8.7095
 298   2.0000      -0.316404        -8.6098
 299   2.0000      -0.314419        -8.5558
 300   2.0000      -0.300763        -8.1842
 301   2.0000      -0.274229        -7.4621
 302   0.0000      -0.097492        -2.6529
 303   0.0000      -0.092149        -2.5075
 304   0.0000      -0.077532        -2.1097
 305   0.0000      -0.073486        -1.9997
 306   0.0000      -0.050588        -1.3766

MULLIKEN ATOMIC CHARGES
-----------------------
   0 C :    0.258496
   1 C :   -0.322590
   2 C :   -0.187218
   3 N :    0.171725
   4 C :   -0.147820
   5 N :    0.138993
   6 C :    0.039847
   7 C :    0.001430
   8 C :   -0.035802
   9 C :    0.027224
  10 C :    0.019784
  11 C :   -0.045598
  12 C :    0.207427
  13 O :   -0.207982
  14 O :   -0.287134
  15 C :    0.187631
  16 C :    0.180619
  17 O :   -0.209718
  18 O :   -0.290124
  19 C :    0.186269
  20 C :    0.143173
  21 O :   -0.125160
  22 C :   -0.134317
  23 C :    0.068423
  24 C :   -0.138001
  25 C :    0.042656
  26 C :   -0.012269
  27 C :    0.136043
  28 C :   -0.201826
  29 S :    0.178404
  30 C :    0.026394
  31 C :   -0.174248
  32 C :    0.192390
  33 C :    0.171932
  34 C :    0.124821
  35 C :    0.217210
  36 C :    0.225927
  37 F :   -0.159040
  38 F :   -0.155596
  39 F :   -0.152601
  40 F :   -0.159013
  41 F :   -0.162178
  42 C :    0.074703
  43 C :   -0.129831
  44 C :    0.211629
  45 C :    0.200105
  46 C :    0.136894
  47 C :    0.164598
  48 C :    0.176494
  49 F :   -0.164008
  50 F :   -0.159404
  51 F :   -0.150121
  52 F :   -0.148439
  53 F :   -0.158914
  54 C :   -0.127331
  55 C :   -0.009176
  56 C :   -0.030694
  57 C :    0.137326
  58 C :   -0.192726
  59 S :    0.191489
  60 C :    0.070522
  61 C :   -0.144416
  62 C :    0.250824
  63 C :   -0.341748
  64 C :   -0.177658
  65 N :    0.167182
  66 C :   -0.177797
  67 N :    0.168067
  68 C :    0.046869
  69 C :    0.009395
  70 C :    0.144886
  71 O :   -0.123456
  72 C :   -0.043254
  73 C :    0.028293
  74 C :    0.022209
  75 C :   -0.054050
  76 C :    0.203361
  77 O :   -0.206027
  78 O :   -0.287742
  79 C :    0.188589
  80 C :    0.182915
  81 O :   -0.210723
  82 O :   -0.290624
  83 C :    0.187256
  84 H :    0.003419
  85 H :    0.014082
  86 H :    0.037082
  87 H :    0.043947
  88 H :    0.041067
  89 H :    0.042172
  90 H :    0.033455
  91 H :    0.034632
  92 H :    0.037567
  93 H :   -0.015256
  94 H :    0.039718
  95 H :    0.024471
  96 H :    0.019469
  97 H :   -0.014535
  98 H :    0.028015
  99 H :    0.027772
 100 H :    0.044855
 101 H :    0.035543
 102 H :    0.004324
 103 H :    0.011527
 104 H :    0.038726
 105 H :    0.044069
 106 H :    0.039632
 107 H :    0.033954
 108 H :    0.034472
 109 H :    0.041774
Sum of atomic charges:   -0.0000000

LOEWDIN ATOMIC CHARGES
----------------------
   0 C :    0.063155
   1 C :   -0.127211
   2 C :   -0.020824
   3 N :   -0.040035
   4 C :   -0.013591
   5 N :   -0.054981
   6 C :   -0.011782
   7 C :   -0.032238
   8 C :    0.028727
   9 C :    0.000828
  10 C :   -0.036276
  11 C :    0.025470
  12 C :    0.093526
  13 O :   -0.158454
  14 O :   -0.074264
  15 C :    0.086759
  16 C :    0.074918
  17 O :   -0.163881
  18 O :   -0.077776
  19 C :    0.084487
  20 C :    0.084579
  21 O :   -0.126983
  22 C :   -0.091355
  23 C :    0.058957
  24 C :   -0.183911
  25 C :   -0.013949
  26 C :   -0.034730
  27 C :   -0.044121
  28 C :   -0.170998
  29 S :    0.463735
  30 C :   -0.023274
  31 C :   -0.100502
  32 C :    0.061407
  33 C :    0.024781
  34 C :    0.046418
  35 C :    0.033130
  36 C :    0.072893
  37 F :   -0.032208
  38 F :   -0.029469
  39 F :   -0.030180
  40 F :   -0.039101
  41 F :   -0.041059
  42 C :   -0.027131
  43 C :   -0.076557
  44 C :    0.072589
  45 C :    0.031824
  46 C :    0.046253
  47 C :    0.023867
  48 C :    0.061679
  49 F :   -0.038674
  50 F :   -0.038599
  51 F :   -0.028298
  52 F :   -0.026859
  53 F :   -0.031140
  54 C :   -0.147929
  55 C :   -0.045431
  56 C :   -0.023927
  57 C :   -0.044414
  58 C :   -0.192724
  59 S :    0.478706
  60 C :    0.054249
  61 C :   -0.095856
  62 C :    0.068982
  63 C :   -0.134828
  64 C :   -0.023969
  65 N :   -0.042200
  66 C :    0.000696
  67 N :   -0.047846
  68 C :   -0.014256
  69 C :   -0.030967
  70 C :    0.084396
  71 O :   -0.125743
  72 C :    0.028457
  73 C :    0.001649
  74 C :   -0.037349
  75 C :    0.024232
  76 C :    0.093128
  77 O :   -0.157444
  78 O :   -0.075363
  79 C :    0.086827
  80 C :    0.075007
  81 O :   -0.164418
  82 O :   -0.077316
  83 C :    0.084920
  84 H :    0.045557
  85 H :    0.043461
  86 H :    0.026600
  87 H :    0.030380
  88 H :    0.027450
  89 H :    0.028584
  90 H :    0.022845
  91 H :    0.026143
  92 H :    0.053592
  93 H :    0.034531
  94 H :    0.041062
  95 H :    0.038388
  96 H :    0.029340
  97 H :    0.033990
  98 H :    0.039703
  99 H :    0.036626
 100 H :    0.042788
 101 H :    0.048822
 102 H :    0.045931
 103 H :    0.042930
 104 H :    0.026811
 105 H :    0.030335
 106 H :    0.027410
 107 H :    0.023033
 108 H :    0.026289
 109 H :    0.028557

  Mayer bond orders larger than 0.100000
B(  0-C ,  1-C ) :   1.6757 B(  0-C ,  6-C ) :   0.9996 B(  0-C , 22-C ) :   1.0172
B(  1-C ,  2-C ) :   1.1322 B(  1-C ,  4-C ) :   1.1779 B(  2-C ,  3-N ) :   2.9941
B(  4-C ,  5-N ) :   2.9108 B(  6-C ,  7-C ) :   1.3339 B(  6-C , 11-C ) :   1.3405
B(  7-C ,  8-C ) :   1.3637 B(  7-C , 20-C ) :   0.9143 B(  8-C ,  9-C ) :   1.3824
B(  8-C , 84-H ) :   1.0133 B(  9-C , 10-C ) :   1.4582 B(  9-C , 16-C ) :   0.8459
B( 10-C , 11-C ) :   1.3403 B( 10-C , 12-C ) :   0.8971 B( 11-C , 85-H ) :   0.9893
B( 12-C , 13-O ) :   2.0434 B( 12-C , 14-O ) :   1.2546 B( 14-O , 15-C ) :   0.9115
B( 15-C , 86-H ) :   0.9776 B( 15-C , 87-H ) :   0.9810 B( 15-C , 88-H ) :   0.9742
B( 16-C , 17-O ) :   2.1124 B( 16-C , 18-O ) :   1.2328 B( 18-O , 19-C ) :   0.9153
B( 19-C , 89-H ) :   0.9765 B( 19-C , 90-H ) :   0.9724 B( 19-C , 91-H ) :   0.9810
B( 20-C , 21-O ) :   2.2912 B( 20-C , 22-C ) :   0.9306 B( 22-C , 23-C ) :   1.7152
B( 23-C , 24-C ) :   1.0531 B( 23-C , 92-H ) :   0.9499 B( 24-C , 25-C ) :   1.4704
B( 24-C , 28-C ) :   0.1008 B( 24-C , 29-S ) :   1.1300 B( 25-C , 26-C ) :   1.2566
B( 25-C , 93-H ) :   1.0039 B( 26-C , 27-C ) :   1.1098 B( 26-C , 28-C ) :   1.5297
B( 27-C , 94-H ) :   0.9343 B( 27-C , 95-H ) :   0.9432 B( 27-C , 96-H ) :   0.9356
B( 28-C , 29-S ) :   1.1267 B( 28-C , 30-C ) :   1.0326 B( 30-C , 31-C ) :   0.9963
B( 30-C , 42-C ) :   1.7718 B( 31-C , 32-C ) :   1.2972 B( 31-C , 34-C ) :   0.1089
B( 31-C , 36-C ) :   1.3305 B( 32-C , 33-C ) :   1.2897 B( 32-C , 41-F ) :   1.1778
B( 33-C , 34-C ) :   1.2721 B( 33-C , 40-F ) :   1.1708 B( 34-C , 35-C ) :   1.2906
B( 34-C , 39-F ) :   1.1782 B( 35-C , 36-C ) :   1.2851 B( 35-C , 38-F ) :   1.1659
B( 36-C , 37-F ) :   1.1632 B( 42-C , 43-C ) :   1.0008 B( 42-C , 54-C ) :   1.0207
B( 43-C , 44-C ) :   1.3382 B( 43-C , 46-C ) :   0.1089 B( 43-C , 48-C ) :   1.3052
B( 44-C , 45-C ) :   1.2827 B( 44-C , 53-F ) :   1.1476 B( 45-C , 46-C ) :   1.2844
B( 45-C , 52-F ) :   1.1703 B( 46-C , 47-C ) :   1.2789 B( 46-C , 51-F ) :   1.1808
B( 47-C , 48-C ) :   1.2850 B( 47-C , 50-F ) :   1.1721 B( 48-C , 49-F ) :   1.1558
B( 54-C , 55-C ) :   1.5165 B( 54-C , 58-C ) :   0.1001 B( 54-C , 59-S ) :   1.1708
B( 55-C , 56-C ) :   1.2617 B( 55-C , 97-H ) :   1.0051 B( 56-C , 57-C ) :   1.1236
B( 56-C , 58-C ) :   1.4739 B( 57-C , 98-H ) :   0.9443 B( 57-C , 99-H ) :   0.9332
B( 57-C ,100-H ) :   0.9233 B( 58-C , 59-S ) :   1.1057 B( 58-C , 60-C ) :   1.0869
B( 60-C , 61-C ) :   1.6844 B( 60-C ,101-H ) :   0.9358 B( 61-C , 62-C ) :   1.0510
B( 61-C , 70-C ) :   0.9289 B( 62-C , 63-C ) :   1.6544 B( 62-C , 68-C ) :   0.9940
B( 63-C , 64-C ) :   1.1236 B( 63-C , 66-C ) :   1.1615 B( 64-C , 65-N ) :   2.9922
B( 66-C , 67-N ) :   2.9911 B( 68-C , 69-C ) :   1.3342 B( 68-C , 75-C ) :   1.3399
B( 69-C , 70-C ) :   0.9102 B( 69-C , 72-C ) :   1.3631 B( 70-C , 71-O ) :   2.2932
B( 72-C , 73-C ) :   1.3747 B( 72-C ,102-H ) :   1.0153 B( 73-C , 74-C ) :   1.4640
B( 73-C , 80-C ) :   0.8454 B( 74-C , 75-C ) :   1.3304 B( 74-C , 76-C ) :   0.8970
B( 75-C ,103-H ) :   0.9930 B( 76-C , 77-O ) :   2.0454 B( 76-C , 78-O ) :   1.2571
B( 78-O , 79-C ) :   0.9098 B( 79-C ,104-H ) :   0.9761 B( 79-C ,105-H ) :   0.9807
B( 79-C ,106-H ) :   0.9760 B( 80-C , 81-O ) :   2.1103 B( 80-C , 82-O ) :   1.2326
B( 82-O , 83-C ) :   0.9153 B( 83-C ,107-H ) :   0.9725 B( 83-C ,108-H ) :   0.9808
B( 83-C ,109-H ) :   0.9764

-----------------------------------------------------------------------------
         ABSORPTION SPECTRUM VIA TRANSITION ELECTRIC DIPOLE MOMENTS
-----------------------------------------------------------------------------
State   Energy  Wavelength   fosc         T2         TX        TY        TZ
        (cm-1)    (nm)                  (au**2)     (au)      (au)      (au)
-----------------------------------------------------------------------------
   0   21191.5    471.9   0.661328441  10.27382  -1.25349  -1.06489  -2.75111
   1   22545.3    443.6   0.081958097   1.19677   0.39409  -1.01290  -0.12449
   2   27019.7    370.1   0.255656012   3.11494   0.18418   0.06901   1.75393
   3   28045.0    356.6   0.006278229   0.07370   0.14693  -0.04550  -0.22369
   4   28535.4    350.4   0.063546289   0.73313  -0.36610  -0.10384   0.76702
   5   29535.7    338.6   0.080269803   0.89470   0.18271   0.92515  -0.07361
   6   29832.9    335.2   0.034797161   0.38399  -0.21918  -0.57145   0.09693
   7   29905.2    334.4   0.039245136   0.43203  -0.22465  -0.33115  -0.52144
   8   30623.1    326.6   0.034657508   0.37258   0.30033  -0.09792  -0.52230
   9   30799.3    324.7   0.018726694   0.20017  -0.13435  -0.28750   0.31537
  10   31053.6    322.0   0.095073591   1.00791  -0.18371  -0.36723   0.91614
  11   31675.9    315.7   0.161581117   1.67933  -1.28157   0.10356   0.16180
  12   32102.3    311.5   0.425836536   4.36699   0.65575  -0.23274   1.97049
  13   32162.2    310.9   0.013514209   0.13833  -0.06915  -0.36530  -0.01031
  14   32735.0    305.5   0.041275747   0.41511  -0.25430   0.31076   0.50385
  15   32782.7    305.0   0.013717560   0.13775   0.02922   0.10938  -0.35347
  16   33095.4    302.2   0.014349441   0.14274  -0.05513  -0.37328  -0.01894
  17   33656.0    297.1   0.072020909   0.70448   0.53564   0.64504  -0.03875
  18   33883.1    295.1   0.013710130   0.13321   0.27559   0.06818   0.22937
  19   34605.6    289.0   0.028086124   0.26719   0.47647   0.11754   0.16234
  20   34929.3    286.3   0.791611560   7.46102   0.27991  -0.43776   2.68161
  21   35143.5    284.5   0.215642786   2.02006   0.75996   0.03525   1.20053
  22   35354.0    282.9   0.036098134   0.33614   0.11787   0.02488  -0.56712
  23   35578.3    281.1   0.041098526   0.38029   0.11049   0.34338  -0.50018
  24   35892.2    278.6   0.091573336   0.83993   0.19564   0.09471   0.89033
  25   36531.2    273.7   0.050738773   0.45725   0.40194  -0.33865   0.42545
  26   36898.6    271.0   0.030763884   0.27448   0.39051   0.16593  -0.30733
  27   36998.3    270.3   0.018511037   0.16471  -0.20041  -0.15249  -0.31826
  28   37300.2    268.1   0.016406802   0.14481  -0.25425   0.26405  -0.10218
  29   37823.5    264.4   0.059940461   0.52172   0.13654  -0.03051   0.70862
  30   38143.9    262.2   0.061941971   0.53461  -0.36475   0.08462   0.62802
  31   38300.1    261.1   0.066086077   0.56805   0.56916  -0.38042   0.31527
  32   38419.1    260.3   0.060501996   0.51844  -0.12634   0.44567  -0.55123
  33   38808.9    257.7   0.003080211   0.02613  -0.08905   0.06640  -0.11743
  34   39081.3    255.9   0.010176058   0.08572  -0.12685  -0.03832   0.26108
  35   39280.2    254.6   0.042304526   0.35456   0.11621   0.40065  -0.42489
  36   39867.7    250.8   0.014022013   0.11579   0.29109   0.13978  -0.10731
  37   39985.5    250.1   0.097069704   0.79920   0.68950   0.45867   0.33676
  38   40023.4    249.9   0.043265884   0.35588  -0.03774  -0.12260   0.58260
  39   40155.8    249.0   0.069778622   0.57207  -0.03618  -0.73973  -0.15351

FINAL SINGLE POINT ENERGY     -4986.553903676305

DIPOLE MOMENT
-------------
                                X             Y             Z
Electronic contribution:     -8.68876      33.31901      18.77694
Nuclear contribution   :      8.96620     -33.39398     -19.60551
                        -----------------------------------------
Total Dipole Moment    :      0.27744      -0.07498      -0.82857
                        -----------------------------------------
Magnitude (a.u.)       :      0.87699
Magnitude (Debye)      :      2.22914

Rotational constants in cm-1:     0.001423     0.000282     0.000271
Rotational constants in MHz :    42.673904     8.468200     8.122287

                             ****ORCA TERMINATED NORMALLY****
TOTAL RUN TIME: 0 days 0 hours 28 minutes 34 seconds 94 msec
