                         Program Version 4.2.0 -  RELEASE  -
|  1> # ORCA input file
|  2> # SCF done       -197.766650158464          0.000848173734
|  3> ! CAM-B3LYP def2-SVP def2/J RIJCOSX Grid4 TightSCF
|  4> %maxcore 5000
|  5> %tddft
|  6>     Mode sTDDFT
|  7>     Ethresh 5.0
|  8>     maxcore 5000
|  9> end
| 10>
| 11> %pal
| 12>   nprocs 6
| 13>   end
| 14> * xyz 0 1
| 15>    C       -1.09906        -0.89833         1.20125
| 16>    C       -0.40938        -2.00786         1.61350
| 17>    C       -0.34685        -3.21284         0.88655
| 18>    N       -0.24550        -4.20631         0.31964
| 19>    C        0.40415        -2.04355         2.76597
| 20>    N        1.08675        -2.12555         3.68469
| 21>    C       -0.98620         0.42697         1.80775
| 22>    C       -1.38326         1.39404         0.86429
| 23>    C       -1.33330         2.74167         1.16602
| 24>    C       -0.89185         3.11924         2.42476
| 25>    C       -0.51430         2.17450         3.37694
| 26>    C       -0.56161         0.81556         3.06430
| 27>    C       -0.07722         2.59961         4.74173
| 28>    C       -1.83669         0.72551        -0.36601
| 29>    O       -2.19560         1.22395        -1.40785
| 30>    C       -1.82139        -0.73384        -0.04281
| 31>    C       -2.50140        -1.59401        -0.84863
| 32>    C       -2.94058        -2.90460        -0.55744
| 33>    C       -3.12299        -3.50181         0.68195
| 34>    C       -3.58808        -4.80442         0.57457
| 35>    C       -3.77275        -5.21596        -0.76364
| 36>    S       -3.39474        -3.98198        -1.87367
| 37>    C       -4.21210        -6.55979        -0.76582
| 38>    C       -4.30245        -6.99952         0.57299
| 39>    C       -3.90858        -5.91326         1.45482
| 40>    C       -3.82314        -5.92967         2.81635
| 41>    C       -4.15110        -7.06806         3.58224
| 42>    N       -4.42946        -7.98663         4.20939
| 43>    C       -3.39685        -4.79463         3.53762
| 44>    N       -3.05250        -3.86193         4.10948
| 45>    C       -4.71523        -8.31852         0.68326
| 46>    C       -4.94517        -8.90107        -0.55818
| 47>    S       -4.64002        -7.78067        -1.88101
| 48>    C       -5.36490       -10.22724        -0.84685
| 49>    C       -5.63407       -11.21916         0.13690
| 50>    C       -6.03475       -12.55404        -0.21277
| 51>    N       -6.27199       -13.44915         0.76756
| 52>    C       -6.13266       -13.09202         2.01229
| 53>    C       -5.74170       -11.78263         2.35504
| 54>    N       -5.50591       -10.88830         1.43794
| 55>    C       -6.19021       -12.96908        -1.56480
| 56>    C       -5.93354       -11.97746        -2.53274
| 57>    C       -5.53205       -10.64238        -2.18289
| 58>    N       -5.34476        -9.88475        -3.26607
| 59>    S       -5.64061       -10.75467        -4.58134
| 60>    N       -6.02078       -12.13355        -3.85570
| 61>    C       -6.57110       -14.27813        -1.96548
| 62>    C       -6.85808       -15.37774        -1.16415
| 63>    C       -7.19389       -16.49576        -1.91279
| 64>    C       -7.16481       -16.25717        -3.30444
| 65>    S       -6.72257       -14.65069        -3.67948
| 66>    C       -7.52411       -17.44671        -3.97675
| 67>    C       -7.78101       -18.44511        -3.00336
| 68>    C       -7.57609       -17.87831        -1.67959
| 69>    C       -7.70436       -18.50514        -0.47514
| 70>    C       -8.06833       -19.86432        -0.36852
| 71>    N       -8.35881       -20.96933        -0.27411
| 72>    C       -7.47544       -17.83931         0.74784
| 73>    N       -7.29279       -17.30899         1.74799
| 74>    C       -8.15187       -19.64665        -3.57348
| 75>    C       -8.17601       -19.59299        -4.97334
| 76>    S       -7.72008       -17.99983        -5.57632
| 77>    C       -8.54818       -20.70407        -5.74716
| 78>    C       -8.60455       -20.85814        -7.10769
| 79>    C       -9.01948       -22.05486        -7.81712
| 80>    C       -9.54410       -23.20077        -7.28092
| 81>    C       -9.79105       -23.43354        -5.91094
| 82>    N      -10.03308       -23.69852        -4.82002
| 83>    C       -9.93842       -24.32223        -8.04192
| 84>    N      -10.27658       -25.26808        -8.59758
| 85>    C       -8.81345       -21.80813        -9.24456
| 86>    C       -8.33100       -20.49702        -9.41323
| 87>    C       -8.20046       -19.85239        -8.10097
| 88>    O       -7.82420       -18.71238        -7.88405
| 89>    C       -8.04988       -19.99014       -10.66694
| 90>    C       -8.25255       -20.80823       -11.76762
| 91>    C       -8.72624       -22.10964       -11.62345
| 92>    C       -9.00926       -22.61264       -10.35206
| 93>    C       -8.95475       -22.97729       -12.81925
| 94>    H       -1.63154         3.47330         0.43105
| 95>    H       -0.84195         4.16818         2.67785
| 96>    H       -0.28000         0.08837         3.80950
| 97>    H        0.25497         3.63443         4.74363
| 98>    H        0.72794         1.96389         5.10266
| 99>    H       -0.91029         2.50796         5.43937
|100>    H       -2.79532        -1.18766        -1.81152
|101>    H       -2.95981        -2.98494         1.61003
|102>    H       -4.85252        -8.86574         1.59708
|103>    H       -6.33482       -13.84875         2.75737
|104>    H       -5.62368       -11.46466         3.38151
|105>    H       -6.81294       -15.32144        -0.09273
|106>    H       -8.40260       -20.54138        -3.03120
|107>    H       -8.82242       -21.56192        -5.14475
|108>    H       -7.68088       -18.98166       -10.77347
|109>    H       -8.03832       -20.43233       -12.75730
|110>    H       -9.37319       -23.62296       -10.25759
|111>    H       -8.46181       -22.57315       -13.69938
|112>    H      -10.02301       -23.04675       -13.02531
|113>    H       -8.58955       -23.98568       -12.63671
|114> *
|115>
|116>                          ****END OF INPUT****

CARTESIAN COORDINATES (ANGSTROEM)
---------------------------------
  C     -1.099060   -0.898330    1.201250
  C     -0.409380   -2.007860    1.613500
  C     -0.346850   -3.212840    0.886550
  N     -0.245500   -4.206310    0.319640
  C      0.404150   -2.043550    2.765970
  N      1.086750   -2.125550    3.684690
  C     -0.986200    0.426970    1.807750
  C     -1.383260    1.394040    0.864290
  C     -1.333300    2.741670    1.166020
  C     -0.891850    3.119240    2.424760
  C     -0.514300    2.174500    3.376940
  C     -0.561610    0.815560    3.064300
  C     -0.077220    2.599610    4.741730
  C     -1.836690    0.725510   -0.366010
  O     -2.195600    1.223950   -1.407850
  C     -1.821390   -0.733840   -0.042810
  C     -2.501400   -1.594010   -0.848630
  C     -2.940580   -2.904600   -0.557440
  C     -3.122990   -3.501810    0.681950
  C     -3.588080   -4.804420    0.574570
  C     -3.772750   -5.215960   -0.763640
  S     -3.394740   -3.981980   -1.873670
  C     -4.212100   -6.559790   -0.765820
  C     -4.302450   -6.999520    0.572990
  C     -3.908580   -5.913260    1.454820
  C     -3.823140   -5.929670    2.816350
  C     -4.151100   -7.068060    3.582240
  N     -4.429460   -7.986630    4.209390
  C     -3.396850   -4.794630    3.537620
  N     -3.052500   -3.861930    4.109480
  C     -4.715230   -8.318520    0.683260
  C     -4.945170   -8.901070   -0.558180
  S     -4.640020   -7.780670   -1.881010
  C     -5.364900  -10.227240   -0.846850
  C     -5.634070  -11.219160    0.136900
  C     -6.034750  -12.554040   -0.212770
  N     -6.271990  -13.449150    0.767560
  C     -6.132660  -13.092020    2.012290
  C     -5.741700  -11.782630    2.355040
  N     -5.505910  -10.888300    1.437940
  C     -6.190210  -12.969080   -1.564800
  C     -5.933540  -11.977460   -2.532740
  C     -5.532050  -10.642380   -2.182890
  N     -5.344760   -9.884750   -3.266070
  S     -5.640610  -10.754670   -4.581340
  N     -6.020780  -12.133550   -3.855700
  C     -6.571100  -14.278130   -1.965480
  C     -6.858080  -15.377740   -1.164150
  C     -7.193890  -16.495760   -1.912790
  C     -7.164810  -16.257170   -3.304440
  S     -6.722570  -14.650690   -3.679480
  C     -7.524110  -17.446710   -3.976750
  C     -7.781010  -18.445110   -3.003360
  C     -7.576090  -17.878310   -1.679590
  C     -7.704360  -18.505140   -0.475140
  C     -8.068330  -19.864320   -0.368520
  N     -8.358810  -20.969330   -0.274110
  C     -7.475440  -17.839310    0.747840
  N     -7.292790  -17.308990    1.747990
  C     -8.151870  -19.646650   -3.573480
  C     -8.176010  -19.592990   -4.973340
  S     -7.720080  -17.999830   -5.576320
  C     -8.548180  -20.704070   -5.747160
  C     -8.604550  -20.858140   -7.107690
  C     -9.019480  -22.054860   -7.817120
  C     -9.544100  -23.200770   -7.280920
  C     -9.791050  -23.433540   -5.910940
  N    -10.033080  -23.698520   -4.820020
  C     -9.938420  -24.322230   -8.041920
  N    -10.276580  -25.268080   -8.597580
  C     -8.813450  -21.808130   -9.244560
  C     -8.331000  -20.497020   -9.413230
  C     -8.200460  -19.852390   -8.100970
  O     -7.824200  -18.712380   -7.884050
  C     -8.049880  -19.990140  -10.666940
  C     -8.252550  -20.808230  -11.767620
  C     -8.726240  -22.109640  -11.623450
  C     -9.009260  -22.612640  -10.352060
  C     -8.954750  -22.977290  -12.819250
  H     -1.631540    3.473300    0.431050
  H     -0.841950    4.168180    2.677850
  H     -0.280000    0.088370    3.809500
  H      0.254970    3.634430    4.743630
  H      0.727940    1.963890    5.102660
  H     -0.910290    2.507960    5.439370
  H     -2.795320   -1.187660   -1.811520
  H     -2.959810   -2.984940    1.610030
  H     -4.852520   -8.865740    1.597080
  H     -6.334820  -13.848750    2.757370
  H     -5.623680  -11.464660    3.381510
  H     -6.812940  -15.321440   -0.092730
  H     -8.402600  -20.541380   -3.031200
  H     -8.822420  -21.561920   -5.144750
  H     -7.680880  -18.981660  -10.773470
  H     -8.038320  -20.432330  -12.757300
  H     -9.373190  -23.622960  -10.257590
  H     -8.461810  -22.573150  -13.699380
  H    -10.023010  -23.046750  -13.025310
  H     -8.589550  -23.985680  -12.636710

 Total Charge           Charge          ....    0
 Multiplicity           Mult            ....    1
 Number of Electrons    NEL             ....  560
 Basis Dimension        Dim             .... 1226

ORBITAL ENERGIES
----------------

  NO   OCC          E(Eh)            E(eV)
   0   2.0000     -89.057940     -2423.3897
   1   2.0000     -88.994819     -2421.6721
   2   2.0000     -88.987814     -2421.4815
   3   2.0000     -88.987178     -2421.4642
   4   2.0000     -88.985866     -2421.4285
   5   2.0000     -19.224671      -523.1299
   6   2.0000     -19.214667      -522.8577
   7   2.0000     -14.466174      -393.6446
   8   2.0000     -14.465708      -393.6319
   9   2.0000     -14.443511      -393.0279
  10   2.0000     -14.443194      -393.0193
  11   2.0000     -14.431697      -392.7065
  12   2.0000     -14.430782      -392.6815
  13   2.0000     -14.429001      -392.6331
  14   2.0000     -14.427376      -392.5889
  15   2.0000     -14.417983      -392.3333
  16   2.0000     -14.417701      -392.3256
  17   2.0000     -14.414705      -392.2441
  18   2.0000     -14.413289      -392.2055
  19   2.0000     -10.372325      -282.2453
  20   2.0000     -10.365952      -282.0719
  21   2.0000     -10.364850      -282.0419
  22   2.0000     -10.362307      -281.9727
  23   2.0000     -10.352567      -281.7077
  24   2.0000     -10.350943      -281.6635
  25   2.0000     -10.349884      -281.6347
  26   2.0000     -10.349617      -281.6274
  27   2.0000     -10.345616      -281.5185
  28   2.0000     -10.345300      -281.5099
  29   2.0000     -10.344508      -281.4884
  30   2.0000     -10.343658      -281.4652
  31   2.0000     -10.342608      -281.4367
  32   2.0000     -10.342143      -281.4240
  33   2.0000     -10.341533      -281.4074
  34   2.0000     -10.338877      -281.3352
  35   2.0000     -10.338581      -281.3271
  36   2.0000     -10.332226      -281.1542
  37   2.0000     -10.332151      -281.1521
  38   2.0000     -10.331214      -281.1266
  39   2.0000     -10.329596      -281.0826
  40   2.0000     -10.328797      -281.0608
  41   2.0000     -10.328709      -281.0585
  42   2.0000     -10.328255      -281.0461
  43   2.0000     -10.327442      -281.0240
  44   2.0000     -10.327424      -281.0235
  45   2.0000     -10.326186      -280.9898
  46   2.0000     -10.325823      -280.9799
  47   2.0000     -10.325670      -280.9758
  48   2.0000     -10.324675      -280.9487
  49   2.0000     -10.323719      -280.9227
  50   2.0000     -10.323468      -280.9158
  51   2.0000     -10.319989      -280.8212
  52   2.0000     -10.319286      -280.8021
  53   2.0000     -10.317834      -280.7625
  54   2.0000     -10.315827      -280.7079
  55   2.0000     -10.311615      -280.5933
  56   2.0000     -10.311104      -280.5794
  57   2.0000     -10.306984      -280.4673
  58   2.0000     -10.306360      -280.4503
  59   2.0000     -10.304908      -280.4108
  60   2.0000     -10.304051      -280.3875
  61   2.0000     -10.303115      -280.3620
  62   2.0000     -10.303039      -280.3599
  63   2.0000     -10.301819      -280.3267
  64   2.0000     -10.299934      -280.2754
  65   2.0000     -10.299821      -280.2724
  66   2.0000     -10.298794      -280.2444
  67   2.0000     -10.296369      -280.1784
  68   2.0000     -10.295391      -280.1518
  69   2.0000     -10.294119      -280.1172
  70   2.0000     -10.293765      -280.1076
  71   2.0000     -10.291791      -280.0539
  72   2.0000     -10.291220      -280.0383
  73   2.0000     -10.290069      -280.0070
  74   2.0000     -10.289270      -279.9853
  75   2.0000     -10.289246      -279.9846
  76   2.0000     -10.288577      -279.9664
  77   2.0000     -10.276054      -279.6256
  78   2.0000     -10.273601      -279.5589
  79   2.0000      -8.148742      -221.7385
  80   2.0000      -8.089619      -220.1297
  81   2.0000      -8.080443      -219.8800
  82   2.0000      -8.080138      -219.8717
  83   2.0000      -8.079062      -219.8424
  84   2.0000      -6.119827      -166.5290
  85   2.0000      -6.112139      -166.3198
  86   2.0000      -6.111485      -166.3020
  87   2.0000      -6.058759      -164.8672
  88   2.0000      -6.054626      -164.7547
  89   2.0000      -6.052096      -164.6859
  90   2.0000      -6.049868      -164.6253
  91   2.0000      -6.049566      -164.6171
  92   2.0000      -6.048424      -164.5860
  93   2.0000      -6.045259      -164.4999
  94   2.0000      -6.044793      -164.4872
  95   2.0000      -6.043891      -164.4626
  96   2.0000      -6.042867      -164.4348
  97   2.0000      -6.042698      -164.4302
  98   2.0000      -6.041569      -164.3995
  99   2.0000      -1.154306       -31.4103
 100   2.0000      -1.139913       -31.0186
 101   2.0000      -1.129870       -30.7453
 102   2.0000      -1.102216       -29.9928
 103   2.0000      -1.047075       -28.4924
 104   2.0000      -1.043485       -28.3947
 105   2.0000      -1.027867       -27.9697
 106   2.0000      -1.022954       -27.8360
 107   2.0000      -1.020036       -27.7566
 108   2.0000      -1.019278       -27.7360
 109   2.0000      -1.018873       -27.7250
 110   2.0000      -1.011968       -27.5370
 111   2.0000      -1.008700       -27.4481
 112   2.0000      -1.005686       -27.3661
 113   2.0000      -1.001952       -27.2645
 114   2.0000      -0.998447       -27.1691
 115   2.0000      -0.996999       -27.1297
 116   2.0000      -0.994698       -27.0671
 117   2.0000      -0.993676       -27.0393
 118   2.0000      -0.991198       -26.9719
 119   2.0000      -0.977705       -26.6047
 120   2.0000      -0.960147       -26.1269
 121   2.0000      -0.955625       -26.0039
 122   2.0000      -0.951233       -25.8844
 123   2.0000      -0.950707       -25.8701
 124   2.0000      -0.922111       -25.0919
 125   2.0000      -0.917147       -24.9568
 126   2.0000      -0.905573       -24.6419
 127   2.0000      -0.903974       -24.5984
 128   2.0000      -0.894699       -24.3460
 129   2.0000      -0.892021       -24.2731
 130   2.0000      -0.885867       -24.1057
 131   2.0000      -0.879759       -23.9395
 132   2.0000      -0.868792       -23.6410
 133   2.0000      -0.866252       -23.5719
 134   2.0000      -0.862809       -23.4782
 135   2.0000      -0.858880       -23.3713
 136   2.0000      -0.855158       -23.2700
 137   2.0000      -0.852739       -23.2042
 138   2.0000      -0.833305       -22.6754
 139   2.0000      -0.825012       -22.4497
 140   2.0000      -0.814600       -22.1664
 141   2.0000      -0.798522       -21.7289
 142   2.0000      -0.790565       -21.5124
 143   2.0000      -0.785460       -21.3734
 144   2.0000      -0.781251       -21.2589
 145   2.0000      -0.775844       -21.1118
 146   2.0000      -0.770911       -20.9775
 147   2.0000      -0.762629       -20.7522
 148   2.0000      -0.755985       -20.5714
 149   2.0000      -0.744665       -20.2634
 150   2.0000      -0.733521       -19.9601
 151   2.0000      -0.721257       -19.6264
 152   2.0000      -0.717697       -19.5295
 153   2.0000      -0.712410       -19.3857
 154   2.0000      -0.702272       -19.1098
 155   2.0000      -0.700081       -19.0502
 156   2.0000      -0.690815       -18.7980
 157   2.0000      -0.689511       -18.7626
 158   2.0000      -0.685839       -18.6626
 159   2.0000      -0.682886       -18.5823
 160   2.0000      -0.680095       -18.5063
 161   2.0000      -0.674691       -18.3593
 162   2.0000      -0.671613       -18.2755
 163   2.0000      -0.659128       -17.9358
 164   2.0000      -0.657297       -17.8860
 165   2.0000      -0.650832       -17.7101
 166   2.0000      -0.644978       -17.5507
 167   2.0000      -0.643230       -17.5032
 168   2.0000      -0.634141       -17.2558
 169   2.0000      -0.629418       -17.1273
 170   2.0000      -0.622436       -16.9374
 171   2.0000      -0.620336       -16.8802
 172   2.0000      -0.617967       -16.8157
 173   2.0000      -0.616295       -16.7702
 174   2.0000      -0.613311       -16.6890
 175   2.0000      -0.607206       -16.5229
 176   2.0000      -0.599581       -16.3154
 177   2.0000      -0.588766       -16.0211
 178   2.0000      -0.583500       -15.8778
 179   2.0000      -0.581483       -15.8230
 180   2.0000      -0.576195       -15.6791
 181   2.0000      -0.574404       -15.6303
 182   2.0000      -0.565710       -15.3937
 183   2.0000      -0.563040       -15.3211
 184   2.0000      -0.558123       -15.1873
 185   2.0000      -0.554969       -15.1015
 186   2.0000      -0.549584       -14.9549
 187   2.0000      -0.548638       -14.9292
 188   2.0000      -0.547681       -14.9032
 189   2.0000      -0.546972       -14.8839
 190   2.0000      -0.542904       -14.7732
 191   2.0000      -0.540439       -14.7061
 192   2.0000      -0.535768       -14.5790
 193   2.0000      -0.535039       -14.5592
 194   2.0000      -0.534165       -14.5354
 195   2.0000      -0.531021       -14.4498
 196   2.0000      -0.527374       -14.3506
 197   2.0000      -0.525348       -14.2955
 198   2.0000      -0.519013       -14.1231
 199   2.0000      -0.516112       -14.0441
 200   2.0000      -0.513574       -13.9751
 201   2.0000      -0.512964       -13.9585
 202   2.0000      -0.510515       -13.8918
 203   2.0000      -0.507996       -13.8233
 204   2.0000      -0.506806       -13.7909
 205   2.0000      -0.504582       -13.7304
 206   2.0000      -0.503424       -13.6989
 207   2.0000      -0.501568       -13.6483
 208   2.0000      -0.500025       -13.6064
 209   2.0000      -0.497900       -13.5486
 210   2.0000      -0.496730       -13.5167
 211   2.0000      -0.494777       -13.4636
 212   2.0000      -0.493776       -13.4363
 213   2.0000      -0.490443       -13.3456
 214   2.0000      -0.488079       -13.2813
 215   2.0000      -0.486609       -13.2413
 216   2.0000      -0.480735       -13.0815
 217   2.0000      -0.475864       -12.9489
 218   2.0000      -0.473600       -12.8873
 219   2.0000      -0.472748       -12.8641
 220   2.0000      -0.471101       -12.8193
 221   2.0000      -0.462899       -12.5961
 222   2.0000      -0.461414       -12.5557
 223   2.0000      -0.460839       -12.5401
 224   2.0000      -0.459925       -12.5152
 225   2.0000      -0.458471       -12.4756
 226   2.0000      -0.456194       -12.4137
 227   2.0000      -0.454549       -12.3689
 228   2.0000      -0.453625       -12.3438
 229   2.0000      -0.452659       -12.3175
 230   2.0000      -0.451183       -12.2773
 231   2.0000      -0.450631       -12.2623
 232   2.0000      -0.450135       -12.2488
 233   2.0000      -0.449470       -12.2307
 234   2.0000      -0.448485       -12.2039
 235   2.0000      -0.447041       -12.1646
 236   2.0000      -0.446999       -12.1635
 237   2.0000      -0.443689       -12.0734
 238   2.0000      -0.443172       -12.0593
 239   2.0000      -0.441205       -12.0058
 240   2.0000      -0.440539       -11.9877
 241   2.0000      -0.439152       -11.9499
 242   2.0000      -0.438431       -11.9303
 243   2.0000      -0.437093       -11.8939
 244   2.0000      -0.432315       -11.7639
 245   2.0000      -0.429915       -11.6986
 246   2.0000      -0.428439       -11.6584
 247   2.0000      -0.427752       -11.6397
 248   2.0000      -0.426892       -11.6163
 249   2.0000      -0.425722       -11.5845
 250   2.0000      -0.423743       -11.5306
 251   2.0000      -0.421567       -11.4714
 252   2.0000      -0.417776       -11.3683
 253   2.0000      -0.416945       -11.3457
 254   2.0000      -0.408489       -11.1155
 255   2.0000      -0.407437       -11.0869
 256   2.0000      -0.406242       -11.0544
 257   2.0000      -0.406073       -11.0498
 258   2.0000      -0.405297       -11.0287
 259   2.0000      -0.396272       -10.7831
 260   2.0000      -0.387348       -10.5403
 261   2.0000      -0.381240       -10.3741
 262   2.0000      -0.377391       -10.2693
 263   2.0000      -0.360450        -9.8083
 264   2.0000      -0.357207        -9.7201
 265   2.0000      -0.347772        -9.4634
 266   2.0000      -0.346247        -9.4218
 267   2.0000      -0.344959        -9.3868
 268   2.0000      -0.340467        -9.2646
 269   2.0000      -0.338790        -9.2189
 270   2.0000      -0.337644        -9.1878
 271   2.0000      -0.335335        -9.1249
 272   2.0000      -0.331296        -9.0150
 273   2.0000      -0.322312        -8.7705
 274   2.0000      -0.320410        -8.7188
 275   2.0000      -0.317365        -8.6359
 276   2.0000      -0.314213        -8.5502
 277   2.0000      -0.302109        -8.2208
 278   2.0000      -0.275363        -7.4930
 279   2.0000      -0.241602        -6.5743
 280   0.0000      -0.132081        -3.5941
 281   0.0000      -0.105168        -2.8618
 282   0.0000      -0.097644        -2.6570
 283   0.0000      -0.084949        -2.3116
 284   0.0000      -0.084087        -2.2881

MULLIKEN ATOMIC CHARGES
-----------------------
   0 C :    0.261877
   1 C :   -0.328144
   2 C :   -0.200275
   3 N :    0.167028
   4 C :   -0.171035
   5 N :    0.160656
   6 C :    0.022009
   7 C :   -0.000887
   8 C :   -0.019343
   9 C :    0.003560
  10 C :   -0.041723
  11 C :   -0.059399
  12 C :    0.086636
  13 C :    0.133333
  14 O :   -0.144689
  15 C :   -0.135482
  16 C :    0.078978
  17 C :   -0.110584
  18 C :   -0.007738
  19 C :   -0.003951
  20 C :   -0.074410
  21 S :    0.213576
  22 C :   -0.076098
  23 C :    0.051901
  24 C :    0.314615
  25 C :   -0.297468
  26 C :   -0.184971
  27 N :    0.170952
  28 C :   -0.186214
  29 N :    0.167298
  30 C :   -0.066647
  31 C :   -0.178638
  32 S :    0.208668
  33 C :    0.199724
  34 C :   -0.073525
  35 C :   -0.064622
  36 N :   -0.033384
  37 C :    0.045948
  38 C :    0.044102
  39 N :   -0.032900
  40 C :    0.197292
  41 C :   -0.021779
  42 C :   -0.016488
  43 N :   -0.335960
  44 S :    0.567599
  45 N :   -0.331251
  46 C :   -0.178697
  47 C :   -0.073531
  48 C :    0.054465
  49 C :   -0.078032
  50 S :    0.210649
  51 C :   -0.071316
  52 C :    0.043949
  53 C :    0.313131
  54 C :   -0.305524
  55 C :   -0.197950
  56 N :    0.183450
  57 C :   -0.185328
  58 N :    0.168298
  59 C :   -0.060882
  60 C :   -0.052277
  61 S :    0.240488
  62 C :   -0.032731
  63 C :   -0.097349
  64 C :    0.326535
  65 C :   -0.351386
  66 C :   -0.192806
  67 N :    0.155293
  68 C :   -0.184638
  69 N :    0.151341
  70 C :    0.040659
  71 C :   -0.020506
  72 C :    0.168369
  73 O :   -0.190366
  74 C :   -0.017590
  75 C :    0.004309
  76 C :   -0.039123
  77 C :   -0.067983
  78 C :    0.092142
  79 H :   -0.004590
  80 H :   -0.014156
  81 H :   -0.002534
  82 H :    0.018139
  83 H :    0.037712
  84 H :    0.045374
  85 H :    0.019943
  86 H :    0.025175
  87 H :    0.023112
  88 H :    0.036162
  89 H :    0.035201
  90 H :    0.024046
  91 H :    0.026926
  92 H :    0.016588
  93 H :   -0.008052
  94 H :   -0.015922
  95 H :   -0.011358
  96 H :    0.015596
  97 H :    0.044362
  98 H :    0.035067
Sum of atomic charges:   -0.0000000

LOEWDIN ATOMIC CHARGES
----------------------
   0 C :    0.066493
   1 C :   -0.134653
   2 C :   -0.015743
   3 N :   -0.046585
   4 C :   -0.018750
   5 N :   -0.046479
   6 C :   -0.007005
   7 C :   -0.054893
   8 C :    0.017794
   9 C :   -0.011024
  10 C :    0.003336
  11 C :   -0.004426
  12 C :   -0.043400
  13 C :    0.083186
  14 O :   -0.144312
  15 C :   -0.088756
  16 C :    0.038781
  17 C :   -0.180444
  18 C :    0.005602
  19 C :   -0.063914
  20 C :   -0.158494
  21 S :    0.497143
  22 C :   -0.185845
  23 C :   -0.065246
  24 C :    0.083839
  25 C :   -0.101544
  26 C :   -0.014038
  27 N :   -0.035033
  28 C :   -0.013278
  29 N :   -0.036139
  30 C :   -0.010264
  31 C :   -0.156221
  32 S :    0.512584
  33 C :   -0.041521
  34 C :   -0.005206
  35 C :   -0.003240
  36 N :   -0.022474
  37 C :    0.026457
  38 C :    0.025324
  39 N :   -0.022226
  40 C :   -0.045542
  41 C :   -0.048419
  42 C :   -0.049092
  43 N :   -0.303208
  44 S :    0.683858
  45 N :   -0.302631
  46 C :   -0.152574
  47 C :   -0.014771
  48 C :   -0.062153
  49 C :   -0.190416
  50 S :    0.513083
  51 C :   -0.164935
  52 C :   -0.076487
  53 C :    0.079455
  54 C :   -0.104286
  55 C :   -0.020511
  56 N :   -0.027880
  57 C :   -0.013543
  58 N :   -0.037970
  59 C :    0.010966
  60 C :   -0.183912
  61 S :    0.544704
  62 C :    0.053469
  63 C :   -0.111902
  64 C :    0.076973
  65 C :   -0.138328
  66 C :   -0.023119
  67 N :   -0.046462
  68 C :   -0.017585
  69 N :   -0.052969
  70 C :   -0.008999
  71 C :   -0.053229
  72 C :    0.085803
  73 O :   -0.175628
  74 C :    0.017197
  75 C :   -0.011366
  76 C :    0.002173
  77 C :   -0.003740
  78 C :   -0.042991
  79 H :    0.039796
  80 H :    0.031382
  81 H :    0.038459
  82 H :    0.032480
  83 H :    0.040675
  84 H :    0.045170
  85 H :    0.045420
  86 H :    0.042323
  87 H :    0.037470
  88 H :    0.036451
  89 H :    0.036094
  90 H :    0.037123
  91 H :    0.047688
  92 H :    0.053304
  93 H :    0.038722
  94 H :    0.031011
  95 H :    0.037056
  96 H :    0.031416
  97 H :    0.045162
  98 H :    0.040380

  Mayer bond orders larger than 0.100000
B(  0-C ,  1-C ) :   1.6582 B(  0-C ,  6-C ) :   0.9932 B(  0-C , 15-C ) :   1.0326
B(  1-C ,  2-C ) :   1.1674 B(  1-C ,  4-C ) :   1.1281 B(  2-C ,  3-N ) :   3.0007
B(  4-C ,  5-N ) :   2.9962 B(  6-C ,  7-C ) :   1.3257 B(  6-C , 11-C ) :   1.3769
B(  7-C ,  8-C ) :   1.3817 B(  7-C , 13-C ) :   0.9312 B(  8-C ,  9-C ) :   1.3495
B(  8-C , 79-H ) :   1.0065 B(  9-C , 10-C ) :   1.3871 B(  9-C , 80-H ) :   0.9923
B( 10-C , 11-C ) :   1.3507 B( 10-C , 12-C ) :   1.0535 B( 11-C , 81-H ) :   0.9895
B( 12-C , 82-H ) :   0.9590 B( 12-C , 83-H ) :   0.9570 B( 12-C , 84-H ) :   0.9511
B( 13-C , 14-O ) :   2.2643 B( 13-C , 15-C ) :   0.9367 B( 15-C , 16-C ) :   1.6800
B( 16-C , 17-C ) :   1.1291 B( 16-C , 85-H ) :   0.9301 B( 17-C , 18-C ) :   1.3981
B( 17-C , 21-S ) :   1.0892 B( 18-C , 19-C ) :   1.3560 B( 18-C , 86-H ) :   0.9810
B( 19-C , 20-C ) :   1.4026 B( 19-C , 24-C ) :   0.9959 B( 20-C , 21-S ) :   1.1495
B( 20-C , 22-C ) :   1.2034 B( 22-C , 23-C ) :   1.3979 B( 22-C , 32-S ) :   1.0958
B( 23-C , 24-C ) :   0.9937 B( 23-C , 30-C ) :   1.2577 B( 24-C , 25-C ) :   1.7118
B( 25-C , 26-C ) :   1.1387 B( 25-C , 28-C ) :   1.1341 B( 26-C , 27-N ) :   2.9892
B( 28-C , 29-N ) :   2.9814 B( 30-C , 31-C ) :   1.4046 B( 30-C , 87-H ) :   0.9826
B( 31-C , 32-S ) :   1.1031 B( 31-C , 33-C ) :   1.1931 B( 33-C , 34-C ) :   1.2653
B( 33-C , 40-C ) :   0.1348 B( 33-C , 42-C ) :   1.2009 B( 34-C , 35-C ) :   1.1181
B( 34-C , 39-N ) :   1.4682 B( 35-C , 36-N ) :   1.4646 B( 35-C , 40-C ) :   1.2671
B( 36-N , 37-C ) :   1.6709 B( 37-C , 38-C ) :   1.1806 B( 37-C , 88-H ) :   0.9746
B( 38-C , 39-N ) :   1.6681 B( 38-C , 89-H ) :   0.9749 B( 40-C , 41-C ) :   1.2020
B( 40-C , 46-C ) :   1.1891 B( 41-C , 42-C ) :   1.1193 B( 41-C , 45-N ) :   1.4634
B( 42-C , 43-N ) :   1.4591 B( 43-N , 44-S ) :   1.2791 B( 43-N , 45-N ) :   0.1557
B( 44-S , 45-N ) :   1.2790 B( 46-C , 47-C ) :   1.4052 B( 46-C , 50-S ) :   1.1068
B( 47-C , 48-C ) :   1.2554 B( 47-C , 90-H ) :   0.9828 B( 48-C , 49-C ) :   1.3917
B( 48-C , 53-C ) :   0.9951 B( 49-C , 50-S ) :   1.0926 B( 49-C , 51-C ) :   1.2112
B( 51-C , 52-C ) :   1.3485 B( 51-C , 61-S ) :   1.1218 B( 52-C , 53-C ) :   0.9832
B( 52-C , 59-C ) :   1.3336 B( 53-C , 54-C ) :   1.7119 B( 54-C , 55-C ) :   1.1331
B( 54-C , 57-C ) :   1.1410 B( 55-C , 56-N ) :   2.9966 B( 57-C , 58-N ) :   2.9877
B( 59-C , 60-C ) :   1.3245 B( 59-C , 91-H ) :   1.0085 B( 60-C , 61-S ) :   1.0698
B( 60-C , 62-C ) :   1.2681 B( 62-C , 63-C ) :   1.4944 B( 62-C , 92-H ) :   0.9413
B( 63-C , 64-C ) :   1.0758 B( 63-C , 72-C ) :   0.9776 B( 64-C , 65-C ) :   1.6322
B( 64-C , 70-C ) :   0.9750 B( 65-C , 66-C ) :   1.1399 B( 65-C , 68-C ) :   1.1486
B( 66-C , 67-N ) :   2.9676 B( 68-C , 69-N ) :   2.9656 B( 70-C , 71-C ) :   1.3246
B( 70-C , 77-C ) :   1.3792 B( 71-C , 72-C ) :   0.9736 B( 71-C , 74-C ) :   1.3791
B( 72-C , 73-O ) :   2.1113 B( 74-C , 75-C ) :   1.3401 B( 74-C , 93-H ) :   1.0070
B( 75-C , 76-C ) :   1.3921 B( 75-C , 94-H ) :   0.9907 B( 76-C , 77-C ) :   1.3456
B( 76-C , 78-C ) :   1.0538 B( 77-C , 95-H ) :   0.9855 B( 78-C , 96-H ) :   0.9598
B( 78-C , 97-H ) :   0.9507 B( 78-C , 98-H ) :   0.9556

-----------------------------------------------------------------------------
         ABSORPTION SPECTRUM VIA TRANSITION ELECTRIC DIPOLE MOMENTS
-----------------------------------------------------------------------------
State   Energy  Wavelength   fosc         T2         TX        TY        TZ
        (cm-1)    (nm)                  (au**2)     (au)      (au)      (au)
-----------------------------------------------------------------------------
   0    9296.3   1075.7   1.155412848  40.91698  -1.95266  -5.74137  -2.03488
   1   13359.0    748.6   0.021410767   0.52764   0.02715  -0.30849  -0.65706
   2   14506.0    689.4   0.004706619   0.10682   0.07297   0.21931  -0.23107
   3   17720.9    564.3   0.019310931   0.35875   0.23182   0.07603  -0.54702
   4   19832.8    504.2   0.517095154   8.58343   1.48313   2.43044   0.69045
   5   20910.9    478.2   0.704700931  11.09450   0.64814   2.37787   2.24057
   6   22579.3    442.9   0.085576663   1.24773   0.53096   0.58304   0.79112
   7   22847.0    437.7   0.002407953   0.03470  -0.17982   0.04191  -0.02462
   8   24468.7    408.7   0.020328029   0.27350   0.09863   0.45900   0.23041
   9   25040.6    399.4   0.113517481   1.49243  -0.38295  -1.03321  -0.52751
  10   25699.4    389.1   0.075103710   0.96209   0.04895  -0.21183  -0.95646
  11   26083.7    383.4   0.010191734   0.12863  -0.02670  -0.35762  -0.00535
  12   26254.4    380.9   0.047680128   0.59788  -0.05164   0.31950  -0.70223
  13   26837.3    372.6   0.056355676   0.69131   0.37713   0.72240  -0.16500
  14   27692.8    361.1   0.212552728   2.52682   0.07009   1.58745  -0.04383
  15   28154.5    355.2   0.019961358   0.23341  -0.12800  -0.44023  -0.15239
  16   28457.0    351.4   0.004628311   0.05354   0.14738  -0.14849  -0.09886
  17   28805.8    347.2   0.005245758   0.05995   0.16476   0.17179   0.05742
  18   28986.2    345.0   0.033937761   0.38545  -0.57624  -0.23104   0.00480
  19   29428.4    339.8   0.088835204   0.99379  -0.05460  -0.15437  -0.98335
  20   29748.0    336.2   0.006885408   0.07620   0.23136   0.00513   0.15048
  21   30014.1    333.2   0.119807999   1.31412   0.07451   0.34422   1.09091
  22   30181.9    331.3   0.230999185   2.51964  -0.48365  -1.30968   0.75529
  23   30879.3    323.8   0.000983982   0.01049  -0.01614  -0.00379   0.10107
  24   31083.6    321.7   0.066926427   0.70883   0.09038   0.23048   0.80470
  25   31232.9    320.2   0.454085749   4.78631  -0.31668  -1.36457  -1.68047
  26   31386.3    318.6   0.103518887   1.08581  -0.19021  -0.61945   0.81604
  27   31778.8    314.7   0.310423504   3.21583   0.20626   1.37399  -1.13377
  28   32091.5    311.6   0.177602146   1.82194   0.09470   0.30831  -1.31069
  29   32137.1    311.2   0.311667585   3.19272  -0.64951  -1.51163  -0.69702
  30   32543.0    307.3   0.059957102   0.60654   0.29657  -0.65915   0.29000
  31   32567.0    307.1   0.001544585   0.01561   0.04891  -0.07179   0.08982
  32   32632.5    306.4   0.029059619   0.29317   0.04629   0.53911  -0.01961
  33   32968.8    303.3   0.116084177   1.15917   0.00944  -1.06703   0.14323
  34   33285.3    300.4   0.024097637   0.23834   0.09523   0.44091   0.18674
  35   33510.1    298.4   0.005475453   0.05379  -0.21243  -0.05704  -0.07357
  36   33981.8    294.3   0.085856222   0.83177   0.24053   0.49827   0.72500
  37   34060.2    293.6   0.073253100   0.70803  -0.09452   0.43276   0.71541
  38   34477.0    290.0   0.023436612   0.22379  -0.00765  -0.47207   0.02977
  39   34505.8    289.8   0.002567572   0.02450   0.04194  -0.14417   0.04419
  40   34677.6    288.4   0.162118105   1.53907   0.09226   0.34699  -1.18750
  41   34745.5    287.8   0.072077511   0.68293   0.03655  -0.18573   0.80442
  42   34884.8    286.7   0.004628436   0.04368  -0.02618   0.03219   0.20483
  43   34939.2    286.2   0.022261855   0.20976   0.13566   0.33454  -0.28186
  44   35323.5    283.1   0.083268602   0.77606   0.19038   0.33009  -0.79426
  45   35510.2    281.6   0.062312405   0.57769   0.22311   0.65416  -0.31621
  46   35746.7    279.7   0.112758983   1.03846  -0.17216   0.07760   1.00140
  47   35844.4    279.0   0.223371372   2.05155   0.00147   0.65616   1.27318
  48   35950.2    278.2   0.006846786   0.06270   0.06581   0.23939   0.03258
  49   36229.4    276.0   0.804863009   7.31370  -0.12304  -1.32771   2.35282
  50   36400.5    274.7   0.204177593   1.84661  -0.07065  -1.35302  -0.10470
  51   36546.1    273.6   0.088189686   0.79442  -0.24229  -0.32557  -0.79355
  52   36943.6    270.7   0.181835119   1.62037   0.25877   0.87156  -0.89095
  53   36971.5    270.5   0.105928801   0.94324   0.39897  -0.62071  -0.63150
  54   37281.9    268.2   0.278479153   2.45906   0.30118   1.36413  -0.71239
  55   37700.9    265.2   0.068826390   0.60101  -0.03683  -0.63003  -0.45024
  56   37729.2    265.0   0.034181284   0.29825   0.15959   0.25270  -0.45709
  57   37867.1    264.1   0.031242004   0.27161  -0.29149  -0.23003   0.36569
  58   38008.4    263.1   0.052418856   0.45403   0.16526   0.61644   0.21615
  59   38196.6    261.8   0.074964189   0.64611   0.05808   0.14792   0.78794
  60   38494.9    259.8   0.187474323   1.60330  -0.48196   1.05955  -0.49836
  61   38641.0    258.8   0.010389935   0.08852   0.18832   0.07570   0.21754
  62   39152.0    255.4   0.071911800   0.60467  -0.10665  -0.74525   0.19468
  63   39277.3    254.6   0.117755386   0.98699  -0.38669  -0.86355  -0.30290
  64   39440.6    253.5   0.015275118   0.12750   0.18887   0.17403   0.24808
  65   39619.5    252.4   0.020782836   0.17269  -0.08421   0.22820   0.33693
  66   39999.2    250.0   0.002175647   0.01791   0.05553  -0.00620   0.12159
  67   40132.6    249.2   0.009637071   0.07905   0.01312   0.26543  -0.09181
  68   40270.0    248.3   0.077709371   0.63528  -0.04228  -0.62350   0.49472

FINAL SINGLE POINT ENERGY     -5092.101636792217

DIPOLE MOMENT
-------------
                                X             Y             Z
Electronic contribution:     -6.26395     -10.83893       6.30303
Nuclear contribution   :      6.04489      14.18986      -9.47208
                        -----------------------------------------
Total Dipole Moment    :     -0.21906       3.35093      -3.16906
                        -----------------------------------------
Magnitude (a.u.)       :      4.61732
Magnitude (Debye)      :     11.73629

Rotational constants in cm-1:     0.002167     0.000181     0.000169
Rotational constants in MHz :    64.967296     5.417434     5.051589

                             ****ORCA TERMINATED NORMALLY****
TOTAL RUN TIME: 0 days 0 hours 22 minutes 40 seconds 864 msec
