                         Program Version 4.2.0 -  RELEASE  -
|  1> # ORCA input file
|  2> # SCF done       -190.108718249595          0.000797892800
|  3> ! CAM-B3LYP def2-SVP def2/J RIJCOSX Grid4 TightSCF
|  4> %maxcore 5000
|  5> %tddft
|  6>     Mode sTDDFT
|  7>     Ethresh 5.0
|  8>     maxcore 5000
|  9> end
| 10>
| 11> %pal
| 12>   nprocs 6
| 13>   end
| 14> * xyz 0 1
| 15>    C      -12.59652        -5.37506         9.98990
| 16>    O      -11.51345        -4.83253        10.04462
| 17>    C      -13.81458        -4.91269        10.68889
| 18>    C      -14.87329        -5.80154        10.44289
| 19>    C      -16.11928        -5.54842        10.99374
| 20>    C      -16.28132        -4.41468        11.78212
| 21>    C      -15.21905        -3.54123        12.02576
| 22>    C      -13.96924        -3.78941        11.47425
| 23>   Br      -15.46802        -2.00945        13.10388
| 24>   Br      -17.98355        -4.06578        12.52720
| 25>    C      -14.38593        -6.88488         9.59145
| 26>    C      -15.11398        -7.99287         9.24821
| 27>    C      -16.45550        -8.20437         9.63675
| 28>    N      -17.54403        -8.43567         9.91676
| 29>    C      -14.65386        -9.09836         8.49902
| 30>    N      -14.36866       -10.04604         7.91684
| 31>    C      -13.00306        -6.58760         9.24597
| 32>    C      -12.29273        -7.29455         8.31032
| 33>    C      -10.97676        -7.15745         7.83249
| 34>    C       -9.91956        -6.33878         8.20757
| 35>    C       -8.79958        -6.54618         7.41984
| 36>    C       -8.96691        -7.53033         6.42333
| 37>    S      -10.53728        -8.21552         6.48216
| 38>    C       -7.82914        -7.68084         5.63010
| 39>    C       -6.79533        -6.81105         6.02498
| 40>    S       -7.21850        -5.81402         7.38675
| 41>    C       -5.65969        -6.90404         5.23125
| 42>    C       -5.82131        -7.84349         4.22503
| 43>    S       -7.38353        -8.63809         4.26300
| 44>    C       -4.91715        -8.17250         3.19897
| 45>    C       -5.14392        -9.10868         2.18541
| 46>    C       -4.07147        -9.18175         1.23610
| 47>    N       -4.12471       -10.00738         0.19085
| 48>    C       -5.20181       -10.75375         0.07871
| 49>    C       -5.26467       -11.67351        -1.08697
| 50>    O       -4.38456       -11.73365        -1.91788
| 51>    C       -6.47839       -12.50600        -1.15880
| 52>    C       -7.47372       -12.44601        -0.26841
| 53>    C       -7.48019       -11.53888         0.89308
| 54>    O       -8.40287       -11.49290         1.67702
| 55>    C       -6.27102       -10.68550         1.03090
| 56>    N       -6.23225        -9.86929         2.06150
| 57>    C       -3.02121        -8.30390         1.52255
| 58>    S       -3.37097        -7.41140         2.97137
| 59>    C       -1.87416        -8.12438         0.72878
| 60>    C       -0.82041        -7.24792         0.93644
| 61>    C        0.10150        -7.31097        -0.10010
| 62>    C       -0.24217        -8.23744        -1.10160
| 63>    S       -1.72299        -9.05197        -0.75157
| 64>    C        0.68381        -8.24307        -2.14548
| 65>    C        1.73120        -7.32580        -1.93680
| 66>    S        1.57779        -6.45227        -0.43879
| 67>    C        2.66472        -7.29981        -2.96134
| 68>    C        2.34757        -8.19109        -3.97778
| 69>    S        0.85513        -9.06002        -3.64407
| 70>    C        2.98188        -8.40633        -5.21781
| 71>    C        4.22998        -8.04827        -5.63850
| 72>    C        4.48856        -7.96516        -7.10173
| 73>    O        3.78608        -8.38327        -7.99027
| 74>    C        5.75641        -7.21145        -7.22398
| 75>    C        6.28740        -6.97651        -5.94248
| 76>    C        5.42510        -7.61796        -4.94937
| 77>    C        5.81253        -7.96512        -3.68139
| 78>    C        5.05987        -8.80983        -2.84064
| 79>    N        4.49136        -9.51604        -2.13742
| 80>    C        7.04387        -7.58775        -3.10627
| 81>    N        8.02500        -7.28762        -2.59248
| 82>    C        7.45822        -6.25181        -5.80352
| 83>    C        8.08491        -5.77618        -6.95028
| 84>    C        7.55953        -6.02643        -8.21990
| 85>    C        6.38242        -6.75067        -8.36310
| 86>   Br        8.43712        -5.37717        -9.76234
| 87>   Br        9.67362        -4.76984        -6.76163
| 88>    H      -16.96476        -6.19578        10.82798
| 89>    H      -13.13948        -3.12278        11.65138
| 90>    H      -12.83339        -8.09187         7.81374
| 91>    H       -9.98511        -5.62732         9.00968
| 92>    H       -4.76458        -6.32337         5.35856
| 93>    H       -6.51653       -13.18424        -2.00064
| 94>    H       -8.34956       -13.07404        -0.36049
| 95>    H       -0.74865        -6.60277         1.79277
| 96>    H        3.50259        -6.62804        -2.99354
| 97>    H        2.36124        -8.85287        -5.98943
| 98>    H        7.88899        -6.03690        -4.83874
| 99>    H        5.96664        -6.94732        -9.33905
|100> *
|101>
|102>                          ****END OF INPUT****

CARTESIAN COORDINATES (ANGSTROEM)
---------------------------------
  C    -12.596520   -5.375060    9.989900
  O    -11.513450   -4.832530   10.044620
  C    -13.814580   -4.912690   10.688890
  C    -14.873290   -5.801540   10.442890
  C    -16.119280   -5.548420   10.993740
  C    -16.281320   -4.414680   11.782120
  C    -15.219050   -3.541230   12.025760
  C    -13.969240   -3.789410   11.474250
  Br   -15.468020   -2.009450   13.103880
  Br   -17.983550   -4.065780   12.527200
  C    -14.385930   -6.884880    9.591450
  C    -15.113980   -7.992870    9.248210
  C    -16.455500   -8.204370    9.636750
  N    -17.544030   -8.435670    9.916760
  C    -14.653860   -9.098360    8.499020
  N    -14.368660  -10.046040    7.916840
  C    -13.003060   -6.587600    9.245970
  C    -12.292730   -7.294550    8.310320
  C    -10.976760   -7.157450    7.832490
  C     -9.919560   -6.338780    8.207570
  C     -8.799580   -6.546180    7.419840
  C     -8.966910   -7.530330    6.423330
  S    -10.537280   -8.215520    6.482160
  C     -7.829140   -7.680840    5.630100
  C     -6.795330   -6.811050    6.024980
  S     -7.218500   -5.814020    7.386750
  C     -5.659690   -6.904040    5.231250
  C     -5.821310   -7.843490    4.225030
  S     -7.383530   -8.638090    4.263000
  C     -4.917150   -8.172500    3.198970
  C     -5.143920   -9.108680    2.185410
  C     -4.071470   -9.181750    1.236100
  N     -4.124710  -10.007380    0.190850
  C     -5.201810  -10.753750    0.078710
  C     -5.264670  -11.673510   -1.086970
  O     -4.384560  -11.733650   -1.917880
  C     -6.478390  -12.506000   -1.158800
  C     -7.473720  -12.446010   -0.268410
  C     -7.480190  -11.538880    0.893080
  O     -8.402870  -11.492900    1.677020
  C     -6.271020  -10.685500    1.030900
  N     -6.232250   -9.869290    2.061500
  C     -3.021210   -8.303900    1.522550
  S     -3.370970   -7.411400    2.971370
  C     -1.874160   -8.124380    0.728780
  C     -0.820410   -7.247920    0.936440
  C      0.101500   -7.310970   -0.100100
  C     -0.242170   -8.237440   -1.101600
  S     -1.722990   -9.051970   -0.751570
  C      0.683810   -8.243070   -2.145480
  C      1.731200   -7.325800   -1.936800
  S      1.577790   -6.452270   -0.438790
  C      2.664720   -7.299810   -2.961340
  C      2.347570   -8.191090   -3.977780
  S      0.855130   -9.060020   -3.644070
  C      2.981880   -8.406330   -5.217810
  C      4.229980   -8.048270   -5.638500
  C      4.488560   -7.965160   -7.101730
  O      3.786080   -8.383270   -7.990270
  C      5.756410   -7.211450   -7.223980
  C      6.287400   -6.976510   -5.942480
  C      5.425100   -7.617960   -4.949370
  C      5.812530   -7.965120   -3.681390
  C      5.059870   -8.809830   -2.840640
  N      4.491360   -9.516040   -2.137420
  C      7.043870   -7.587750   -3.106270
  N      8.025000   -7.287620   -2.592480
  C      7.458220   -6.251810   -5.803520
  C      8.084910   -5.776180   -6.950280
  C      7.559530   -6.026430   -8.219900
  C      6.382420   -6.750670   -8.363100
  Br     8.437120   -5.377170   -9.762340
  Br     9.673620   -4.769840   -6.761630
  H    -16.964760   -6.195780   10.827980
  H    -13.139480   -3.122780   11.651380
  H    -12.833390   -8.091870    7.813740
  H     -9.985110   -5.627320    9.009680
  H     -4.764580   -6.323370    5.358560
  H     -6.516530  -13.184240   -2.000640
  H     -8.349560  -13.074040   -0.360490
  H     -0.748650   -6.602770    1.792770
  H      3.502590   -6.628040   -2.993540
  H      2.361240   -8.852870   -5.989430
  H      7.888990   -6.036900   -4.838740
  H      5.966640   -6.947320   -9.339050

 Total Charge           Charge          ....    0
 Multiplicity           Mult            ....    1
 Number of Electrons    NEL             ....  650
 Basis Dimension        Dim             .... 1182

ORBITAL ENERGIES
----------------

  NO   OCC          E(Eh)            E(eV)
   0   2.0000    -482.878361    -13139.7882
   1   2.0000    -482.877458    -13139.7636
   2   2.0000    -482.877372    -13139.7613
   3   2.0000    -482.875285    -13139.7045
   4   2.0000     -89.010841     -2422.1081
   5   2.0000     -88.979549     -2421.2566
   6   2.0000     -88.977576     -2421.2029
   7   2.0000     -88.977436     -2421.1991
   8   2.0000     -88.976914     -2421.1849
   9   2.0000     -88.974390     -2421.1162
  10   2.0000     -88.973733     -2421.0984
  11   2.0000     -62.555965     -1702.2344
  12   2.0000     -62.555080     -1702.2103
  13   2.0000     -62.554989     -1702.2078
  14   2.0000     -62.552895     -1702.1508
  15   2.0000     -56.389915     -1534.4476
  16   2.0000     -56.389041     -1534.4238
  17   2.0000     -56.388934     -1534.4209
  18   2.0000     -56.387261     -1534.3754
  19   2.0000     -56.387170     -1534.3729
  20   2.0000     -56.386856     -1534.3644
  21   2.0000     -56.386369     -1534.3511
  22   2.0000     -56.386287     -1534.3489
  23   2.0000     -56.386278     -1534.3486
  24   2.0000     -56.386190     -1534.3462
  25   2.0000     -56.384187     -1534.2917
  26   2.0000     -56.384092     -1534.2891
  27   2.0000     -19.235450      -523.4232
  28   2.0000     -19.235384      -523.4214
  29   2.0000     -19.227365      -523.2032
  30   2.0000     -19.223011      -523.0847
  31   2.0000     -14.462684      -393.5496
  32   2.0000     -14.462395      -393.5418
  33   2.0000     -14.422163      -392.4470
  34   2.0000     -14.421664      -392.4334
  35   2.0000     -14.421141      -392.4192
  36   2.0000     -14.417858      -392.3299
  37   2.0000     -10.385119      -282.5935
  38   2.0000     -10.384942      -282.5887
  39   2.0000     -10.378387      -282.4103
  40   2.0000     -10.374418      -282.3023
  41   2.0000     -10.355851      -281.7970
  42   2.0000     -10.355140      -281.7777
  43   2.0000     -10.353968      -281.7458
  44   2.0000     -10.353756      -281.7400
  45   2.0000     -10.353531      -281.7339
  46   2.0000     -10.353373      -281.7296
  47   2.0000     -10.351558      -281.6802
  48   2.0000     -10.350419      -281.6492
  49   2.0000     -10.348279      -281.5910
  50   2.0000     -10.347405      -281.5672
  51   2.0000     -10.346463      -281.5416
  52   2.0000     -10.345532      -281.5162
  53   2.0000     -10.344185      -281.4796
  54   2.0000     -10.343814      -281.4695
  55   2.0000     -10.337528      -281.2985
  56   2.0000     -10.336436      -281.2687
  57   2.0000     -10.331813      -281.1429
  58   2.0000     -10.330441      -281.1056
  59   2.0000     -10.329703      -281.0855
  60   2.0000     -10.328651      -281.0569
  61   2.0000     -10.326639      -281.0021
  62   2.0000     -10.325192      -280.9628
  63   2.0000     -10.325085      -280.9599
  64   2.0000     -10.324408      -280.9414
  65   2.0000     -10.324121      -280.9336
  66   2.0000     -10.323494      -280.9166
  67   2.0000     -10.322112      -280.8790
  68   2.0000     -10.321869      -280.8723
  69   2.0000     -10.321173      -280.8534
  70   2.0000     -10.320896      -280.8459
  71   2.0000     -10.320607      -280.8380
  72   2.0000     -10.320525      -280.8358
  73   2.0000     -10.320014      -280.8218
  74   2.0000     -10.317691      -280.7587
  75   2.0000     -10.317024      -280.7405
  76   2.0000     -10.316325      -280.7215
  77   2.0000     -10.313837      -280.6538
  78   2.0000     -10.313703      -280.6501
  79   2.0000     -10.312518      -280.6179
  80   2.0000     -10.311862      -280.6000
  81   2.0000     -10.311196      -280.5819
  82   2.0000     -10.307998      -280.4949
  83   2.0000     -10.307648      -280.4854
  84   2.0000     -10.305744      -280.4335
  85   2.0000     -10.305037      -280.4143
  86   2.0000     -10.303554      -280.3740
  87   2.0000     -10.303388      -280.3694
  88   2.0000     -10.301973      -280.3309
  89   2.0000      -8.785282      -239.0597
  90   2.0000      -8.784403      -239.0358
  91   2.0000      -8.784320      -239.0335
  92   2.0000      -8.782212      -238.9761
  93   2.0000      -8.105035      -220.5492
  94   2.0000      -8.074802      -219.7265
  95   2.0000      -8.072839      -219.6731
  96   2.0000      -8.071392      -219.6337
  97   2.0000      -8.070795      -219.6175
  98   2.0000      -8.069655      -219.5865
  99   2.0000      -8.069100      -219.5714
 100   2.0000      -6.621407      -180.1776
 101   2.0000      -6.620574      -180.1550
 102   2.0000      -6.620434      -180.1512
 103   2.0000      -6.618367      -180.0949
 104   2.0000      -6.607410      -179.7968
 105   2.0000      -6.606619      -179.7753
 106   2.0000      -6.606493      -179.7718
 107   2.0000      -6.606442      -179.7704
 108   2.0000      -6.605733      -179.7511
 109   2.0000      -6.605680      -179.7497
 110   2.0000      -6.604313      -179.7125
 111   2.0000      -6.603553      -179.6918
 112   2.0000      -6.074150      -165.2860
 113   2.0000      -6.070037      -165.1741
 114   2.0000      -6.067673      -165.1098
 115   2.0000      -6.044268      -164.4729
 116   2.0000      -6.042252      -164.4180
 117   2.0000      -6.041125      -164.3874
 118   2.0000      -6.040532      -164.3712
 119   2.0000      -6.040204      -164.3623
 120   2.0000      -6.039419      -164.3409
 121   2.0000      -6.038840      -164.3252
 122   2.0000      -6.038245      -164.3090
 123   2.0000      -6.036736      -164.2679
 124   2.0000      -6.036457      -164.2603
 125   2.0000      -6.036128      -164.2514
 126   2.0000      -6.035572      -164.2363
 127   2.0000      -6.034995      -164.2206
 128   2.0000      -6.034507      -164.2073
 129   2.0000      -6.032817      -164.1613
 130   2.0000      -6.032237      -164.1455
 131   2.0000      -6.030515      -164.0987
 132   2.0000      -6.029971      -164.0839
 133   2.0000      -2.737308       -74.4859
 134   2.0000      -2.736453       -74.4627
 135   2.0000      -2.736334       -74.4594
 136   2.0000      -2.734280       -74.4035
 137   2.0000      -2.733541       -74.3834
 138   2.0000      -2.732966       -74.3678
 139   2.0000      -2.732696       -74.3604
 140   2.0000      -2.732609       -74.3581
 141   2.0000      -2.732096       -74.3441
 142   2.0000      -2.731969       -74.3407
 143   2.0000      -2.730494       -74.3005
 144   2.0000      -2.729875       -74.2837
 145   2.0000      -2.721809       -74.0642
 146   2.0000      -2.721792       -74.0637
 147   2.0000      -2.720893       -74.0393
 148   2.0000      -2.720883       -74.0390
 149   2.0000      -2.720856       -74.0382
 150   2.0000      -2.720844       -74.0379
 151   2.0000      -2.718710       -73.9799
 152   2.0000      -2.718701       -73.9796
 153   2.0000      -1.153562       -31.3900
 154   2.0000      -1.148717       -31.2582
 155   2.0000      -1.142705       -31.0946
 156   2.0000      -1.139219       -30.9997
 157   2.0000      -1.113694       -30.3052
 158   2.0000      -1.043739       -28.4016
 159   2.0000      -1.038529       -28.2598
 160   2.0000      -1.035515       -28.1778
 161   2.0000      -1.028240       -27.9798
 162   2.0000      -1.026261       -27.9260
 163   2.0000      -1.020245       -27.7623
 164   2.0000      -1.011565       -27.5261
 165   2.0000      -1.010341       -27.4928
 166   2.0000      -1.001537       -27.2532
 167   2.0000      -0.998233       -27.1633
 168   2.0000      -0.997494       -27.1432
 169   2.0000      -0.991457       -26.9789
 170   2.0000      -0.979472       -26.6528
 171   2.0000      -0.977857       -26.6088
 172   2.0000      -0.950414       -25.8621
 173   2.0000      -0.948589       -25.8124
 174   2.0000      -0.942445       -25.6452
 175   2.0000      -0.923402       -25.1271
 176   2.0000      -0.921649       -25.0793
 177   2.0000      -0.915015       -24.8988
 178   2.0000      -0.913524       -24.8582
 179   2.0000      -0.906361       -24.6633
 180   2.0000      -0.903976       -24.5984
 181   2.0000      -0.896875       -24.4052
 182   2.0000      -0.887544       -24.1513
 183   2.0000      -0.880049       -23.9474
 184   2.0000      -0.876258       -23.8442
 185   2.0000      -0.863061       -23.4851
 186   2.0000      -0.855585       -23.2817
 187   2.0000      -0.854461       -23.2511
 188   2.0000      -0.853653       -23.2291
 189   2.0000      -0.852129       -23.1876
 190   2.0000      -0.851134       -23.1605
 191   2.0000      -0.817093       -22.2342
 192   2.0000      -0.813618       -22.1397
 193   2.0000      -0.810413       -22.0524
 194   2.0000      -0.806609       -21.9490
 195   2.0000      -0.800658       -21.7870
 196   2.0000      -0.791352       -21.5338
 197   2.0000      -0.780211       -21.2306
 198   2.0000      -0.772904       -21.0318
 199   2.0000      -0.768802       -20.9202
 200   2.0000      -0.766397       -20.8547
 201   2.0000      -0.745891       -20.2967
 202   2.0000      -0.739289       -20.1171
 203   2.0000      -0.719808       -19.5870
 204   2.0000      -0.714140       -19.4327
 205   2.0000      -0.700503       -19.0617
 206   2.0000      -0.697012       -18.9667
 207   2.0000      -0.692817       -18.8525
 208   2.0000      -0.689207       -18.7543
 209   2.0000      -0.686722       -18.6866
 210   2.0000      -0.678710       -18.4686
 211   2.0000      -0.675821       -18.3900
 212   2.0000      -0.668180       -18.1821
 213   2.0000      -0.666220       -18.1288
 214   2.0000      -0.657380       -17.8882
 215   2.0000      -0.652545       -17.7567
 216   2.0000      -0.648548       -17.6479
 217   2.0000      -0.647547       -17.6207
 218   2.0000      -0.634789       -17.2735
 219   2.0000      -0.631028       -17.1711
 220   2.0000      -0.622312       -16.9340
 221   2.0000      -0.619024       -16.8445
 222   2.0000      -0.611832       -16.6488
 223   2.0000      -0.608470       -16.5573
 224   2.0000      -0.603253       -16.4153
 225   2.0000      -0.595003       -16.1908
 226   2.0000      -0.590125       -16.0581
 227   2.0000      -0.584385       -15.9019
 228   2.0000      -0.582223       -15.8431
 229   2.0000      -0.580215       -15.7885
 230   2.0000      -0.574318       -15.6280
 231   2.0000      -0.570258       -15.5175
 232   2.0000      -0.569031       -15.4841
 233   2.0000      -0.565224       -15.3805
 234   2.0000      -0.560730       -15.2582
 235   2.0000      -0.554944       -15.1008
 236   2.0000      -0.551913       -15.0183
 237   2.0000      -0.547754       -14.9051
 238   2.0000      -0.546656       -14.8753
 239   2.0000      -0.546180       -14.8623
 240   2.0000      -0.543939       -14.8013
 241   2.0000      -0.541290       -14.7293
 242   2.0000      -0.538936       -14.6652
 243   2.0000      -0.535343       -14.5674
 244   2.0000      -0.534593       -14.5470
 245   2.0000      -0.532171       -14.4811
 246   2.0000      -0.529582       -14.4107
 247   2.0000      -0.527095       -14.3430
 248   2.0000      -0.526688       -14.3319
 249   2.0000      -0.521302       -14.1854
 250   2.0000      -0.515654       -14.0317
 251   2.0000      -0.512360       -13.9420
 252   2.0000      -0.509414       -13.8619
 253   2.0000      -0.507910       -13.8209
 254   2.0000      -0.506344       -13.7783
 255   2.0000      -0.503269       -13.6946
 256   2.0000      -0.502124       -13.6635
 257   2.0000      -0.500517       -13.6198
 258   2.0000      -0.497182       -13.5290
 259   2.0000      -0.496249       -13.5036
 260   2.0000      -0.493207       -13.4209
 261   2.0000      -0.491746       -13.3811
 262   2.0000      -0.489390       -13.3170
 263   2.0000      -0.487741       -13.2721
 264   2.0000      -0.486116       -13.2279
 265   2.0000      -0.482683       -13.1345
 266   2.0000      -0.472767       -12.8646
 267   2.0000      -0.466975       -12.7070
 268   2.0000      -0.466197       -12.6859
 269   2.0000      -0.464460       -12.6386
 270   2.0000      -0.463249       -12.6056
 271   2.0000      -0.462289       -12.5795
 272   2.0000      -0.460468       -12.5300
 273   2.0000      -0.457252       -12.4425
 274   2.0000      -0.456718       -12.4279
 275   2.0000      -0.454369       -12.3640
 276   2.0000      -0.453450       -12.3390
 277   2.0000      -0.452036       -12.3005
 278   2.0000      -0.449668       -12.2361
 279   2.0000      -0.447878       -12.1874
 280   2.0000      -0.446283       -12.1440
 281   2.0000      -0.439769       -11.9667
 282   2.0000      -0.434460       -11.8223
 283   2.0000      -0.434158       -11.8140
 284   2.0000      -0.432771       -11.7763
 285   2.0000      -0.431923       -11.7532
 286   2.0000      -0.431348       -11.7376
 287   2.0000      -0.430098       -11.7036
 288   2.0000      -0.428568       -11.6619
 289   2.0000      -0.427285       -11.6270
 290   2.0000      -0.424055       -11.5391
 291   2.0000      -0.420841       -11.4517
 292   2.0000      -0.413747       -11.2586
 293   2.0000      -0.411570       -11.1994
 294   2.0000      -0.402076       -10.9410
 295   2.0000      -0.401328       -10.9207
 296   2.0000      -0.400770       -10.9055
 297   2.0000      -0.399464       -10.8700
 298   2.0000      -0.398385       -10.8406
 299   2.0000      -0.391700       -10.6587
 300   2.0000      -0.390160       -10.6168
 301   2.0000      -0.385720       -10.4960
 302   2.0000      -0.381207       -10.3732
 303   2.0000      -0.374127       -10.1805
 304   2.0000      -0.373050       -10.1512
 305   2.0000      -0.361686        -9.8420
 306   2.0000      -0.361029        -9.8241
 307   2.0000      -0.355688        -9.6788
 308   2.0000      -0.351611        -9.5678
 309   2.0000      -0.350682        -9.5425
 310   2.0000      -0.349553        -9.5118
 311   2.0000      -0.348898        -9.4940
 312   2.0000      -0.345955        -9.4139
 313   2.0000      -0.344912        -9.3855
 314   2.0000      -0.344359        -9.3705
 315   2.0000      -0.342548        -9.3212
 316   2.0000      -0.337058        -9.1718
 317   2.0000      -0.332327        -9.0431
 318   2.0000      -0.314958        -8.5704
 319   2.0000      -0.313532        -8.5317
 320   2.0000      -0.307558        -8.3691
 321   2.0000      -0.299556        -8.1513
 322   2.0000      -0.298265        -8.1162
 323   2.0000      -0.277972        -7.5640
 324   2.0000      -0.244212        -6.6453
 325   0.0000      -0.122080        -3.3220
 326   0.0000      -0.102211        -2.7813
 327   0.0000      -0.091942        -2.5019
 328   0.0000      -0.090571        -2.4646
 329   0.0000      -0.070636        -1.9221

MULLIKEN ATOMIC CHARGES
-----------------------
   0 C :    0.159777
   1 O :   -0.156082
   2 C :   -0.010842
   3 C :    0.034524
   4 C :   -0.010312
   5 C :   -0.025603
   6 C :   -0.013515
   7 C :   -0.023937
   8 Br:    0.013229
   9 Br:    0.021264
  10 C :    0.307646
  11 C :   -0.353588
  12 C :   -0.186548
  13 N :    0.157069
  14 C :   -0.190466
  15 N :    0.159401
  16 C :   -0.094452
  17 C :    0.049676
  18 C :   -0.112576
  19 C :   -0.009047
  20 C :   -0.036062
  21 C :   -0.055209
  22 S :    0.177766
  23 C :   -0.076380
  24 C :   -0.000385
  25 S :    0.170935
  26 C :   -0.082296
  27 C :   -0.065046
  28 S :    0.217957
  29 C :   -0.118111
  30 C :    0.029678
  31 C :    0.020181
  32 N :    0.043101
  33 C :   -0.112940
  34 C :    0.138966
  35 O :   -0.101050
  36 C :   -0.017223
  37 C :   -0.015747
  38 C :    0.138026
  39 O :   -0.099143
  40 C :   -0.114814
  41 N :    0.043197
  42 C :   -0.109825
  43 S :    0.214343
  44 C :   -0.067580
  45 C :   -0.081271
  46 C :   -0.002725
  47 C :   -0.070084
  48 S :    0.215401
  49 C :   -0.055435
  50 C :   -0.041482
  51 S :    0.172237
  52 C :    0.012273
  53 C :   -0.114408
  54 S :    0.188106
  55 C :    0.089546
  56 C :   -0.144840
  57 C :    0.138969
  58 O :   -0.135506
  59 C :    0.003720
  60 C :    0.018020
  61 C :    0.263352
  62 C :   -0.334457
  63 C :   -0.208041
  64 N :    0.182343
  65 C :   -0.178592
  66 N :    0.164230
  67 C :   -0.013265
  68 C :   -0.023121
  69 C :   -0.016352
  70 C :   -0.022345
  71 Br:    0.014400
  72 Br:    0.020595
  73 H :    0.008906
  74 H :    0.005154
  75 H :    0.008942
  76 H :    0.020073
  77 H :   -0.008099
  78 H :    0.021661
  79 H :    0.021896
  80 H :   -0.007246
  81 H :    0.005987
  82 H :    0.026026
  83 H :    0.009807
  84 H :    0.007670
Sum of atomic charges:   -0.0000000

LOEWDIN ATOMIC CHARGES
----------------------
   0 C :    0.088519
   1 O :   -0.140419
   2 C :   -0.041171
   3 C :   -0.011933
   4 C :   -0.007089
   5 C :   -0.119156
   6 C :   -0.123198
   7 C :    0.005027
   8 Br:    0.136806
   9 Br:    0.140839
  10 C :    0.075120
  11 C :   -0.136761
  12 C :   -0.019302
  13 N :   -0.046935
  14 C :   -0.025315
  15 N :   -0.044819
  16 C :   -0.103961
  17 C :    0.049334
  18 C :   -0.174667
  19 C :   -0.013207
  20 C :   -0.193497
  21 C :   -0.193763
  22 S :    0.454197
  23 C :   -0.222638
  24 C :   -0.176780
  25 S :    0.414175
  26 C :   -0.068910
  27 C :   -0.168472
  28 S :    0.488141
  29 C :   -0.189638
  30 C :   -0.051550
  31 C :   -0.053134
  32 N :   -0.004541
  33 C :   -0.037623
  34 C :    0.055355
  35 O :   -0.098102
  36 C :   -0.011668
  37 C :   -0.011242
  38 C :    0.055257
  39 O :   -0.096125
  40 C :   -0.036357
  41 N :   -0.005216
  42 C :   -0.186203
  43 S :    0.511652
  44 C :   -0.171270
  45 C :   -0.065604
  46 C :   -0.178403
  47 C :   -0.218684
  48 S :    0.488846
  49 C :   -0.194152
  50 C :   -0.185988
  51 S :    0.414476
  52 C :   -0.019376
  53 C :   -0.177465
  54 S :    0.461119
  55 C :    0.050658
  56 C :   -0.101150
  57 C :    0.083085
  58 O :   -0.135994
  59 C :   -0.043515
  60 C :   -0.009769
  61 C :    0.063276
  62 C :   -0.138685
  63 C :   -0.020746
  64 N :   -0.034719
  65 C :   -0.023221
  66 N :   -0.044886
  67 C :   -0.010244
  68 C :   -0.118808
  69 C :   -0.123999
  70 C :    0.007048
  71 Br:    0.137610
  72 Br:    0.141300
  73 H :    0.044793
  74 H :    0.045501
  75 H :    0.043818
  76 H :    0.038740
  77 H :    0.031536
  78 H :    0.047209
  79 H :    0.047452
  80 H :    0.031989
  81 H :    0.038769
  82 H :    0.047488
  83 H :    0.044214
  84 H :    0.046723

  Mayer bond orders larger than 0.100000
B(  0-C ,  1-O ) :   2.1639 B(  0-C ,  2-C ) :   0.9531 B(  0-C , 16-C ) :   0.9493
B(  2-C ,  3-C ) :   1.3312 B(  2-C ,  7-C ) :   1.3719 B(  3-C ,  4-C ) :   1.3661
B(  3-C , 10-C ) :   0.9842 B(  4-C ,  5-C ) :   1.3706 B(  4-C , 73-H ) :   0.9779
B(  5-C ,  6-C ) :   1.4221 B(  5-C ,  9-Br) :   1.0575 B(  6-C ,  7-C ) :   1.3505
B(  6-C ,  8-Br) :   1.0322 B(  7-C , 74-H ) :   1.0074 B( 10-C , 11-C ) :   1.6295
B( 10-C , 16-C ) :   1.0882 B( 11-C , 12-C ) :   1.1462 B( 11-C , 14-C ) :   1.1380
B( 12-C , 13-N ) :   2.9700 B( 14-C , 15-N ) :   2.9743 B( 16-C , 17-C ) :   1.5667
B( 17-C , 18-C ) :   1.2483 B( 17-C , 75-H ) :   0.9109 B( 18-C , 19-C ) :   1.4250
B( 18-C , 22-S ) :   1.0644 B( 19-C , 20-C ) :   1.3092 B( 19-C , 76-H ) :   0.9789
B( 20-C , 21-C ) :   1.3896 B( 20-C , 25-S ) :   1.0416 B( 21-C , 22-S ) :   1.1096
B( 21-C , 23-C ) :   1.3260 B( 23-C , 24-C ) :   1.4232 B( 23-C , 28-S ) :   1.0420
B( 24-C , 25-S ) :   1.0525 B( 24-C , 26-C ) :   1.3041 B( 26-C , 27-C ) :   1.4334
B( 26-C , 77-H ) :   1.0007 B( 27-C , 28-S ) :   1.1188 B( 27-C , 29-C ) :   1.2378
B( 29-C , 30-C ) :   1.3227 B( 29-C , 42-C ) :   0.1161 B( 29-C , 43-S ) :   1.1540
B( 30-C , 31-C ) :   1.1898 B( 30-C , 41-N ) :   1.4143 B( 31-C , 32-N ) :   1.4182
B( 31-C , 42-C ) :   1.3202 B( 32-N , 33-C ) :   1.7063 B( 33-C , 34-C ) :   0.8935
B( 33-C , 40-C ) :   1.1011 B( 34-C , 35-O ) :   2.2518 B( 34-C , 36-C ) :   1.0229
B( 36-C , 37-C ) :   1.6789 B( 36-C , 78-H ) :   0.9981 B( 37-C , 38-C ) :   1.0225
B( 37-C , 79-H ) :   0.9980 B( 38-C , 39-O ) :   2.2538 B( 38-C , 40-C ) :   0.8921
B( 40-C , 41-N ) :   1.7106 B( 42-C , 43-S ) :   1.1574 B( 42-C , 44-C ) :   1.2375
B( 44-C , 45-C ) :   1.4339 B( 44-C , 48-S ) :   1.1166 B( 45-C , 46-C ) :   1.3041
B( 45-C , 80-H ) :   1.0008 B( 46-C , 47-C ) :   1.4253 B( 46-C , 51-S ) :   1.0508
B( 47-C , 48-S ) :   1.0438 B( 47-C , 49-C ) :   1.3252 B( 49-C , 50-C ) :   1.4117
B( 49-C , 54-S ) :   1.1033 B( 50-C , 51-S ) :   1.0431 B( 50-C , 52-C ) :   1.3568
B( 52-C , 53-C ) :   1.4265 B( 52-C , 81-H ) :   0.9871 B( 53-C , 54-S ) :   1.0779
B( 53-C , 55-C ) :   1.1675 B( 55-C , 56-C ) :   1.6411 B( 55-C , 82-H ) :   0.9254
B( 56-C , 57-C ) :   0.9505 B( 56-C , 61-C ) :   1.0519 B( 57-C , 58-O ) :   2.2694
B( 57-C , 59-C ) :   0.9182 B( 59-C , 60-C ) :   1.3325 B( 59-C , 70-C ) :   1.3743
B( 60-C , 61-C ) :   0.9984 B( 60-C , 67-C ) :   1.3722 B( 61-C , 62-C ) :   1.6497
B( 62-C , 63-C ) :   1.1644 B( 62-C , 65-C ) :   1.1257 B( 63-C , 64-N ) :   3.0073
B( 65-C , 66-N ) :   2.9924 B( 67-C , 68-C ) :   1.3644 B( 67-C , 83-H ) :   0.9839
B( 68-C , 69-C ) :   1.4256 B( 68-C , 72-Br) :   1.0519 B( 69-C , 70-C ) :   1.3525
B( 69-C , 71-Br) :   1.0336 B( 70-C , 84-H ) :   1.0086

-----------------------------------------------------------------------------
         ABSORPTION SPECTRUM VIA TRANSITION ELECTRIC DIPOLE MOMENTS
-----------------------------------------------------------------------------
State   Energy  Wavelength   fosc         T2         TX        TY        TZ
        (cm-1)    (nm)                  (au**2)     (au)      (au)      (au)
-----------------------------------------------------------------------------
   0   11468.9    871.9   1.433465204  41.14724   5.01454  -0.27515  -3.99073
   1   16650.9    600.6   0.111700277   2.20847  -0.62553  -1.20855  -0.59716
   2   18962.3    527.4   0.852019721  14.79227   3.17158  -0.17166  -2.16884
   3   20083.4    497.9   0.404865328   6.63665  -2.21755   0.26357   1.28438
   4   20944.1    477.5   0.063794768   1.00276  -0.83191  -0.54194   0.13039
   5   23074.0    433.4   0.027619517   0.39407  -0.56721  -0.25987   0.06934
   6   23282.8    429.5   0.037944894   0.53653  -0.27853  -0.51188  -0.44377
   7   24568.4    407.0   0.001900778   0.02547  -0.11153   0.09472  -0.06371
   8   24730.0    404.4   0.251246763   3.34466  -0.78317   0.48810   1.57895
   9   25204.1    396.8   0.027820536   0.36339   0.02222  -0.45839   0.39087
  10   25725.0    388.7   0.000920116   0.01178   0.09064   0.00007  -0.05966
  11   25814.5    387.4   0.242784218   3.09622   1.48616   0.01645  -0.94195
  12   26638.2    375.4   0.000613489   0.00758   0.04304  -0.05794   0.04871
  13   27257.5    366.9   0.014621975   0.17660  -0.39763  -0.07599  -0.11277
  14   27672.2    361.4   0.042141428   0.50135  -0.68617  -0.16241  -0.06436
  15   28054.3    356.5   0.039047251   0.45821  -0.59440  -0.16974   0.27585
  16   28700.5    348.4   0.051146305   0.58668   0.17001   0.74525   0.04880
  17   29102.4    343.6   0.158165737   1.78920   0.14012  -0.74135  -1.10452
  18   29165.8    342.9   0.216606937   2.44497   0.77671   0.67456  -1.17757
  19   29549.6    338.4   0.180840026   2.01474  -0.87855   0.73563   0.83769
  20   30071.5    332.5   0.001694791   0.01855  -0.06660  -0.11563   0.02735
  21   30401.1    328.9   0.004500463   0.04874   0.16637   0.13657  -0.04903
  22   30520.0    327.7   0.011825391   0.12756   0.25241   0.24684   0.05399
  23   30693.1    325.8   0.000134942   0.00145   0.00519   0.02329   0.02963
  24   30988.8    322.7   0.027766683   0.29498  -0.21351  -0.33017   0.37468
  25   31031.6    322.3   0.043298856   0.45935  -0.57398  -0.31291   0.17885
  26   32516.3    307.5   0.052988861   0.53649  -0.09604  -0.32719   0.64824
  27   32745.2    305.4   0.053369510   0.53656   0.11123  -0.50022  -0.52342
  28   32794.1    304.9   0.004964117   0.04983   0.07567   0.04265  -0.20564
  29   33116.0    302.0   0.009876422   0.09818   0.20929  -0.23245  -0.01860
  30   33354.2    299.8   0.027322585   0.26968  -0.01445   0.51365  -0.07503
  31   33643.8    297.2   0.045840734   0.44856  -0.58238  -0.11261   0.31099
  32   33799.5    295.9   0.177180591   1.72576  -0.49355   0.61581   1.05021
  33   33845.0    295.5   0.000443894   0.00432   0.04201   0.04862   0.01374
  34   33950.8    294.5   0.054738585   0.53079  -0.28929  -0.55914  -0.36669
  35   34283.2    291.7   0.041648698   0.39994   0.13807  -0.58045  -0.20966
  36   34330.5    291.3   0.144308893   1.38385   0.49283   0.84110  -0.65842
  37   34611.0    288.9   0.000196671   0.00187   0.00922   0.01430  -0.03976
  38   34982.9    285.9   0.019937982   0.18763   0.22192  -0.30902  -0.20710
  39   35038.2    285.4   0.040132387   0.37708  -0.07503  -0.23476  -0.56244
  40   35142.8    284.6   0.097281066   0.91131  -0.23237  -0.90840  -0.17923
  41   35220.1    283.9   0.209095754   1.95448   0.60949   1.06535  -0.66935
  42   35356.1    282.8   0.498530294   4.64197  -0.66507  -0.98659  -1.79619
  43   35923.3    278.4   0.211148697   1.93503   0.30782   1.14248   0.73145
  44   36144.3    276.7   0.187257763   1.70559   0.82336   0.92431  -0.41632
  45   36363.4    275.0   0.173834953   1.57380   0.06564   0.18162   1.23956
  46   36666.5    272.7   0.098837262   0.88742   0.50020   0.19393   0.77434
  47   36773.9    271.9   0.056057634   0.50185   0.20707   0.08934  -0.67155
  48   37036.8    270.0   0.038880250   0.34560   0.40269   0.15445   0.39948
  49   37345.4    267.8   0.003130357   0.02760  -0.01771  -0.14927  -0.07070
  50   38030.2    262.9   0.037823363   0.32742  -0.42821   0.05139   0.37605
  51   38296.2    261.1   0.000204115   0.00175   0.01691  -0.03802  -0.00482
  52   38472.0    259.9   0.004915733   0.04206   0.03771  -0.03952   0.19769
  53   38493.6    259.8   0.078431946   0.67078  -0.75597  -0.25430  -0.18608
  54   38598.6    259.1   0.025287388   0.21568   0.37054   0.01325  -0.27965
  55   38845.6    257.4   0.071051518   0.60215   0.72740  -0.00438   0.27022
  56   39116.8    255.6   0.032657060   0.27485   0.04851  -0.50094  -0.14681
  57   39373.6    254.0   0.070569859   0.59005  -0.75309  -0.09803   0.11535
  58   39602.3    252.5   0.200208057   1.66432   1.19869   0.36581  -0.30599
  59   39720.2    251.8   0.042388061   0.35132   0.38046   0.45450   0.00049
  60   39788.6    251.3   0.000294087   0.00243   0.03109   0.03806   0.00430
  61   39841.0    251.0   0.093351282   0.77138   0.01418  -0.74317  -0.46784
  62   40108.8    249.3   0.003828292   0.03142   0.05821  -0.10115   0.13343
  63   40144.1    249.1   0.048857121   0.40067   0.51411  -0.07987  -0.36053

FINAL SINGLE POINT ENERGY    -15697.128201963023

DIPOLE MOMENT
-------------
                                X             Y             Z
Electronic contribution:     18.89304     117.08573      10.34770
Nuclear contribution   :    -18.03651    -115.16463     -10.99491
                        -----------------------------------------
Total Dipole Moment    :      0.85653       1.92110      -0.64722
                        -----------------------------------------
Magnitude (a.u.)       :      2.20072
Magnitude (Debye)      :      5.59379

Rotational constants in cm-1:     0.001604     0.000098     0.000094
Rotational constants in MHz :    48.074550     2.925043     2.810396

                             ****ORCA TERMINATED NORMALLY****
TOTAL RUN TIME: 0 days 0 hours 9 minutes 26 seconds 161 msec
