                         Program Version 4.2.0 -  RELEASE  -
|  1> # ORCA input file
|  2> # SCF done       -174.716855795358          0.000654323832
|  3> ! CAM-B3LYP def2-SVP def2/J RIJCOSX Grid4 TightSCF
|  4> %maxcore 5000
|  5> %tddft
|  6>     Mode sTDDFT
|  7>     Ethresh 5.0
|  8>     maxcore 5000
|  9> end
| 10>
| 11> %pal
| 12>   nprocs 6
| 13>   end
| 14> * xyz 0 1
| 15>    C        4.28326        -2.23153        -0.90616
| 16>    O        3.36756        -1.68486        -0.32913
| 17>    C        5.49324        -1.55449        -1.41622
| 18>    C        6.29816        -2.47221        -2.11122
| 19>    C        7.49857        -2.05035        -2.65961
| 20>    C        7.86945        -0.71902        -2.50698
| 21>    C        7.05642         0.18767        -1.82212
| 22>    C        5.85346        -0.23089        -1.26937
| 23>   Br        7.58436         1.99190        -1.63441
| 24>   Br        9.51204        -0.14542        -3.24516
| 25>    C        5.63872        -3.77539        -2.09841
| 26>    C        6.05315        -4.86874        -2.80965
| 27>    C        7.21129        -4.88561        -3.61896
| 28>    N        8.13953        -4.96114        -4.28871
| 29>    C        5.38891        -6.11317        -2.88971
| 30>    N        4.91124        -7.14749        -3.03020
| 31>    C        4.44867        -3.66004        -1.26400
| 32>    C        3.72095        -4.73999        -0.84337
| 33>    C        2.57962        -4.83808        -0.01961
| 34>    C        1.75199        -3.88886         0.54764
| 35>    C        0.72766        -4.42451         1.33128
| 36>    S       -0.49688        -3.41883         2.05692
| 37>    C       -0.46128        -1.97334         0.94277
| 38>    C        0.75634        -5.83112         1.37996
| 39>    S        2.03884        -6.45027         0.39038
| 40>    C       -0.08683        -6.76574         2.04071
| 41>    C       -0.86807        -6.48223         3.18662
| 42>    C       -1.75454        -7.44644         3.78097
| 43>    N       -2.47770        -7.08791         4.86433
| 44>    C       -2.32769        -5.90946         5.37238
| 45>    C       -1.40529        -4.98147         4.82510
| 46>    N       -0.72026        -5.27702         3.76780
| 47>    F       -1.21141        -3.79201         5.38286
| 48>    F       -3.06408        -5.59771         6.43365
| 49>    C       -1.87087        -8.76392         3.28215
| 50>    C       -1.03223        -9.07137         2.18967
| 51>    C       -0.15883        -8.10256         1.58571
| 52>    N        0.52699        -8.62634         0.56973
| 53>    S        0.12062       -10.16564         0.38578
| 54>    N       -0.94208       -10.25734         1.58492
| 55>    C       -2.74724        -9.75626         3.81057
| 56>    C       -3.75351        -9.63193         4.74772
| 57>    C       -4.44372       -10.82276         4.98285
| 58>    S       -5.82614       -10.87004         6.05037
| 59>    C       -6.99930       -11.93982         5.14977
| 60>    C       -3.94948       -11.90592         4.25038
| 61>    S       -2.65409       -11.38016         3.19821
| 62>    C       -4.27201       -13.26352         4.42277
| 63>    C       -3.96323       -14.31117         3.59975
| 64>    C       -3.87039       -15.69018         4.13161
| 65>    O       -4.27214       -16.09726         5.19660
| 66>    C       -3.12991       -16.44522         3.09066
| 67>    C       -2.91046       -15.61639         1.97377
| 68>    C       -3.55440       -14.32891         2.21563
| 69>    C       -3.94736       -13.43121         1.25504
| 70>    C       -4.88912       -12.42168         1.53863
| 71>    N       -5.71510       -11.65587         1.76176
| 72>    C       -3.53360       -13.47816        -0.08851
| 73>    N       -3.18366       -13.46296        -1.18163
| 74>    C       -2.21497       -16.09767         0.87906
| 75>    C       -1.74471       -17.40580         0.91617
| 76>    C       -1.97507       -18.22653         2.02185
| 77>    C       -2.67526       -17.74641         3.12248
| 78>   Br       -1.33481       -20.00508         2.03919
| 79>   Br       -0.77572       -18.06382        -0.56798
| 80>    H        8.15462        -2.71900        -3.19246
| 81>    H        5.21703         0.45777        -0.73564
| 82>    H        4.08669        -5.70996        -1.15877
| 83>    H        1.91239        -2.83773         0.40441
| 84>    H       -1.35816        -1.41004         1.18066
| 85>    H       -0.48693        -2.29598        -0.09249
| 86>    H        0.41368        -1.36277         1.14060
| 87>    H       -3.99346        -8.70384         5.22979
| 88>    H       -7.98112       -11.50500         5.31156
| 89>    H       -6.97878       -12.95109         5.54193
| 90>    H       -6.75248       -11.92222         4.09307
| 91>    H       -4.70459       -13.53345         5.38111
| 92>    H       -2.02206       -15.48646         0.01172
| 93>    H       -2.85875       -18.37516         3.97990
| 94> *
| 95>
| 96>                          ****END OF INPUT****

CARTESIAN COORDINATES (ANGSTROEM)
---------------------------------
  C      4.283260   -2.231530   -0.906160
  O      3.367560   -1.684860   -0.329130
  C      5.493240   -1.554490   -1.416220
  C      6.298160   -2.472210   -2.111220
  C      7.498570   -2.050350   -2.659610
  C      7.869450   -0.719020   -2.506980
  C      7.056420    0.187670   -1.822120
  C      5.853460   -0.230890   -1.269370
  Br     7.584360    1.991900   -1.634410
  Br     9.512040   -0.145420   -3.245160
  C      5.638720   -3.775390   -2.098410
  C      6.053150   -4.868740   -2.809650
  C      7.211290   -4.885610   -3.618960
  N      8.139530   -4.961140   -4.288710
  C      5.388910   -6.113170   -2.889710
  N      4.911240   -7.147490   -3.030200
  C      4.448670   -3.660040   -1.264000
  C      3.720950   -4.739990   -0.843370
  C      2.579620   -4.838080   -0.019610
  C      1.751990   -3.888860    0.547640
  C      0.727660   -4.424510    1.331280
  S     -0.496880   -3.418830    2.056920
  C     -0.461280   -1.973340    0.942770
  C      0.756340   -5.831120    1.379960
  S      2.038840   -6.450270    0.390380
  C     -0.086830   -6.765740    2.040710
  C     -0.868070   -6.482230    3.186620
  C     -1.754540   -7.446440    3.780970
  N     -2.477700   -7.087910    4.864330
  C     -2.327690   -5.909460    5.372380
  C     -1.405290   -4.981470    4.825100
  N     -0.720260   -5.277020    3.767800
  F     -1.211410   -3.792010    5.382860
  F     -3.064080   -5.597710    6.433650
  C     -1.870870   -8.763920    3.282150
  C     -1.032230   -9.071370    2.189670
  C     -0.158830   -8.102560    1.585710
  N      0.526990   -8.626340    0.569730
  S      0.120620  -10.165640    0.385780
  N     -0.942080  -10.257340    1.584920
  C     -2.747240   -9.756260    3.810570
  C     -3.753510   -9.631930    4.747720
  C     -4.443720  -10.822760    4.982850
  S     -5.826140  -10.870040    6.050370
  C     -6.999300  -11.939820    5.149770
  C     -3.949480  -11.905920    4.250380
  S     -2.654090  -11.380160    3.198210
  C     -4.272010  -13.263520    4.422770
  C     -3.963230  -14.311170    3.599750
  C     -3.870390  -15.690180    4.131610
  O     -4.272140  -16.097260    5.196600
  C     -3.129910  -16.445220    3.090660
  C     -2.910460  -15.616390    1.973770
  C     -3.554400  -14.328910    2.215630
  C     -3.947360  -13.431210    1.255040
  C     -4.889120  -12.421680    1.538630
  N     -5.715100  -11.655870    1.761760
  C     -3.533600  -13.478160   -0.088510
  N     -3.183660  -13.462960   -1.181630
  C     -2.214970  -16.097670    0.879060
  C     -1.744710  -17.405800    0.916170
  C     -1.975070  -18.226530    2.021850
  C     -2.675260  -17.746410    3.122480
  Br    -1.334810  -20.005080    2.039190
  Br    -0.775720  -18.063820   -0.567980
  H      8.154620   -2.719000   -3.192460
  H      5.217030    0.457770   -0.735640
  H      4.086690   -5.709960   -1.158770
  H      1.912390   -2.837730    0.404410
  H     -1.358160   -1.410040    1.180660
  H     -0.486930   -2.295980   -0.092490
  H      0.413680   -1.362770    1.140600
  H     -3.993460   -8.703840    5.229790
  H     -7.981120  -11.505000    5.311560
  H     -6.978780  -12.951090    5.541930
  H     -6.752480  -11.922220    4.093070
  H     -4.704590  -13.533450    5.381110
  H     -2.022060  -15.486460    0.011720
  H     -2.858750  -18.375160    3.979900

 Total Charge           Charge          ....    0
 Multiplicity           Mult            ....    1
 Number of Electrons    NEL             ....  588
 Basis Dimension        Dim             .... 1072

ORBITAL ENERGIES
----------------

  NO   OCC          E(Eh)            E(eV)
   0   2.0000    -482.881676    -13139.8784
   1   2.0000    -482.879783    -13139.8269
   2   2.0000    -482.875953    -13139.7227
   3   2.0000    -482.875429    -13139.7084
   4   2.0000     -89.056235     -2423.3433
   5   2.0000     -88.974555     -2421.1207
   6   2.0000     -88.966229     -2420.8942
   7   2.0000     -88.936778     -2420.0928
   8   2.0000     -88.935924     -2420.0695
   9   2.0000     -62.559288     -1702.3248
  10   2.0000     -62.557379     -1702.2728
  11   2.0000     -62.553574     -1702.1693
  12   2.0000     -62.553057     -1702.1552
  13   2.0000     -56.393240     -1534.5381
  14   2.0000     -56.391344     -1534.4865
  15   2.0000     -56.390585     -1534.4658
  16   2.0000     -56.390484     -1534.4631
  17   2.0000     -56.388670     -1534.4137
  18   2.0000     -56.388573     -1534.4111
  19   2.0000     -56.387523     -1534.3825
  20   2.0000     -56.387014     -1534.3687
  21   2.0000     -56.384868     -1534.3103
  22   2.0000     -56.384779     -1534.3078
  23   2.0000     -56.384348     -1534.2961
  24   2.0000     -56.384259     -1534.2937
  25   2.0000     -24.825326      -675.5315
  26   2.0000     -24.823581      -675.4840
  27   2.0000     -19.234573      -523.3993
  28   2.0000     -19.218685      -522.9670
  29   2.0000     -14.465766      -393.6335
  30   2.0000     -14.464686      -393.6041
  31   2.0000     -14.463472      -393.5711
  32   2.0000     -14.462940      -393.5566
  33   2.0000     -14.426908      -392.5761
  34   2.0000     -14.423847      -392.4928
  35   2.0000     -14.419915      -392.3858
  36   2.0000     -14.418424      -392.3453
  37   2.0000     -10.442373      -284.1514
  38   2.0000     -10.439205      -284.0652
  39   2.0000     -10.385560      -282.6054
  40   2.0000     -10.370595      -282.1982
  41   2.0000     -10.360871      -281.9336
  42   2.0000     -10.360502      -281.9236
  43   2.0000     -10.359043      -281.8839
  44   2.0000     -10.358684      -281.8741
  45   2.0000     -10.355494      -281.7873
  46   2.0000     -10.353626      -281.7365
  47   2.0000     -10.353359      -281.7292
  48   2.0000     -10.352754      -281.7128
  49   2.0000     -10.352465      -281.7049
  50   2.0000     -10.351855      -281.6883
  51   2.0000     -10.346299      -281.5371
  52   2.0000     -10.344808      -281.4965
  53   2.0000     -10.335436      -281.2415
  54   2.0000     -10.334425      -281.2140
  55   2.0000     -10.333434      -281.1870
  56   2.0000     -10.329980      -281.0930
  57   2.0000     -10.329040      -281.0675
  58   2.0000     -10.328324      -281.0480
  59   2.0000     -10.326190      -280.9899
  60   2.0000     -10.323638      -280.9205
  61   2.0000     -10.323600      -280.9194
  62   2.0000     -10.322909      -280.9006
  63   2.0000     -10.322473      -280.8888
  64   2.0000     -10.322170      -280.8805
  65   2.0000     -10.321490      -280.8620
  66   2.0000     -10.319420      -280.8057
  67   2.0000     -10.317372      -280.7500
  68   2.0000     -10.317231      -280.7461
  69   2.0000     -10.316640      -280.7300
  70   2.0000     -10.313641      -280.6484
  71   2.0000     -10.311758      -280.5972
  72   2.0000     -10.311252      -280.5834
  73   2.0000     -10.310915      -280.5743
  74   2.0000     -10.309393      -280.5328
  75   2.0000     -10.302791      -280.3532
  76   2.0000     -10.296592      -280.1845
  77   2.0000     -10.292995      -280.0866
  78   2.0000     -10.291750      -280.0528
  79   2.0000     -10.291607      -280.0489
  80   2.0000     -10.286741      -279.9165
  81   2.0000      -8.788616      -239.1504
  82   2.0000      -8.786692      -239.0981
  83   2.0000      -8.782900      -238.9949
  84   2.0000      -8.782384      -238.9808
  85   2.0000      -8.146925      -221.6891
  86   2.0000      -8.069198      -219.5740
  87   2.0000      -8.060124      -219.3271
  88   2.0000      -8.031371      -218.5447
  89   2.0000      -8.031092      -218.5371
  90   2.0000      -6.624755      -180.2687
  91   2.0000      -6.622853      -180.2170
  92   2.0000      -6.619028      -180.1129
  93   2.0000      -6.618540      -180.0996
  94   2.0000      -6.610732      -179.8872
  95   2.0000      -6.609950      -179.8659
  96   2.0000      -6.608797      -179.8345
  97   2.0000      -6.608013      -179.8132
  98   2.0000      -6.605017      -179.7316
  99   2.0000      -6.604479      -179.7170
 100   2.0000      -6.604255      -179.7109
 101   2.0000      -6.603724      -179.6965
 102   2.0000      -6.117976      -166.4786
 103   2.0000      -6.110270      -166.2689
 104   2.0000      -6.109758      -166.2550
 105   2.0000      -6.038499      -164.3159
 106   2.0000      -6.034197      -164.1988
 107   2.0000      -6.031338      -164.1210
 108   2.0000      -6.029671      -164.0757
 109   2.0000      -6.025287      -163.9564
 110   2.0000      -6.021890      -163.8640
 111   2.0000      -6.001691      -163.3143
 112   2.0000      -6.001532      -163.3100
 113   2.0000      -5.997596      -163.2029
 114   2.0000      -5.997161      -163.1911
 115   2.0000      -5.991254      -163.0303
 116   2.0000      -5.990949      -163.0220
 117   2.0000      -2.740652       -74.5769
 118   2.0000      -2.738785       -74.5261
 119   2.0000      -2.736913       -74.4752
 120   2.0000      -2.736274       -74.4578
 121   2.0000      -2.734965       -74.4222
 122   2.0000      -2.734890       -74.4201
 123   2.0000      -2.734413       -74.4072
 124   2.0000      -2.734351       -74.4055
 125   2.0000      -2.731165       -74.3188
 126   2.0000      -2.730654       -74.3049
 127   2.0000      -2.730611       -74.3037
 128   2.0000      -2.730098       -74.2897
 129   2.0000      -2.725133       -74.1546
 130   2.0000      -2.725116       -74.1542
 131   2.0000      -2.723174       -74.1013
 132   2.0000      -2.723161       -74.1010
 133   2.0000      -2.719441       -73.9997
 134   2.0000      -2.719416       -73.9991
 135   2.0000      -2.718887       -73.9847
 136   2.0000      -2.718879       -73.9845
 137   2.0000      -1.353163       -36.8214
 138   2.0000      -1.339002       -36.4361
 139   2.0000      -1.153856       -31.3980
 140   2.0000      -1.149554       -31.2810
 141   2.0000      -1.133880       -30.8545
 142   2.0000      -1.124998       -30.6127
 143   2.0000      -1.050577       -28.5876
 144   2.0000      -1.032353       -28.0917
 145   2.0000      -1.026453       -27.9312
 146   2.0000      -1.018651       -27.7189
 147   2.0000      -1.015884       -27.6436
 148   2.0000      -1.012275       -27.5454
 149   2.0000      -1.008435       -27.4409
 150   2.0000      -1.003728       -27.3128
 151   2.0000      -0.999577       -27.1999
 152   2.0000      -0.995452       -27.0876
 153   2.0000      -0.984478       -26.7890
 154   2.0000      -0.980131       -26.6707
 155   2.0000      -0.975147       -26.5351
 156   2.0000      -0.930249       -25.3134
 157   2.0000      -0.924807       -25.1653
 158   2.0000      -0.921455       -25.0741
 159   2.0000      -0.918202       -24.9855
 160   2.0000      -0.915881       -24.9224
 161   2.0000      -0.912065       -24.8186
 162   2.0000      -0.904393       -24.6098
 163   2.0000      -0.901693       -24.5363
 164   2.0000      -0.895399       -24.3650
 165   2.0000      -0.893033       -24.3007
 166   2.0000      -0.873371       -23.7656
 167   2.0000      -0.865130       -23.5414
 168   2.0000      -0.858636       -23.3647
 169   2.0000      -0.852548       -23.1990
 170   2.0000      -0.839505       -22.8441
 171   2.0000      -0.831307       -22.6210
 172   2.0000      -0.829602       -22.5746
 173   2.0000      -0.821066       -22.3424
 174   2.0000      -0.812316       -22.1042
 175   2.0000      -0.787034       -21.4163
 176   2.0000      -0.780077       -21.2270
 177   2.0000      -0.776237       -21.1225
 178   2.0000      -0.773541       -21.0491
 179   2.0000      -0.765771       -20.8377
 180   2.0000      -0.760031       -20.6815
 181   2.0000      -0.746041       -20.3008
 182   2.0000      -0.736909       -20.0523
 183   2.0000      -0.731748       -19.9119
 184   2.0000      -0.717518       -19.5247
 185   2.0000      -0.705541       -19.1987
 186   2.0000      -0.702250       -19.1092
 187   2.0000      -0.698713       -19.0129
 188   2.0000      -0.693463       -18.8701
 189   2.0000      -0.687723       -18.7139
 190   2.0000      -0.686940       -18.6926
 191   2.0000      -0.679871       -18.5002
 192   2.0000      -0.674543       -18.3552
 193   2.0000      -0.664777       -18.0895
 194   2.0000      -0.659472       -17.9452
 195   2.0000      -0.642844       -17.4927
 196   2.0000      -0.638938       -17.3864
 197   2.0000      -0.638083       -17.3631
 198   2.0000      -0.628282       -17.0964
 199   2.0000      -0.625838       -17.0299
 200   2.0000      -0.622919       -16.9505
 201   2.0000      -0.619729       -16.8637
 202   2.0000      -0.615068       -16.7368
 203   2.0000      -0.602708       -16.4005
 204   2.0000      -0.595961       -16.2169
 205   2.0000      -0.589610       -16.0441
 206   2.0000      -0.582008       -15.8372
 207   2.0000      -0.580013       -15.7829
 208   2.0000      -0.579448       -15.7676
 209   2.0000      -0.577931       -15.7263
 210   2.0000      -0.565615       -15.3912
 211   2.0000      -0.561057       -15.2671
 212   2.0000      -0.560191       -15.2436
 213   2.0000      -0.556021       -15.1301
 214   2.0000      -0.553358       -15.0576
 215   2.0000      -0.548857       -14.9352
 216   2.0000      -0.545777       -14.8514
 217   2.0000      -0.543055       -14.7773
 218   2.0000      -0.541685       -14.7400
 219   2.0000      -0.536016       -14.5857
 220   2.0000      -0.534801       -14.5527
 221   2.0000      -0.532838       -14.4993
 222   2.0000      -0.527759       -14.3610
 223   2.0000      -0.526237       -14.3196
 224   2.0000      -0.525705       -14.3052
 225   2.0000      -0.522083       -14.2066
 226   2.0000      -0.519217       -14.1286
 227   2.0000      -0.515707       -14.0331
 228   2.0000      -0.512403       -13.9432
 229   2.0000      -0.509611       -13.8672
 230   2.0000      -0.508287       -13.8312
 231   2.0000      -0.504288       -13.7224
 232   2.0000      -0.503793       -13.7089
 233   2.0000      -0.502651       -13.6778
 234   2.0000      -0.500940       -13.6313
 235   2.0000      -0.498521       -13.5654
 236   2.0000      -0.496100       -13.4996
 237   2.0000      -0.494137       -13.4462
 238   2.0000      -0.492071       -13.3899
 239   2.0000      -0.485194       -13.2028
 240   2.0000      -0.480312       -13.0700
 241   2.0000      -0.471929       -12.8419
 242   2.0000      -0.470264       -12.7965
 243   2.0000      -0.468389       -12.7455
 244   2.0000      -0.464615       -12.6428
 245   2.0000      -0.462926       -12.5969
 246   2.0000      -0.460398       -12.5281
 247   2.0000      -0.457693       -12.4545
 248   2.0000      -0.457355       -12.4453
 249   2.0000      -0.453746       -12.3471
 250   2.0000      -0.453025       -12.3274
 251   2.0000      -0.452489       -12.3129
 252   2.0000      -0.451277       -12.2799
 253   2.0000      -0.447519       -12.1776
 254   2.0000      -0.442153       -12.0316
 255   2.0000      -0.438762       -11.9393
 256   2.0000      -0.438109       -11.9216
 257   2.0000      -0.435994       -11.8640
 258   2.0000      -0.433067       -11.7843
 259   2.0000      -0.432488       -11.7686
 260   2.0000      -0.430780       -11.7221
 261   2.0000      -0.427934       -11.6447
 262   2.0000      -0.426127       -11.5955
 263   2.0000      -0.419605       -11.4180
 264   2.0000      -0.418248       -11.3811
 265   2.0000      -0.411800       -11.2057
 266   2.0000      -0.408458       -11.1147
 267   2.0000      -0.404602       -11.0098
 268   2.0000      -0.399916       -10.8823
 269   2.0000      -0.397988       -10.8298
 270   2.0000      -0.394835       -10.7440
 271   2.0000      -0.394113       -10.7244
 272   2.0000      -0.391885       -10.6637
 273   2.0000      -0.389637       -10.6026
 274   2.0000      -0.377226       -10.2648
 275   2.0000      -0.373292       -10.1578
 276   2.0000      -0.365856        -9.9554
 277   2.0000      -0.358764        -9.7625
 278   2.0000      -0.356883        -9.7113
 279   2.0000      -0.355957        -9.6861
 280   2.0000      -0.354180        -9.6377
 281   2.0000      -0.351857        -9.5745
 282   2.0000      -0.349831        -9.5194
 283   2.0000      -0.347762        -9.4631
 284   2.0000      -0.344062        -9.3624
 285   2.0000      -0.340146        -9.2559
 286   2.0000      -0.336506        -9.1568
 287   2.0000      -0.327389        -8.9087
 288   2.0000      -0.317870        -8.6497
 289   2.0000      -0.311366        -8.4727
 290   2.0000      -0.304620        -8.2891
 291   2.0000      -0.295572        -8.0429
 292   2.0000      -0.282983        -7.7004
 293   2.0000      -0.255486        -6.9521
 294   0.0000      -0.133754        -3.6396
 295   0.0000      -0.094630        -2.5750
 296   0.0000      -0.087946        -2.3931
 297   0.0000      -0.074115        -2.0168
 298   0.0000      -0.063868        -1.7379

MULLIKEN ATOMIC CHARGES
-----------------------
   0 C :    0.162551
   1 O :   -0.149687
   2 C :   -0.009603
   3 C :    0.036165
   4 C :   -0.009340
   5 C :   -0.026071
   6 C :   -0.013421
   7 C :   -0.022115
   8 Br:    0.017380
   9 Br:    0.025377
  10 C :    0.298767
  11 C :   -0.342007
  12 C :   -0.188103
  13 N :    0.161059
  14 C :   -0.191660
  15 N :    0.164023
  16 C :   -0.084323
  17 C :    0.060409
  18 C :   -0.064688
  19 C :   -0.036711
  20 C :    0.040485
  21 S :    0.007711
  22 C :   -0.084201
  23 C :   -0.215758
  24 S :    0.194116
  25 C :    0.162204
  26 C :   -0.060034
  27 C :   -0.068855
  28 N :    0.000008
  29 C :    0.149852
  30 C :    0.168705
  31 N :   -0.031514
  32 F :   -0.133991
  33 F :   -0.134944
  34 C :    0.204704
  35 C :   -0.013606
  36 C :   -0.006865
  37 N :   -0.309212
  38 S :    0.583063
  39 N :   -0.324851
  40 C :   -0.141921
  41 C :    0.003124
  42 C :    0.044197
  43 S :   -0.002199
  44 C :   -0.107295
  45 C :   -0.130850
  46 S :    0.165559
  47 C :    0.033146
  48 C :   -0.135844
  49 C :    0.143544
  50 O :   -0.135824
  51 C :   -0.004196
  52 C :    0.029584
  53 C :    0.241675
  54 C :   -0.311787
  55 C :   -0.171166
  56 N :    0.140048
  57 C :   -0.172815
  58 N :    0.151636
  59 C :   -0.016096
  60 C :   -0.021195
  61 C :   -0.015520
  62 C :   -0.025748
  63 Br:    0.012067
  64 Br:    0.017544
  65 H :    0.009762
  66 H :    0.006187
  67 H :    0.008000
  68 H :    0.005479
  69 H :    0.055821
  70 H :    0.063027
  71 H :    0.078843
  72 H :    0.000884
  73 H :    0.066659
  74 H :    0.067290
  75 H :    0.091347
  76 H :    0.027571
  77 H :    0.007231
  78 H :    0.007215
Sum of atomic charges:   -0.0000000

LOEWDIN ATOMIC CHARGES
----------------------
   0 C :    0.090712
   1 O :   -0.135757
   2 C :   -0.041991
   3 C :   -0.011922
   4 C :   -0.006319
   5 C :   -0.118130
   6 C :   -0.122516
   7 C :    0.006481
   8 Br:    0.140018
   9 Br:    0.144222
  10 C :    0.074370
  11 C :   -0.131450
  12 C :   -0.019608
  13 N :   -0.042342
  14 C :   -0.025273
  15 N :   -0.041515
  16 C :   -0.093545
  17 C :    0.052135
  18 C :   -0.177705
  19 C :   -0.037859
  20 C :   -0.173343
  21 S :    0.333446
  22 C :   -0.163581
  23 C :   -0.170283
  24 S :    0.502232
  25 C :   -0.038791
  26 C :   -0.007754
  27 C :    0.001191
  28 N :   -0.035176
  29 C :    0.066333
  30 C :    0.060551
  31 N :   -0.043617
  32 F :   -0.021702
  33 F :   -0.023505
  34 C :   -0.044484
  35 C :   -0.044481
  36 C :   -0.048107
  37 N :   -0.292461
  38 S :    0.699708
  39 N :   -0.298134
  40 C :   -0.135510
  41 C :   -0.052189
  42 C :   -0.156829
  43 S :    0.304706
  44 C :   -0.149315
  45 C :   -0.212105
  46 S :    0.498287
  47 C :    0.055404
  48 C :   -0.108751
  49 C :    0.081872
  50 O :   -0.139449
  51 C :   -0.042377
  52 C :   -0.008493
  53 C :    0.061133
  54 C :   -0.145521
  55 C :   -0.022407
  56 N :   -0.055333
  57 C :   -0.021693
  58 N :   -0.052186
  59 C :   -0.011468
  60 C :   -0.119343
  61 C :   -0.124489
  62 C :    0.006023
  63 Br:    0.135599
  64 Br:    0.138820
  65 H :    0.045103
  66 H :    0.045920
  67 H :    0.043588
  68 H :    0.029768
  69 H :    0.031363
  70 H :    0.027882
  71 H :    0.027971
  72 H :    0.032388
  73 H :    0.032775
  74 H :    0.023691
  75 H :    0.036394
  76 H :    0.048594
  77 H :    0.043710
  78 H :    0.046415

  Mayer bond orders larger than 0.100000
B(  0-C ,  1-O ) :   2.1625 B(  0-C ,  2-C ) :   0.9574 B(  0-C , 16-C ) :   0.9386
B(  1-O , 68-H ) :   0.1010 B(  2-C ,  3-C ) :   1.3281 B(  2-C ,  7-C ) :   1.3686
B(  3-C ,  4-C ) :   1.3630 B(  3-C , 10-C ) :   0.9884 B(  4-C ,  5-C ) :   1.3718
B(  4-C , 65-H ) :   0.9794 B(  5-C ,  6-C ) :   1.4175 B(  5-C ,  9-Br) :   1.0604
B(  6-C ,  7-C ) :   1.3524 B(  6-C ,  8-Br) :   1.0357 B(  7-C , 66-H ) :   1.0083
B( 10-C , 11-C ) :   1.6419 B( 10-C , 16-C ) :   1.0770 B( 11-C , 12-C ) :   1.1427
B( 11-C , 14-C ) :   1.1350 B( 12-C , 13-N ) :   2.9737 B( 14-C , 15-N ) :   2.9815
B( 16-C , 17-C ) :   1.5891 B( 17-C , 18-C ) :   1.2132 B( 17-C , 67-H ) :   0.9155
B( 18-C , 19-C ) :   1.4213 B( 18-C , 24-S ) :   1.0873 B( 19-C , 20-C ) :   1.2737
B( 19-C , 68-H ) :   0.9732 B( 20-C , 21-S ) :   1.0423 B( 20-C , 23-C ) :   1.4176
B( 21-S , 22-C ) :   0.9840 B( 22-C , 69-H ) :   0.9689 B( 22-C , 70-H ) :   0.9686
B( 22-C , 71-H ) :   0.9648 B( 23-C , 24-S ) :   1.1684 B( 23-C , 25-C ) :   1.1514
B( 25-C , 26-C ) :   1.3048 B( 25-C , 34-C ) :   0.1260 B( 25-C , 36-C ) :   1.2022
B( 26-C , 27-C ) :   1.1063 B( 26-C , 31-N ) :   1.4015 B( 27-C , 28-N ) :   1.4291
B( 27-C , 34-C ) :   1.3079 B( 28-N , 29-C ) :   1.6691 B( 29-C , 30-C ) :   1.1056
B( 29-C , 33-F ) :   1.1821 B( 30-C , 31-N ) :   1.6279 B( 30-C , 32-F ) :   1.1845
B( 34-C , 35-C ) :   1.1902 B( 34-C , 40-C ) :   1.1598 B( 35-C , 36-C ) :   1.1298
B( 35-C , 39-N ) :   1.4700 B( 36-C , 37-N ) :   1.4755 B( 37-N , 38-S ) :   1.2879
B( 37-N , 39-N ) :   0.1510 B( 38-S , 39-N ) :   1.2782 B( 40-C , 41-C ) :   1.4499
B( 40-C , 46-S ) :   1.1451 B( 41-C , 42-C ) :   1.2662 B( 41-C , 72-H ) :   0.9891
B( 42-C , 43-S ) :   1.0582 B( 42-C , 45-C ) :   1.3996 B( 43-S , 44-C ) :   0.9906
B( 44-C , 73-H ) :   0.9686 B( 44-C , 74-H ) :   0.9708 B( 44-C , 75-H ) :   0.9562
B( 45-C , 46-S ) :   1.0688 B( 45-C , 47-C ) :   1.1738 B( 47-C , 48-C ) :   1.5977
B( 47-C , 76-H ) :   0.9432 B( 48-C , 49-C ) :   0.9538 B( 48-C , 53-C ) :   1.0596
B( 49-C , 50-O ) :   2.2794 B( 49-C , 51-C ) :   0.9136 B( 51-C , 52-C ) :   1.3270
B( 51-C , 62-C ) :   1.3782 B( 52-C , 53-C ) :   1.0124 B( 52-C , 59-C ) :   1.3742
B( 53-C , 54-C ) :   1.6381 B( 54-C , 55-C ) :   1.1607 B( 54-C , 57-C ) :   1.1312
B( 55-C , 56-N ) :   2.9445 B( 57-C , 58-N ) :   2.9873 B( 59-C , 60-C ) :   1.3626
B( 59-C , 77-H ) :   0.9843 B( 60-C , 61-C ) :   1.4269 B( 60-C , 64-Br) :   1.0496
B( 61-C , 62-C ) :   1.3525 B( 61-C , 63-Br) :   1.0320 B( 62-C , 78-H ) :   1.0077

-----------------------------------------------------------------------------
         ABSORPTION SPECTRUM VIA TRANSITION ELECTRIC DIPOLE MOMENTS
-----------------------------------------------------------------------------
State   Energy  Wavelength   fosc         T2         TX        TY        TZ
        (cm-1)    (nm)                  (au**2)     (au)      (au)      (au)
-----------------------------------------------------------------------------
   0   11058.0    904.3   0.802057884  23.87835  -2.71935  -3.79214   1.45021
   1   16809.7    594.9   0.047417280   0.92865  -0.06614   0.54706   0.79058
   2   18818.4    531.4   0.114324966   2.00002  -1.19364  -0.61222   0.44769
   3   20170.9    495.8   0.258644491   4.22136   0.41242  -1.42881  -1.41767
   4   20830.0    480.1   0.301308538   4.76208  -1.68418  -0.60041   1.25104
   5   21379.7    467.7   0.179120015   2.75815   1.10287   0.12643  -1.23524
   6   24778.6    403.6   0.079917121   1.06179  -0.86300   0.29770   0.47791
   7   24963.7    400.6   0.094141864   1.24151   0.49254   0.93339  -0.35735
   8   25443.7    393.0   0.013806954   0.17865  -0.15520  -0.25189   0.30184
   9   26411.8    378.6   0.189380492   2.36055  -0.41243   1.42674   0.39353
  10   26937.9    371.2   0.035904997   0.43880   0.27262   0.44414  -0.40893
  11   27425.9    364.6   0.068925623   0.82736  -0.71467  -0.41210   0.38313
  12   28007.8    357.0   0.067579361   0.79435  -0.14420  -0.80242   0.36012
  13   28306.2    353.3   0.038481941   0.44756   0.29765   0.56807   0.19041
  14   28417.7    351.9   0.022382573   0.25930   0.16396   0.47075   0.10395
  15   28780.4    347.5   0.017546246   0.20071   0.30945   0.27382  -0.17311
  16   28965.2    345.2   0.007141531   0.08117  -0.23508   0.07783  -0.14088
  17   29055.9    344.2   0.025068057   0.28403  -0.33877  -0.18233   0.36881
  18   29327.5    341.0   0.056132677   0.63011  -0.15241   0.77901  -0.00453
  19   30162.2    331.5   0.229310930   2.50287  -0.45021   0.98442   1.15373
  20   30646.2    326.3   0.059077349   0.63463  -0.53441   0.35223   0.47431
  21   31007.6    322.5   0.016913202   0.17957  -0.18711   0.33412   0.18144
  22   31546.0    317.0   0.038393378   0.40067   0.03464   0.54247  -0.32433
  23   31773.3    314.7   0.064257833   0.66579   0.61048   0.43029  -0.32856
  24   31903.4    313.4   0.033490474   0.34559   0.46360   0.34831   0.09669
  25   32147.5    311.1   0.039307331   0.40253  -0.05498   0.43587  -0.45774
  26   32291.2    309.7   0.213645497   2.17814   0.30177  -1.43354   0.17902
  27   32582.7    306.9   0.033033397   0.33377   0.54651   0.01829  -0.18644
  28   32870.1    304.2   0.032410237   0.32461  -0.13110  -0.54924  -0.07584
  29   33038.4    302.7   0.029918524   0.29812  -0.24511  -0.48307   0.06848
  30   33534.1    298.2   0.061254456   0.60135   0.37228  -0.52273  -0.43532
  31   33621.7    297.4   0.023711754   0.23218  -0.22938  -0.35495   0.23145
  32   34098.8    293.3   0.104608838   1.00996   0.12253   0.99175   0.10665
  33   34586.9    289.1   0.266156286   2.53338  -0.18261  -1.43417  -0.66573
  34   34748.7    287.8   0.497246638   4.71095   0.65665  -2.06642   0.09845
  35   35085.9    285.0   0.151777409   1.42413  -0.40073   1.10443  -0.20924
  36   35442.0    282.2   0.085953143   0.79840  -0.04650  -0.29658   0.84159
  37   35641.0    280.6   0.056208749   0.51919  -0.46129  -0.48747   0.26225
  38   35796.3    279.4   0.003616601   0.03326  -0.17974  -0.02762   0.01384
  39   35885.2    278.7   0.007711315   0.07074   0.13592  -0.15887   0.16441
  40   36072.2    277.2   0.023229189   0.21200   0.41944   0.17845  -0.06498
  41   36353.5    275.1   0.010264363   0.09295  -0.20065  -0.06855   0.21907
  42   36606.9    273.2   0.039233553   0.35283  -0.33598  -0.24820   0.42232
  43   36705.0    272.4   0.000878564   0.00788   0.03904   0.04865  -0.06316
  44   37048.9    269.9   0.404079466   3.59060  -0.26590   1.51242   1.11017
  45   37153.6    269.2   0.062305997   0.55208   0.40086   0.11406  -0.61513
  46   37588.9    266.0   0.055275882   0.48412   0.27060  -0.09596  -0.63378
  47   37873.3    264.0   0.039834058   0.34626   0.23802   0.17842  -0.50771
  48   38295.9    261.1   0.076445324   0.65717  -0.50962  -0.62842   0.05040
  49   38364.5    260.7   0.038681677   0.33193  -0.48739   0.11756   0.28384
  50   38512.0    259.7   0.163550858   1.39808   0.92488   0.64444  -0.35689
  51   38652.9    258.7   0.087725845   0.74717  -0.72075  -0.08005   0.47041
  52   39076.2    255.9   0.009119393   0.07683  -0.27193  -0.05370   0.00108
  53   39185.6    255.2   0.015800344   0.13274   0.04990  -0.31359   0.17866
  54   39319.6    254.3   0.165467381   1.38541   0.86018   0.12504  -0.79364
  55   39482.4    253.3   0.007442444   0.06206   0.18514   0.14265   0.08621
  56   39591.7    252.6   0.001192875   0.00992  -0.09727   0.01490   0.01538
  57   39781.1    251.4   0.067390372   0.55769   0.16576   0.72362  -0.08115

FINAL SINGLE POINT ENERGY    -14756.278707244128

DIPOLE MOMENT
-------------
                                X             Y             Z
Electronic contribution:    130.27403     -22.68635     -69.71565
Nuclear contribution   :   -130.38677      24.32912      71.19985
                        -----------------------------------------
Total Dipole Moment    :     -0.11274       1.64277       1.48420
                        -----------------------------------------
Magnitude (a.u.)       :      2.21681
Magnitude (Debye)      :      5.63468

Rotational constants in cm-1:     0.001158     0.000231     0.000197
Rotational constants in MHz :    34.701128     6.925679     5.915166

                             ****ORCA TERMINATED NORMALLY****
TOTAL RUN TIME: 0 days 0 hours 8 minutes 14 seconds 952 msec
