                         Program Version 4.2.0 -  RELEASE  -
|  1> # ORCA input file
|  2> # SCF done       -196.749468098209          0.000616354910
|  3> ! CAM-B3LYP def2-SVP def2/J RIJCOSX Grid4 TightSCF
|  4> %maxcore 5000
|  5> %tddft
|  6>     Mode sTDDFT
|  7>     Ethresh 5.0
|  8>     maxcore 5000
|  9> end
| 10>
| 11> %pal
| 12>   nprocs 6
| 13>   end
| 14> * xyz 0 1
| 15>    C       -2.68706        -2.78507        -3.62140
| 16>    O       -2.35509        -1.65495        -3.35935
| 17>    C       -3.75174        -3.23086        -4.54910
| 18>    C       -3.76304        -4.63716        -4.61611
| 19>    C       -4.70233        -5.28505        -5.39926
| 20>    C       -5.61643        -4.51612        -6.11057
| 21>    C       -5.58888        -3.12039        -6.05323
| 22>    C       -4.64997        -2.46682        -5.26514
| 23>   Br       -6.83331        -2.10049        -7.04428
| 24>   Br       -6.91216        -5.39514        -7.16828
| 25>    C       -2.66702        -5.15402        -3.80118
| 26>    C       -2.05848        -6.36833        -3.96171
| 27>    C       -2.55862        -7.38888        -4.79635
| 28>    N       -2.94371        -8.24867        -5.45090
| 29>    C       -0.80653        -6.67972        -3.38626
| 30>    N        0.24059        -6.93418        -2.99285
| 31>    C       -2.15688        -4.04189        -3.02422
| 32>    C       -1.44210        -3.99264        -1.87026
| 33>    C       -1.20283        -5.01871        -0.91981
| 34>    C       -0.25255        -4.97980         0.07073
| 35>    C       -0.27037        -6.10112         0.92507
| 36>    C       -1.30748        -7.01437         0.58084
| 37>    S       -2.21522        -6.45129        -0.79320
| 38>    C       -1.52828        -8.17860         1.27548
| 39>    C       -0.69347        -8.45323         2.36402
| 40>    C        0.33604        -7.53656         2.72031
| 41>    C        0.55928        -6.37733         2.01605
| 42>    S        1.21793        -8.07852         4.12576
| 43>    C        0.22925        -9.51984         4.21739
| 44>    C       -0.72211        -9.56745         3.22425
| 45>    C        0.43467       -10.48268         5.24921
| 46>    C        1.39746       -10.27159         6.25955
| 47>    C        1.59617       -11.19757         7.34262
| 48>    N        2.51307       -10.92856         8.28079
| 49>    C        3.22460        -9.83299         8.20808
| 50>    C        3.03263        -8.91376         7.12292
| 51>    N        2.13933        -9.15809         6.19890
| 52>    C        3.80910        -7.73055         7.04183
| 53>    N        4.45431        -6.78531         7.00642
| 54>    C        4.18967        -9.56464         9.21104
| 55>    N        4.98028        -9.32000        10.00233
| 56>    C        0.85440       -12.39266         7.46413
| 57>    C       -0.08620       -12.62662         6.43633
| 58>    C       -0.29611       -11.68705         5.35344
| 59>    N       -1.23769       -12.11817         4.51094
| 60>    S       -1.79398       -13.53377         5.01063
| 61>    N       -0.88648       -13.68885         6.32046
| 62>    C        1.05463       -13.27196         8.56850
| 63>    C        0.40998       -14.46586         8.79823
| 64>    C        0.80784       -15.10040         9.99074
| 65>    C        1.79331       -14.34431        10.68816
| 66>    S        2.20180       -12.87903         9.83142
| 67>    C        2.32317       -14.76186        11.88468
| 68>    C        1.86752       -15.97205        12.41845
| 69>    C        0.89350       -16.73414        11.71081
| 70>    C        0.35764       -16.31532        10.51576
| 71>    S        0.50867       -18.20408        12.55434
| 72>    C        1.59387       -17.77857        13.86490
| 73>    C        2.23458       -16.58470        13.63249
| 74>    C        1.76138       -18.69465        14.93336
| 75>    C        2.23608       -18.48056        16.18979
| 76>    C        2.71459       -19.64800        16.98291
| 77>    O        2.54328       -20.81588        16.73183
| 78>    C        3.48381       -19.06081        18.10147
| 79>    C        3.36952       -17.65870        18.06578
| 80>    C        2.47755       -17.28342        16.96900
| 81>    C        1.81064       -16.09192        16.87290
| 82>    C        0.76623       -15.84507        15.95763
| 83>    N       -0.11160       -15.60334        15.25971
| 84>    C        2.02917       -14.99871        17.73843
| 85>    N        2.18717       -14.07913        18.40571
| 86>    C        4.03688       -16.88913        19.00340
| 87>    C        4.80329       -17.53342        19.96821
| 88>    C        4.89988       -18.92674        20.00552
| 89>    C        4.23623       -19.70234        19.06334
| 90>   Br        5.93976       -19.77536        21.33511
| 91>   Br        5.72565       -16.48564        21.24196
| 92>    H       -4.75034        -6.36056        -5.46138
| 93>    H       -4.62273        -1.38945        -5.21310
| 94>    H       -1.07651        -3.00838        -1.59276
| 95>    H        0.45736        -4.17690         0.16274
| 96>    H       -2.31377        -8.86318         0.99826
| 97>    H        1.34711        -5.69507         2.29237
| 98>    H       -1.41673       -10.38159         3.12957
| 99>    H       -0.32692       -14.86204         8.12419
|100>    H        3.06168       -14.17498        12.40709
|101>    H       -0.38442       -16.89832         9.99443
|102>    H        2.98331       -16.17772        14.28953
|103>    H        1.54247       -19.73325        14.70247
|104>    H        3.98808       -15.81203        19.00113
|105>    H        4.30620       -20.77885        19.08138
|106> *
|107>
|108>                          ****END OF INPUT****

CARTESIAN COORDINATES (ANGSTROEM)
---------------------------------
  C     -2.687060   -2.785070   -3.621400
  O     -2.355090   -1.654950   -3.359350
  C     -3.751740   -3.230860   -4.549100
  C     -3.763040   -4.637160   -4.616110
  C     -4.702330   -5.285050   -5.399260
  C     -5.616430   -4.516120   -6.110570
  C     -5.588880   -3.120390   -6.053230
  C     -4.649970   -2.466820   -5.265140
  Br    -6.833310   -2.100490   -7.044280
  Br    -6.912160   -5.395140   -7.168280
  C     -2.667020   -5.154020   -3.801180
  C     -2.058480   -6.368330   -3.961710
  C     -2.558620   -7.388880   -4.796350
  N     -2.943710   -8.248670   -5.450900
  C     -0.806530   -6.679720   -3.386260
  N      0.240590   -6.934180   -2.992850
  C     -2.156880   -4.041890   -3.024220
  C     -1.442100   -3.992640   -1.870260
  C     -1.202830   -5.018710   -0.919810
  C     -0.252550   -4.979800    0.070730
  C     -0.270370   -6.101120    0.925070
  C     -1.307480   -7.014370    0.580840
  S     -2.215220   -6.451290   -0.793200
  C     -1.528280   -8.178600    1.275480
  C     -0.693470   -8.453230    2.364020
  C      0.336040   -7.536560    2.720310
  C      0.559280   -6.377330    2.016050
  S      1.217930   -8.078520    4.125760
  C      0.229250   -9.519840    4.217390
  C     -0.722110   -9.567450    3.224250
  C      0.434670  -10.482680    5.249210
  C      1.397460  -10.271590    6.259550
  C      1.596170  -11.197570    7.342620
  N      2.513070  -10.928560    8.280790
  C      3.224600   -9.832990    8.208080
  C      3.032630   -8.913760    7.122920
  N      2.139330   -9.158090    6.198900
  C      3.809100   -7.730550    7.041830
  N      4.454310   -6.785310    7.006420
  C      4.189670   -9.564640    9.211040
  N      4.980280   -9.320000   10.002330
  C      0.854400  -12.392660    7.464130
  C     -0.086200  -12.626620    6.436330
  C     -0.296110  -11.687050    5.353440
  N     -1.237690  -12.118170    4.510940
  S     -1.793980  -13.533770    5.010630
  N     -0.886480  -13.688850    6.320460
  C      1.054630  -13.271960    8.568500
  C      0.409980  -14.465860    8.798230
  C      0.807840  -15.100400    9.990740
  C      1.793310  -14.344310   10.688160
  S      2.201800  -12.879030    9.831420
  C      2.323170  -14.761860   11.884680
  C      1.867520  -15.972050   12.418450
  C      0.893500  -16.734140   11.710810
  C      0.357640  -16.315320   10.515760
  S      0.508670  -18.204080   12.554340
  C      1.593870  -17.778570   13.864900
  C      2.234580  -16.584700   13.632490
  C      1.761380  -18.694650   14.933360
  C      2.236080  -18.480560   16.189790
  C      2.714590  -19.648000   16.982910
  O      2.543280  -20.815880   16.731830
  C      3.483810  -19.060810   18.101470
  C      3.369520  -17.658700   18.065780
  C      2.477550  -17.283420   16.969000
  C      1.810640  -16.091920   16.872900
  C      0.766230  -15.845070   15.957630
  N     -0.111600  -15.603340   15.259710
  C      2.029170  -14.998710   17.738430
  N      2.187170  -14.079130   18.405710
  C      4.036880  -16.889130   19.003400
  C      4.803290  -17.533420   19.968210
  C      4.899880  -18.926740   20.005520
  C      4.236230  -19.702340   19.063340
  Br     5.939760  -19.775360   21.335110
  Br     5.725650  -16.485640   21.241960
  H     -4.750340   -6.360560   -5.461380
  H     -4.622730   -1.389450   -5.213100
  H     -1.076510   -3.008380   -1.592760
  H      0.457360   -4.176900    0.162740
  H     -2.313770   -8.863180    0.998260
  H      1.347110   -5.695070    2.292370
  H     -1.416730  -10.381590    3.129570
  H     -0.326920  -14.862040    8.124190
  H      3.061680  -14.174980   12.407090
  H     -0.384420  -16.898320    9.994430
  H      2.983310  -16.177720   14.289530
  H      1.542470  -19.733250   14.702470
  H      3.988080  -15.812030   19.001130
  H      4.306200  -20.778850   19.081380

 Total Charge           Charge          ....    0
 Multiplicity           Mult            ....    1
 Number of Electrons    NEL             ....  656
 Basis Dimension        Dim             .... 1240

ORBITAL ENERGIES
----------------

  NO   OCC          E(Eh)            E(eV)
   0   2.0000    -482.880408    -13139.8439
   1   2.0000    -482.879417    -13139.8170
   2   2.0000    -482.879240    -13139.8121
   3   2.0000    -482.878614    -13139.7951
   4   2.0000     -89.062849     -2423.5233
   5   2.0000     -88.963169     -2420.8109
   6   2.0000     -88.963062     -2420.8080
   7   2.0000     -88.956974     -2420.6423
   8   2.0000     -88.956151     -2420.6199
   9   2.0000     -62.558021     -1702.2903
  10   2.0000     -62.557038     -1702.2636
  11   2.0000     -62.556845     -1702.2583
  12   2.0000     -62.556244     -1702.2419
  13   2.0000     -56.391975     -1534.5036
  14   2.0000     -56.391003     -1534.4772
  15   2.0000     -56.390795     -1534.4715
  16   2.0000     -56.390205     -1534.4555
  17   2.0000     -56.389315     -1534.4313
  18   2.0000     -56.389220     -1534.4287
  19   2.0000     -56.388326     -1534.4044
  20   2.0000     -56.388230     -1534.4018
  21   2.0000     -56.388139     -1534.3993
  22   2.0000     -56.388048     -1534.3968
  23   2.0000     -56.387533     -1534.3828
  24   2.0000     -56.387440     -1534.3802
  25   2.0000     -19.227816      -523.2155
  26   2.0000     -19.226129      -523.1696
  27   2.0000     -14.477887      -393.9633
  28   2.0000     -14.477743      -393.9594
  29   2.0000     -14.470416      -393.7600
  30   2.0000     -14.470213      -393.7545
  31   2.0000     -14.440124      -392.9357
  32   2.0000     -14.439745      -392.9254
  33   2.0000     -14.425413      -392.5355
  34   2.0000     -14.424137      -392.5007
  35   2.0000     -14.424050      -392.4984
  36   2.0000     -14.417755      -392.3271
  37   2.0000     -10.396988      -282.9164
  38   2.0000     -10.396580      -282.9053
  39   2.0000     -10.378791      -282.4213
  40   2.0000     -10.377738      -282.3926
  41   2.0000     -10.362536      -281.9789
  42   2.0000     -10.362269      -281.9717
  43   2.0000     -10.360849      -281.9330
  44   2.0000     -10.360618      -281.9267
  45   2.0000     -10.358679      -281.8740
  46   2.0000     -10.357859      -281.8517
  47   2.0000     -10.357422      -281.8398
  48   2.0000     -10.356383      -281.8115
  49   2.0000     -10.356350      -281.8106
  50   2.0000     -10.354499      -281.7602
  51   2.0000     -10.354079      -281.7488
  52   2.0000     -10.350305      -281.6461
  53   2.0000     -10.335330      -281.2386
  54   2.0000     -10.334913      -281.2273
  55   2.0000     -10.333160      -281.1796
  56   2.0000     -10.332861      -281.1715
  57   2.0000     -10.330599      -281.1099
  58   2.0000     -10.328777      -281.0603
  59   2.0000     -10.327215      -281.0178
  60   2.0000     -10.325846      -280.9806
  61   2.0000     -10.325587      -280.9735
  62   2.0000     -10.325583      -280.9734
  63   2.0000     -10.325095      -280.9601
  64   2.0000     -10.324946      -280.9561
  65   2.0000     -10.324439      -280.9423
  66   2.0000     -10.323983      -280.9299
  67   2.0000     -10.322363      -280.8858
  68   2.0000     -10.319992      -280.8213
  69   2.0000     -10.317018      -280.7403
  70   2.0000     -10.316728      -280.7324
  71   2.0000     -10.316549      -280.7276
  72   2.0000     -10.316390      -280.7233
  73   2.0000     -10.315268      -280.6927
  74   2.0000     -10.315014      -280.6858
  75   2.0000     -10.310051      -280.5507
  76   2.0000     -10.309183      -280.5271
  77   2.0000     -10.307705      -280.4869
  78   2.0000     -10.307440      -280.4797
  79   2.0000     -10.305443      -280.4254
  80   2.0000     -10.304854      -280.4093
  81   2.0000     -10.304244      -280.3927
  82   2.0000     -10.302886      -280.3558
  83   2.0000     -10.299685      -280.2687
  84   2.0000     -10.299211      -280.2558
  85   2.0000     -10.296425      -280.1800
  86   2.0000     -10.295947      -280.1670
  87   2.0000     -10.295822      -280.1636
  88   2.0000     -10.295794      -280.1628
  89   2.0000     -10.295436      -280.1531
  90   2.0000     -10.294382      -280.1244
  91   2.0000     -10.290981      -280.0318
  92   2.0000     -10.290828      -280.0277
  93   2.0000      -8.787349      -239.1159
  94   2.0000      -8.786367      -239.0892
  95   2.0000      -8.786170      -239.0838
  96   2.0000      -8.785577      -239.0677
  97   2.0000      -8.153942      -221.8800
  98   2.0000      -8.059141      -219.3004
  99   2.0000      -8.058644      -219.2869
 100   2.0000      -8.051063      -219.0806
 101   2.0000      -8.050197      -219.0570
 102   2.0000      -6.623490      -180.2343
 103   2.0000      -6.622537      -180.2084
 104   2.0000      -6.622283      -180.2015
 105   2.0000      -6.621738      -180.1867
 106   2.0000      -6.609470      -179.8528
 107   2.0000      -6.608676      -179.8312
 108   2.0000      -6.608467      -179.8255
 109   2.0000      -6.608291      -179.8208
 110   2.0000      -6.607690      -179.8044
 111   2.0000      -6.607683      -179.8042
 112   2.0000      -6.607525      -179.7999
 113   2.0000      -6.606892      -179.7827
 114   2.0000      -6.125010      -166.6700
 115   2.0000      -6.117066      -166.4538
 116   2.0000      -6.116945      -166.4505
 117   2.0000      -6.028729      -164.0501
 118   2.0000      -6.028351      -164.0398
 119   2.0000      -6.024761      -163.9421
 120   2.0000      -6.024314      -163.9299
 121   2.0000      -6.020939      -163.8381
 122   2.0000      -6.020334      -163.8216
 123   2.0000      -6.020083      -163.8148
 124   2.0000      -6.019717      -163.8048
 125   2.0000      -6.016421      -163.7151
 126   2.0000      -6.015587      -163.6924
 127   2.0000      -6.012287      -163.6027
 128   2.0000      -6.011395      -163.5784
 129   2.0000      -2.739400       -74.5429
 130   2.0000      -2.738459       -74.5172
 131   2.0000      -2.738224       -74.5109
 132   2.0000      -2.737651       -74.4953
 133   2.0000      -2.735631       -74.4403
 134   2.0000      -2.735010       -74.4234
 135   2.0000      -2.734656       -74.4138
 136   2.0000      -2.734425       -74.4075
 137   2.0000      -2.734029       -74.3967
 138   2.0000      -2.733865       -74.3922
 139   2.0000      -2.733813       -74.3908
 140   2.0000      -2.733243       -74.3753
 141   2.0000      -2.723857       -74.1199
 142   2.0000      -2.723847       -74.1197
 143   2.0000      -2.722843       -74.0923
 144   2.0000      -2.722832       -74.0920
 145   2.0000      -2.722691       -74.0882
 146   2.0000      -2.722677       -74.0878
 147   2.0000      -2.722066       -74.0712
 148   2.0000      -2.722054       -74.0709
 149   2.0000      -1.159585       -31.5539
 150   2.0000      -1.143901       -31.1271
 151   2.0000      -1.142130       -31.0789
 152   2.0000      -1.138392       -30.9772
 153   2.0000      -1.066271       -29.0147
 154   2.0000      -1.031957       -28.0810
 155   2.0000      -1.030101       -28.0305
 156   2.0000      -1.026018       -27.9194
 157   2.0000      -1.018399       -27.7121
 158   2.0000      -1.014956       -27.6184
 159   2.0000      -1.013919       -27.5901
 160   2.0000      -1.013169       -27.5697
 161   2.0000      -1.011872       -27.5344
 162   2.0000      -1.010623       -27.5005
 163   2.0000      -1.003400       -27.3039
 164   2.0000      -1.000975       -27.2379
 165   2.0000      -0.998210       -27.1627
 166   2.0000      -0.988929       -26.9101
 167   2.0000      -0.983630       -26.7659
 168   2.0000      -0.980863       -26.6906
 169   2.0000      -0.977701       -26.6046
 170   2.0000      -0.937702       -25.5162
 171   2.0000      -0.930704       -25.3258
 172   2.0000      -0.925707       -25.1898
 173   2.0000      -0.923804       -25.1380
 174   2.0000      -0.922836       -25.1117
 175   2.0000      -0.916974       -24.9521
 176   2.0000      -0.915334       -24.9075
 177   2.0000      -0.909743       -24.7554
 178   2.0000      -0.900169       -24.4948
 179   2.0000      -0.889270       -24.1983
 180   2.0000      -0.888195       -24.1690
 181   2.0000      -0.887767       -24.1574
 182   2.0000      -0.867863       -23.6158
 183   2.0000      -0.862149       -23.4603
 184   2.0000      -0.857953       -23.3461
 185   2.0000      -0.856563       -23.3083
 186   2.0000      -0.850805       -23.1516
 187   2.0000      -0.846450       -23.0331
 188   2.0000      -0.844844       -22.9894
 189   2.0000      -0.825406       -22.4604
 190   2.0000      -0.822468       -22.3805
 191   2.0000      -0.808025       -21.9875
 192   2.0000      -0.796568       -21.6757
 193   2.0000      -0.792359       -21.5612
 194   2.0000      -0.790501       -21.5106
 195   2.0000      -0.778538       -21.1851
 196   2.0000      -0.773512       -21.0483
 197   2.0000      -0.766526       -20.8582
 198   2.0000      -0.757293       -20.6070
 199   2.0000      -0.745663       -20.2905
 200   2.0000      -0.731869       -19.9152
 201   2.0000      -0.721113       -19.6225
 202   2.0000      -0.719507       -19.5788
 203   2.0000      -0.712997       -19.4016
 204   2.0000      -0.709720       -19.3125
 205   2.0000      -0.700021       -19.0485
 206   2.0000      -0.696854       -18.9624
 207   2.0000      -0.696124       -18.9425
 208   2.0000      -0.689881       -18.7726
 209   2.0000      -0.687821       -18.7166
 210   2.0000      -0.677734       -18.4421
 211   2.0000      -0.676012       -18.3952
 212   2.0000      -0.664628       -18.0854
 213   2.0000      -0.663797       -18.0628
 214   2.0000      -0.658479       -17.9181
 215   2.0000      -0.653889       -17.7932
 216   2.0000      -0.641006       -17.4427
 217   2.0000      -0.637854       -17.3569
 218   2.0000      -0.631527       -17.1847
 219   2.0000      -0.628769       -17.1097
 220   2.0000      -0.625243       -17.0137
 221   2.0000      -0.621464       -16.9109
 222   2.0000      -0.614063       -16.7095
 223   2.0000      -0.600649       -16.3445
 224   2.0000      -0.598250       -16.2792
 225   2.0000      -0.597893       -16.2695
 226   2.0000      -0.596267       -16.2252
 227   2.0000      -0.593348       -16.1458
 228   2.0000      -0.581228       -15.8160
 229   2.0000      -0.576653       -15.6915
 230   2.0000      -0.573332       -15.6011
 231   2.0000      -0.572659       -15.5828
 232   2.0000      -0.570749       -15.5309
 233   2.0000      -0.566498       -15.4152
 234   2.0000      -0.558119       -15.1872
 235   2.0000      -0.554671       -15.0934
 236   2.0000      -0.553251       -15.0547
 237   2.0000      -0.549852       -14.9622
 238   2.0000      -0.547683       -14.9032
 239   2.0000      -0.546655       -14.8752
 240   2.0000      -0.544859       -14.8264
 241   2.0000      -0.543188       -14.7809
 242   2.0000      -0.536998       -14.6125
 243   2.0000      -0.535835       -14.5808
 244   2.0000      -0.528196       -14.3729
 245   2.0000      -0.527484       -14.3536
 246   2.0000      -0.524233       -14.2651
 247   2.0000      -0.522459       -14.2168
 248   2.0000      -0.520427       -14.1615
 249   2.0000      -0.519503       -14.1364
 250   2.0000      -0.513993       -13.9865
 251   2.0000      -0.510990       -13.9048
 252   2.0000      -0.508365       -13.8333
 253   2.0000      -0.506943       -13.7946
 254   2.0000      -0.504808       -13.7365
 255   2.0000      -0.503517       -13.7014
 256   2.0000      -0.502732       -13.6800
 257   2.0000      -0.500428       -13.6173
 258   2.0000      -0.498089       -13.5537
 259   2.0000      -0.493901       -13.4397
 260   2.0000      -0.492577       -13.4037
 261   2.0000      -0.486923       -13.2498
 262   2.0000      -0.486222       -13.2308
 263   2.0000      -0.482095       -13.1185
 264   2.0000      -0.477035       -12.9808
 265   2.0000      -0.471174       -12.8213
 266   2.0000      -0.468684       -12.7535
 267   2.0000      -0.467569       -12.7232
 268   2.0000      -0.467061       -12.7094
 269   2.0000      -0.465579       -12.6691
 270   2.0000      -0.464200       -12.6315
 271   2.0000      -0.463256       -12.6058
 272   2.0000      -0.462054       -12.5731
 273   2.0000      -0.460941       -12.5429
 274   2.0000      -0.460018       -12.5177
 275   2.0000      -0.458138       -12.4666
 276   2.0000      -0.456331       -12.4174
 277   2.0000      -0.454152       -12.3581
 278   2.0000      -0.453522       -12.3410
 279   2.0000      -0.451761       -12.2930
 280   2.0000      -0.449799       -12.2397
 281   2.0000      -0.447415       -12.1748
 282   2.0000      -0.443923       -12.0798
 283   2.0000      -0.439660       -11.9638
 284   2.0000      -0.436322       -11.8729
 285   2.0000      -0.435618       -11.8538
 286   2.0000      -0.434510       -11.8236
 287   2.0000      -0.434355       -11.8194
 288   2.0000      -0.432267       -11.7626
 289   2.0000      -0.431839       -11.7509
 290   2.0000      -0.430247       -11.7076
 291   2.0000      -0.428747       -11.6668
 292   2.0000      -0.426937       -11.6175
 293   2.0000      -0.423283       -11.5181
 294   2.0000      -0.423117       -11.5136
 295   2.0000      -0.421668       -11.4742
 296   2.0000      -0.419125       -11.4050
 297   2.0000      -0.408292       -11.1102
 298   2.0000      -0.406638       -11.0652
 299   2.0000      -0.403637       -10.9835
 300   2.0000      -0.402645       -10.9565
 301   2.0000      -0.394644       -10.7388
 302   2.0000      -0.393773       -10.7151
 303   2.0000      -0.392846       -10.6899
 304   2.0000      -0.390937       -10.6379
 305   2.0000      -0.388774       -10.5791
 306   2.0000      -0.382928       -10.4200
 307   2.0000      -0.381787       -10.3890
 308   2.0000      -0.379971       -10.3395
 309   2.0000      -0.363677        -9.8961
 310   2.0000      -0.361876        -9.8472
 311   2.0000      -0.356760        -9.7079
 312   2.0000      -0.353660        -9.6236
 313   2.0000      -0.351867        -9.5748
 314   2.0000      -0.350633        -9.5412
 315   2.0000      -0.346964        -9.4414
 316   2.0000      -0.345199        -9.3933
 317   2.0000      -0.343580        -9.3493
 318   2.0000      -0.337879        -9.1942
 319   2.0000      -0.337829        -9.1928
 320   2.0000      -0.332271        -9.0416
 321   2.0000      -0.317205        -8.6316
 322   2.0000      -0.315502        -8.5853
 323   2.0000      -0.310126        -8.4390
 324   2.0000      -0.296887        -8.0787
 325   2.0000      -0.286612        -7.7991
 326   2.0000      -0.274086        -7.4582
 327   2.0000      -0.252909        -6.8820
 328   0.0000      -0.141483        -3.8499
 329   0.0000      -0.099969        -2.7203
 330   0.0000      -0.098082        -2.6689
 331   0.0000      -0.073576        -2.0021
 332   0.0000      -0.071211        -1.9377

MULLIKEN ATOMIC CHARGES
-----------------------
   0 C :    0.142458
   1 O :   -0.129403
   2 C :   -0.001495
   3 C :    0.025178
   4 C :   -0.009454
   5 C :   -0.022507
   6 C :   -0.017869
   7 C :   -0.021020
   8 Br:    0.015453
   9 Br:    0.021839
  10 C :    0.236387
  11 C :   -0.300006
  12 C :   -0.178146
  13 N :    0.160254
  14 C :   -0.207489
  15 N :    0.182623
  16 C :   -0.128316
  17 C :    0.057279
  18 C :   -0.078309
  19 C :    0.023858
  20 C :    0.117361
  21 C :   -0.030200
  22 S :    0.121674
  23 C :   -0.046862
  24 C :    0.125708
  25 C :   -0.014262
  26 C :   -0.049440
  27 S :    0.142740
  28 C :   -0.148917
  29 C :   -0.038723
  30 C :    0.194314
  31 C :   -0.057430
  32 C :   -0.060503
  33 N :    0.014288
  34 C :   -0.103228
  35 C :   -0.106396
  36 N :    0.016283
  37 C :   -0.234594
  38 N :    0.251377
  39 C :   -0.234142
  40 N :    0.252036
  41 C :    0.195029
  42 C :   -0.008743
  43 C :   -0.012050
  44 N :   -0.287923
  45 S :    0.566611
  46 N :   -0.288867
  47 C :   -0.148766
  48 C :   -0.040488
  49 C :    0.132259
  50 C :   -0.015638
  51 S :    0.142604
  52 C :   -0.049969
  53 C :    0.097351
  54 C :   -0.024558
  55 C :   -0.051433
  56 S :    0.137479
  57 C :   -0.102684
  58 C :    0.020099
  59 C :    0.089261
  60 C :   -0.130535
  61 C :    0.137573
  62 O :   -0.130964
  63 C :    0.003202
  64 C :    0.018461
  65 C :    0.262526
  66 C :   -0.323783
  67 C :   -0.201700
  68 N :    0.184938
  69 C :   -0.180384
  70 N :    0.166135
  71 C :   -0.010388
  72 C :   -0.024173
  73 C :   -0.016976
  74 C :   -0.020373
  75 Br:    0.017577
  76 Br:    0.024576
  77 H :    0.012777
  78 H :    0.010390
  79 H :    0.029384
  80 H :   -0.002591
  81 H :   -0.026005
  82 H :   -0.022389
  83 H :   -0.004321
  84 H :   -0.004880
  85 H :   -0.023379
  86 H :   -0.025837
  87 H :   -0.004173
  88 H :    0.030629
  89 H :    0.012442
  90 H :    0.010276
Sum of atomic charges:   -0.0000000

LOEWDIN ATOMIC CHARGES
----------------------
   0 C :    0.084448
   1 O :   -0.131513
   2 C :   -0.044492
   3 C :   -0.007552
   4 C :   -0.009987
   5 C :   -0.117492
   6 C :   -0.124079
   7 C :    0.007774
   8 Br:    0.138287
   9 Br:    0.142655
  10 C :    0.056569
  11 C :   -0.128036
  12 C :   -0.020219
  13 N :   -0.040813
  14 C :   -0.037899
  15 N :   -0.039855
  16 C :   -0.092150
  17 C :    0.055630
  18 C :   -0.164477
  19 C :    0.002609
  20 C :   -0.043273
  21 C :   -0.141372
  22 S :    0.420037
  23 C :   -0.027542
  24 C :   -0.039440
  25 C :   -0.156834
  26 C :   -0.020629
  27 S :    0.431884
  28 C :   -0.152160
  29 C :   -0.023101
  30 C :   -0.030771
  31 C :   -0.009792
  32 C :   -0.010187
  33 N :   -0.008181
  34 C :   -0.019623
  35 C :   -0.019027
  36 N :   -0.008854
  37 C :   -0.037293
  38 N :    0.003527
  39 C :   -0.037567
  40 N :    0.003707
  41 C :   -0.029126
  42 C :   -0.034287
  43 C :   -0.033956
  44 N :   -0.274696
  45 S :    0.690673
  46 N :   -0.274553
  47 C :   -0.152908
  48 C :   -0.021165
  49 C :   -0.040583
  50 C :   -0.155255
  51 S :    0.429999
  52 C :   -0.022864
  53 C :   -0.038774
  54 C :   -0.143853
  55 C :   -0.026706
  56 S :    0.415714
  57 C :   -0.168777
  58 C :   -0.006847
  59 C :    0.054162
  60 C :   -0.088114
  61 C :    0.084013
  62 O :   -0.131165
  63 C :   -0.044476
  64 C :   -0.009725
  65 C :    0.062545
  66 C :   -0.129222
  67 C :   -0.020195
  68 N :   -0.030223
  69 C :   -0.022439
  70 N :   -0.039731
  71 C :   -0.009354
  72 C :   -0.117457
  73 C :   -0.123296
  74 C :    0.008030
  75 Br:    0.140022
  76 Br:    0.144369
  77 H :    0.045041
  78 H :    0.047342
  79 H :    0.053319
  80 H :    0.039246
  81 H :    0.033394
  82 H :    0.034725
  83 H :    0.030664
  84 H :    0.030535
  85 H :    0.034389
  86 H :    0.033145
  87 H :    0.034536
  88 H :    0.048456
  89 H :    0.045012
  90 H :    0.047498

  Mayer bond orders larger than 0.100000
B(  0-C ,  1-O ) :   2.2816 B(  0-C ,  2-C ) :   0.9205 B(  0-C , 16-C ) :   0.9388
B(  2-C ,  3-C ) :   1.3296 B(  2-C ,  7-C ) :   1.3760 B(  3-C ,  4-C ) :   1.3721
B(  3-C , 10-C ) :   1.0078 B(  4-C ,  5-C ) :   1.3698 B(  4-C , 77-H ) :   0.9831
B(  5-C ,  6-C ) :   1.4216 B(  5-C ,  9-Br) :   1.0508 B(  6-C ,  7-C ) :   1.3590
B(  6-C ,  8-Br) :   1.0340 B(  7-C , 78-H ) :   1.0065 B( 10-C , 11-C ) :   1.6775
B( 10-C , 16-C ) :   1.0280 B( 11-C , 12-C ) :   1.1322 B( 11-C , 14-C ) :   1.1449
B( 12-C , 13-N ) :   2.9929 B( 14-C , 15-N ) :   3.0327 B( 16-C , 17-C ) :   1.6628
B( 17-C , 18-C ) :   1.1200 B( 17-C , 79-H ) :   0.9496 B( 18-C , 19-C ) :   1.5025
B( 18-C , 22-S ) :   1.0708 B( 19-C , 20-C ) :   1.1678 B( 19-C , 80-H ) :   1.0054
B( 20-C , 21-C ) :   1.2603 B( 20-C , 26-C ) :   1.3000 B( 21-C , 22-S ) :   1.0453
B( 21-C , 23-C ) :   1.4013 B( 23-C , 24-C ) :   1.3002 B( 23-C , 81-H ) :   1.0027
B( 24-C , 25-C ) :   1.2638 B( 24-C , 29-C ) :   1.1469 B( 25-C , 26-C ) :   1.4004
B( 25-C , 27-S ) :   0.9950 B( 26-C , 82-H ) :   1.0029 B( 27-S , 28-C ) :   1.0792
B( 28-C , 29-C ) :   1.5138 B( 28-C , 30-C ) :   1.1801 B( 29-C , 83-H ) :   0.9874
B( 30-C , 31-C ) :   1.2657 B( 30-C , 41-C ) :   0.1242 B( 30-C , 43-C ) :   1.2055
B( 31-C , 32-C ) :   1.1131 B( 31-C , 36-N ) :   1.3971 B( 32-C , 33-N ) :   1.3995
B( 32-C , 41-C ) :   1.2611 B( 33-N , 34-C ) :   1.7124 B( 34-C , 35-C ) :   1.2061
B( 34-C , 39-C ) :   1.1618 B( 35-C , 36-N ) :   1.7148 B( 35-C , 37-C ) :   1.1645
B( 37-C , 38-N ) :   3.0397 B( 39-C , 40-N ) :   3.0413 B( 41-C , 42-C ) :   1.2052
B( 41-C , 47-C ) :   1.1856 B( 42-C , 43-C ) :   1.0999 B( 42-C , 46-N ) :   1.5053
B( 43-C , 44-N ) :   1.5063 B( 44-N , 45-S ) :   1.2872 B( 44-N , 46-N ) :   0.1505
B( 45-S , 46-N ) :   1.2877 B( 47-C , 48-C ) :   1.5130 B( 47-C , 51-S ) :   1.0756
B( 48-C , 49-C ) :   1.1436 B( 48-C , 84-H ) :   0.9881 B( 49-C , 50-C ) :   1.2582
B( 49-C , 55-C ) :   1.3058 B( 50-C , 51-S ) :   0.9939 B( 50-C , 52-C ) :   1.4098
B( 52-C , 53-C ) :   1.2928 B( 52-C , 85-H ) :   1.0021 B( 53-C , 54-C ) :   1.2692
B( 53-C , 58-C ) :   1.2027 B( 54-C , 55-C ) :   1.3870 B( 54-C , 56-S ) :   1.0521
B( 55-C , 86-H ) :   1.0021 B( 56-S , 57-C ) :   1.0725 B( 57-C , 58-C ) :   1.5072
B( 57-C , 59-C ) :   1.1048 B( 58-C , 87-H ) :   0.9933 B( 59-C , 60-C ) :   1.6945
B( 59-C , 88-H ) :   0.9276 B( 60-C , 61-C ) :   0.9407 B( 60-C , 65-C ) :   1.0342
B( 61-C , 62-O ) :   2.2763 B( 61-C , 63-C ) :   0.9201 B( 63-C , 64-C ) :   1.3288
B( 63-C , 74-C ) :   1.3740 B( 64-C , 65-C ) :   1.0017 B( 64-C , 71-C ) :   1.3697
B( 65-C , 66-C ) :   1.6674 B( 66-C , 67-C ) :   1.1610 B( 66-C , 69-C ) :   1.1249
B( 67-C , 68-N ) :   3.0087 B( 69-C , 70-N ) :   2.9912 B( 71-C , 72-C ) :   1.3707
B( 71-C , 89-H ) :   0.9821 B( 72-C , 73-C ) :   1.4205 B( 72-C , 76-Br) :   1.0545
B( 73-C , 74-C ) :   1.3570 B( 73-C , 75-Br) :   1.0351 B( 74-C , 90-H ) :   1.0073

-----------------------------------------------------------------------------
         ABSORPTION SPECTRUM VIA TRANSITION ELECTRIC DIPOLE MOMENTS
-----------------------------------------------------------------------------
State   Energy  Wavelength   fosc         T2         TX        TY        TZ
        (cm-1)    (nm)                  (au**2)     (au)      (au)      (au)
-----------------------------------------------------------------------------
   0    9423.5   1061.2   0.836390265  29.21934  -0.94183   3.19397  -4.25803
   1   14026.8    712.9   0.024514580   0.57536   0.63619   0.24499   0.33257
   2   15448.0    647.3   0.028405891   0.60536  -0.08287   0.43823  -0.63753
   3   19120.0    523.0   0.349484802   6.01751  -0.07557   0.96246  -2.25510
   4   19682.1    508.1   0.159549669   2.66870  -0.51310   0.59469  -1.43240
   5   20256.9    493.7   0.473284325   7.69175  -1.14415   0.72068  -2.42142
   6   23471.7    426.0   0.183793649   2.57787   0.29011  -0.74585   1.39191
   7   23532.4    424.9   0.084636399   1.18404   0.09066  -0.41996   0.99973
   8   24028.6    416.2   0.147006822   2.01411   0.24384  -0.55251   1.28428
   9   24209.2    413.1   0.065068557   0.88484  -0.15392   0.23926  -0.89661
  10   24961.7    400.6   0.061457079   0.81054   0.52444   0.69724   0.22216
  11   25624.0    390.3   0.065905031   0.84674   0.11883  -0.88408   0.22588
  12   26173.0    382.1   0.184181343   2.31669  -0.16296   1.13393  -1.00217
  13   26898.7    371.8   0.050422919   0.61712  -0.31213   0.57204  -0.43872
  14   26966.9    370.8   0.002931166   0.03578  -0.09479   0.11271  -0.11872
  15   27712.1    360.9   0.074046590   0.87965   0.60272  -0.71747  -0.04031
  16   28010.0    357.0   0.021108046   0.24809  -0.24527  -0.13893  -0.41065
  17   28475.7    351.2   0.320452112   3.70479   0.85455  -0.58199   1.62352
  18   28731.7    348.0   0.021989910   0.25196  -0.32584   0.33470  -0.18377
  19   29034.9    344.4   0.089145644   1.01078   0.45546  -0.86165   0.24675
  20   30251.7    330.6   0.031755882   0.34558   0.32823   0.30150   0.38333
  21   30473.6    328.2   0.022262000   0.24050   0.13469   0.34185   0.32480
  22   30559.0    327.2   0.014496751   0.15617   0.17681  -0.33634   0.10857
  23   30590.7    326.9   0.002859624   0.03077  -0.13437   0.01682  -0.11151
  24   30762.2    325.1   0.019039531   0.20376  -0.16762  -0.20764  -0.36407
  25   31050.0    322.1   0.332459982   3.52495   1.29924   1.22213   0.58594
  26   31307.9    319.4   0.045578334   0.47927   0.66283   0.13467   0.14761
  27   31533.8    317.1   0.040323635   0.42098  -0.49446  -0.33728  -0.25045
  28   31590.4    316.6   0.001822775   0.01900  -0.04973  -0.12718   0.01865
  29   31737.3    315.1   0.871503301   9.04012   0.99851  -2.02002   1.99063
  30   31880.9    313.7   0.087900305   0.90769   0.74143   0.49190   0.34059
  31   32715.7    305.7   0.053694573   0.54032   0.30918  -0.66687  -0.00367
  32   32780.8    305.1   0.028011084   0.28131  -0.22698   0.38110   0.29078
  33   32839.8    304.5   0.067629719   0.67797  -0.07671   0.68630  -0.44842
  34   32886.7    304.1   0.069937154   0.70011   0.51077   0.37533   0.54621
  35   32997.4    303.1   0.115333260   1.15067  -0.93452  -0.41664  -0.32209
  36   33233.4    300.9   0.062521070   0.61934  -0.45870  -0.62532  -0.13384
  37   33482.3    298.7   0.120790007   1.18766   0.37009  -0.99016   0.26510
  38   33677.0    296.9   0.208994358   2.04304  -1.07333  -0.61264  -0.71810
  39   33954.8    294.5   0.098013552   0.95030   0.78258   0.44765   0.37079
  40   34300.5    291.5   0.032011420   0.30724  -0.19221   0.12729  -0.50408
  41   34469.8    290.1   0.059307924   0.56643   0.70834   0.21828   0.13052
  42   34805.8    287.3   0.012576233   0.11895   0.15126   0.19688  -0.23940
  43   35181.3    284.2   0.437583285   4.09472   0.72238  -1.51842   1.12573
  44   35337.2    283.0   0.315281153   2.93726   0.99911  -1.10668   0.84516
  45   35383.1    282.6   0.194954258   1.81389  -0.57504   1.20134   0.20002
  46   35572.7    281.1   0.282283283   2.61243   0.94792  -1.04655   0.78650
  47   35669.9    280.3   0.021084893   0.19460   0.14020   0.41826   0.00149
  48   36458.1    274.3   0.033719435   0.30448   0.40497   0.32766   0.18199
  49   36634.6    273.0   0.024680797   0.22179  -0.11859   0.31847  -0.32604
  50   36808.3    271.7   0.013731466   0.12281   0.23218   0.26142  -0.02377
  51   37044.9    269.9   0.139839457   1.24273  -0.69302  -0.04428  -0.87207
  52   37469.5    266.9   0.007226517   0.06349  -0.08393  -0.22338  -0.08093
  53   37538.6    266.4   0.001618468   0.01419  -0.01638   0.00564  -0.11787
  54   37595.8    266.0   0.018353767   0.16072  -0.07112  -0.37241  -0.13027
  55   37813.3    264.5   0.002108625   0.01836  -0.08908  -0.10107  -0.01445
  56   37950.9    263.5   0.016271361   0.14115  -0.09253  -0.35895  -0.06115
  57   37963.0    263.4   0.004388745   0.03806   0.16648   0.00110  -0.10170
  58   38318.5    261.0   0.083370872   0.71628   0.33580   0.52547   0.57219
  59   38595.7    259.1   0.012203385   0.10409  -0.18904   0.00059   0.26145
  60   38699.7    258.4   0.000713422   0.00607   0.04097   0.05584   0.03568
  61   38860.6    257.3   0.053840551   0.45612   0.43446   0.42525   0.29416
  62   39020.6    256.3   0.005326227   0.04494   0.09387  -0.14246   0.12582
  63   39094.3    255.8   0.017384600   0.14640  -0.07605   0.34781  -0.14014
  64   39335.1    254.2   0.009449764   0.07909   0.03998   0.09078   0.26316
  65   39402.2    253.8   0.015876533   0.13265   0.11429  -0.29787   0.17567
  66   39663.7    252.1   0.038827863   0.32227  -0.41257   0.28059  -0.27080
  67   39829.4    251.1   0.000298666   0.00247  -0.01443   0.03310   0.03412
  68   40033.0    249.8   0.002934443   0.02413  -0.09932   0.03462  -0.11431
  69   40163.5    249.0   0.002270967   0.01861  -0.07865  -0.04397  -0.10245

FINAL SINGLE POINT ENERGY    -15122.856201748304

DIPOLE MOMENT
-------------
                                X             Y             Z
Electronic contribution:    -28.31921       7.60152      15.85045
Nuclear contribution   :     26.85413      -9.20626     -16.23702
                        -----------------------------------------
Total Dipole Moment    :     -1.46508      -1.60474      -0.38657
                        -----------------------------------------
Magnitude (a.u.)       :      2.20705
Magnitude (Debye)      :      5.60988

Rotational constants in cm-1:     0.002082     0.000093     0.000091
Rotational constants in MHz :    62.408357     2.798983     2.726873

                             ****ORCA TERMINATED NORMALLY****
TOTAL RUN TIME: 0 days 0 hours 11 minutes 23 seconds 461 msec
