                         Program Version 4.2.0 -  RELEASE  -
|  1> # ORCA input file
|  2> # SCF done       -207.034035318658          0.000514583606
|  3> ! CAM-B3LYP def2-SVP def2/J RIJCOSX Grid4 TightSCF
|  4> %maxcore 5000
|  5> %tddft
|  6>     Mode sTDDFT
|  7>     Ethresh 5.0
|  8>     maxcore 5000
|  9> end
| 10>
| 11> %pal
| 12>   nprocs 6
| 13>   end
| 14> * xyz 0 1
| 15>    C       -1.80683        -1.47598        -4.80500
| 16>    O       -1.92883        -1.27624        -3.61614
| 17>    C       -1.40092        -0.44709        -5.78747
| 18>    C       -1.35838        -1.00176        -7.07536
| 19>    C       -0.99312        -0.20346        -8.14852
| 20>    C       -0.68192         1.13021        -7.91192
| 21>    C       -0.73085         1.67128        -6.62524
| 22>    C       -1.09363         0.87585        -5.54712
| 23>   Br       -0.30612         3.48967        -6.33335
| 24>   Br       -0.18235         2.21557        -9.37813
| 25>    C       -1.74075        -2.40922        -6.99015
| 26>    C       -1.84083        -3.24479        -8.07134
| 27>    C       -1.57324        -2.84945        -9.40133
| 28>    N       -1.37475        -2.60015       -10.50364
| 29>    C       -2.22404        -4.60446        -8.07228
| 30>    N       -2.52448        -5.70656        -8.19922
| 31>    C       -2.00440        -2.71939        -5.58605
| 32>    C       -2.35189        -3.97883        -5.18115
| 33>    C       -2.69057        -4.59446        -3.93686
| 34>    C       -3.00568        -5.96588        -4.01095
| 35>    C       -3.36683        -6.63536        -2.86169
| 36>    C       -3.42787        -5.95743        -1.61071
| 37>    C       -3.10674        -4.60381        -1.54221
| 38>    C       -2.74475        -3.93742        -2.68721
| 39>    C       -3.85287        -6.92183        -0.65213
| 40>    C       -4.03425        -8.13877        -1.36028
| 41>    N       -3.72251        -7.94947        -2.68227
| 42>    C       -3.76338        -8.96590        -3.69613
| 43>    C       -4.47859        -9.28401        -0.72029
| 44>    C       -4.72771        -9.22222         0.64744
| 45>    C       -4.53575        -8.01600         1.34968
| 46>    C       -4.10446        -6.87576         0.71710
| 47>    C       -5.19377       -10.39965         1.37324
| 48>    C       -4.72660       -11.69726         1.11135
| 49>    C       -5.16274       -12.84198         1.87352
| 50>    N       -4.69592       -14.07321         1.54515
| 51>    C       -3.84477       -14.19271         0.58725
| 52>    C       -3.36770       -13.05448        -0.12490
| 53>    N       -3.80157       -11.87045         0.13253
| 54>    F       -2.45950       -13.18429        -1.09268
| 55>    F       -3.41831       -15.41539         0.27725
| 56>    C       -6.08669       -12.73612         2.92476
| 57>    C       -6.59209       -11.44544         3.15922
| 58>    C       -6.13868       -10.29454         2.40827
| 59>    N       -6.74783        -9.17334         2.81426
| 60>    S       -7.75274        -9.52282         4.00561
| 61>    N       -7.49577       -11.10017         4.08620
| 62>    C       -6.49171       -13.86613         3.75441
| 63>    C       -7.80854       -13.95069         4.19913
| 64>    C       -8.15540       -14.99158         5.04254
| 65>    C       -7.19974       -15.96076         5.44455
| 66>    C       -5.88977       -15.87130         4.98104
| 67>    C       -5.54788       -14.83312         4.14750
| 68>    C       -7.88187       -16.86118         6.31595
| 69>    C       -9.22292       -16.39600         6.40149
| 70>    N       -9.36334       -15.27086         5.63196
| 71>    C      -10.57439       -14.51861         5.46348
| 72>    C      -10.15205       -17.04148         7.19520
| 73>    C       -9.75764       -18.19191         7.88267
| 74>    C       -8.42224       -18.64003         7.80448
| 75>    C       -7.48905       -17.98302         7.04048
| 76>    C      -10.71811       -18.86075         8.71657
| 77>    C      -10.76954       -20.16704         9.07714
| 78>    C      -11.57094       -20.57698        10.26124
| 79>    O      -12.39801       -19.92037        10.84727
| 80>    C      -11.08913       -21.93704        10.59453
| 81>    C      -10.17966       -22.36904         9.61099
| 82>    C      -10.08296       -21.34302         8.57524
| 83>    C       -9.65918       -21.54703         7.29086
| 84>    C       -9.84221       -20.60689         6.25328
| 85>    N      -10.03180       -19.91185         5.36063
| 86>    C       -9.08083       -22.75253         6.84171
| 87>    N       -8.59019       -23.71157         6.44691
| 88>    C       -9.56732       -23.60492         9.73240
| 89>    C       -9.87663       -24.39351        10.83461
| 90>    C      -10.79111       -23.96392        11.79918
| 91>    C      -11.40570       -22.72378        11.68255
| 92>   Br      -11.20010       -25.06291        13.28170
| 93>   Br       -9.02929       -26.07388        11.01544
| 94>    H       -0.94104        -0.58012        -9.15665
| 95>    H       -1.13620         1.27720        -4.54643
| 96>    H       -2.39019        -4.69445        -5.99416
| 97>    H       -2.97227        -6.47120        -4.96503
| 98>    H       -3.14704        -4.08423        -0.59749
| 99>    H       -2.50053        -2.89165        -2.63530
|100>    H       -3.43983        -9.91671        -3.27275
|101>    H       -3.08952        -8.70106        -4.50873
|102>    H       -4.77364        -9.08252        -4.09952
|103>    H       -4.65167       -10.19794        -1.26221
|104>    H       -4.72367        -7.99946         2.41050
|105>    H       -3.96064        -5.95909         1.26776
|106>    H       -8.53209       -13.22073         3.87662
|107>    H       -5.15424       -16.60154         5.28083
|108>    H       -4.53264       -14.73810         3.80058
|109>    H      -11.14841       -14.53177         6.38954
|110>    H      -11.18981       -14.93544         4.66079
|111>    H      -10.32909       -13.48564         5.22226
|112>    H      -11.17568       -16.70599         7.26042
|113>    H       -8.12343       -19.49162         8.39754
|114>    H       -6.46740       -18.32775         7.00088
|115>    H      -11.47107       -18.23062         9.18075
|116>    H       -8.85435       -23.96396         9.00738
|117>    H      -12.11124       -22.38186        12.42383
|118> *
|119>
|120>                          ****END OF INPUT****

CARTESIAN COORDINATES (ANGSTROEM)
---------------------------------
  C     -1.806830   -1.475980   -4.805000
  O     -1.928830   -1.276240   -3.616140
  C     -1.400920   -0.447090   -5.787470
  C     -1.358380   -1.001760   -7.075360
  C     -0.993120   -0.203460   -8.148520
  C     -0.681920    1.130210   -7.911920
  C     -0.730850    1.671280   -6.625240
  C     -1.093630    0.875850   -5.547120
  Br    -0.306120    3.489670   -6.333350
  Br    -0.182350    2.215570   -9.378130
  C     -1.740750   -2.409220   -6.990150
  C     -1.840830   -3.244790   -8.071340
  C     -1.573240   -2.849450   -9.401330
  N     -1.374750   -2.600150  -10.503640
  C     -2.224040   -4.604460   -8.072280
  N     -2.524480   -5.706560   -8.199220
  C     -2.004400   -2.719390   -5.586050
  C     -2.351890   -3.978830   -5.181150
  C     -2.690570   -4.594460   -3.936860
  C     -3.005680   -5.965880   -4.010950
  C     -3.366830   -6.635360   -2.861690
  C     -3.427870   -5.957430   -1.610710
  C     -3.106740   -4.603810   -1.542210
  C     -2.744750   -3.937420   -2.687210
  C     -3.852870   -6.921830   -0.652130
  C     -4.034250   -8.138770   -1.360280
  N     -3.722510   -7.949470   -2.682270
  C     -3.763380   -8.965900   -3.696130
  C     -4.478590   -9.284010   -0.720290
  C     -4.727710   -9.222220    0.647440
  C     -4.535750   -8.016000    1.349680
  C     -4.104460   -6.875760    0.717100
  C     -5.193770  -10.399650    1.373240
  C     -4.726600  -11.697260    1.111350
  C     -5.162740  -12.841980    1.873520
  N     -4.695920  -14.073210    1.545150
  C     -3.844770  -14.192710    0.587250
  C     -3.367700  -13.054480   -0.124900
  N     -3.801570  -11.870450    0.132530
  F     -2.459500  -13.184290   -1.092680
  F     -3.418310  -15.415390    0.277250
  C     -6.086690  -12.736120    2.924760
  C     -6.592090  -11.445440    3.159220
  C     -6.138680  -10.294540    2.408270
  N     -6.747830   -9.173340    2.814260
  S     -7.752740   -9.522820    4.005610
  N     -7.495770  -11.100170    4.086200
  C     -6.491710  -13.866130    3.754410
  C     -7.808540  -13.950690    4.199130
  C     -8.155400  -14.991580    5.042540
  C     -7.199740  -15.960760    5.444550
  C     -5.889770  -15.871300    4.981040
  C     -5.547880  -14.833120    4.147500
  C     -7.881870  -16.861180    6.315950
  C     -9.222920  -16.396000    6.401490
  N     -9.363340  -15.270860    5.631960
  C    -10.574390  -14.518610    5.463480
  C    -10.152050  -17.041480    7.195200
  C     -9.757640  -18.191910    7.882670
  C     -8.422240  -18.640030    7.804480
  C     -7.489050  -17.983020    7.040480
  C    -10.718110  -18.860750    8.716570
  C    -10.769540  -20.167040    9.077140
  C    -11.570940  -20.576980   10.261240
  O    -12.398010  -19.920370   10.847270
  C    -11.089130  -21.937040   10.594530
  C    -10.179660  -22.369040    9.610990
  C    -10.082960  -21.343020    8.575240
  C     -9.659180  -21.547030    7.290860
  C     -9.842210  -20.606890    6.253280
  N    -10.031800  -19.911850    5.360630
  C     -9.080830  -22.752530    6.841710
  N     -8.590190  -23.711570    6.446910
  C     -9.567320  -23.604920    9.732400
  C     -9.876630  -24.393510   10.834610
  C    -10.791110  -23.963920   11.799180
  C    -11.405700  -22.723780   11.682550
  Br   -11.200100  -25.062910   13.281700
  Br    -9.029290  -26.073880   11.015440
  H     -0.941040   -0.580120   -9.156650
  H     -1.136200    1.277200   -4.546430
  H     -2.390190   -4.694450   -5.994160
  H     -2.972270   -6.471200   -4.965030
  H     -3.147040   -4.084230   -0.597490
  H     -2.500530   -2.891650   -2.635300
  H     -3.439830   -9.916710   -3.272750
  H     -3.089520   -8.701060   -4.508730
  H     -4.773640   -9.082520   -4.099520
  H     -4.651670  -10.197940   -1.262210
  H     -4.723670   -7.999460    2.410500
  H     -3.960640   -5.959090    1.267760
  H     -8.532090  -13.220730    3.876620
  H     -5.154240  -16.601540    5.280830
  H     -4.532640  -14.738100    3.800580
  H    -11.148410  -14.531770    6.389540
  H    -11.189810  -14.935440    4.660790
  H    -10.329090  -13.485640    5.222260
  H    -11.175680  -16.705990    7.260420
  H     -8.123430  -19.491620    8.397540
  H     -6.467400  -18.327750    7.000880
  H    -11.471070  -18.230620    9.180750
  H     -8.854350  -23.963960    9.007380
  H    -12.111240  -22.381860   12.423830

 Total Charge           Charge          ....    0
 Multiplicity           Mult            ....    1
 Number of Electrons    NEL             ....  644
 Basis Dimension        Dim             .... 1302

ORBITAL ENERGIES
----------------

  NO   OCC          E(Eh)            E(eV)
   0   2.0000    -482.877604    -13139.7676
   1   2.0000    -482.876577    -13139.7397
   2   2.0000    -482.876536    -13139.7386
   3   2.0000    -482.874260    -13139.6766
   4   2.0000     -89.042822     -2422.9784
   5   2.0000     -62.555218     -1702.2140
   6   2.0000     -62.554178     -1702.1857
   7   2.0000     -62.554169     -1702.1855
   8   2.0000     -62.551903     -1702.1238
   9   2.0000     -56.389169     -1534.4273
  10   2.0000     -56.388133     -1534.3991
  11   2.0000     -56.388128     -1534.3990
  12   2.0000     -56.386513     -1534.3550
  13   2.0000     -56.386420     -1534.3525
  14   2.0000     -56.385866     -1534.3374
  15   2.0000     -56.385479     -1534.3269
  16   2.0000     -56.385459     -1534.3263
  17   2.0000     -56.385376     -1534.3241
  18   2.0000     -56.385364     -1534.3237
  19   2.0000     -56.383194     -1534.2647
  20   2.0000     -56.383094     -1534.2620
  21   2.0000     -24.814659      -675.2412
  22   2.0000     -24.812620      -675.1857
  23   2.0000     -19.224248      -523.1184
  24   2.0000     -19.222024      -523.0579
  25   2.0000     -14.461283      -393.5115
  26   2.0000     -14.460773      -393.4976
  27   2.0000     -14.451876      -393.2555
  28   2.0000     -14.450764      -393.2253
  29   2.0000     -14.449299      -393.1854
  30   2.0000     -14.449064      -393.1790
  31   2.0000     -14.423013      -392.4701
  32   2.0000     -14.420135      -392.3918
  33   2.0000     -14.417397      -392.3173
  34   2.0000     -14.415186      -392.2571
  35   2.0000     -10.429653      -283.8053
  36   2.0000     -10.428468      -283.7730
  37   2.0000     -10.375789      -282.3396
  38   2.0000     -10.373326      -282.2726
  39   2.0000     -10.355242      -281.7805
  40   2.0000     -10.354524      -281.7609
  41   2.0000     -10.353271      -281.7268
  42   2.0000     -10.352577      -281.7079
  43   2.0000     -10.349404      -281.6216
  44   2.0000     -10.347734      -281.5762
  45   2.0000     -10.347151      -281.5603
  46   2.0000     -10.346870      -281.5526
  47   2.0000     -10.343929      -281.4726
  48   2.0000     -10.343209      -281.4530
  49   2.0000     -10.337695      -281.3030
  50   2.0000     -10.337414      -281.2953
  51   2.0000     -10.326262      -280.9919
  52   2.0000     -10.322001      -280.8759
  53   2.0000     -10.320441      -280.8335
  54   2.0000     -10.320404      -280.8325
  55   2.0000     -10.319732      -280.8142
  56   2.0000     -10.319530      -280.8087
  57   2.0000     -10.318646      -280.7846
  58   2.0000     -10.318267      -280.7743
  59   2.0000     -10.316599      -280.7289
  60   2.0000     -10.316497      -280.7262
  61   2.0000     -10.315939      -280.7110
  62   2.0000     -10.315506      -280.6992
  63   2.0000     -10.312976      -280.6303
  64   2.0000     -10.312962      -280.6300
  65   2.0000     -10.312774      -280.6248
  66   2.0000     -10.311170      -280.5812
  67   2.0000     -10.310345      -280.5587
  68   2.0000     -10.310200      -280.5548
  69   2.0000     -10.309803      -280.5440
  70   2.0000     -10.309654      -280.5400
  71   2.0000     -10.304923      -280.4112
  72   2.0000     -10.302386      -280.3422
  73   2.0000     -10.301732      -280.3244
  74   2.0000     -10.299732      -280.2700
  75   2.0000     -10.293411      -280.0979
  76   2.0000     -10.293035      -280.0877
  77   2.0000     -10.291347      -280.0418
  78   2.0000     -10.289386      -279.9884
  79   2.0000     -10.288910      -279.9755
  80   2.0000     -10.286984      -279.9231
  81   2.0000     -10.283632      -279.8318
  82   2.0000     -10.281127      -279.7637
  83   2.0000     -10.279876      -279.7297
  84   2.0000     -10.277581      -279.6672
  85   2.0000     -10.277539      -279.6661
  86   2.0000     -10.276868      -279.6478
  87   2.0000     -10.276746      -279.6445
  88   2.0000     -10.275500      -279.6106
  89   2.0000     -10.275278      -279.6045
  90   2.0000     -10.274499      -279.5833
  91   2.0000     -10.273945      -279.5683
  92   2.0000     -10.268358      -279.4162
  93   2.0000     -10.267383      -279.3897
  94   2.0000     -10.267163      -279.3837
  95   2.0000      -8.784539      -239.0395
  96   2.0000      -8.783494      -239.0110
  97   2.0000      -8.783492      -239.0110
  98   2.0000      -8.781241      -238.9497
  99   2.0000      -8.134319      -221.3461
 100   2.0000      -6.620673      -180.1577
 101   2.0000      -6.619674      -180.1305
 102   2.0000      -6.619597      -180.1284
 103   2.0000      -6.617420      -180.0692
 104   2.0000      -6.606660      -179.7764
 105   2.0000      -6.605876      -179.7550
 106   2.0000      -6.605630      -179.7483
 107   2.0000      -6.605595      -179.7474
 108   2.0000      -6.604840      -179.7268
 109   2.0000      -6.604806      -179.7259
 110   2.0000      -6.603326      -179.6856
 111   2.0000      -6.602569      -179.6650
 112   2.0000      -6.105258      -166.1325
 113   2.0000      -6.097485      -165.9210
 114   2.0000      -6.097363      -165.9177
 115   2.0000      -2.736557       -74.4655
 116   2.0000      -2.735544       -74.4379
 117   2.0000      -2.735529       -74.4375
 118   2.0000      -2.733285       -74.3765
 119   2.0000      -2.732778       -74.3627
 120   2.0000      -2.732254       -74.3484
 121   2.0000      -2.731770       -74.3352
 122   2.0000      -2.731747       -74.3346
 123   2.0000      -2.731210       -74.3200
 124   2.0000      -2.731143       -74.3182
 125   2.0000      -2.729541       -74.2746
 126   2.0000      -2.728940       -74.2582
 127   2.0000      -2.721064       -74.0439
 128   2.0000      -2.721049       -74.0435
 129   2.0000      -2.720026       -74.0157
 130   2.0000      -2.720019       -74.0155
 131   2.0000      -2.719984       -74.0145
 132   2.0000      -2.719968       -74.0141
 133   2.0000      -2.717731       -73.9532
 134   2.0000      -2.717725       -73.9531
 135   2.0000      -1.341358       -36.5002
 136   2.0000      -1.327291       -36.1174
 137   2.0000      -1.139830       -31.0163
 138   2.0000      -1.139093       -30.9963
 139   2.0000      -1.137609       -30.9559
 140   2.0000      -1.110712       -30.2240
 141   2.0000      -1.092544       -29.7296
 142   2.0000      -1.092039       -29.7159
 143   2.0000      -1.036350       -28.2005
 144   2.0000      -1.025973       -27.9181
 145   2.0000      -1.025920       -27.9167
 146   2.0000      -1.010489       -27.4968
 147   2.0000      -1.008834       -27.4518
 148   2.0000      -0.998281       -27.1646
 149   2.0000      -0.996205       -27.1081
 150   2.0000      -0.993517       -27.0350
 151   2.0000      -0.978781       -26.6340
 152   2.0000      -0.978261       -26.6198
 153   2.0000      -0.977704       -26.6047
 154   2.0000      -0.959554       -26.1108
 155   2.0000      -0.958705       -26.0877
 156   2.0000      -0.952832       -25.9279
 157   2.0000      -0.944479       -25.7006
 158   2.0000      -0.921892       -25.0860
 159   2.0000      -0.921261       -25.0688
 160   2.0000      -0.915394       -24.9092
 161   2.0000      -0.913720       -24.8636
 162   2.0000      -0.910633       -24.7796
 163   2.0000      -0.907705       -24.6999
 164   2.0000      -0.895170       -24.3588
 165   2.0000      -0.887078       -24.1386
 166   2.0000      -0.881879       -23.9971
 167   2.0000      -0.874055       -23.7843
 168   2.0000      -0.859488       -23.3879
 169   2.0000      -0.854487       -23.2518
 170   2.0000      -0.854121       -23.2418
 171   2.0000      -0.852110       -23.1871
 172   2.0000      -0.851139       -23.1607
 173   2.0000      -0.850014       -23.1301
 174   2.0000      -0.843219       -22.9452
 175   2.0000      -0.837668       -22.7941
 176   2.0000      -0.821996       -22.3676
 177   2.0000      -0.808290       -21.9947
 178   2.0000      -0.806578       -21.9481
 179   2.0000      -0.790174       -21.5017
 180   2.0000      -0.787299       -21.4235
 181   2.0000      -0.777999       -21.1704
 182   2.0000      -0.773786       -21.0558
 183   2.0000      -0.768151       -20.9025
 184   2.0000      -0.766287       -20.8517
 185   2.0000      -0.759304       -20.6617
 186   2.0000      -0.750382       -20.4189
 187   2.0000      -0.735774       -20.0214
 188   2.0000      -0.727850       -19.8058
 189   2.0000      -0.715600       -19.4725
 190   2.0000      -0.712321       -19.3832
 191   2.0000      -0.706041       -19.2123
 192   2.0000      -0.704244       -19.1635
 193   2.0000      -0.698486       -19.0068
 194   2.0000      -0.691978       -18.8297
 195   2.0000      -0.691564       -18.8184
 196   2.0000      -0.686746       -18.6873
 197   2.0000      -0.682160       -18.5625
 198   2.0000      -0.678478       -18.4623
 199   2.0000      -0.674917       -18.3654
 200   2.0000      -0.670232       -18.2379
 201   2.0000      -0.667005       -18.1501
 202   2.0000      -0.663911       -18.0659
 203   2.0000      -0.655082       -17.8257
 204   2.0000      -0.650836       -17.7101
 205   2.0000      -0.637449       -17.3459
 206   2.0000      -0.625985       -17.0339
 207   2.0000      -0.625424       -17.0187
 208   2.0000      -0.619683       -16.8624
 209   2.0000      -0.619139       -16.8476
 210   2.0000      -0.616866       -16.7858
 211   2.0000      -0.614472       -16.7206
 212   2.0000      -0.609177       -16.5765
 213   2.0000      -0.605148       -16.4669
 214   2.0000      -0.601074       -16.3560
 215   2.0000      -0.596260       -16.2251
 216   2.0000      -0.591577       -16.0976
 217   2.0000      -0.587948       -15.9989
 218   2.0000      -0.580320       -15.7913
 219   2.0000      -0.574225       -15.6255
 220   2.0000      -0.570420       -15.5219
 221   2.0000      -0.569286       -15.4911
 222   2.0000      -0.567319       -15.4375
 223   2.0000      -0.565573       -15.3900
 224   2.0000      -0.564970       -15.3736
 225   2.0000      -0.563747       -15.3403
 226   2.0000      -0.552854       -15.0439
 227   2.0000      -0.552377       -15.0310
 228   2.0000      -0.551750       -15.0139
 229   2.0000      -0.551020       -14.9940
 230   2.0000      -0.546777       -14.8785
 231   2.0000      -0.545394       -14.8409
 232   2.0000      -0.543512       -14.7897
 233   2.0000      -0.539220       -14.6729
 234   2.0000      -0.537659       -14.6305
 235   2.0000      -0.535365       -14.5680
 236   2.0000      -0.534910       -14.5556
 237   2.0000      -0.533511       -14.5176
 238   2.0000      -0.532080       -14.4786
 239   2.0000      -0.528100       -14.3703
 240   2.0000      -0.527377       -14.3507
 241   2.0000      -0.525330       -14.2950
 242   2.0000      -0.524304       -14.2670
 243   2.0000      -0.518474       -14.1084
 244   2.0000      -0.516283       -14.0488
 245   2.0000      -0.513554       -13.9745
 246   2.0000      -0.512483       -13.9454
 247   2.0000      -0.506940       -13.7945
 248   2.0000      -0.504280       -13.7222
 249   2.0000      -0.503782       -13.7086
 250   2.0000      -0.503255       -13.6943
 251   2.0000      -0.497593       -13.5402
 252   2.0000      -0.496041       -13.4980
 253   2.0000      -0.495749       -13.4900
 254   2.0000      -0.495525       -13.4839
 255   2.0000      -0.491817       -13.3830
 256   2.0000      -0.490899       -13.3581
 257   2.0000      -0.487466       -13.2646
 258   2.0000      -0.486344       -13.2341
 259   2.0000      -0.484688       -13.1890
 260   2.0000      -0.481601       -13.1050
 261   2.0000      -0.473346       -12.8804
 262   2.0000      -0.467329       -12.7167
 263   2.0000      -0.465423       -12.6648
 264   2.0000      -0.462612       -12.5883
 265   2.0000      -0.461793       -12.5660
 266   2.0000      -0.460304       -12.5255
 267   2.0000      -0.459883       -12.5141
 268   2.0000      -0.459034       -12.4909
 269   2.0000      -0.454282       -12.3617
 270   2.0000      -0.453829       -12.3493
 271   2.0000      -0.451468       -12.2851
 272   2.0000      -0.449119       -12.2211
 273   2.0000      -0.447633       -12.1807
 274   2.0000      -0.446433       -12.1480
 275   2.0000      -0.444102       -12.0846
 276   2.0000      -0.437965       -11.9176
 277   2.0000      -0.434256       -11.8167
 278   2.0000      -0.433050       -11.7839
 279   2.0000      -0.430550       -11.7159
 280   2.0000      -0.429867       -11.6973
 281   2.0000      -0.428777       -11.6676
 282   2.0000      -0.428174       -11.6512
 283   2.0000      -0.427963       -11.6455
 284   2.0000      -0.423844       -11.5334
 285   2.0000      -0.422256       -11.4902
 286   2.0000      -0.419155       -11.4058
 287   2.0000      -0.418501       -11.3880
 288   2.0000      -0.413922       -11.2634
 289   2.0000      -0.410375       -11.1669
 290   2.0000      -0.408567       -11.1177
 291   2.0000      -0.407435       -11.0869
 292   2.0000      -0.404707       -11.0126
 293   2.0000      -0.401494       -10.9252
 294   2.0000      -0.400167       -10.8891
 295   2.0000      -0.399045       -10.8586
 296   2.0000      -0.394248       -10.7280
 297   2.0000      -0.391392       -10.6503
 298   2.0000      -0.389871       -10.6089
 299   2.0000      -0.389091       -10.5877
 300   2.0000      -0.379101       -10.3159
 301   2.0000      -0.372501       -10.1363
 302   2.0000      -0.367550       -10.0016
 303   2.0000      -0.366581        -9.9752
 304   2.0000      -0.349972        -9.5232
 305   2.0000      -0.348187        -9.4746
 306   2.0000      -0.346141        -9.4190
 307   2.0000      -0.342174        -9.3110
 308   2.0000      -0.341058        -9.2807
 309   2.0000      -0.340735        -9.2719
 310   2.0000      -0.339535        -9.2392
 311   2.0000      -0.333436        -9.0732
 312   2.0000      -0.333327        -9.0703
 313   2.0000      -0.331931        -9.0323
 314   2.0000      -0.327659        -8.9161
 315   2.0000      -0.312748        -8.5103
 316   2.0000      -0.311497        -8.4763
 317   2.0000      -0.300398        -8.1743
 318   2.0000      -0.278226        -7.5709
 319   2.0000      -0.272159        -7.4058
 320   2.0000      -0.271674        -7.3926
 321   2.0000      -0.257593        -7.0095
 322   0.0000      -0.104468        -2.8427
 323   0.0000      -0.090629        -2.4661
 324   0.0000      -0.088278        -2.4022
 325   0.0000      -0.067522        -1.8374
 326   0.0000      -0.064985        -1.7683

MULLIKEN ATOMIC CHARGES
-----------------------
   0 C :    0.158580
   1 O :   -0.141568
   2 C :   -0.007087
   3 C :    0.032820
   4 C :   -0.010536
   5 C :   -0.024476
   6 C :   -0.012427
   7 C :   -0.025371
   8 Br:    0.013457
   9 Br:    0.020545
  10 C :    0.317508
  11 C :   -0.359411
  12 C :   -0.189390
  13 N :    0.155076
  14 C :   -0.182629
  15 N :    0.149642
  16 C :   -0.049836
  17 C :   -0.008468
  18 C :    0.073702
  19 C :   -0.159496
  20 C :    0.190612
  21 C :    0.072041
  22 C :   -0.049731
  23 C :   -0.007046
  24 C :    0.061838
  25 C :    0.156981
  26 N :   -0.184406
  27 C :    0.119247
  28 C :   -0.085763
  29 C :   -0.000567
  30 C :    0.029229
  31 C :   -0.051508
  32 C :    0.093531
  33 C :   -0.058749
  34 C :   -0.067870
  35 N :    0.019140
  36 C :    0.128086
  37 C :    0.127556
  38 N :    0.006845
  39 F :   -0.145494
  40 F :   -0.140488
  41 C :    0.091098
  42 C :   -0.002241
  43 C :   -0.013575
  44 N :   -0.277188
  45 S :    0.533806
  46 N :   -0.289767
  47 C :   -0.000189
  48 C :   -0.095461
  49 C :    0.159281
  50 C :    0.065056
  51 C :   -0.051559
  52 C :    0.034186
  53 C :    0.075549
  54 C :    0.179639
  55 N :   -0.188172
  56 C :    0.123218
  57 C :   -0.118996
  58 C :    0.053743
  59 C :    0.013366
  60 C :   -0.037768
  61 C :    0.032447
  62 C :   -0.113902
  63 C :    0.139183
  64 O :   -0.136312
  65 C :    0.003105
  66 C :    0.021039
  67 C :    0.250061
  68 C :   -0.323780
  69 C :   -0.192335
  70 N :    0.181084
  71 C :   -0.183896
  72 N :    0.163880
  73 C :   -0.012679
  74 C :   -0.022257
  75 C :   -0.015124
  76 C :   -0.025766
  77 Br:    0.014026
  78 Br:    0.020876
  79 H :    0.007385
  80 H :    0.005481
  81 H :   -0.014598
  82 H :   -0.016154
  83 H :   -0.027725
  84 H :   -0.004650
  85 H :    0.046960
  86 H :    0.045381
  87 H :    0.039831
  88 H :   -0.040003
  89 H :   -0.022507
  90 H :   -0.029880
  91 H :   -0.038152
  92 H :   -0.030626
  93 H :   -0.026773
  94 H :    0.037267
  95 H :    0.044064
  96 H :    0.043307
  97 H :   -0.037597
  98 H :   -0.014056
  99 H :   -0.026410
 100 H :    0.023619
 101 H :    0.010376
 102 H :    0.007667
Sum of atomic charges:   -0.0000000

LOEWDIN ATOMIC CHARGES
----------------------
   0 C :    0.088713
   1 O :   -0.129833
   2 C :   -0.039864
   3 C :   -0.013855
   4 C :   -0.006672
   5 C :   -0.119284
   6 C :   -0.122006
   7 C :    0.005694
   8 Br:    0.137025
   9 Br:    0.139819
  10 C :    0.079723
  11 C :   -0.138645
  12 C :   -0.018688
  13 N :   -0.048047
  14 C :   -0.022430
  15 N :   -0.053298
  16 C :   -0.104951
  17 C :    0.089421
  18 C :   -0.043128
  19 C :   -0.022641
  20 C :    0.025036
  21 C :   -0.015927
  22 C :   -0.012840
  23 C :   -0.008861
  24 C :   -0.043073
  25 C :    0.034238
  26 N :    0.015933
  27 C :    0.037940
  28 C :   -0.033720
  29 C :   -0.009981
  30 C :   -0.021241
  31 C :   -0.008581
  32 C :   -0.015071
  33 C :   -0.009470
  34 C :   -0.010454
  35 N :   -0.029302
  36 C :    0.052465
  37 C :    0.053756
  38 N :   -0.034935
  39 F :   -0.035085
  40 F :   -0.030903
  41 C :   -0.011961
  42 C :   -0.042528
  43 C :   -0.042913
  44 N :   -0.281997
  45 S :    0.671218
  46 N :   -0.289470
  47 C :   -0.012959
  48 C :   -0.034139
  49 C :    0.033186
  50 C :   -0.038463
  51 C :   -0.010324
  52 C :   -0.019046
  53 C :   -0.022248
  54 C :    0.036317
  55 N :    0.017412
  56 C :    0.038603
  57 C :   -0.026480
  58 C :   -0.040183
  59 C :   -0.024605
  60 C :   -0.003050
  61 C :    0.087509
  62 C :   -0.096236
  63 C :    0.084418
  64 O :   -0.135900
  65 C :   -0.043983
  66 C :   -0.009341
  67 C :    0.063829
  68 C :   -0.126221
  69 C :   -0.018264
  70 N :   -0.036350
  71 C :   -0.021215
  72 N :   -0.043919
  73 C :   -0.009388
  74 C :   -0.118146
  75 C :   -0.123707
  76 C :    0.006793
  77 Br:    0.136851
  78 Br:    0.141122
  79 H :    0.044469
  80 H :    0.045764
  81 H :    0.044070
  82 H :    0.032740
  83 H :    0.031570
  84 H :    0.027166
  85 H :    0.036074
  86 H :    0.036244
  87 H :    0.028856
  88 H :    0.024365
  89 H :    0.025481
  90 H :    0.030156
  91 H :    0.023816
  92 H :    0.029974
  93 H :    0.024706
  94 H :    0.031906
  95 H :    0.030357
  96 H :    0.035517
  97 H :    0.028661
  98 H :    0.027062
  99 H :    0.032146
 100 H :    0.046357
 101 H :    0.044709
 102 H :    0.046637

  Mayer bond orders larger than 0.100000
B(  0-C ,  1-O ) :   2.1769 B(  0-C ,  2-C ) :   0.9552 B(  0-C , 16-C ) :   0.9251
B(  1-O , 84-H ) :   0.1015 B(  2-C ,  3-C ) :   1.3356 B(  2-C ,  7-C ) :   1.3665
B(  3-C ,  4-C ) :   1.3582 B(  3-C , 10-C ) :   0.9822 B(  4-C ,  5-C ) :   1.3738
B(  4-C , 79-H ) :   0.9785 B(  5-C ,  6-C ) :   1.4209 B(  5-C ,  9-Br) :   1.0575
B(  6-C ,  7-C ) :   1.3509 B(  6-C ,  8-Br) :   1.0328 B(  7-C , 80-H ) :   1.0089
B( 10-C , 11-C ) :   1.6203 B( 10-C , 16-C ) :   1.0900 B( 11-C , 12-C ) :   1.1480
B( 11-C , 14-C ) :   1.1380 B( 12-C , 13-N ) :   2.9666 B( 14-C , 15-N ) :   2.9723
B( 16-C , 17-C ) :   1.5248 B( 17-C , 18-C ) :   1.1854 B( 17-C , 81-H ) :   0.9290
B( 18-C , 19-C ) :   1.2460 B( 18-C , 23-C ) :   1.2892 B( 19-C , 20-C ) :   1.2818
B( 19-C , 82-H ) :   1.0176 B( 20-C , 21-C ) :   1.2669 B( 20-C , 26-N ) :   1.1290
B( 21-C , 22-C ) :   1.2916 B( 21-C , 24-C ) :   1.1132 B( 22-C , 23-C ) :   1.4358
B( 22-C , 83-H ) :   1.0016 B( 23-C , 84-H ) :   0.9664 B( 24-C , 25-C ) :   1.2791
B( 24-C , 31-C ) :   1.2995 B( 25-C , 26-N ) :   1.1269 B( 25-C , 28-C ) :   1.2975
B( 26-N , 27-C ) :   0.9757 B( 27-C , 85-H ) :   0.9664 B( 27-C , 86-H ) :   0.9679
B( 27-C , 87-H ) :   0.9738 B( 28-C , 29-C ) :   1.3658 B( 28-C , 88-H ) :   0.9965
B( 29-C , 30-C ) :   1.3159 B( 29-C , 32-C ) :   0.9963 B( 30-C , 31-C ) :   1.4354
B( 30-C , 89-H ) :   0.9791 B( 31-C , 90-H ) :   0.9990 B( 32-C , 33-C ) :   1.3751
B( 32-C , 41-C ) :   0.1406 B( 32-C , 43-C ) :   1.2410 B( 33-C , 34-C ) :   1.0923
B( 33-C , 38-N ) :   1.3825 B( 34-C , 35-N ) :   1.3932 B( 34-C , 41-C ) :   1.3680
B( 35-N , 36-C ) :   1.7147 B( 36-C , 37-C ) :   1.0768 B( 36-C , 40-F ) :   1.1764
B( 37-C , 38-N ) :   1.7145 B( 37-C , 39-F ) :   1.1703 B( 41-C , 42-C ) :   1.2482
B( 41-C , 47-C ) :   0.9969 B( 42-C , 43-C ) :   1.1039 B( 42-C , 46-N ) :   1.4806
B( 43-C , 44-N ) :   1.4894 B( 44-N , 45-S ) :   1.2948 B( 44-N , 46-N ) :   0.1597
B( 45-S , 46-N ) :   1.2891 B( 47-C , 48-C ) :   1.3695 B( 47-C , 52-C ) :   1.3202
B( 48-C , 49-C ) :   1.2982 B( 48-C , 91-H ) :   0.9943 B( 49-C , 50-C ) :   1.2863
B( 49-C , 55-N ) :   1.1187 B( 50-C , 51-C ) :   1.3065 B( 50-C , 53-C ) :   1.1103
B( 51-C , 52-C ) :   1.4328 B( 51-C , 92-H ) :   0.9977 B( 52-C , 93-H ) :   0.9796
B( 53-C , 54-C ) :   1.2671 B( 53-C , 60-C ) :   1.3145 B( 54-C , 55-N ) :   1.1357
B( 54-C , 57-C ) :   1.2867 B( 55-N , 56-C ) :   0.9768 B( 56-C , 94-H ) :   0.9672
B( 56-C , 95-H ) :   0.9744 B( 56-C , 96-H ) :   0.9677 B( 57-C , 58-C ) :   1.3195
B( 57-C , 97-H ) :   1.0110 B( 58-C , 59-C ) :   1.2938 B( 58-C , 61-C ) :   1.0561
B( 59-C , 60-C ) :   1.4330 B( 59-C , 98-H ) :   0.9835 B( 60-C , 99-H ) :   0.9980
B( 61-C , 62-C ) :   1.6861 B( 61-C ,100-H ) :   0.9464 B( 62-C , 63-C ) :   0.9401
B( 62-C , 67-C ) :   1.0224 B( 63-C , 64-O ) :   2.2750 B( 63-C , 65-C ) :   0.9175
B( 65-C , 66-C ) :   1.3297 B( 65-C , 76-C ) :   1.3704 B( 66-C , 67-C ) :   1.0034
B( 66-C , 73-C ) :   1.3686 B( 67-C , 68-C ) :   1.6835 B( 68-C , 69-C ) :   1.1528
B( 68-C , 71-C ) :   1.1307 B( 69-C , 70-N ) :   3.0151 B( 71-C , 72-N ) :   2.9927
B( 73-C , 74-C ) :   1.3676 B( 73-C ,101-H ) :   0.9850 B( 74-C , 75-C ) :   1.4208
B( 74-C , 78-Br) :   1.0518 B( 75-C , 76-C ) :   1.3571 B( 75-C , 77-Br) :   1.0339
B( 76-C ,102-H ) :   1.0086

-----------------------------------------------------------------------------
         ABSORPTION SPECTRUM VIA TRANSITION ELECTRIC DIPOLE MOMENTS
-----------------------------------------------------------------------------
State   Energy  Wavelength   fosc         T2         TX        TY        TZ
        (cm-1)    (nm)                  (au**2)     (au)      (au)      (au)
-----------------------------------------------------------------------------
   0   17197.9    581.5   1.237355633  23.68622  -1.55884  -3.62661   2.84674
   1   20337.6    491.7   0.014305373   0.23157  -0.32881   0.35132  -0.00531
   2   20479.8    488.3   0.014004518   0.22512  -0.24723  -0.35959  -0.18626
   3   22006.6    454.4   0.149852032   2.24174  -0.63077  -1.35010   0.14528
   4   22955.4    435.6   0.771958876  11.07096   0.80786   2.15435  -2.40356
   5   23205.4    430.9   0.058606118   0.83144   0.04456  -0.85743   0.30703
   6   23650.3    422.8   0.038446700   0.53518  -0.26153  -0.59299   0.33932
   7   24130.1    414.4   0.169066930   2.30661   0.38587   0.39435  -1.41499
   8   27881.3    358.7   0.256563215   3.02941  -0.58128  -1.45566   0.75668
   9   28461.8    351.3   0.203006816   2.34814  -0.84381  -0.92499   0.88347
  10   29006.3    344.8   0.005942986   0.06745   0.01765  -0.01604   0.25862
  11   29695.4    336.8   0.010576104   0.11725  -0.02481  -0.24148  -0.24150
  12   30049.3    332.8   0.050127063   0.54918  -0.16536  -0.00110  -0.72238
  13   30165.9    331.5   0.047312485   0.51634   0.33959  -0.31960  -0.54669
  14   30384.7    329.1   0.046610419   0.50501  -0.11646   0.10798   0.69267
  15   30399.0    329.0   0.025548803   0.27669   0.13192  -0.04965  -0.50677
  16   31088.0    321.7   0.533961046   5.65448   0.69062   1.95140  -1.17028
  17   31156.9    321.0   0.115460509   1.21998   0.22417   0.98205   0.45310
  18   31963.3    312.9   0.002351775   0.02422  -0.05553  -0.01868   0.14419
  19   32188.4    310.7   0.000601696   0.00615   0.07123   0.00485  -0.03250
  20   32286.2    309.7   0.037451869   0.38188  -0.45790   0.35348   0.21741
  21   32541.5    307.3   0.024946408   0.25237   0.13044   0.20452  -0.43992
  22   32607.0    306.7   0.063596903   0.64210   0.42579  -0.58122  -0.35069
  23   32760.8    305.2   0.083326054   0.83734   0.56756  -0.49221  -0.52244
  24   32956.0    303.4   0.215679571   2.15452  -0.82736   0.63045   1.03563
  25   33234.6    300.9   0.353140266   3.49810  -0.34402  -0.96018   1.56774
  26   33314.0    300.2   0.002664060   0.02633   0.05751   0.09643  -0.11714
  27   34715.5    288.1   0.279591403   2.65141  -0.38664  -1.51387  -0.45838
  28   34803.3    287.3   0.001090515   0.01032  -0.06602   0.06597   0.04006
  29   35077.4    285.1   0.035474673   0.33294   0.21786   0.50423  -0.17670
  30   35283.1    283.4   0.010550516   0.09844  -0.07680  -0.18962   0.23788
  31   35596.1    280.9   0.111930780   1.03520  -0.13214  -0.10194   1.00367
  32   35941.2    278.2   0.401557398   3.67816   0.37489   1.71954   0.76209
  33   35966.4    278.0   0.083202318   0.76158  -0.39336  -0.18477   0.75677
  34   36397.8    274.7   0.154649037   1.39877  -0.41917  -0.33421   1.05422
  35   36558.4    273.5   0.030762765   0.27702  -0.05558  -0.22230   0.47383
  36   36678.7    272.6   0.010226671   0.09179  -0.14880   0.23240   0.12506
  37   36729.7    272.3   0.031860247   0.28557   0.29763   0.40231   0.18743
  38   37022.4    270.1   0.134344458   1.19462   0.39453   0.05311  -1.01791
  39   37453.9    267.0   0.291135700   2.55902   0.59769   0.04021  -1.48330
  40   37698.3    265.3   0.341110998   2.97886  -0.67481  -1.03218   1.20751
  41   37803.1    264.5   0.094427363   0.82233   0.78886  -0.15120  -0.42092
  42   37851.7    264.2   0.109673652   0.95388  -0.09289  -0.92904   0.28660
  43   37921.1    263.7   0.309964651   2.69096   0.42744   1.40479  -0.73131
  44   38308.5    261.0   0.101878136   0.87551   0.11666  -0.78274   0.49922
  45   38642.6    258.8   0.015408765   0.13127   0.17146  -0.25781   0.18816
  46   38737.2    258.1   0.000077279   0.00066  -0.01342  -0.01727  -0.01336
  47   39042.5    256.1   0.020688747   0.17445  -0.06088  -0.40974  -0.05347
  48   39054.6    256.1   0.011723866   0.09883  -0.08425   0.02187  -0.30208
  49   39335.7    254.2   0.017168660   0.14369   0.20507   0.12279   0.29420
  50   39474.3    253.3   0.014592762   0.12170  -0.22656   0.09217   0.24875
  51   39498.1    253.2   0.001046575   0.00872   0.08110   0.04573  -0.00740
  52   39841.0    251.0   0.033780791   0.27914   0.42775  -0.29308  -0.10136
  53   40115.9    249.3   0.127881580   1.04946  -0.20260  -0.83080   0.56409

FINAL SINGLE POINT ENERGY    -13888.389613739115

DIPOLE MOMENT
-------------
                                X             Y             Z
Electronic contribution:     32.30700       3.31778      11.29497
Nuclear contribution   :    -33.11009      -2.16078      -8.51344
                        -----------------------------------------
Total Dipole Moment    :     -0.80309       1.15700       2.78152
                        -----------------------------------------
Magnitude (a.u.)       :      3.11777
Magnitude (Debye)      :      7.92474

Rotational constants in cm-1:     0.002854     0.000086     0.000084
Rotational constants in MHz :    85.563505     2.572497     2.526427

                             ****ORCA TERMINATED NORMALLY****
TOTAL RUN TIME: 0 days 0 hours 11 minutes 25 seconds 94 msec
