                         Program Version 4.2.0 -  RELEASE  -
|  1> # ORCA input file
|  2> # SCF done       -188.563718337429          0.000965196316
|  3> ! CAM-B3LYP def2-SVP def2/J RIJCOSX Grid4 TightSCF
|  4> %maxcore 5000
|  5> %tddft
|  6>     Mode sTDDFT
|  7>     Ethresh 5.0
|  8>     maxcore 5000
|  9> end
| 10>
| 11> %pal
| 12>   nprocs 6
| 13>   end
| 14> * xyz 0 1
| 15>    C       -0.77159       -11.18375        -2.12549
| 16>    O       -1.63624       -10.36959        -1.90928
| 17>    C       -0.96435       -12.61201        -2.44205
| 18>    C        0.28110       -13.24690        -2.60200
| 19>    C        0.32764       -14.60004        -2.89922
| 20>    C       -0.86892       -15.29316        -3.03823
| 21>    C       -2.10277       -14.65120        -2.88526
| 22>    C       -2.15456       -13.29751        -2.58087
| 23>   Br       -3.71065       -15.61802        -3.08853
| 24>   Br       -0.80711       -17.13686        -3.43928
| 25>    C        1.34175       -12.26532        -2.41517
| 26>    C        2.67421       -12.46502        -2.63890
| 27>    C        3.23164       -13.70624        -3.02128
| 28>    N        3.73281       -14.69167        -3.32516
| 29>    C        3.66283       -11.45718        -2.56430
| 30>    N        4.50931       -10.68335        -2.55315
| 31>    C        0.71127       -11.00218        -2.04538
| 32>    C        1.34818        -9.93436        -1.50950
| 33>    C        0.77037        -8.65254        -1.19639
| 34>    C       -0.16189        -8.03711        -1.96289
| 35>    C       -0.72165        -6.75274        -1.69223
| 36>    C       -1.69329        -6.23029        -2.54268
| 37>    C       -2.27204        -4.97043        -2.32215
| 38>    N       -2.72799        -3.93250        -2.13608
| 39>    C       -2.14323        -6.92387        -3.67787
| 40>    N       -2.50322        -7.47930        -4.61656
| 41>    C       -0.27978        -6.00107        -0.57030
| 42>    C        0.67981        -6.39333         0.31473
| 43>    S        1.50365        -7.93924         0.23615
| 44>    C        1.11174        -5.55577         1.38670
| 45>    C        2.10298        -5.87828         2.31366
| 46>    C        2.36996        -4.82682         3.25402
| 47>    N        3.24251        -5.00501         4.25477
| 48>    C        3.82612        -6.17798         4.32686
| 49>    C        4.67974        -6.44309         5.51756
| 50>    O        4.69463        -5.69814         6.47174
| 51>    C        5.46473        -7.68666         5.46330
| 52>    C        5.31545        -8.61153         4.50920
| 53>    C        4.34644        -8.49508         3.40476
| 54>    O        4.15790        -9.37910         2.59975
| 55>    C        3.61216        -7.20035         3.34703
| 56>    N        2.76052        -7.03865         2.36192
| 57>    C        1.56496        -3.70817         3.04659
| 58>    S        0.49259        -3.97322         1.71316
| 59>    C        1.54361        -2.51209         3.83531
| 60>    C        0.41480        -1.77806         4.00690
| 61>    C        0.31696        -0.61113         4.81785
| 62>    C       -0.90568         0.03907         4.95423
| 63>    C       -1.05517         1.20278         5.72631
| 64>    N       -1.17543         2.15830         6.35198
| 65>    C       -2.06932        -0.43100         4.32327
| 66>    N       -3.01513        -0.82755         3.80639
| 67>    C        1.47434        -0.09918         5.47236
| 68>    C        2.72167        -0.64415         5.43974
| 69>    S        3.09041        -2.11639         4.55504
| 70>    C        3.80965         0.07444         6.04012
| 71>    C        5.11822        -0.23008         6.18652
| 72>    C        6.07740         0.91008         6.37612
| 73>    O        5.80756         2.02531         6.73919
| 74>    C        7.38157         0.37324         5.94110
| 75>    C        7.26537        -1.00730         5.68683
| 76>    C        5.91247        -1.43864         6.03744
| 77>    C        5.56440        -2.69080         6.46047
| 78>    C        4.32571        -2.94164         7.09576
| 79>    N        3.34463        -3.07797         7.67237
| 80>    C        6.47916        -3.76390         6.40841
| 81>    N        7.25582        -4.60504         6.34138
| 82>    C        8.35627        -1.71203         5.20815
| 83>    C        9.55232        -1.03198         5.00812
| 84>    C        9.66764         0.33301         5.28865
| 85>    C        8.57226         1.04712         5.75631
| 86>   Br       11.31046         1.22543         5.02370
| 87>   Br       11.03556        -1.98898         4.33911
| 88>    H        1.25929       -15.12880        -3.01996
| 89>    H       -3.09879       -12.78948        -2.45973
| 90>    H        2.39019       -10.03538        -1.22821
| 91>    H       -0.50028        -8.53115        -2.86250
| 92>    H       -0.73129        -5.02692        -0.42128
| 93>    H        6.17056        -7.81361         6.27246
| 94>    H        5.89654        -9.52364         4.51352
| 95>    H       -0.48938        -2.11766         3.51657
| 96>    H        1.34012         0.80996         6.04529
| 97>    H        3.56251         1.09483         6.32174
| 98>    H        8.30175        -2.76336         4.97699
| 99>    H        8.64714         2.10229         5.96882
|100> *
|101>
|102>                          ****END OF INPUT****

CARTESIAN COORDINATES (ANGSTROEM)
---------------------------------
  C     -0.771590  -11.183750   -2.125490
  O     -1.636240  -10.369590   -1.909280
  C     -0.964350  -12.612010   -2.442050
  C      0.281100  -13.246900   -2.602000
  C      0.327640  -14.600040   -2.899220
  C     -0.868920  -15.293160   -3.038230
  C     -2.102770  -14.651200   -2.885260
  C     -2.154560  -13.297510   -2.580870
  Br    -3.710650  -15.618020   -3.088530
  Br    -0.807110  -17.136860   -3.439280
  C      1.341750  -12.265320   -2.415170
  C      2.674210  -12.465020   -2.638900
  C      3.231640  -13.706240   -3.021280
  N      3.732810  -14.691670   -3.325160
  C      3.662830  -11.457180   -2.564300
  N      4.509310  -10.683350   -2.553150
  C      0.711270  -11.002180   -2.045380
  C      1.348180   -9.934360   -1.509500
  C      0.770370   -8.652540   -1.196390
  C     -0.161890   -8.037110   -1.962890
  C     -0.721650   -6.752740   -1.692230
  C     -1.693290   -6.230290   -2.542680
  C     -2.272040   -4.970430   -2.322150
  N     -2.727990   -3.932500   -2.136080
  C     -2.143230   -6.923870   -3.677870
  N     -2.503220   -7.479300   -4.616560
  C     -0.279780   -6.001070   -0.570300
  C      0.679810   -6.393330    0.314730
  S      1.503650   -7.939240    0.236150
  C      1.111740   -5.555770    1.386700
  C      2.102980   -5.878280    2.313660
  C      2.369960   -4.826820    3.254020
  N      3.242510   -5.005010    4.254770
  C      3.826120   -6.177980    4.326860
  C      4.679740   -6.443090    5.517560
  O      4.694630   -5.698140    6.471740
  C      5.464730   -7.686660    5.463300
  C      5.315450   -8.611530    4.509200
  C      4.346440   -8.495080    3.404760
  O      4.157900   -9.379100    2.599750
  C      3.612160   -7.200350    3.347030
  N      2.760520   -7.038650    2.361920
  C      1.564960   -3.708170    3.046590
  S      0.492590   -3.973220    1.713160
  C      1.543610   -2.512090    3.835310
  C      0.414800   -1.778060    4.006900
  C      0.316960   -0.611130    4.817850
  C     -0.905680    0.039070    4.954230
  C     -1.055170    1.202780    5.726310
  N     -1.175430    2.158300    6.351980
  C     -2.069320   -0.431000    4.323270
  N     -3.015130   -0.827550    3.806390
  C      1.474340   -0.099180    5.472360
  C      2.721670   -0.644150    5.439740
  S      3.090410   -2.116390    4.555040
  C      3.809650    0.074440    6.040120
  C      5.118220   -0.230080    6.186520
  C      6.077400    0.910080    6.376120
  O      5.807560    2.025310    6.739190
  C      7.381570    0.373240    5.941100
  C      7.265370   -1.007300    5.686830
  C      5.912470   -1.438640    6.037440
  C      5.564400   -2.690800    6.460470
  C      4.325710   -2.941640    7.095760
  N      3.344630   -3.077970    7.672370
  C      6.479160   -3.763900    6.408410
  N      7.255820   -4.605040    6.341380
  C      8.356270   -1.712030    5.208150
  C      9.552320   -1.031980    5.008120
  C      9.667640    0.333010    5.288650
  C      8.572260    1.047120    5.756310
  Br    11.310460    1.225430    5.023700
  Br    11.035560   -1.988980    4.339110
  H      1.259290  -15.128800   -3.019960
  H     -3.098790  -12.789480   -2.459730
  H      2.390190  -10.035380   -1.228210
  H     -0.500280   -8.531150   -2.862500
  H     -0.731290   -5.026920   -0.421280
  H      6.170560   -7.813610    6.272460
  H      5.896540   -9.523640    4.513520
  H     -0.489380   -2.117660    3.516570
  H      1.340120    0.809960    6.045290
  H      3.562510    1.094830    6.321740
  H      8.301750   -2.763360    4.976990
  H      8.647140    2.102290    5.968820

 Total Charge           Charge          ....    0
 Multiplicity           Mult            ....    1
 Number of Electrons    NEL             ....  614
 Basis Dimension        Dim             .... 1166

ORBITAL ENERGIES
----------------

  NO   OCC          E(Eh)            E(eV)
   0   2.0000    -482.890813    -13140.1271
   1   2.0000    -482.890605    -13140.1214
   2   2.0000    -482.888256    -13140.0575
   3   2.0000    -482.887725    -13140.0430
   4   2.0000     -89.038941     -2422.8728
   5   2.0000     -89.003737     -2421.9148
   6   2.0000     -88.995248     -2421.6838
   7   2.0000     -62.568448     -1702.5740
   8   2.0000     -62.568194     -1702.5671
   9   2.0000     -62.565870     -1702.5039
  10   2.0000     -62.565333     -1702.4893
  11   2.0000     -56.402417     -1534.7878
  12   2.0000     -56.402166     -1534.7810
  13   2.0000     -56.399837     -1534.7176
  14   2.0000     -56.399731     -1534.7147
  15   2.0000     -56.399637     -1534.7121
  16   2.0000     -56.399483     -1534.7080
  17   2.0000     -56.399380     -1534.7051
  18   2.0000     -56.399310     -1534.7032
  19   2.0000     -56.397163     -1534.6448
  20   2.0000     -56.397049     -1534.6417
  21   2.0000     -56.396622     -1534.6301
  22   2.0000     -56.396513     -1534.6271
  23   2.0000     -19.254616      -523.9447
  24   2.0000     -19.253726      -523.9205
  25   2.0000     -19.245876      -523.7069
  26   2.0000     -19.245505      -523.6968
  27   2.0000     -14.482788      -394.0967
  28   2.0000     -14.482486      -394.0885
  29   2.0000     -14.438709      -392.8972
  30   2.0000     -14.438565      -392.8933
  31   2.0000     -14.437787      -392.8722
  32   2.0000     -14.429009      -392.6333
  33   2.0000     -14.416827      -392.3018
  34   2.0000     -14.416001      -392.2793
  35   2.0000     -14.413475      -392.2106
  36   2.0000     -14.410540      -392.1307
  37   2.0000     -10.402941      -283.0784
  38   2.0000     -10.402215      -283.0587
  39   2.0000     -10.397866      -282.9403
  40   2.0000     -10.397011      -282.9171
  41   2.0000     -10.378412      -282.4110
  42   2.0000     -10.375658      -282.3360
  43   2.0000     -10.374976      -282.3175
  44   2.0000     -10.374705      -282.3101
  45   2.0000     -10.374196      -282.2962
  46   2.0000     -10.372965      -282.2627
  47   2.0000     -10.372269      -282.2438
  48   2.0000     -10.371886      -282.2334
  49   2.0000     -10.371233      -282.2156
  50   2.0000     -10.371147      -282.2132
  51   2.0000     -10.370149      -282.1861
  52   2.0000     -10.369714      -282.1743
  53   2.0000     -10.369327      -282.1637
  54   2.0000     -10.368780      -282.1488
  55   2.0000     -10.368688      -282.1463
  56   2.0000     -10.368039      -282.1287
  57   2.0000     -10.367003      -282.1005
  58   2.0000     -10.354455      -281.7590
  59   2.0000     -10.354258      -281.7537
  60   2.0000     -10.349161      -281.6150
  61   2.0000     -10.348619      -281.6003
  62   2.0000     -10.348006      -281.5835
  63   2.0000     -10.344301      -281.4827
  64   2.0000     -10.341745      -281.4132
  65   2.0000     -10.339679      -281.3570
  66   2.0000     -10.339039      -281.3396
  67   2.0000     -10.338942      -281.3369
  68   2.0000     -10.338760      -281.3320
  69   2.0000     -10.335723      -281.2493
  70   2.0000     -10.335716      -281.2491
  71   2.0000     -10.335227      -281.2358
  72   2.0000     -10.335187      -281.2347
  73   2.0000     -10.333345      -281.1846
  74   2.0000     -10.331386      -281.1313
  75   2.0000     -10.331304      -281.1291
  76   2.0000     -10.331202      -281.1263
  77   2.0000     -10.330466      -281.1063
  78   2.0000     -10.329584      -281.0823
  79   2.0000     -10.329112      -281.0694
  80   2.0000     -10.326930      -281.0100
  81   2.0000     -10.326679      -281.0032
  82   2.0000     -10.325898      -280.9820
  83   2.0000     -10.323810      -280.9252
  84   2.0000     -10.321188      -280.8538
  85   2.0000     -10.318495      -280.7805
  86   2.0000     -10.317856      -280.7631
  87   2.0000     -10.315454      -280.6978
  88   2.0000     -10.312933      -280.6292
  89   2.0000      -8.797795      -239.4002
  90   2.0000      -8.797513      -239.3925
  91   2.0000      -8.795216      -239.3300
  92   2.0000      -8.794663      -239.3149
  93   2.0000      -8.132592      -221.2991
  94   2.0000      -8.098213      -220.3636
  95   2.0000      -8.089627      -220.1299
  96   2.0000      -6.634006      -180.5205
  97   2.0000      -6.633722      -180.5128
  98   2.0000      -6.631425      -180.4503
  99   2.0000      -6.630894      -180.4358
 100   2.0000      -6.619898      -180.1366
 101   2.0000      -6.619613      -180.1288
 102   2.0000      -6.619056      -180.1137
 103   2.0000      -6.618787      -180.1063
 104   2.0000      -6.617335      -180.0669
 105   2.0000      -6.616756      -180.0511
 106   2.0000      -6.616464      -180.0432
 107   2.0000      -6.615912      -180.0281
 108   2.0000      -6.101499      -166.0302
 109   2.0000      -6.097373      -165.9179
 110   2.0000      -6.095675      -165.8717
 111   2.0000      -6.068130      -165.1222
 112   2.0000      -6.063483      -164.9958
 113   2.0000      -6.059613      -164.8904
 114   2.0000      -6.059315      -164.8824
 115   2.0000      -6.054843      -164.7606
 116   2.0000      -6.050548      -164.6438
 117   2.0000      -2.749878       -74.8280
 118   2.0000      -2.749597       -74.8203
 119   2.0000      -2.747296       -74.7577
 120   2.0000      -2.746772       -74.7435
 121   2.0000      -2.746127       -74.7259
 122   2.0000      -2.745795       -74.7169
 123   2.0000      -2.745481       -74.7083
 124   2.0000      -2.745230       -74.7015
 125   2.0000      -2.743560       -74.6561
 126   2.0000      -2.742972       -74.6401
 127   2.0000      -2.742883       -74.6376
 128   2.0000      -2.742375       -74.6238
 129   2.0000      -2.734244       -74.4026
 130   2.0000      -2.734237       -74.4024
 131   2.0000      -2.733970       -74.3951
 132   2.0000      -2.733953       -74.3947
 133   2.0000      -2.731667       -74.3324
 134   2.0000      -2.731654       -74.3321
 135   2.0000      -2.731092       -74.3168
 136   2.0000      -2.731087       -74.3167
 137   2.0000      -1.173406       -31.9300
 138   2.0000      -1.167995       -31.7828
 139   2.0000      -1.162967       -31.6459
 140   2.0000      -1.162341       -31.6289
 141   2.0000      -1.136137       -30.9158
 142   2.0000      -1.064669       -28.9711
 143   2.0000      -1.051989       -28.6261
 144   2.0000      -1.046391       -28.4738
 145   2.0000      -1.044911       -28.4335
 146   2.0000      -1.028998       -28.0005
 147   2.0000      -1.026828       -27.9414
 148   2.0000      -1.025573       -27.9073
 149   2.0000      -1.020733       -27.7756
 150   2.0000      -1.016194       -27.6520
 151   2.0000      -1.013400       -27.5760
 152   2.0000      -1.007435       -27.4137
 153   2.0000      -1.003397       -27.3038
 154   2.0000      -0.996209       -27.1082
 155   2.0000      -0.994732       -27.0680
 156   2.0000      -0.994388       -27.0587
 157   2.0000      -0.990269       -26.9466
 158   2.0000      -0.966150       -26.2903
 159   2.0000      -0.961563       -26.1655
 160   2.0000      -0.955192       -25.9921
 161   2.0000      -0.951217       -25.8839
 162   2.0000      -0.939914       -25.5764
 163   2.0000      -0.939015       -25.5519
 164   2.0000      -0.937456       -25.5095
 165   2.0000      -0.928150       -25.2562
 166   2.0000      -0.925938       -25.1961
 167   2.0000      -0.911477       -24.8025
 168   2.0000      -0.908932       -24.7333
 169   2.0000      -0.902852       -24.5679
 170   2.0000      -0.877569       -23.8799
 171   2.0000      -0.870571       -23.6894
 172   2.0000      -0.869369       -23.6567
 173   2.0000      -0.868417       -23.6308
 174   2.0000      -0.866123       -23.5684
 175   2.0000      -0.863150       -23.4875
 176   2.0000      -0.858442       -23.3594
 177   2.0000      -0.824566       -22.4376
 178   2.0000      -0.822347       -22.3772
 179   2.0000      -0.807463       -21.9722
 180   2.0000      -0.803998       -21.8779
 181   2.0000      -0.794701       -21.6249
 182   2.0000      -0.786618       -21.4050
 183   2.0000      -0.786183       -21.3931
 184   2.0000      -0.781003       -21.2522
 185   2.0000      -0.761569       -20.7233
 186   2.0000      -0.755906       -20.5693
 187   2.0000      -0.739077       -20.1113
 188   2.0000      -0.731585       -19.9074
 189   2.0000      -0.727019       -19.7832
 190   2.0000      -0.716078       -19.4855
 191   2.0000      -0.714706       -19.4481
 192   2.0000      -0.710884       -19.3441
 193   2.0000      -0.705309       -19.1924
 194   2.0000      -0.698237       -19.0000
 195   2.0000      -0.695763       -18.9327
 196   2.0000      -0.687619       -18.7111
 197   2.0000      -0.679410       -18.4877
 198   2.0000      -0.670803       -18.2535
 199   2.0000      -0.670182       -18.2366
 200   2.0000      -0.658179       -17.9100
 201   2.0000      -0.643466       -17.5096
 202   2.0000      -0.640035       -17.4162
 203   2.0000      -0.638014       -17.3613
 204   2.0000      -0.636719       -17.3260
 205   2.0000      -0.628831       -17.1114
 206   2.0000      -0.627818       -17.0838
 207   2.0000      -0.619469       -16.8566
 208   2.0000      -0.609827       -16.5942
 209   2.0000      -0.608170       -16.5492
 210   2.0000      -0.605155       -16.4671
 211   2.0000      -0.600961       -16.3530
 212   2.0000      -0.596806       -16.2399
 213   2.0000      -0.591557       -16.0971
 214   2.0000      -0.589988       -16.0544
 215   2.0000      -0.585218       -15.9246
 216   2.0000      -0.583611       -15.8809
 217   2.0000      -0.576015       -15.6742
 218   2.0000      -0.569172       -15.4880
 219   2.0000      -0.568645       -15.4736
 220   2.0000      -0.567917       -15.4538
 221   2.0000      -0.565589       -15.3905
 222   2.0000      -0.565178       -15.3793
 223   2.0000      -0.562018       -15.2933
 224   2.0000      -0.557454       -15.1691
 225   2.0000      -0.557312       -15.1652
 226   2.0000      -0.553636       -15.0652
 227   2.0000      -0.551859       -15.0169
 228   2.0000      -0.548333       -14.9209
 229   2.0000      -0.544469       -14.8158
 230   2.0000      -0.538010       -14.6400
 231   2.0000      -0.536358       -14.5950
 232   2.0000      -0.534142       -14.5347
 233   2.0000      -0.533843       -14.5266
 234   2.0000      -0.528646       -14.3852
 235   2.0000      -0.526511       -14.3271
 236   2.0000      -0.520516       -14.1639
 237   2.0000      -0.519568       -14.1382
 238   2.0000      -0.518634       -14.1127
 239   2.0000      -0.515821       -14.0362
 240   2.0000      -0.514866       -14.0102
 241   2.0000      -0.508242       -13.8300
 242   2.0000      -0.507487       -13.8094
 243   2.0000      -0.503556       -13.7024
 244   2.0000      -0.497804       -13.5459
 245   2.0000      -0.496690       -13.5156
 246   2.0000      -0.485470       -13.2103
 247   2.0000      -0.482143       -13.1198
 248   2.0000      -0.481588       -13.1047
 249   2.0000      -0.479785       -13.0556
 250   2.0000      -0.478542       -13.0218
 251   2.0000      -0.476465       -12.9653
 252   2.0000      -0.475237       -12.9318
 253   2.0000      -0.474101       -12.9009
 254   2.0000      -0.470339       -12.7986
 255   2.0000      -0.468893       -12.7592
 256   2.0000      -0.467019       -12.7082
 257   2.0000      -0.463742       -12.6191
 258   2.0000      -0.461740       -12.5646
 259   2.0000      -0.458596       -12.4790
 260   2.0000      -0.451469       -12.2851
 261   2.0000      -0.449509       -12.2318
 262   2.0000      -0.448912       -12.2155
 263   2.0000      -0.448284       -12.1984
 264   2.0000      -0.446353       -12.1459
 265   2.0000      -0.445282       -12.1167
 266   2.0000      -0.444803       -12.1037
 267   2.0000      -0.443717       -12.0742
 268   2.0000      -0.441634       -12.0175
 269   2.0000      -0.440915       -11.9979
 270   2.0000      -0.439173       -11.9505
 271   2.0000      -0.432804       -11.7772
 272   2.0000      -0.432147       -11.7593
 273   2.0000      -0.430930       -11.7262
 274   2.0000      -0.429236       -11.6801
 275   2.0000      -0.428518       -11.6606
 276   2.0000      -0.426165       -11.5965
 277   2.0000      -0.423762       -11.5312
 278   2.0000      -0.422101       -11.4860
 279   2.0000      -0.415633       -11.3099
 280   2.0000      -0.415119       -11.2960
 281   2.0000      -0.413045       -11.2395
 282   2.0000      -0.411004       -11.1840
 283   2.0000      -0.406837       -11.0706
 284   2.0000      -0.404394       -11.0041
 285   2.0000      -0.401642       -10.9292
 286   2.0000      -0.400162       -10.8889
 287   2.0000      -0.395395       -10.7592
 288   2.0000      -0.394188       -10.7264
 289   2.0000      -0.392530       -10.6813
 290   2.0000      -0.389641       -10.6027
 291   2.0000      -0.380749       -10.3607
 292   2.0000      -0.372981       -10.1493
 293   2.0000      -0.370498       -10.0818
 294   2.0000      -0.368863       -10.0373
 295   2.0000      -0.363328        -9.8867
 296   2.0000      -0.360801        -9.8179
 297   2.0000      -0.358531        -9.7561
 298   2.0000      -0.357339        -9.7237
 299   2.0000      -0.355102        -9.6628
 300   2.0000      -0.347377        -9.4526
 301   2.0000      -0.342457        -9.3187
 302   2.0000      -0.328450        -8.9376
 303   2.0000      -0.326736        -8.8909
 304   2.0000      -0.318916        -8.6781
 305   2.0000      -0.290540        -7.9060
 306   2.0000      -0.282566        -7.6890
 307   0.0000      -0.141904        -3.8614
 308   0.0000      -0.123169        -3.3516
 309   0.0000      -0.118577        -3.2266
 310   0.0000      -0.113132        -3.0785
 311   0.0000      -0.089906        -2.4465

MULLIKEN ATOMIC CHARGES
-----------------------
   0 C :    0.155779
   1 O :   -0.119519
   2 C :   -0.025744
   3 C :    0.045414
   4 C :   -0.007339
   5 C :   -0.023496
   6 C :   -0.015520
   7 C :   -0.008984
   8 Br:    0.030031
   9 Br:    0.034520
  10 C :    0.276388
  11 C :   -0.312425
  12 C :   -0.185813
  13 N :    0.172636
  14 C :   -0.206314
  15 N :    0.180053
  16 C :   -0.064799
  17 C :    0.011398
  18 C :   -0.050856
  19 C :    0.008522
  20 C :    0.249149
  21 C :   -0.326652
  22 C :   -0.168693
  23 N :    0.139392
  24 C :   -0.163491
  25 N :    0.139462
  26 C :   -0.153555
  27 C :    0.028632
  28 S :    0.179842
  29 C :   -0.138194
  30 C :    0.042984
  31 C :    0.057958
  32 N :    0.059503
  33 C :   -0.102548
  34 C :    0.152225
  35 O :   -0.105317
  36 C :    0.009918
  37 C :   -0.018619
  38 C :    0.152152
  39 O :   -0.097908
  40 C :   -0.118174
  41 N :    0.035621
  42 C :   -0.162627
  43 S :    0.268414
  44 C :    0.013588
  45 C :   -0.109239
  46 C :    0.278399
  47 C :   -0.323899
  48 C :   -0.166071
  49 N :    0.147293
  50 C :   -0.172411
  51 N :    0.145756
  52 C :   -0.078987
  53 C :    0.001590
  54 S :    0.175213
  55 C :    0.023444
  56 C :   -0.097951
  57 C :    0.143188
  58 O :   -0.115666
  59 C :    0.002215
  60 C :    0.030660
  61 C :    0.192340
  62 C :   -0.262354
  63 C :   -0.181158
  64 N :    0.187285
  65 C :   -0.154206
  66 N :    0.138858
  67 C :   -0.005730
  68 C :   -0.022008
  69 C :   -0.017635
  70 C :   -0.015706
  71 Br:    0.026884
  72 Br:    0.029519
  73 H :    0.010743
  74 H :    0.014917
  75 H :    0.054784
  76 H :    0.029802
  77 H :    0.028416
  78 H :    0.034886
  79 H :    0.028739
  80 H :    0.029257
  81 H :    0.038049
  82 H :    0.040247
  83 H :    0.009481
  84 H :    0.014061
Sum of atomic charges:   -0.0000000

LOEWDIN ATOMIC CHARGES
----------------------
   0 C :    0.085239
   1 O :   -0.112322
   2 C :   -0.043088
   3 C :   -0.011898
   4 C :   -0.005349
   5 C :   -0.114986
   6 C :   -0.119668
   7 C :    0.013528
   8 Br:    0.150198
   9 Br:    0.151925
  10 C :    0.069099
  11 C :   -0.114980
  12 C :   -0.019499
  13 N :   -0.029556
  14 C :   -0.025067
  15 N :   -0.030075
  16 C :   -0.061432
  17 C :    0.045562
  18 C :   -0.147976
  19 C :    0.015166
  20 C :    0.039371
  21 C :   -0.148065
  22 C :   -0.030673
  23 N :   -0.054403
  24 C :   -0.028561
  25 N :   -0.053449
  26 C :   -0.030859
  27 C :   -0.138835
  28 S :    0.487199
  29 C :   -0.189746
  30 C :   -0.045254
  31 C :   -0.043992
  32 N :   -0.004775
  33 C :   -0.028184
  34 C :    0.067019
  35 O :   -0.073936
  36 C :   -0.000059
  37 C :   -0.008879
  38 C :    0.058361
  39 O :   -0.091807
  40 C :   -0.027187
  41 N :   -0.007753
  42 C :   -0.190057
  43 S :    0.573618
  44 C :   -0.136178
  45 C :   -0.031703
  46 C :    0.037307
  47 C :   -0.145865
  48 C :   -0.031403
  49 N :   -0.048572
  50 C :   -0.030939
  51 N :   -0.048671
  52 C :    0.003622
  53 C :   -0.133035
  54 S :    0.495540
  55 C :    0.040888
  56 C :   -0.063713
  57 C :    0.088477
  58 O :   -0.115710
  59 C :   -0.046601
  60 C :   -0.006937
  61 C :    0.049422
  62 C :   -0.110896
  63 C :   -0.040720
  64 N :   -0.030409
  65 C :   -0.012712
  66 N :   -0.048778
  67 C :   -0.009120
  68 C :   -0.115084
  69 C :   -0.122638
  70 C :    0.011867
  71 Br:    0.146910
  72 Br:    0.149667
  73 H :    0.045686
  74 H :    0.050026
  75 H :    0.048389
  76 H :    0.048361
  77 H :    0.039368
  78 H :    0.053727
  79 H :    0.050359
  80 H :    0.042643
  81 H :    0.053652
  82 H :    0.057182
  83 H :    0.043326
  84 H :    0.049347

  Mayer bond orders larger than 0.100000
B(  0-C ,  1-O ) :   2.2463 B(  0-C ,  2-C ) :   0.9476 B(  0-C , 16-C ) :   0.9154
B(  2-C ,  3-C ) :   1.3193 B(  2-C ,  7-C ) :   1.3687 B(  3-C ,  4-C ) :   1.3545
B(  3-C , 10-C ) :   1.0101 B(  4-C ,  5-C ) :   1.3772 B(  4-C , 73-H ) :   0.9814
B(  5-C ,  6-C ) :   1.4076 B(  5-C ,  9-Br) :   1.0650 B(  6-C ,  7-C ) :   1.3567
B(  6-C ,  8-Br) :   1.0443 B(  7-C , 74-H ) :   1.0086 B( 10-C , 11-C ) :   1.6820
B( 10-C , 16-C ) :   1.0349 B( 11-C , 12-C ) :   1.1347 B( 11-C , 14-C ) :   1.1350
B( 12-C , 13-N ) :   2.9790 B( 14-C , 15-N ) :   3.0017 B( 16-C , 17-C ) :   1.7369
B( 17-C , 18-C ) :   1.0414 B( 17-C , 75-H ) :   0.9288 B( 18-C , 19-C ) :   1.6309
B( 18-C , 28-S ) :   1.0185 B( 19-C , 20-C ) :   1.1471 B( 19-C , 76-H ) :   0.9509
B( 20-C , 21-C ) :   1.5314 B( 20-C , 26-C ) :   1.1377 B( 21-C , 22-C ) :   1.1332
B( 21-C , 24-C ) :   1.1314 B( 22-C , 23-N ) :   2.9902 B( 24-C , 25-N ) :   2.9952
B( 26-C , 27-C ) :   1.5418 B( 26-C , 77-H ) :   0.9685 B( 27-C , 28-S ) :   1.0858
B( 27-C , 29-C ) :   1.1811 B( 29-C , 30-C ) :   1.3249 B( 29-C , 42-C ) :   0.1289
B( 29-C , 43-S ) :   1.1904 B( 30-C , 31-C ) :   1.2058 B( 30-C , 41-N ) :   1.3845
B( 31-C , 32-N ) :   1.4130 B( 31-C , 42-C ) :   1.3390 B( 32-N , 33-C ) :   1.7380
B( 33-C , 34-C ) :   0.8914 B( 33-C , 40-C ) :   1.0962 B( 34-C , 35-O ) :   2.1622
B( 34-C , 36-C ) :   1.0297 B( 36-C , 37-C ) :   1.6792 B( 36-C , 78-H ) :   0.9970
B( 37-C , 38-C ) :   1.0248 B( 37-C , 79-H ) :   0.9950 B( 38-C , 39-O ) :   2.2525
B( 38-C , 40-C ) :   0.8823 B( 40-C , 41-N ) :   1.7233 B( 42-C , 43-S ) :   1.2030
B( 42-C , 44-C ) :   1.0964 B( 44-C , 45-C ) :   1.5763 B( 44-C , 54-S ) :   1.0963
B( 45-C , 46-C ) :   1.1356 B( 45-C , 80-H ) :   0.9651 B( 46-C , 47-C ) :   1.5431
B( 46-C , 52-C ) :   1.0850 B( 47-C , 48-C ) :   1.1311 B( 47-C , 50-C ) :   1.1336
B( 48-C , 49-N ) :   2.9949 B( 50-C , 51-N ) :   2.9944 B( 52-C , 53-C ) :   1.5848
B( 52-C , 81-H ) :   0.9771 B( 53-C , 54-S ) :   1.0493 B( 53-C , 55-C ) :   1.0959
B( 55-C , 56-C ) :   1.7165 B( 55-C , 82-H ) :   0.9400 B( 56-C , 57-C ) :   0.9225
B( 56-C , 61-C ) :   0.9951 B( 57-C , 58-O ) :   2.2771 B( 57-C , 59-C ) :   0.9296
B( 59-C , 60-C ) :   1.3271 B( 59-C , 70-C ) :   1.3718 B( 60-C , 61-C ) :   1.0037
B( 60-C , 67-C ) :   1.3699 B( 61-C , 62-C ) :   1.7102 B( 62-C , 63-C ) :   1.1366
B( 62-C , 65-C ) :   1.1422 B( 63-C , 64-N ) :   3.0175 B( 65-C , 66-N ) :   2.9508
B( 67-C , 68-C ) :   1.3708 B( 67-C , 83-H ) :   0.9846 B( 68-C , 69-C ) :   1.4130
B( 68-C , 72-Br) :   1.0549 B( 69-C , 70-C ) :   1.3628 B( 69-C , 71-Br) :   1.0411
B( 70-C , 84-H ) :   1.0073

-----------------------------------------------------------------------------
         ABSORPTION SPECTRUM VIA TRANSITION ELECTRIC DIPOLE MOMENTS
-----------------------------------------------------------------------------
State   Energy  Wavelength   fosc         T2         TX        TY        TZ
        (cm-1)    (nm)                  (au**2)     (au)      (au)      (au)
-----------------------------------------------------------------------------
   0   15084.7    662.9   0.213712771   4.66412   0.60759   1.00168   1.81428
   1   16425.9    608.8   0.072800730   1.45909  -0.91295   0.78955  -0.04719
   2   19405.3    515.3   0.100940398   1.71246   0.63274  -0.93746   0.65823
   3   19967.5    500.8   0.371283561   6.12149   1.87894  -1.58522  -0.27957
   4   21349.0    468.4   0.431586764   6.65529  -1.15275  -1.67648  -1.58615
   5   22448.7    445.5   0.074988195   1.09971  -0.75048   0.26286  -0.68366
   6   23392.3    427.5   0.014396840   0.20261   0.01395  -0.42834  -0.13764
   7   23812.3    420.0   0.054063764   0.74745   0.79523  -0.31041   0.13677
   8   24231.8    412.7   0.023307718   0.31666  -0.22554  -0.19382  -0.47773
   9   25250.3    396.0   0.019018068   0.24796   0.28796  -0.40547  -0.02504
  10   25739.9    388.5   0.029773588   0.38080  -0.19510   0.47222   0.34605
  11   25987.0    384.8   0.007502485   0.09504  -0.05549   0.29347   0.07642
  12   26325.7    379.9   0.024194647   0.30256   0.49951   0.09028  -0.21190
  13   26614.4    375.7   0.003366723   0.04165  -0.04100   0.03074   0.19753
  14   27377.0    365.3   0.135212671   1.62595  -0.83622  -0.95827  -0.09168
  15   27587.8    362.5   0.015494481   0.18490   0.37842   0.18040   0.09567
  16   27836.7    359.2   0.040788761   0.48239   0.48856  -0.06634   0.48918
  17   28102.5    355.8   0.033464640   0.39203   0.60836   0.10093  -0.10835
  18   28191.1    354.7   0.015674100   0.18304   0.10132  -0.26648   0.31901
  19   28743.7    347.9   0.176129103   2.01727   1.36382   0.33601   0.21060
  20   29046.1    344.3   0.074882119   0.84872   0.60690  -0.49145  -0.48874
  21   29272.0    341.6   0.101140346   1.13749  -0.61371  -0.27107   0.82908
  22   29574.4    338.1   0.124422380   1.38503  -0.06154   0.91492   0.73767
  23   30025.3    333.1   0.018729101   0.20535   0.16289   0.18297   0.38124
  24   30510.7    327.8   0.097943939   1.05682   0.96801  -0.02447   0.34522
  25   30652.7    326.2   0.191565822   2.05743   0.93374  -1.08725  -0.05869
  26   31479.0    317.7   0.286171404   2.99282   1.53949  -0.77758   0.13473
  27   31751.4    314.9   0.055907952   0.57968   0.61600   0.25325   0.36890
  28   31893.7    313.5   0.013796203   0.14241  -0.10930  -0.29942   0.20201
  29   31947.4    313.0   0.020638900   0.21268  -0.21831   0.33986  -0.22252
  30   32052.1    312.0   0.014489154   0.14882  -0.34873  -0.06601  -0.15117
  31   32243.5    310.1   0.019462681   0.19872   0.03014  -0.43283   0.10233
  32   32613.9    306.6   0.024124447   0.24352  -0.29101   0.33201  -0.22047
  33   32953.7    303.5   0.047851148   0.47804  -0.30086  -0.58676   0.20792
  34   33352.7    299.8   0.035484536   0.35025  -0.39422   0.25586  -0.35970
  35   33646.4    297.2   0.161213764   1.57739   0.96002   0.78991   0.17831
  36   33707.6    296.7   0.371924849   3.63248   1.37572   1.31899  -0.01224
  37   33878.3    295.2   0.099951956   0.97128   0.63407   0.64170  -0.39682
  38   34141.7    292.9   0.107103422   1.03275  -0.98283   0.03649  -0.25587
  39   34367.0    291.0   0.365626935   3.50245   1.80404   0.08847   0.48998
  40   34448.5    290.3   0.509998024   4.87386  -2.07620   0.71809  -0.21823
  41   34834.6    287.1   0.284803887   2.69160   0.30058  -1.58696   0.28775
  42   34943.8    286.2   0.140348205   1.32225   0.29277   0.16447   1.09977
  43   35134.3    284.6   0.124952282   1.17081   0.95370  -0.49060   0.14348
  44   35215.8    284.0   0.041395328   0.38698   0.29007  -0.53008   0.14782
  45   35331.9    283.0   0.101891507   0.94939  -0.15960   0.94193   0.19152
  46   35486.8    281.8   0.186395525   1.72920   0.32346   1.27342  -0.05442
  47   35582.5    281.0   0.471682158   4.36404   1.55833  -0.86446   1.09012
  48   35826.8    279.1   0.000644151   0.00592   0.06388  -0.01796  -0.03893
  49   36087.3    277.1   0.052274863   0.47689  -0.35060  -0.13299  -0.57990
  50   36342.5    275.2   0.041846682   0.37907  -0.60069  -0.08642   0.10383
  51   36362.3    275.0   0.061273679   0.55475   0.67065   0.31851  -0.05948
  52   36451.0    274.3   0.038758643   0.35005   0.22591   0.50893   0.20001
  53   36748.6    272.1   0.265761531   2.38082  -0.22797   1.51471   0.18577
  54   36902.9    271.0   0.155061703   1.38331  -0.87370   0.55182   0.56165
  55   37035.8    270.0   0.066619534   0.59218   0.05161  -0.66439  -0.38485
  56   37120.2    269.4   0.058436855   0.51827  -0.02801   0.71483   0.08058
  57   37223.6    268.6   0.053211745   0.47061   0.09990  -0.55564  -0.38974
  58   37290.3    268.2   0.021815150   0.19259  -0.41483   0.13593   0.04505
  59   37665.7    265.5   0.089064298   0.77845   0.87572  -0.10456  -0.02538
  60   37873.3    264.0   0.049094522   0.42675   0.39040   0.43960   0.28477
  61   37924.7    263.7   0.030914008   0.26835  -0.37875  -0.35325   0.01053
  62   38088.3    262.5   0.005988538   0.05176   0.01918   0.14539   0.17394
  63   38240.7    261.5   0.017928783   0.15435   0.08767   0.36121   0.12725
  64   38385.2    260.5   0.175638194   1.50637  -0.96003   0.75817   0.09944
  65   38441.7    260.1   0.041039066   0.35146  -0.57586   0.00635  -0.14073
  66   38616.3    259.0   0.022145485   0.18880  -0.16937   0.29896   0.26595
  67   38680.8    258.5   0.011034326   0.09391  -0.03684   0.27016   0.13989
  68   38760.3    258.0   0.132973398   1.12942   0.02735   1.03389   0.24443
  69   39020.6    256.3   0.000641359   0.00541   0.01825   0.07017   0.01244
  70   39474.6    253.3   0.002729618   0.02276   0.06813   0.09647   0.09389
  71   39718.1    251.8   0.029232318   0.24230  -0.16923   0.27657  -0.37036
  72   39916.3    250.5   0.015540293   0.12817  -0.28959   0.01245  -0.21012
  73   40023.7    249.9   0.003600591   0.02962  -0.00325  -0.03732   0.16797
  74   40174.7    248.9   0.001184512   0.00971  -0.05730   0.04367  -0.06721
  75   40251.2    248.4   0.015600417   0.12759   0.28574  -0.19234  -0.09463
  76   40322.3    248.0   0.011003366   0.08984  -0.00120  -0.11444   0.27702

FINAL SINGLE POINT ENERGY    -14323.420383454903

DIPOLE MOMENT
-------------
                                X             Y             Z
Electronic contribution:     64.90080     -83.52871     -44.34055
Nuclear contribution   :    -61.50948      81.70804      45.29662
                        -----------------------------------------
Total Dipole Moment    :      3.39132      -1.82067       0.95607
                        -----------------------------------------
Magnitude (a.u.)       :      3.96610
Magnitude (Debye)      :     10.08104

Rotational constants in cm-1:     0.001072     0.000228     0.000202
Rotational constants in MHz :    32.149547     6.822914     6.057714

                             ****ORCA TERMINATED NORMALLY****
TOTAL RUN TIME: 0 days 0 hours 9 minutes 28 seconds 870 msec
