                         Program Version 4.2.0 -  RELEASE  -
|  1> # ORCA input file
|  2> # SCF done       -202.298390073926          0.000610637337
|  3> ! CAM-B3LYP def2-SVP def2/J RIJCOSX Grid4 TightSCF
|  4> %maxcore 5000
|  5> %tddft
|  6>     Mode sTDDFT
|  7>     Ethresh 5.0
|  8>     maxcore 5000
|  9> end
| 10>
| 11> %pal
| 12>   nprocs 6
| 13>   end
| 14> * xyz 0 1
| 15>    C        2.00135        -0.78341        -1.45648
| 16>    O        1.12225        -1.39325        -2.02660
| 17>    C        2.46730         0.57332        -1.82349
| 18>    C        3.52313         0.95986        -0.98303
| 19>    C        4.09934         2.20998        -1.13964
| 20>    C        3.61230         3.04711        -2.13709
| 21>    C        2.56788         2.64876        -2.97314
| 22>    C        1.98466         1.39848        -2.81738
| 23>   Br        1.93056         3.80617        -4.32489
| 24>   Br        4.39327         4.75665        -2.34727
| 25>    C        3.80399        -0.13415        -0.05533
| 26>    C        4.86414        -0.16729         0.81180
| 27>    C        5.78907         0.88864         0.96322
| 28>    N        6.57015         1.71151         1.13477
| 29>    C        5.22825        -1.24931         1.64328
| 30>    N        5.61649        -2.08124         2.33297
| 31>    C        2.81431        -1.17481        -0.28602
| 32>    C        2.65173        -2.25240         0.54714
| 33>    C        1.78000        -3.35407         0.49221
| 34>    C        0.86127        -3.79615        -0.44600
| 35>    C        0.20829        -4.97627        -0.08982
| 36>    C       -0.85171        -5.58509        -0.90236
| 37>    C       -0.62065        -5.83674        -2.26250
| 38>    C       -1.61830        -6.42623        -3.03223
| 39>    C       -2.82959        -6.75073        -2.45276
| 40>    C       -3.07893        -6.49651        -1.11676
| 41>    C       -2.09224        -5.90803        -0.33550
| 42>    O       -2.23903        -5.61038         0.98876
| 43>    C       -3.43037        -5.97898         1.63984
| 44>    O        0.60860        -5.49999        -2.72481
| 45>    C        0.91081        -5.73304        -4.07926
| 46>    C        0.63298        -5.46839         1.14312
| 47>    S        1.82324        -4.45419         1.85988
| 48>    C        0.14702        -6.63245         1.83128
| 49>    C       -0.04379        -6.65367         3.20894
| 50>    N       -0.63286        -7.62694         3.88430
| 51>    C       -1.08704        -8.71164         3.27938
| 52>    C       -0.89681        -8.86639         1.87814
| 53>    C       -0.25104        -7.80835         1.15152
| 54>    N       -0.10624        -8.10806        -0.13874
| 55>    S       -0.74245        -9.55308        -0.41122
| 56>    N       -1.22737        -9.88520         1.08697
| 57>    C       -1.76402        -9.67778         4.08462
| 58>    C       -2.29060       -10.89933         3.72500
| 59>    C       -2.90165       -11.56982         4.78784
| 60>    C       -3.50446       -12.89877         4.68819
| 61>    C       -3.15289       -13.90434         5.60590
| 62>    C       -3.71854       -15.16906         5.48925
| 63>    C       -4.62133       -15.42553         4.47465
| 64>    C       -4.97253       -14.45126         3.55894
| 65>    C       -4.41297       -13.18243         3.65643
| 66>    O       -4.70377       -12.14759         2.82277
| 67>    C       -5.61934       -12.36118         1.77536
| 68>    O       -2.23780       -13.55646         6.54444
| 69>    C       -1.73410       -14.54409         7.41181
| 70>    C       -2.83344       -10.84764         5.98433
| 71>    S       -2.00011        -9.33464         5.76203
| 72>    C       -3.50402       -11.19615         7.17471
| 73>    C       -3.36256       -10.69592         8.43427
| 74>    C       -4.47165       -10.84729         9.40729
| 75>    O       -5.42717       -11.58372         9.32309
| 76>    C       -4.18056        -9.85915        10.47223
| 77>    C       -2.93058        -9.26032        10.22803
| 78>    C       -2.33292        -9.88653         9.04937
| 79>    C       -0.99402        -9.92079         8.76934
| 80>    C       -0.41464       -10.80366         7.83225
| 81>    N        0.11840       -11.55614         7.14979
| 82>    C       -0.03018        -9.17489         9.47868
| 83>    N        0.78216        -8.57946        10.02833
| 84>    C       -2.46169        -8.27108        11.07456
| 85>    C       -3.24772        -7.89871        12.15942
| 86>    C       -4.47933        -8.50873        12.40455
| 87>    C       -4.95581        -9.49867        11.55451
| 88>   Br       -5.52104        -7.99107        13.89477
| 89>   Br       -2.62105        -6.53493        13.30879
| 90>    H        4.90516         2.55528        -0.51296
| 91>    H        1.17426         1.07829        -3.45364
| 92>    H        3.28820        -2.26546         1.42444
| 93>    H        0.66386        -3.26533        -1.35825
| 94>    H       -1.46017        -6.63685        -4.07687
| 95>    H       -3.59908        -7.21006        -3.05485
| 96>    H       -4.03759        -6.75427        -0.69739
| 97>    H       -3.60026        -7.06019         1.58970
| 98>    H       -4.29586        -5.45336         1.22545
| 99>    H       -3.29552        -5.68807         2.68068
|100>    H        1.93112        -5.37811        -4.21506
|101>    H        0.24398        -5.17328        -4.74241
|102>    H        0.86302        -6.79851        -4.32544
|103>    H        0.26144        -5.80429         3.80561
|104>    H       -2.22209       -11.28262         2.72404
|105>    H       -3.46445       -15.95244         6.18361
|106>    H       -5.06086       -16.40808         4.39452
|107>    H       -5.67795       -14.68853         2.78011
|108>    H       -5.68684       -11.41033         1.24902
|109>    H       -6.60893       -12.63481         2.15418
|110>    H       -5.26716       -13.13241         1.08328
|111>    H       -2.50709       -14.90906         8.09587
|112>    H       -0.94805       -14.04899         7.97962
|113>    H       -1.30467       -15.38436         6.85899
|114>    H       -4.32442       -11.89819         7.05248
|115>    H       -1.51703        -7.77801        10.90976
|116>    H       -5.90753        -9.97391        11.73486
|117> *
|118>
|119>                          ****END OF INPUT****

CARTESIAN COORDINATES (ANGSTROEM)
---------------------------------
  C      2.001350   -0.783410   -1.456480
  O      1.122250   -1.393250   -2.026600
  C      2.467300    0.573320   -1.823490
  C      3.523130    0.959860   -0.983030
  C      4.099340    2.209980   -1.139640
  C      3.612300    3.047110   -2.137090
  C      2.567880    2.648760   -2.973140
  C      1.984660    1.398480   -2.817380
  Br     1.930560    3.806170   -4.324890
  Br     4.393270    4.756650   -2.347270
  C      3.803990   -0.134150   -0.055330
  C      4.864140   -0.167290    0.811800
  C      5.789070    0.888640    0.963220
  N      6.570150    1.711510    1.134770
  C      5.228250   -1.249310    1.643280
  N      5.616490   -2.081240    2.332970
  C      2.814310   -1.174810   -0.286020
  C      2.651730   -2.252400    0.547140
  C      1.780000   -3.354070    0.492210
  C      0.861270   -3.796150   -0.446000
  C      0.208290   -4.976270   -0.089820
  C     -0.851710   -5.585090   -0.902360
  C     -0.620650   -5.836740   -2.262500
  C     -1.618300   -6.426230   -3.032230
  C     -2.829590   -6.750730   -2.452760
  C     -3.078930   -6.496510   -1.116760
  C     -2.092240   -5.908030   -0.335500
  O     -2.239030   -5.610380    0.988760
  C     -3.430370   -5.978980    1.639840
  O      0.608600   -5.499990   -2.724810
  C      0.910810   -5.733040   -4.079260
  C      0.632980   -5.468390    1.143120
  S      1.823240   -4.454190    1.859880
  C      0.147020   -6.632450    1.831280
  C     -0.043790   -6.653670    3.208940
  N     -0.632860   -7.626940    3.884300
  C     -1.087040   -8.711640    3.279380
  C     -0.896810   -8.866390    1.878140
  C     -0.251040   -7.808350    1.151520
  N     -0.106240   -8.108060   -0.138740
  S     -0.742450   -9.553080   -0.411220
  N     -1.227370   -9.885200    1.086970
  C     -1.764020   -9.677780    4.084620
  C     -2.290600  -10.899330    3.725000
  C     -2.901650  -11.569820    4.787840
  C     -3.504460  -12.898770    4.688190
  C     -3.152890  -13.904340    5.605900
  C     -3.718540  -15.169060    5.489250
  C     -4.621330  -15.425530    4.474650
  C     -4.972530  -14.451260    3.558940
  C     -4.412970  -13.182430    3.656430
  O     -4.703770  -12.147590    2.822770
  C     -5.619340  -12.361180    1.775360
  O     -2.237800  -13.556460    6.544440
  C     -1.734100  -14.544090    7.411810
  C     -2.833440  -10.847640    5.984330
  S     -2.000110   -9.334640    5.762030
  C     -3.504020  -11.196150    7.174710
  C     -3.362560  -10.695920    8.434270
  C     -4.471650  -10.847290    9.407290
  O     -5.427170  -11.583720    9.323090
  C     -4.180560   -9.859150   10.472230
  C     -2.930580   -9.260320   10.228030
  C     -2.332920   -9.886530    9.049370
  C     -0.994020   -9.920790    8.769340
  C     -0.414640  -10.803660    7.832250
  N      0.118400  -11.556140    7.149790
  C     -0.030180   -9.174890    9.478680
  N      0.782160   -8.579460   10.028330
  C     -2.461690   -8.271080   11.074560
  C     -3.247720   -7.898710   12.159420
  C     -4.479330   -8.508730   12.404550
  C     -4.955810   -9.498670   11.554510
  Br    -5.521040   -7.991070   13.894770
  Br    -2.621050   -6.534930   13.308790
  H      4.905160    2.555280   -0.512960
  H      1.174260    1.078290   -3.453640
  H      3.288200   -2.265460    1.424440
  H      0.663860   -3.265330   -1.358250
  H     -1.460170   -6.636850   -4.076870
  H     -3.599080   -7.210060   -3.054850
  H     -4.037590   -6.754270   -0.697390
  H     -3.600260   -7.060190    1.589700
  H     -4.295860   -5.453360    1.225450
  H     -3.295520   -5.688070    2.680680
  H      1.931120   -5.378110   -4.215060
  H      0.243980   -5.173280   -4.742410
  H      0.863020   -6.798510   -4.325440
  H      0.261440   -5.804290    3.805610
  H     -2.222090  -11.282620    2.724040
  H     -3.464450  -15.952440    6.183610
  H     -5.060860  -16.408080    4.394520
  H     -5.677950  -14.688530    2.780110
  H     -5.686840  -11.410330    1.249020
  H     -6.608930  -12.634810    2.154180
  H     -5.267160  -13.132410    1.083280
  H     -2.507090  -14.909060    8.095870
  H     -0.948050  -14.048990    7.979620
  H     -1.304670  -15.384360    6.858990
  H     -4.324420  -11.898190    7.052480
  H     -1.517030   -7.778010   10.909760
  H     -5.907530   -9.973910   11.734860

 Total Charge           Charge          ....    0
 Multiplicity           Mult            ....    1
 Number of Electrons    NEL             ....  642
 Basis Dimension        Dim             .... 1269

ORBITAL ENERGIES
----------------

  NO   OCC          E(Eh)            E(eV)
   0   2.0000    -482.874498    -13139.6831
   1   2.0000    -482.873100    -13139.6451
   2   2.0000    -482.872144    -13139.6190
   3   2.0000    -482.871584    -13139.6038
   4   2.0000     -89.039486     -2422.8876
   5   2.0000     -88.966229     -2420.8942
   6   2.0000     -88.960121     -2420.7280
   7   2.0000     -62.552118     -1702.1297
   8   2.0000     -62.550706     -1702.0912
   9   2.0000     -62.549768     -1702.0657
  10   2.0000     -62.549225     -1702.0509
  11   2.0000     -56.386059     -1534.3427
  12   2.0000     -56.384650     -1534.3043
  13   2.0000     -56.383726     -1534.2792
  14   2.0000     -56.383419     -1534.2708
  15   2.0000     -56.383324     -1534.2683
  16   2.0000     -56.383180     -1534.2643
  17   2.0000     -56.382003     -1534.2323
  18   2.0000     -56.381919     -1534.2300
  19   2.0000     -56.381060     -1534.2066
  20   2.0000     -56.380967     -1534.2041
  21   2.0000     -56.380515     -1534.1918
  22   2.0000     -56.380426     -1534.1894
  23   2.0000     -19.255130      -523.9587
  24   2.0000     -19.253432      -523.9125
  25   2.0000     -19.249876      -523.8158
  26   2.0000     -19.247870      -523.7612
  27   2.0000     -19.220988      -523.0297
  28   2.0000     -19.214670      -522.8578
  29   2.0000     -14.454400      -393.3242
  30   2.0000     -14.449048      -393.1786
  31   2.0000     -14.422790      -392.4641
  32   2.0000     -14.415796      -392.2738
  33   2.0000     -14.413387      -392.2082
  34   2.0000     -14.413254      -392.2046
  35   2.0000     -14.409898      -392.1133
  36   2.0000     -10.372251      -282.2433
  37   2.0000     -10.366378      -282.0835
  38   2.0000     -10.350432      -281.6496
  39   2.0000     -10.349931      -281.6360
  40   2.0000     -10.349545      -281.6255
  41   2.0000     -10.348862      -281.6069
  42   2.0000     -10.343458      -281.4598
  43   2.0000     -10.343042      -281.4485
  44   2.0000     -10.342603      -281.4365
  45   2.0000     -10.342381      -281.4305
  46   2.0000     -10.342335      -281.4293
  47   2.0000     -10.340813      -281.3878
  48   2.0000     -10.340446      -281.3778
  49   2.0000     -10.337832      -281.3067
  50   2.0000     -10.336926      -281.2821
  51   2.0000     -10.336845      -281.2798
  52   2.0000     -10.336087      -281.2592
  53   2.0000     -10.331650      -281.1385
  54   2.0000     -10.329155      -281.0706
  55   2.0000     -10.325814      -280.9797
  56   2.0000     -10.323957      -280.9292
  57   2.0000     -10.321322      -280.8574
  58   2.0000     -10.320752      -280.8419
  59   2.0000     -10.318604      -280.7835
  60   2.0000     -10.318250      -280.7739
  61   2.0000     -10.316242      -280.7192
  62   2.0000     -10.316085      -280.7150
  63   2.0000     -10.315260      -280.6925
  64   2.0000     -10.313359      -280.6408
  65   2.0000     -10.313302      -280.6392
  66   2.0000     -10.311818      -280.5988
  67   2.0000     -10.310786      -280.5707
  68   2.0000     -10.309734      -280.5421
  69   2.0000     -10.308218      -280.5009
  70   2.0000     -10.308022      -280.4955
  71   2.0000     -10.307433      -280.4795
  72   2.0000     -10.307388      -280.4783
  73   2.0000     -10.306795      -280.4621
  74   2.0000     -10.306561      -280.4558
  75   2.0000     -10.299026      -280.2507
  76   2.0000     -10.298755      -280.2434
  77   2.0000     -10.298130      -280.2264
  78   2.0000     -10.294664      -280.1320
  79   2.0000     -10.291708      -280.0516
  80   2.0000     -10.288976      -279.9773
  81   2.0000     -10.281954      -279.7862
  82   2.0000     -10.281785      -279.7816
  83   2.0000     -10.280437      -279.7449
  84   2.0000     -10.278807      -279.7006
  85   2.0000     -10.278103      -279.6814
  86   2.0000     -10.276138      -279.6279
  87   2.0000     -10.269220      -279.4397
  88   2.0000     -10.268537      -279.4211
  89   2.0000     -10.267808      -279.4013
  90   2.0000     -10.267553      -279.3943
  91   2.0000      -8.781445      -238.9553
  92   2.0000      -8.780015      -238.9164
  93   2.0000      -8.779088      -238.8911
  94   2.0000      -8.778558      -238.8767
  95   2.0000      -8.130878      -221.2524
  96   2.0000      -8.061848      -219.3740
  97   2.0000      -8.054663      -219.1785
  98   2.0000      -6.617550      -180.0727
  99   2.0000      -6.616121      -180.0338
 100   2.0000      -6.615246      -180.0100
 101   2.0000      -6.614721      -179.9957
 102   2.0000      -6.603573      -179.6924
 103   2.0000      -6.602814      -179.6717
 104   2.0000      -6.602134      -179.6532
 105   2.0000      -6.601389      -179.6329
 106   2.0000      -6.601195      -179.6276
 107   2.0000      -6.600660      -179.6131
 108   2.0000      -6.600424      -179.6067
 109   2.0000      -6.599888      -179.5921
 110   2.0000      -6.102034      -166.0448
 111   2.0000      -6.094191      -165.8314
 112   2.0000      -6.093554      -165.8140
 113   2.0000      -6.030967      -164.1110
 114   2.0000      -6.026948      -164.0016
 115   2.0000      -6.024125      -163.9248
 116   2.0000      -6.023959      -163.9203
 117   2.0000      -6.019820      -163.8076
 118   2.0000      -6.016791      -163.7252
 119   2.0000      -2.733419       -74.3801
 120   2.0000      -2.732010       -74.3418
 121   2.0000      -2.731134       -74.3179
 122   2.0000      -2.730575       -74.3027
 123   2.0000      -2.729722       -74.2795
 124   2.0000      -2.729122       -74.2632
 125   2.0000      -2.728254       -74.2396
 126   2.0000      -2.727713       -74.2249
 127   2.0000      -2.727346       -74.2148
 128   2.0000      -2.726849       -74.2013
 129   2.0000      -2.726793       -74.1998
 130   2.0000      -2.726268       -74.1855
 131   2.0000      -2.718006       -73.9607
 132   2.0000      -2.717983       -73.9601
 133   2.0000      -2.716570       -73.9216
 134   2.0000      -2.716556       -73.9212
 135   2.0000      -2.715598       -73.8952
 136   2.0000      -2.715585       -73.8948
 137   2.0000      -2.715066       -73.8807
 138   2.0000      -2.715051       -73.8803
 139   2.0000      -1.159671       -31.5562
 140   2.0000      -1.157689       -31.5023
 141   2.0000      -1.154731       -31.4218
 142   2.0000      -1.153671       -31.3930
 143   2.0000      -1.138792       -30.9881
 144   2.0000      -1.136155       -30.9163
 145   2.0000      -1.129912       -30.7465
 146   2.0000      -1.058840       -28.8125
 147   2.0000      -1.021694       -27.8017
 148   2.0000      -1.020143       -27.7595
 149   2.0000      -1.005854       -27.3707
 150   2.0000      -1.004136       -27.3239
 151   2.0000      -1.002883       -27.2898
 152   2.0000      -0.994009       -27.0484
 153   2.0000      -0.993094       -27.0235
 154   2.0000      -0.989140       -26.9159
 155   2.0000      -0.986474       -26.8433
 156   2.0000      -0.973477       -26.4897
 157   2.0000      -0.971291       -26.4302
 158   2.0000      -0.951272       -25.8854
 159   2.0000      -0.950203       -25.8563
 160   2.0000      -0.923340       -25.1254
 161   2.0000      -0.916664       -24.9437
 162   2.0000      -0.915958       -24.9245
 163   2.0000      -0.910030       -24.7632
 164   2.0000      -0.909525       -24.7494
 165   2.0000      -0.904068       -24.6009
 166   2.0000      -0.899898       -24.4875
 167   2.0000      -0.889393       -24.2016
 168   2.0000      -0.879168       -23.9234
 169   2.0000      -0.876349       -23.8467
 170   2.0000      -0.865070       -23.5398
 171   2.0000      -0.855772       -23.2867
 172   2.0000      -0.849477       -23.1155
 173   2.0000      -0.848543       -23.0900
 174   2.0000      -0.848019       -23.0758
 175   2.0000      -0.847770       -23.0690
 176   2.0000      -0.831080       -22.6148
 177   2.0000      -0.824074       -22.4242
 178   2.0000      -0.821403       -22.3515
 179   2.0000      -0.804912       -21.9028
 180   2.0000      -0.794712       -21.6252
 181   2.0000      -0.794672       -21.6241
 182   2.0000      -0.783243       -21.3131
 183   2.0000      -0.777589       -21.1593
 184   2.0000      -0.776015       -21.1164
 185   2.0000      -0.765922       -20.8418
 186   2.0000      -0.764339       -20.7987
 187   2.0000      -0.758336       -20.6354
 188   2.0000      -0.752899       -20.4874
 189   2.0000      -0.733079       -19.9481
 190   2.0000      -0.723404       -19.6848
 191   2.0000      -0.717775       -19.5317
 192   2.0000      -0.711984       -19.3741
 193   2.0000      -0.703883       -19.1536
 194   2.0000      -0.695392       -18.9226
 195   2.0000      -0.691586       -18.8190
 196   2.0000      -0.685812       -18.6619
 197   2.0000      -0.682347       -18.5676
 198   2.0000      -0.675010       -18.3680
 199   2.0000      -0.671792       -18.2804
 200   2.0000      -0.671388       -18.2694
 201   2.0000      -0.657251       -17.8847
 202   2.0000      -0.653906       -17.7937
 203   2.0000      -0.646455       -17.5909
 204   2.0000      -0.638937       -17.3864
 205   2.0000      -0.634002       -17.2521
 206   2.0000      -0.624328       -16.9888
 207   2.0000      -0.623843       -16.9756
 208   2.0000      -0.616411       -16.7734
 209   2.0000      -0.614203       -16.7133
 210   2.0000      -0.609389       -16.5823
 211   2.0000      -0.608296       -16.5526
 212   2.0000      -0.598754       -16.2929
 213   2.0000      -0.597244       -16.2518
 214   2.0000      -0.591788       -16.1034
 215   2.0000      -0.590250       -16.0615
 216   2.0000      -0.585183       -15.9236
 217   2.0000      -0.581910       -15.8346
 218   2.0000      -0.577937       -15.7265
 219   2.0000      -0.577874       -15.7248
 220   2.0000      -0.576908       -15.6985
 221   2.0000      -0.575928       -15.6718
 222   2.0000      -0.563741       -15.3402
 223   2.0000      -0.559342       -15.2205
 224   2.0000      -0.556718       -15.1491
 225   2.0000      -0.555317       -15.1110
 226   2.0000      -0.554921       -15.1002
 227   2.0000      -0.553213       -15.0537
 228   2.0000      -0.550596       -14.9825
 229   2.0000      -0.549862       -14.9625
 230   2.0000      -0.547597       -14.9009
 231   2.0000      -0.543521       -14.7900
 232   2.0000      -0.542207       -14.7542
 233   2.0000      -0.538184       -14.6447
 234   2.0000      -0.533964       -14.5299
 235   2.0000      -0.532988       -14.5033
 236   2.0000      -0.529479       -14.4079
 237   2.0000      -0.528578       -14.3833
 238   2.0000      -0.526756       -14.3338
 239   2.0000      -0.523134       -14.2352
 240   2.0000      -0.521925       -14.2023
 241   2.0000      -0.514731       -14.0066
 242   2.0000      -0.508216       -13.8293
 243   2.0000      -0.503362       -13.6972
 244   2.0000      -0.501749       -13.6533
 245   2.0000      -0.499313       -13.5870
 246   2.0000      -0.497039       -13.5251
 247   2.0000      -0.496230       -13.5031
 248   2.0000      -0.494450       -13.4547
 249   2.0000      -0.493644       -13.4327
 250   2.0000      -0.490997       -13.3607
 251   2.0000      -0.488502       -13.2928
 252   2.0000      -0.487742       -13.2721
 253   2.0000      -0.487322       -13.2607
 254   2.0000      -0.484738       -13.1904
 255   2.0000      -0.483154       -13.1473
 256   2.0000      -0.475957       -12.9515
 257   2.0000      -0.475175       -12.9302
 258   2.0000      -0.472655       -12.8616
 259   2.0000      -0.467989       -12.7346
 260   2.0000      -0.465676       -12.6717
 261   2.0000      -0.463620       -12.6157
 262   2.0000      -0.460906       -12.5419
 263   2.0000      -0.459539       -12.5047
 264   2.0000      -0.457286       -12.4434
 265   2.0000      -0.455669       -12.3994
 266   2.0000      -0.454569       -12.3695
 267   2.0000      -0.453519       -12.3409
 268   2.0000      -0.451700       -12.2914
 269   2.0000      -0.447246       -12.1702
 270   2.0000      -0.444679       -12.1003
 271   2.0000      -0.442102       -12.0302
 272   2.0000      -0.438887       -11.9427
 273   2.0000      -0.436641       -11.8816
 274   2.0000      -0.430634       -11.7181
 275   2.0000      -0.429260       -11.6808
 276   2.0000      -0.427805       -11.6412
 277   2.0000      -0.426716       -11.6115
 278   2.0000      -0.425800       -11.5866
 279   2.0000      -0.423701       -11.5295
 280   2.0000      -0.422430       -11.4949
 281   2.0000      -0.421723       -11.4757
 282   2.0000      -0.419840       -11.4244
 283   2.0000      -0.419167       -11.4061
 284   2.0000      -0.417170       -11.3518
 285   2.0000      -0.414786       -11.2869
 286   2.0000      -0.409934       -11.1549
 287   2.0000      -0.408124       -11.1056
 288   2.0000      -0.407353       -11.0846
 289   2.0000      -0.401068       -10.9136
 290   2.0000      -0.400486       -10.8978
 291   2.0000      -0.398214       -10.8360
 292   2.0000      -0.396126       -10.7791
 293   2.0000      -0.395885       -10.7726
 294   2.0000      -0.390613       -10.6291
 295   2.0000      -0.389244       -10.5919
 296   2.0000      -0.387321       -10.5395
 297   2.0000      -0.386580       -10.5194
 298   2.0000      -0.384521       -10.4634
 299   2.0000      -0.383431       -10.4337
 300   2.0000      -0.366556        -9.9745
 301   2.0000      -0.360965        -9.8224
 302   2.0000      -0.356742        -9.7074
 303   2.0000      -0.348674        -9.4879
 304   2.0000      -0.346336        -9.4243
 305   2.0000      -0.344757        -9.3813
 306   2.0000      -0.340510        -9.2658
 307   2.0000      -0.339453        -9.2370
 308   2.0000      -0.335731        -9.1357
 309   2.0000      -0.335347        -9.1252
 310   2.0000      -0.334022        -9.0892
 311   2.0000      -0.330130        -8.9833
 312   2.0000      -0.322248        -8.7688
 313   2.0000      -0.309491        -8.4217
 314   2.0000      -0.306581        -8.3425
 315   2.0000      -0.295612        -8.0440
 316   2.0000      -0.292394        -7.9565
 317   2.0000      -0.291871        -7.9422
 318   2.0000      -0.287814        -7.8318
 319   2.0000      -0.278695        -7.5837
 320   2.0000      -0.258870        -7.0442
 321   0.0000      -0.104264        -2.8372
 322   0.0000      -0.085235        -2.3194
 323   0.0000      -0.072200        -1.9647
 324   0.0000      -0.062468        -1.6998
 325   0.0000      -0.056075        -1.5259

MULLIKEN ATOMIC CHARGES
-----------------------
   0 C :    0.157851
   1 O :   -0.149739
   2 C :   -0.013866
   3 C :    0.036966
   4 C :   -0.010263
   5 C :   -0.026584
   6 C :   -0.010987
   7 C :   -0.026498
   8 Br:    0.009678
   9 Br:    0.018762
  10 C :    0.301427
  11 C :   -0.347711
  12 C :   -0.185773
  13 N :    0.154020
  14 C :   -0.196807
  15 N :    0.160528
  16 C :   -0.095649
  17 C :    0.066387
  18 C :   -0.108652
  19 C :   -0.001187
  20 C :    0.141449
  21 C :   -0.022407
  22 C :    0.215437
  23 C :   -0.118030
  24 C :    0.038523
  25 C :   -0.110505
  26 C :    0.194958
  27 O :   -0.316852
  28 C :    0.174476
  29 O :   -0.300940
  30 C :    0.183640
  31 C :   -0.125247
  32 S :    0.158738
  33 C :    0.065026
  34 C :   -0.032513
  35 N :   -0.046621
  36 C :    0.035163
  37 C :   -0.011392
  38 C :    0.021421
  39 N :   -0.245521
  40 S :    0.531155
  41 N :   -0.268514
  42 C :   -0.103958
  43 C :   -0.004972
  44 C :    0.166490
  45 C :   -0.062810
  46 C :    0.199795
  47 C :   -0.100359
  48 C :    0.052063
  49 C :   -0.109121
  50 C :    0.209651
  51 O :   -0.308028
  52 C :    0.181366
  53 O :   -0.301783
  54 C :    0.179783
  55 C :   -0.124160
  56 S :    0.184442
  57 C :    0.053505
  58 C :   -0.148651
  59 C :    0.136604
  60 O :   -0.141857
  61 C :   -0.000185
  62 C :    0.020163
  63 C :    0.257016
  64 C :   -0.309714
  65 C :   -0.191413
  66 N :    0.163820
  67 C :   -0.182640
  68 N :    0.159482
  69 C :   -0.008095
  70 C :   -0.024402
  71 C :   -0.016951
  72 C :   -0.022831
  73 Br:    0.008715
  74 Br:    0.017514
  75 H :    0.006722
  76 H :    0.002820
  77 H :    0.010909
  78 H :    0.007916
  79 H :   -0.035743
  80 H :   -0.014560
  81 H :   -0.037890
  82 H :    0.024650
  83 H :    0.028128
  84 H :    0.045384
  85 H :    0.040651
  86 H :    0.026001
  87 H :    0.021444
  88 H :    0.007862
  89 H :   -0.010856
  90 H :   -0.029656
  91 H :   -0.010272
  92 H :   -0.034221
  93 H :    0.035511
  94 H :    0.027459
  95 H :    0.024583
  96 H :    0.023247
  97 H :    0.046465
  98 H :    0.023960
  99 H :    0.032869
 100 H :    0.010445
 101 H :    0.004347
Sum of atomic charges:   -0.0000000

LOEWDIN ATOMIC CHARGES
----------------------
   0 C :    0.087266
   1 O :   -0.137663
   2 C :   -0.040684
   3 C :   -0.012203
   4 C :   -0.007079
   5 C :   -0.120117
   6 C :   -0.123682
   7 C :    0.003833
   8 Br:    0.133828
   9 Br:    0.138555
  10 C :    0.075773
  11 C :   -0.138521
  12 C :   -0.019443
  13 N :   -0.048992
  14 C :   -0.026154
  15 N :   -0.045570
  16 C :   -0.107702
  17 C :    0.056584
  18 C :   -0.186741
  19 C :    0.021028
  20 C :   -0.035770
  21 C :   -0.071407
  22 C :    0.077308
  23 C :   -0.096191
  24 C :   -0.005540
  25 C :   -0.100634
  26 C :    0.062761
  27 O :   -0.093787
  28 C :    0.075344
  29 O :   -0.087915
  30 C :    0.078917
  31 C :   -0.131306
  32 S :    0.468325
  33 C :   -0.062901
  34 C :    0.023529
  35 N :   -0.074141
  36 C :    0.002693
  37 C :   -0.062664
  38 C :   -0.035987
  39 N :   -0.260642
  40 S :    0.665860
  41 N :   -0.275806
  42 C :   -0.164806
  43 C :   -0.016974
  44 C :   -0.000089
  45 C :   -0.086430
  46 C :    0.072699
  47 C :   -0.090515
  48 C :    0.006802
  49 C :   -0.096111
  50 C :    0.075366
  51 O :   -0.095588
  52 C :    0.077726
  53 O :   -0.083568
  54 C :    0.079234
  55 C :   -0.174488
  56 S :    0.495924
  57 C :    0.070217
  58 C :   -0.109055
  59 C :    0.082237
  60 O :   -0.143045
  61 C :   -0.043595
  62 C :   -0.007659
  63 C :    0.060979
  64 C :   -0.135531
  65 C :   -0.032662
  66 N :   -0.041160
  67 C :   -0.020541
  68 N :   -0.046160
  69 C :   -0.009479
  70 C :   -0.119384
  71 C :   -0.125244
  72 C :    0.004990
  73 Br:    0.133024
  74 Br:    0.138793
  75 H :    0.044411
  76 H :    0.044671
  77 H :    0.043607
  78 H :    0.033649
  79 H :    0.026165
  80 H :    0.029915
  81 H :    0.025557
  82 H :    0.013068
  83 H :    0.017258
  84 H :    0.030992
  85 H :    0.030849
  86 H :    0.016722
  87 H :    0.014784
  88 H :    0.023696
  89 H :    0.031825
  90 H :    0.028997
  91 H :    0.032347
  92 H :    0.026789
  93 H :    0.028424
  94 H :    0.017114
  95 H :    0.016029
  96 H :    0.014788
  97 H :    0.031065
  98 H :    0.017035
  99 H :    0.051861
 100 H :    0.044747
 101 H :    0.045368

  Mayer bond orders larger than 0.100000
B(  0-C ,  1-O ) :   2.1738 B(  0-C ,  2-C ) :   0.9497 B(  0-C , 16-C ) :   0.9487
B(  2-C ,  3-C ) :   1.3321 B(  2-C ,  7-C ) :   1.3702 B(  3-C ,  4-C ) :   1.3615
B(  3-C , 10-C ) :   0.9847 B(  4-C ,  5-C ) :   1.3685 B(  4-C , 75-H ) :   0.9813
B(  5-C ,  6-C ) :   1.4244 B(  5-C ,  9-Br) :   1.0563 B(  6-C ,  7-C ) :   1.3487
B(  6-C ,  8-Br) :   1.0299 B(  7-C , 76-H ) :   1.0095 B( 10-C , 11-C ) :   1.6311
B( 10-C , 16-C ) :   1.0895 B( 11-C , 12-C ) :   1.1417 B( 11-C , 14-C ) :   1.1376
B( 12-C , 13-N ) :   2.9710 B( 14-C , 15-N ) :   2.9835 B( 16-C , 17-C ) :   1.5672
B( 17-C , 18-C ) :   1.2313 B( 17-C , 77-H ) :   0.9133 B( 18-C , 19-C ) :   1.4081
B( 18-C , 32-S ) :   1.0822 B( 19-C , 20-C ) :   1.2950 B( 19-C , 78-H ) :   0.9831
B( 20-C , 21-C ) :   0.9113 B( 20-C , 31-C ) :   1.4973 B( 21-C , 22-C ) :   1.4087
B( 21-C , 26-C ) :   1.4162 B( 22-C , 23-C ) :   1.2947 B( 22-C , 29-O ) :   1.1900
B( 23-C , 24-C ) :   1.3548 B( 23-C , 79-H ) :   1.0015 B( 24-C , 25-C ) :   1.3542
B( 24-C , 80-H ) :   0.9882 B( 25-C , 26-C ) :   1.3051 B( 25-C , 81-H ) :   1.0026
B( 26-C , 27-O ) :   1.1602 B( 27-O , 28-C ) :   0.9567 B( 28-C , 82-H ) :   0.9652
B( 28-C , 83-H ) :   0.9699 B( 28-C , 84-H ) :   0.9766 B( 29-O , 30-C ) :   0.9591
B( 30-C , 85-H ) :   0.9790 B( 30-C , 86-H ) :   0.9688 B( 30-C , 87-H ) :   0.9691
B( 31-C , 32-S ) :   1.1794 B( 31-C , 33-C ) :   1.0208 B( 33-C , 34-C ) :   1.4318
B( 33-C , 36-C ) :   0.1100 B( 33-C , 38-C ) :   1.2341 B( 34-C , 35-N ) :   1.4442
B( 34-C , 88-H ) :   0.9784 B( 35-N , 36-C ) :   1.6834 B( 36-C , 37-C ) :   1.1630
B( 36-C , 42-C ) :   1.1056 B( 37-C , 38-C ) :   1.1874 B( 37-C , 41-N ) :   1.5365
B( 38-C , 39-N ) :   1.5322 B( 39-N , 40-S ) :   1.2839 B( 39-N , 41-N ) :   0.1479
B( 40-S , 41-N ) :   1.2724 B( 42-C , 43-C ) :   1.4934 B( 42-C , 56-S ) :   1.1326
B( 43-C , 44-C ) :   1.2776 B( 43-C , 89-H ) :   0.9841 B( 44-C , 45-C ) :   0.9294
B( 44-C , 55-C ) :   1.4484 B( 45-C , 46-C ) :   1.3926 B( 45-C , 50-C ) :   1.3988
B( 46-C , 47-C ) :   1.2995 B( 46-C , 53-O ) :   1.1799 B( 47-C , 48-C ) :   1.3625
B( 47-C , 90-H ) :   1.0019 B( 48-C , 49-C ) :   1.3534 B( 48-C , 91-H ) :   0.9879
B( 49-C , 50-C ) :   1.3006 B( 49-C , 92-H ) :   1.0010 B( 50-C , 51-O ) :   1.1784
B( 51-O , 52-C ) :   0.9607 B( 52-C , 93-H ) :   0.9789 B( 52-C , 94-H ) :   0.9696
B( 52-C , 95-H ) :   0.9690 B( 53-O , 54-C ) :   0.9515 B( 54-C , 96-H ) :   0.9705
B( 54-C , 97-H ) :   0.9732 B( 54-C , 98-H ) :   0.9690 B( 55-C , 56-S ) :   1.0934
B( 55-C , 57-C ) :   1.1504 B( 57-C , 58-C ) :   1.6448 B( 57-C , 99-H ) :   0.9326
B( 58-C , 59-C ) :   0.9535 B( 58-C , 63-C ) :   1.0355 B( 59-C , 60-O ) :   2.2645
B( 59-C , 61-C ) :   0.9166 B( 61-C , 62-C ) :   1.3297 B( 61-C , 72-C ) :   1.3767
B( 62-C , 63-C ) :   1.0026 B( 62-C , 69-C ) :   1.3718 B( 63-C , 64-C ) :   1.6644
B( 64-C , 65-C ) :   1.1572 B( 64-C , 67-C ) :   1.1311 B( 65-C , 66-N ) :   2.9725
B( 67-C , 68-N ) :   2.9939 B( 69-C , 70-C ) :   1.3679 B( 69-C ,100-H ) :   0.9829
B( 70-C , 71-C ) :   1.4256 B( 70-C , 74-Br) :   1.0489 B( 71-C , 72-C ) :   1.3555
B( 71-C , 73-Br) :   1.0297 B( 72-C ,101-H ) :   1.0074

-----------------------------------------------------------------------------
         ABSORPTION SPECTRUM VIA TRANSITION ELECTRIC DIPOLE MOMENTS
-----------------------------------------------------------------------------
State   Energy  Wavelength   fosc         T2         TX        TY        TZ
        (cm-1)    (nm)                  (au**2)     (au)      (au)      (au)
-----------------------------------------------------------------------------
   0   17493.3    571.6   1.126299304  21.19619  -1.67420  -2.63039   3.38738
   1   20685.4    483.4   0.101147917   1.60979   0.36816   0.62043   1.04370
   2   22438.8    445.7   0.761342371  11.17008  -1.73266  -2.84494  -0.27257
   3   23333.3    428.6   0.067075013   0.94637   0.69146   0.47286   0.49463
   4   24028.6    416.2   0.035171693   0.48188   0.44356   0.53263   0.03798
   5   24441.3    409.1   0.012601242   0.16973   0.14715   0.24936   0.29308
   6   25022.3    399.6   0.040644071   0.53474   0.41791   0.48046   0.35952
   7   25986.5    384.8   0.042503451   0.53846  -0.33408  -0.35085  -0.55114
   8   26943.4    371.1   0.156596022   1.91339  -0.24319  -1.19056   0.66092
   9   27272.5    366.7   0.013898472   0.16777  -0.18266   0.10727   0.35057
  10   27783.2    359.9   0.030479219   0.36116  -0.08872   0.08607   0.58812
  11   29011.4    344.7   0.217594930   2.46919  -0.71122   0.30641   1.36728
  12   29553.8    338.4   0.016577404   0.18466  -0.12587   0.31894   0.25903
  13   29926.0    334.2   0.023158716   0.25477   0.14718  -0.34222   0.34057
  14   30034.0    333.0   0.019122187   0.20960  -0.36456   0.26175  -0.09048
  15   30329.6    329.7   0.113645521   1.23356  -0.06535   0.92811  -0.60656
  16   30772.3    325.0   0.073854307   0.79012  -0.45339   0.66232  -0.38195
  17   30929.1    323.3   0.037843133   0.40281  -0.10930   0.03061   0.62444
  18   31023.6    322.3   0.062775201   0.66615  -0.41041   0.54367   0.44959
  19   31855.6    313.9   0.011798526   0.12193  -0.12814  -0.31290  -0.08722
  20   32127.1    311.3   0.008052706   0.08252   0.15988  -0.03556   0.23599
  21   32331.1    309.3   0.098112205   0.99903  -0.94671  -0.21198   0.24051
  22   32575.8    307.0   0.003498986   0.03536   0.07654  -0.15576   0.07239
  23   32683.8    306.0   0.038755457   0.39037   0.53467  -0.07833  -0.31363
  24   32847.0    304.4   0.022456349   0.22507  -0.15079  -0.29200   0.34215
  25   33403.3    299.4   0.014170911   0.13966  -0.33608  -0.08970  -0.13663
  26   33639.0    297.3   0.032656468   0.31960   0.21056   0.07141   0.51977
  27   33994.9    294.2   0.025593281   0.24785   0.20040  -0.26823   0.36843
  28   34224.8    292.2   0.033764714   0.32479   0.48993  -0.02357   0.29017
  29   34573.6    289.2   0.196045502   1.86675  -0.49012   1.24315  -0.28480
  30   34904.7    286.5   0.446184502   4.20829   0.03111  -0.32365   2.02548
  31   35131.2    284.6   0.014171654   0.13280  -0.07639   0.08342  -0.34642
  32   35381.4    282.6   0.110240710   1.02575  -0.68585   0.29019  -0.68640
  33   35675.4    280.3   0.386984875   3.57108   1.86849  -0.11169  -0.25955
  34   35697.4    280.1   0.072292011   0.66670  -0.64981  -0.41471  -0.26920
  35   36009.2    277.7   0.018263547   0.16697   0.10147   0.18765   0.34852
  36   36037.8    277.5   0.139382086   1.27328   0.91322  -0.14303  -0.64718
  37   36610.6    273.1   0.012703134   0.11423   0.24301  -0.03722  -0.23193
  38   36760.1    272.0   0.062286625   0.55782   0.46545  -0.50096  -0.30035
  39   37098.8    269.6   0.031659570   0.28094  -0.15614  -0.40381   0.30578
  40   37468.5    266.9   0.041492912   0.36457  -0.01922   0.59477  -0.10223
  41   37802.1    264.5   0.002448473   0.02132   0.03398  -0.06092   0.12829
  42   37992.4    263.2   0.006895557   0.05975   0.03078   0.08617  -0.22667
  43   38177.1    261.9   0.070898321   0.61138  -0.09271  -0.42533   0.64952
  44   38594.7    259.1   0.044025631   0.37554  -0.07841  -0.05185   0.60556
  45   38701.3    258.4   0.042740641   0.36357   0.23298   0.55183  -0.06910
  46   38866.1    257.3   0.067520406   0.57193  -0.25127  -0.62386   0.34581
  47   38984.7    256.5   0.077016375   0.65038  -0.01967  -0.46309  -0.65996
  48   39182.4    255.2   0.004154197   0.03490   0.12011   0.10401   0.09828
  49   39248.9    254.8   0.002409731   0.02021  -0.09307  -0.10668   0.01296
  50   39452.9    253.5   0.026460620   0.22080   0.11520   0.08847  -0.44688
  51   39899.8    250.6   0.248589075   2.05110   0.95337   1.06401  -0.10034
  52   40142.2    249.1   0.015021478   0.12319  -0.08476  -0.20500   0.27200

FINAL SINGLE POINT ENERGY    -14432.966710882683

DIPOLE MOMENT
-------------
                                X             Y             Z
Electronic contribution:     40.52164     228.84922      91.46310
Nuclear contribution   :    -44.67140    -231.57068     -94.74604
                        -----------------------------------------
Total Dipole Moment    :     -4.14976      -2.72146      -3.28295
                        -----------------------------------------
Magnitude (a.u.)       :      5.95017
Magnitude (Debye)      :     15.12414

Rotational constants in cm-1:     0.000836     0.000215     0.000183
Rotational constants in MHz :    25.048089     6.444145     5.491417

                             ****ORCA TERMINATED NORMALLY****
TOTAL RUN TIME: 0 days 0 hours 12 minutes 42 seconds 160 msec
