                         Program Version 4.2.0 -  RELEASE  -
|  1> # ORCA input file
|  2> # SCF done       -159.789175201064          0.000823864968
|  3> ! CAM-B3LYP def2-SVP def2/J RIJCOSX Grid4 TightSCF
|  4> %maxcore 5000
|  5> %tddft
|  6>     Mode sTDDFT
|  7>     Ethresh 5.0
|  8>     maxcore 5000
|  9> end
| 10>
| 11> %pal
| 12>   nprocs 6
| 13>   end
| 14> * xyz 0 1
| 15>    C       -0.66326         0.55479        -1.82249
| 16>    O       -1.06623         0.48002        -0.68211
| 17>    C       -0.33870         1.81184        -2.53390
| 18>    C        0.15736         1.52134        -3.81524
| 19>    C        0.50870         2.55762        -4.66471
| 20>    C        0.36214         3.86514        -4.21516
| 21>    C       -0.12342         4.14270        -2.93586
| 22>    C       -0.47977         3.10714        -2.08210
| 23>   Br       -0.30732         5.93047        -2.35076
| 24>   Br        0.83093         5.28147        -5.37691
| 25>    C        0.19430         0.07032        -3.98272
| 26>    C        0.76961        -0.58252        -5.04065
| 27>    C        1.35643         0.07480        -6.14390
| 28>    N        1.84110         0.55143        -7.06852
| 29>    C        0.91145        -1.98133        -5.17257
| 30>    N        1.08934        -3.10107        -5.35405
| 31>    C       -0.40163        -0.52592        -2.79821
| 32>    C       -0.75316        -1.84843        -2.71425
| 33>    C       -1.32067        -2.59616        -1.66723
| 34>    C       -1.50823        -2.34611        -0.31515
| 35>    C       -2.10126        -3.39243         0.38281
| 36>    C       -2.28709        -3.32375         1.85936
| 37>    C       -2.39256        -4.48841        -0.44071
| 38>    S       -1.83158        -4.22297        -2.05776
| 39>    C       -3.03794        -5.72944        -0.14554
| 40>    C       -2.76539        -6.87007        -0.94561
| 41>    C       -3.34190        -8.14951        -0.67854
| 42>    N       -3.03981        -9.19424        -1.47047
| 43>    C       -2.23884        -9.02332        -2.48260
| 44>    C       -1.65911        -7.76208        -2.73999
| 45>    N       -1.91965        -6.73611        -1.98268
| 46>    C       -4.26467        -8.36457         0.37186
| 47>    C       -4.60162        -7.22156         1.12444
| 48>    C       -4.00185        -5.92624         0.86577
| 49>    N       -4.53242        -4.98587         1.65227
| 50>    S       -5.62280        -5.64377         2.61672
| 51>    N       -5.50786        -7.15656         2.10268
| 52>    C       -4.85395        -9.64285         0.55861
| 53>    C       -5.86765       -10.00197         1.43530
| 54>    C       -6.24735       -11.33610         1.34721
| 55>    C       -7.34084       -11.94545         2.15258
| 56>    C       -5.52034       -12.02775         0.37201
| 57>    S       -4.34812       -10.98585        -0.40348
| 58>    C       -5.61951       -13.40009         0.07836
| 59>    C       -5.11454       -14.08130        -0.99376
| 60>    C       -4.85855       -15.53711        -0.88645
| 61>    O       -5.27177       -16.29677        -0.04148
| 62>    C       -3.92862       -15.84047        -2.00106
| 63>    C       -3.74364       -14.68734        -2.78685
| 64>    C       -4.59830       -13.62382        -2.26434
| 65>    C       -5.03469       -12.53626        -2.97459
| 66>    C       -6.13115       -11.74816        -2.56361
| 67>    N       -7.06284       -11.13427        -2.29525
| 68>    C       -4.48108       -12.12441        -4.20108
| 69>    N       -4.02112       -11.72508        -5.17439
| 70>    C       -2.88817       -14.72157        -3.87395
| 71>    C       -2.22738       -15.91065        -4.16114
| 72>    C       -2.42496       -17.05417        -3.38494
| 73>    C       -3.28366       -17.02391        -2.29288
| 74>   Br       -1.52346       -18.66139        -3.80732
| 75>   Br       -1.04141       -15.95641        -5.63330
| 76>    H        0.88391         2.38382        -5.66003
| 77>    H       -0.85897         3.30716        -1.09197
| 78>    H       -0.61163        -2.43302        -3.61615
| 79>    H       -1.21336        -1.42444         0.15107
| 80>    H       -1.57707        -2.61499         2.27837
| 81>    H       -2.13672        -4.29653         2.31990
| 82>    H       -3.29358        -2.98866         2.10077
| 83>    H       -2.04118        -9.88301        -3.10650
| 84>    H       -0.98018        -7.60182        -3.56477
| 85>    H       -6.31104        -9.28937         2.10659
| 86>    H       -7.69554       -11.24123         2.89972
| 87>    H       -6.99585       -12.84925         2.65314
| 88>    H       -8.17451       -12.21912         1.50696
| 89>    H       -6.06871       -14.02579         0.84410
| 90>    H       -2.71420       -13.85523        -4.49195
| 91>    H       -3.44276       -17.90318        -1.68815
| 92> *
| 93>
| 94>                          ****END OF INPUT****

CARTESIAN COORDINATES (ANGSTROEM)
---------------------------------
  C     -0.663260    0.554790   -1.822490
  O     -1.066230    0.480020   -0.682110
  C     -0.338700    1.811840   -2.533900
  C      0.157360    1.521340   -3.815240
  C      0.508700    2.557620   -4.664710
  C      0.362140    3.865140   -4.215160
  C     -0.123420    4.142700   -2.935860
  C     -0.479770    3.107140   -2.082100
  Br    -0.307320    5.930470   -2.350760
  Br     0.830930    5.281470   -5.376910
  C      0.194300    0.070320   -3.982720
  C      0.769610   -0.582520   -5.040650
  C      1.356430    0.074800   -6.143900
  N      1.841100    0.551430   -7.068520
  C      0.911450   -1.981330   -5.172570
  N      1.089340   -3.101070   -5.354050
  C     -0.401630   -0.525920   -2.798210
  C     -0.753160   -1.848430   -2.714250
  C     -1.320670   -2.596160   -1.667230
  C     -1.508230   -2.346110   -0.315150
  C     -2.101260   -3.392430    0.382810
  C     -2.287090   -3.323750    1.859360
  C     -2.392560   -4.488410   -0.440710
  S     -1.831580   -4.222970   -2.057760
  C     -3.037940   -5.729440   -0.145540
  C     -2.765390   -6.870070   -0.945610
  C     -3.341900   -8.149510   -0.678540
  N     -3.039810   -9.194240   -1.470470
  C     -2.238840   -9.023320   -2.482600
  C     -1.659110   -7.762080   -2.739990
  N     -1.919650   -6.736110   -1.982680
  C     -4.264670   -8.364570    0.371860
  C     -4.601620   -7.221560    1.124440
  C     -4.001850   -5.926240    0.865770
  N     -4.532420   -4.985870    1.652270
  S     -5.622800   -5.643770    2.616720
  N     -5.507860   -7.156560    2.102680
  C     -4.853950   -9.642850    0.558610
  C     -5.867650  -10.001970    1.435300
  C     -6.247350  -11.336100    1.347210
  C     -7.340840  -11.945450    2.152580
  C     -5.520340  -12.027750    0.372010
  S     -4.348120  -10.985850   -0.403480
  C     -5.619510  -13.400090    0.078360
  C     -5.114540  -14.081300   -0.993760
  C     -4.858550  -15.537110   -0.886450
  O     -5.271770  -16.296770   -0.041480
  C     -3.928620  -15.840470   -2.001060
  C     -3.743640  -14.687340   -2.786850
  C     -4.598300  -13.623820   -2.264340
  C     -5.034690  -12.536260   -2.974590
  C     -6.131150  -11.748160   -2.563610
  N     -7.062840  -11.134270   -2.295250
  C     -4.481080  -12.124410   -4.201080
  N     -4.021120  -11.725080   -5.174390
  C     -2.888170  -14.721570   -3.873950
  C     -2.227380  -15.910650   -4.161140
  C     -2.424960  -17.054170   -3.384940
  C     -3.283660  -17.023910   -2.292880
  Br    -1.523460  -18.661390   -3.807320
  Br    -1.041410  -15.956410   -5.633300
  H      0.883910    2.383820   -5.660030
  H     -0.858970    3.307160   -1.091970
  H     -0.611630   -2.433020   -3.616150
  H     -1.213360   -1.424440    0.151070
  H     -1.577070   -2.614990    2.278370
  H     -2.136720   -4.296530    2.319900
  H     -3.293580   -2.988660    2.100770
  H     -2.041180   -9.883010   -3.106500
  H     -0.980180   -7.601820   -3.564770
  H     -6.311040   -9.289370    2.106590
  H     -7.695540  -11.241230    2.899720
  H     -6.995850  -12.849250    2.653140
  H     -8.174510  -12.219120    1.506960
  H     -6.068710  -14.025790    0.844100
  H     -2.714200  -13.855230   -4.491950
  H     -3.442760  -17.903180   -1.688150

 Total Charge           Charge          ....    0
 Multiplicity           Mult            ....    1
 Number of Electrons    NEL             ....  540
 Basis Dimension        Dim             .... 1018

ORBITAL ENERGIES
----------------

  NO   OCC          E(Eh)            E(eV)
   0   2.0000    -482.876698    -13139.7430
   1   2.0000    -482.875782    -13139.7180
   2   2.0000    -482.875543    -13139.7115
   3   2.0000    -482.874452    -13139.6818
   4   2.0000     -89.053899     -2423.2798
   5   2.0000     -88.965912     -2420.8855
   6   2.0000     -88.962647     -2420.7967
   7   2.0000     -62.554287     -1702.1887
   8   2.0000     -62.553399     -1702.1645
   9   2.0000     -62.553158     -1702.1580
  10   2.0000     -62.552094     -1702.1290
  11   2.0000     -56.388234     -1534.4019
  12   2.0000     -56.387347     -1534.3777
  13   2.0000     -56.387111     -1534.3713
  14   2.0000     -56.386055     -1534.3425
  15   2.0000     -56.385588     -1534.3299
  16   2.0000     -56.385493     -1534.3273
  17   2.0000     -56.384693     -1534.3055
  18   2.0000     -56.384607     -1534.3032
  19   2.0000     -56.384453     -1534.2990
  20   2.0000     -56.384359     -1534.2964
  21   2.0000     -56.383383     -1534.2698
  22   2.0000     -56.383290     -1534.2673
  23   2.0000     -19.224333      -523.1207
  24   2.0000     -19.217417      -522.9325
  25   2.0000     -14.460293      -393.4846
  26   2.0000     -14.459982      -393.4761
  27   2.0000     -14.453805      -393.3080
  28   2.0000     -14.452457      -393.2713
  29   2.0000     -14.421151      -392.4195
  30   2.0000     -14.419825      -392.3834
  31   2.0000     -14.417277      -392.3140
  32   2.0000     -14.413097      -392.2003
  33   2.0000     -10.375837      -282.3409
  34   2.0000     -10.369366      -282.1648
  35   2.0000     -10.353133      -281.7231
  36   2.0000     -10.353127      -281.7229
  37   2.0000     -10.352609      -281.7088
  38   2.0000     -10.352024      -281.6929
  39   2.0000     -10.351944      -281.6907
  40   2.0000     -10.351053      -281.6665
  41   2.0000     -10.348760      -281.6041
  42   2.0000     -10.347550      -281.5711
  43   2.0000     -10.347279      -281.5638
  44   2.0000     -10.347196      -281.5615
  45   2.0000     -10.346751      -281.5494
  46   2.0000     -10.345990      -281.5287
  47   2.0000     -10.345020      -281.5023
  48   2.0000     -10.343968      -281.4737
  49   2.0000     -10.327852      -281.0351
  50   2.0000     -10.325563      -280.9729
  51   2.0000     -10.324040      -280.9314
  52   2.0000     -10.323944      -280.9288
  53   2.0000     -10.323936      -280.9286
  54   2.0000     -10.323358      -280.9129
  55   2.0000     -10.322455      -280.8883
  56   2.0000     -10.320373      -280.8316
  57   2.0000     -10.319953      -280.8202
  58   2.0000     -10.316765      -280.7335
  59   2.0000     -10.316638      -280.7300
  60   2.0000     -10.315728      -280.7052
  61   2.0000     -10.310895      -280.5737
  62   2.0000     -10.310687      -280.5681
  63   2.0000     -10.310478      -280.5624
  64   2.0000     -10.310318      -280.5580
  65   2.0000     -10.308846      -280.5180
  66   2.0000     -10.302945      -280.3574
  67   2.0000     -10.302331      -280.3407
  68   2.0000     -10.302175      -280.3364
  69   2.0000     -10.301143      -280.3083
  70   2.0000     -10.298885      -280.2469
  71   2.0000     -10.295536      -280.1558
  72   2.0000     -10.295019      -280.1417
  73   2.0000     -10.280687      -279.7517
  74   2.0000     -10.279963      -279.7320
  75   2.0000     -10.277821      -279.6737
  76   2.0000     -10.266986      -279.3789
  77   2.0000      -8.783588      -239.0136
  78   2.0000      -8.782722      -238.9900
  79   2.0000      -8.782473      -238.9832
  80   2.0000      -8.781433      -238.9549
  81   2.0000      -8.145225      -221.6429
  82   2.0000      -8.059882      -219.3205
  83   2.0000      -8.055691      -219.2065
  84   2.0000      -6.619700      -180.1312
  85   2.0000      -6.618835      -180.1077
  86   2.0000      -6.618592      -180.1010
  87   2.0000      -6.617610      -180.0743
  88   2.0000      -6.605713      -179.7506
  89   2.0000      -6.604951      -179.7298
  90   2.0000      -6.604829      -179.7265
  91   2.0000      -6.604583      -179.7199
  92   2.0000      -6.604099      -179.7067
  93   2.0000      -6.603836      -179.6995
  94   2.0000      -6.603517      -179.6908
  95   2.0000      -6.602766      -179.6704
  96   2.0000      -6.116215      -166.4307
  97   2.0000      -6.108364      -166.2170
  98   2.0000      -6.108251      -166.2139
  99   2.0000      -6.029233      -164.0638
 100   2.0000      -6.025256      -163.9555
 101   2.0000      -6.024728      -163.9412
 102   2.0000      -6.022271      -163.8743
 103   2.0000      -6.020610      -163.8291
 104   2.0000      -6.017795      -163.7525
 105   2.0000      -2.735599       -74.4394
 106   2.0000      -2.734738       -74.4160
 107   2.0000      -2.734541       -74.4107
 108   2.0000      -2.733469       -74.3815
 109   2.0000      -2.731856       -74.3376
 110   2.0000      -2.731256       -74.3212
 111   2.0000      -2.730995       -74.3142
 112   2.0000      -2.730716       -74.3066
 113   2.0000      -2.730376       -74.2973
 114   2.0000      -2.730128       -74.2906
 115   2.0000      -2.729748       -74.2802
 116   2.0000      -2.729120       -74.2631
 117   2.0000      -2.720132       -74.0186
 118   2.0000      -2.720117       -74.0181
 119   2.0000      -2.719266       -73.9950
 120   2.0000      -2.719245       -73.9944
 121   2.0000      -2.718995       -73.9876
 122   2.0000      -2.718977       -73.9871
 123   2.0000      -2.717929       -73.9586
 124   2.0000      -2.717914       -73.9582
 125   2.0000      -1.150568       -31.3086
 126   2.0000      -1.139646       -31.0113
 127   2.0000      -1.132830       -30.8259
 128   2.0000      -1.112860       -30.2825
 129   2.0000      -1.039968       -28.2990
 130   2.0000      -1.025224       -27.8978
 131   2.0000      -1.024578       -27.8802
 132   2.0000      -1.009210       -27.4620
 133   2.0000      -1.008015       -27.4295
 134   2.0000      -1.006353       -27.3843
 135   2.0000      -1.003454       -27.3054
 136   2.0000      -0.997065       -27.1315
 137   2.0000      -0.996041       -27.1036
 138   2.0000      -0.990172       -26.9439
 139   2.0000      -0.977979       -26.6122
 140   2.0000      -0.975531       -26.5455
 141   2.0000      -0.970593       -26.4112
 142   2.0000      -0.922296       -25.0969
 143   2.0000      -0.920227       -25.0406
 144   2.0000      -0.916248       -24.9324
 145   2.0000      -0.912933       -24.8422
 146   2.0000      -0.910377       -24.7726
 147   2.0000      -0.905037       -24.6273
 148   2.0000      -0.894664       -24.3450
 149   2.0000      -0.893792       -24.3213
 150   2.0000      -0.876975       -23.8637
 151   2.0000      -0.869699       -23.6657
 152   2.0000      -0.865883       -23.5619
 153   2.0000      -0.853475       -23.2242
 154   2.0000      -0.851993       -23.1839
 155   2.0000      -0.851860       -23.1803
 156   2.0000      -0.828990       -22.5580
 157   2.0000      -0.811764       -22.0892
 158   2.0000      -0.809609       -22.0306
 159   2.0000      -0.787276       -21.4229
 160   2.0000      -0.785735       -21.3809
 161   2.0000      -0.774238       -21.0681
 162   2.0000      -0.770317       -20.9614
 163   2.0000      -0.768055       -20.8998
 164   2.0000      -0.763966       -20.7886
 165   2.0000      -0.749638       -20.3987
 166   2.0000      -0.733312       -19.9544
 167   2.0000      -0.722261       -19.6537
 168   2.0000      -0.714456       -19.4413
 169   2.0000      -0.703115       -19.1327
 170   2.0000      -0.695709       -18.9312
 171   2.0000      -0.691651       -18.8208
 172   2.0000      -0.686314       -18.6756
 173   2.0000      -0.685095       -18.6424
 174   2.0000      -0.674940       -18.3661
 175   2.0000      -0.665190       -18.1007
 176   2.0000      -0.653941       -17.7946
 177   2.0000      -0.649575       -17.6758
 178   2.0000      -0.638625       -17.3779
 179   2.0000      -0.633843       -17.2477
 180   2.0000      -0.625007       -17.0073
 181   2.0000      -0.619709       -16.8631
 182   2.0000      -0.616532       -16.7767
 183   2.0000      -0.614011       -16.7081
 184   2.0000      -0.597352       -16.2548
 185   2.0000      -0.594461       -16.1761
 186   2.0000      -0.590713       -16.0741
 187   2.0000      -0.585118       -15.9219
 188   2.0000      -0.579896       -15.7798
 189   2.0000      -0.576971       -15.7002
 190   2.0000      -0.573179       -15.5970
 191   2.0000      -0.563224       -15.3261
 192   2.0000      -0.558105       -15.1868
 193   2.0000      -0.554295       -15.0831
 194   2.0000      -0.550195       -14.9716
 195   2.0000      -0.548621       -14.9287
 196   2.0000      -0.547856       -14.9079
 197   2.0000      -0.545566       -14.8456
 198   2.0000      -0.541211       -14.7271
 199   2.0000      -0.538785       -14.6611
 200   2.0000      -0.536193       -14.5906
 201   2.0000      -0.529683       -14.4134
 202   2.0000      -0.524882       -14.2828
 203   2.0000      -0.523555       -14.2467
 204   2.0000      -0.520191       -14.1551
 205   2.0000      -0.519150       -14.1268
 206   2.0000      -0.515722       -14.0335
 207   2.0000      -0.512704       -13.9514
 208   2.0000      -0.505015       -13.7421
 209   2.0000      -0.502482       -13.6732
 210   2.0000      -0.501328       -13.6418
 211   2.0000      -0.501075       -13.6349
 212   2.0000      -0.496194       -13.5021
 213   2.0000      -0.492937       -13.4135
 214   2.0000      -0.491035       -13.3617
 215   2.0000      -0.489805       -13.3283
 216   2.0000      -0.486120       -13.2280
 217   2.0000      -0.482545       -13.1307
 218   2.0000      -0.473529       -12.8854
 219   2.0000      -0.467251       -12.7145
 220   2.0000      -0.466536       -12.6951
 221   2.0000      -0.463911       -12.6236
 222   2.0000      -0.462795       -12.5933
 223   2.0000      -0.461924       -12.5696
 224   2.0000      -0.460098       -12.5199
 225   2.0000      -0.456740       -12.4285
 226   2.0000      -0.455447       -12.3933
 227   2.0000      -0.452530       -12.3140
 228   2.0000      -0.451336       -12.2815
 229   2.0000      -0.449612       -12.2346
 230   2.0000      -0.448128       -12.1942
 231   2.0000      -0.445969       -12.1354
 232   2.0000      -0.444137       -12.0856
 233   2.0000      -0.441532       -12.0147
 234   2.0000      -0.437461       -11.9039
 235   2.0000      -0.431585       -11.7440
 236   2.0000      -0.430126       -11.7043
 237   2.0000      -0.429404       -11.6847
 238   2.0000      -0.427514       -11.6333
 239   2.0000      -0.426820       -11.6144
 240   2.0000      -0.425421       -11.5763
 241   2.0000      -0.420885       -11.4529
 242   2.0000      -0.415836       -11.3155
 243   2.0000      -0.413145       -11.2422
 244   2.0000      -0.411788       -11.2053
 245   2.0000      -0.399739       -10.8775
 246   2.0000      -0.399495       -10.8708
 247   2.0000      -0.397381       -10.8133
 248   2.0000      -0.392074       -10.6689
 249   2.0000      -0.389558       -10.6004
 250   2.0000      -0.389476       -10.5982
 251   2.0000      -0.385155       -10.4806
 252   2.0000      -0.375803       -10.2261
 253   2.0000      -0.366672        -9.9777
 254   2.0000      -0.358799        -9.7634
 255   2.0000      -0.357257        -9.7215
 256   2.0000      -0.348926        -9.4947
 257   2.0000      -0.347791        -9.4639
 258   2.0000      -0.343309        -9.3419
 259   2.0000      -0.340066        -9.2537
 260   2.0000      -0.339787        -9.2461
 261   2.0000      -0.338081        -9.1997
 262   2.0000      -0.334460        -9.1011
 263   2.0000      -0.324003        -8.8166
 264   2.0000      -0.320371        -8.7177
 265   2.0000      -0.314587        -8.5604
 266   2.0000      -0.312007        -8.4901
 267   2.0000      -0.307374        -8.3641
 268   2.0000      -0.290917        -7.9162
 269   2.0000      -0.253842        -6.9074
 270   0.0000      -0.131257        -3.5717
 271   0.0000      -0.088759        -2.4153
 272   0.0000      -0.084428        -2.2974
 273   0.0000      -0.066418        -1.8073
 274   0.0000      -0.061963        -1.6861

MULLIKEN ATOMIC CHARGES
-----------------------
   0 C :    0.157356
   1 O :   -0.145044
   2 C :   -0.016327
   3 C :    0.032251
   4 C :   -0.004860
   5 C :   -0.026354
   6 C :   -0.014329
   7 C :   -0.021202
   8 Br:    0.012504
   9 Br:    0.020201
  10 C :    0.300991
  11 C :   -0.345892
  12 C :   -0.188735
  13 N :    0.158581
  14 C :   -0.196853
  15 N :    0.160684
  16 C :   -0.092971
  17 C :    0.050489
  18 C :   -0.074244
  19 C :   -0.034467
  20 C :   -0.053175
  21 C :    0.170055
  22 C :   -0.198813
  23 S :    0.187404
  24 C :    0.138577
  25 C :   -0.043066
  26 C :   -0.037748
  27 N :   -0.079532
  28 C :    0.057726
  29 C :    0.044311
  30 N :   -0.056567
  31 C :    0.198993
  32 C :   -0.021014
  33 C :   -0.010735
  34 N :   -0.285269
  35 S :    0.554521
  36 N :   -0.286658
  37 C :   -0.144286
  38 C :   -0.032428
  39 C :   -0.013456
  40 C :    0.119875
  41 C :   -0.099083
  42 S :    0.161712
  43 C :    0.028502
  44 C :   -0.135731
  45 C :    0.141543
  46 O :   -0.142781
  47 C :   -0.000124
  48 C :    0.025377
  49 C :    0.249272
  50 C :   -0.316928
  51 C :   -0.206805
  52 N :    0.168464
  53 C :   -0.170426
  54 N :    0.144284
  55 C :   -0.015070
  56 C :   -0.023144
  57 C :   -0.016312
  58 C :   -0.022166
  59 Br:    0.011059
  60 Br:    0.016768
  61 H :    0.007684
  62 H :    0.004238
  63 H :    0.011930
  64 H :    0.003349
  65 H :    0.012523
  66 H :    0.001984
  67 H :    0.038398
  68 H :    0.031409
  69 H :    0.035964
  70 H :   -0.012171
  71 H :    0.015711
  72 H :    0.036143
  73 H :    0.047213
  74 H :    0.014507
  75 H :    0.005173
  76 H :    0.007042
Sum of atomic charges:   -0.0000000

LOEWDIN ATOMIC CHARGES
----------------------
   0 C :    0.086656
   1 O :   -0.135552
   2 C :   -0.040869
   3 C :   -0.012290
   4 C :   -0.006726
   5 C :   -0.119593
   6 C :   -0.123063
   7 C :    0.005144
   8 Br:    0.136150
   9 Br:    0.140064
  10 C :    0.075090
  11 C :   -0.136741
  12 C :   -0.019875
  13 N :   -0.047036
  14 C :   -0.024541
  15 N :   -0.048074
  16 C :   -0.100915
  17 C :    0.053133
  18 C :   -0.185877
  19 C :   -0.016321
  20 C :   -0.036080
  21 C :   -0.047169
  22 C :   -0.153410
  23 S :    0.504028
  24 C :   -0.037730
  25 C :   -0.010707
  26 C :   -0.008921
  27 N :   -0.044242
  28 C :    0.035482
  29 C :    0.030146
  30 N :   -0.041001
  31 C :   -0.038254
  32 C :   -0.036081
  33 C :   -0.041674
  34 N :   -0.265741
  35 S :    0.684007
  36 N :   -0.283029
  37 C :   -0.137496
  38 C :   -0.045020
  39 C :   -0.011454
  40 C :   -0.044389
  41 C :   -0.199406
  42 S :    0.513145
  43 C :    0.058683
  44 C :   -0.107481
  45 C :    0.082014
  46 O :   -0.142328
  47 C :   -0.042068
  48 C :   -0.008067
  49 C :    0.061454
  50 C :   -0.144986
  51 C :   -0.036739
  52 N :   -0.048491
  53 C :   -0.019459
  54 N :   -0.058463
  55 C :   -0.013242
  56 C :   -0.119321
  57 C :   -0.124880
  58 C :    0.005882
  59 Br:    0.134811
  60 Br:    0.137970
  61 H :    0.044578
  62 H :    0.045283
  63 H :    0.042458
  64 H :    0.031347
  65 H :    0.031902
  66 H :    0.027847
  67 H :    0.037756
  68 H :    0.035001
  69 H :    0.036886
  70 H :    0.029076
  71 H :    0.035527
  72 H :    0.039977
  73 H :    0.047064
  74 H :    0.047191
  75 H :    0.042716
  76 H :    0.046332

  Mayer bond orders larger than 0.100000
B(  0-C ,  1-O ) :   2.1903 B(  0-C ,  2-C ) :   0.9493 B(  0-C , 16-C ) :   0.9463
B(  2-C ,  3-C ) :   1.3296 B(  2-C ,  7-C ) :   1.3722 B(  3-C ,  4-C ) :   1.3683
B(  3-C , 10-C ) :   0.9850 B(  4-C ,  5-C ) :   1.3705 B(  4-C , 61-H ) :   0.9784
B(  5-C ,  6-C ) :   1.4216 B(  5-C ,  9-Br) :   1.0555 B(  6-C ,  7-C ) :   1.3522
B(  6-C ,  8-Br) :   1.0317 B(  7-C , 62-H ) :   1.0072 B( 10-C , 11-C ) :   1.6354
B( 10-C , 16-C ) :   1.0838 B( 11-C , 12-C ) :   1.1430 B( 11-C , 14-C ) :   1.1387
B( 12-C , 13-N ) :   2.9743 B( 14-C , 15-N ) :   2.9875 B( 16-C , 17-C ) :   1.5719
B( 17-C , 18-C ) :   1.2230 B( 17-C , 63-H ) :   0.9160 B( 18-C , 19-C ) :   1.3910
B( 18-C , 23-S ) :   1.0834 B( 19-C , 20-C ) :   1.3134 B( 19-C , 64-H ) :   0.9859
B( 20-C , 21-C ) :   1.1232 B( 20-C , 22-C ) :   1.4150 B( 21-C , 65-H ) :   0.9408
B( 21-C , 66-H ) :   0.9413 B( 21-C , 67-H ) :   0.9207 B( 22-C , 23-S ) :   1.1745
B( 22-C , 24-C ) :   1.1127 B( 24-C , 25-C ) :   1.2810 B( 24-C , 31-C ) :   0.1317
B( 24-C , 33-C ) :   1.2268 B( 25-C , 26-C ) :   1.1500 B( 25-C , 30-N ) :   1.3994
B( 26-C , 27-N ) :   1.3884 B( 26-C , 31-C ) :   1.2679 B( 27-N , 28-C ) :   1.6602
B( 28-C , 29-C ) :   1.1925 B( 28-C , 68-H ) :   0.9706 B( 29-C , 30-N ) :   1.6704
B( 29-C , 69-H ) :   0.9744 B( 31-C , 32-C ) :   1.2139 B( 31-C , 37-C ) :   1.1697
B( 32-C , 33-C ) :   1.0954 B( 32-C , 36-N ) :   1.5133 B( 33-C , 34-N ) :   1.4945
B( 34-N , 35-S ) :   1.2982 B( 34-N , 36-N ) :   0.1564 B( 35-S , 36-N ) :   1.2810
B( 37-C , 38-C ) :   1.4193 B( 37-C , 42-S ) :   1.1575 B( 38-C , 39-C ) :   1.3068
B( 38-C , 70-H ) :   0.9842 B( 39-C , 40-C ) :   1.1090 B( 39-C , 41-C ) :   1.3907
B( 40-C , 71-H ) :   0.9483 B( 40-C , 72-H ) :   0.9334 B( 40-C , 73-H ) :   0.9423
B( 41-C , 42-S ) :   1.0471 B( 41-C , 43-C ) :   1.1912 B( 43-C , 44-C ) :   1.6016
B( 43-C , 74-H ) :   0.9412 B( 44-C , 45-C ) :   0.9564 B( 44-C , 49-C ) :   1.0462
B( 45-C , 46-O ) :   2.2625 B( 45-C , 47-C ) :   0.9174 B( 47-C , 48-C ) :   1.3285
B( 47-C , 58-C ) :   1.3788 B( 48-C , 49-C ) :   1.0118 B( 48-C , 55-C ) :   1.3725
B( 49-C , 50-C ) :   1.6498 B( 50-C , 51-C ) :   1.1487 B( 50-C , 53-C ) :   1.1389
B( 51-C , 52-N ) :   3.0257 B( 53-C , 54-N ) :   2.9607 B( 55-C , 56-C ) :   1.3658
B( 55-C , 75-H ) :   0.9829 B( 56-C , 57-C ) :   1.4270 B( 56-C , 60-Br) :   1.0493
B( 57-C , 58-C ) :   1.3534 B( 57-C , 59-Br) :   1.0309 B( 58-C , 76-H ) :   1.0070

-----------------------------------------------------------------------------
         ABSORPTION SPECTRUM VIA TRANSITION ELECTRIC DIPOLE MOMENTS
-----------------------------------------------------------------------------
State   Energy  Wavelength   fosc         T2         TX        TY        TZ
        (cm-1)    (nm)                  (au**2)     (au)      (au)      (au)
-----------------------------------------------------------------------------
   0   11200.7    892.8   0.826233140  24.28469   1.62890   4.63719  -0.35758
   1   19312.4    517.8   0.170161598   2.90069   0.63122   0.37673  -1.53634
   2   19640.5    509.2   0.018098272   0.30336   0.23269   0.39593   0.30406
   3   20114.9    497.1   0.111923522   1.83181  -0.02211  -1.05024  -0.85342
   4   21948.5    455.6   0.451897154   6.77815  -1.05419  -1.85372   1.49350
   5   22984.6    435.1   0.056844890   0.81420   0.47404   0.09117  -0.76235
   6   24602.2    406.5   0.004470042   0.05982  -0.19986   0.13040   0.05354
   7   25282.7    395.5   0.008554054   0.11138  -0.31136   0.04257  -0.11237
   8   25844.3    386.9   0.211871448   2.69888   0.21729   1.62824  -0.02266
   9   26255.8    380.9   0.107155186   1.34358  -0.20684   1.05762   0.42689
  10   27218.8    367.4   0.006338499   0.07666   0.22478  -0.10921  -0.11922
  11   28305.3    353.3   0.163820505   1.90536   0.26499  -1.29286  -0.40455
  12   28820.1    347.0   0.002705532   0.03091   0.05806   0.15395  -0.06191
  13   28993.9    344.9   0.068591304   0.77882  -0.03721   0.88172  -0.00036
  14   29260.6    341.8   0.014785931   0.16636   0.22829  -0.32206   0.10256
  15   29352.4    340.7   0.049053997   0.55018   0.05031  -0.73366   0.09691
  16   30450.4    328.4   0.094433523   1.02096   0.48017  -0.67335  -0.58051
  17   30521.2    327.6   0.147900329   1.59530   0.68019   0.38433  -0.99244
  18   30811.7    324.6   0.007952217   0.08497  -0.19950  -0.17906   0.11447
  19   31429.3    318.2   0.001081911   0.01133   0.00526  -0.00125  -0.10632
  20   31529.1    317.2   0.098044723   1.02374   0.37250   0.36300  -0.86788
  21   31835.3    314.1   0.011161031   0.11542  -0.18937   0.16366   0.22972
  22   31922.9    313.3   0.023962562   0.24712  -0.28256   0.39698   0.09844
  23   32245.4    310.1   0.019578139   0.19988  -0.00978   0.41214   0.17299
  24   32599.0    306.8   0.088707843   0.89585   0.29821  -0.85878   0.26347
  25   32700.1    305.8   0.032236826   0.32455   0.36283  -0.43866  -0.02195
  26   32911.5    303.8   0.094753702   0.94781   0.36824  -0.68637  -0.58405
  27   33768.6    296.1   0.146097891   1.42432  -0.17112   1.07883   0.48078
  28   34247.3    292.0   0.049914540   0.47982   0.27780  -0.63261   0.04947
  29   34830.7    287.1   0.457412469   4.32336  -0.39972   1.74312   1.06071
  30   34934.6    286.2   0.411084884   3.87393   0.70339  -1.83748   0.05327
  31   35348.1    282.9   0.089713074   0.83554  -0.40081   0.77253  -0.27943
  32   35593.6    280.9   0.113986760   1.05428   0.67124  -0.70693  -0.32244
  33   36098.3    277.0   0.200399880   1.82762   0.84292   0.24762  -1.02752
  34   36307.4    275.4   0.012175802   0.11040  -0.05882  -0.27497   0.17702
  35   36505.4    273.9   0.144367240   1.30193  -0.52440   0.67152   0.75894
  36   36817.1    271.6   0.032680359   0.29222  -0.22978  -0.32636   0.36457
  37   36998.6    270.3   0.020236954   0.18007  -0.03546  -0.00942   0.42275
  38   37153.6    269.2   0.069055623   0.61189   0.57466  -0.10219  -0.52079
  39   37200.6    268.8   0.081839974   0.72425  -0.37338   0.34705   0.68147
  40   37267.3    268.3   0.177923592   1.57174   0.44972  -0.65176  -0.97196
  41   37597.8    266.0   0.136285810   1.19334   0.42817   0.92575  -0.39116
  42   37737.1    265.0   0.050028999   0.43644  -0.11659   0.63391   0.14494
  43   37925.4    263.7   0.056587417   0.49121   0.01823   0.37105  -0.59431
  44   38273.8    261.3   0.028283876   0.24328   0.44781  -0.02287  -0.20550
  45   38397.1    260.4   0.067746428   0.58085   0.41596  -0.08348  -0.63313
  46   38539.7    259.5   0.077697462   0.66370  -0.15806  -0.64021   0.47838
  47   38949.9    256.7   0.074512834   0.62980  -0.14575  -0.75770   0.18559
  48   39232.4    254.9   0.108933638   0.91410  -0.53216  -0.15130   0.77975
  49   39711.5    251.8   0.025669814   0.21281   0.26699   0.02875  -0.37509
  50   40043.5    249.7   0.028718884   0.23611   0.12066  -0.45937  -0.10263
  51   40145.3    249.1   0.000616860   0.00506   0.01456  -0.04448   0.05356
  52   40207.1    248.7   0.004138557   0.03389  -0.03420  -0.07391   0.16509

FINAL SINGLE POINT ENERGY    -13761.855630574328

DIPOLE MOMENT
-------------
                                X             Y             Z
Electronic contribution:     79.07108      39.26159     -97.69177
Nuclear contribution   :    -79.79262     -39.26361     100.99031
                        -----------------------------------------
Total Dipole Moment    :     -0.72153      -0.00202       3.29855
                        -----------------------------------------
Magnitude (a.u.)       :      3.37654
Magnitude (Debye)      :      8.58249

Rotational constants in cm-1:     0.001641     0.000232     0.000208
Rotational constants in MHz :    49.195081     6.966658     6.223663

                             ****ORCA TERMINATED NORMALLY****
TOTAL RUN TIME: 0 days 0 hours 9 minutes 13 seconds 935 msec
