                         Program Version 4.2.0 -  RELEASE  -
|  1> # ORCA input file
|  2> # SCF done       -181.389182247844          0.000708029771
|  3> ! CAM-B3LYP def2-SVP def2/J RIJCOSX Grid4 TightSCF
|  4> %maxcore 5000
|  5> %tddft
|  6>     Mode sTDDFT
|  7>     Ethresh 5.0
|  8>     maxcore 5000
|  9> end
| 10>
| 11> %pal
| 12>   nprocs 6
| 13>   end
| 14> * xyz 0 1
| 15>    C        2.99513        -7.05299         0.08227
| 16>    O        2.49066        -8.04948        -0.37646
| 17>    C        4.24890        -6.94873         0.86417
| 18>    C        4.50228        -5.59745         1.16262
| 19>    C        5.61301        -5.25420         1.91248
| 20>    C        6.45920        -6.26863         2.34818
| 21>    C        6.20958        -7.60540         2.03480
| 22>    C        5.09237        -7.95452         1.28535
| 23>   Br        7.38473        -8.96154         2.62913
| 24>   Br        7.96925        -5.80427         3.38630
| 25>    C        3.46781        -4.77471         0.53526
| 26>    C        3.57688        -3.42857         0.28169
| 27>    C        4.60366        -2.61094         0.79463
| 28>    N        5.39820        -1.89444         1.21032
| 29>    C        2.73121        -2.73045        -0.60317
| 30>    N        2.08569        -2.12905        -1.33727
| 31>    C        2.46015        -5.66627         0.02741
| 32>    C        1.17572        -5.46762        -0.40526
| 33>    C        0.31724        -4.37561        -0.20604
| 34>    C        0.31189        -3.35992         0.74631
| 35>    S        1.30086        -2.99313         2.11542
| 36>    C        0.29656        -1.60459         2.50512
| 37>    C        0.65526        -0.76545         3.67301
| 38>    C       -0.73528        -1.44946         1.63953
| 39>    C       -0.76188        -2.44784         0.63268
| 40>    C       -1.60229        -2.75515        -0.44218
| 41>    S       -1.08082        -4.20363        -1.25351
| 42>    C       -2.72024        -2.06913        -0.92486
| 43>    C       -3.48419        -2.48300        -2.02718
| 44>    C       -4.55879        -1.59128        -2.32618
| 45>    N       -5.36262        -1.79267        -3.36410
| 46>    C       -5.13393        -2.86163        -4.10017
| 47>    C       -6.01412        -3.07048        -5.27514
| 48>    O       -6.94434        -2.33037        -5.52899
| 49>    C       -5.68119        -4.23814        -6.10257
| 50>    C       -4.70433        -5.10080        -5.80069
| 51>    C       -3.84440        -4.98588        -4.60888
| 52>    O       -3.00507        -5.81321        -4.32905
| 53>    C       -4.08135        -3.77491        -3.77942
| 54>    N       -3.27253        -3.57512        -2.75864
| 55>    C       -4.62798        -0.48707        -1.46216
| 56>    S       -3.35482        -0.57517        -0.28471
| 57>    C       -5.55035         0.54585        -1.64673
| 58>    C       -5.66376         1.80986        -1.08656
| 59>    S       -4.79463         2.64109         0.14990
| 60>    C       -5.76438         4.08430        -0.12080
| 61>    C       -5.49846         5.29080         0.69867
| 62>    C       -6.68752         3.92243        -1.10030
| 63>    C       -6.66126         2.62522        -1.67415
| 64>    C       -7.32445         1.98299        -2.72200
| 65>    S       -6.74888         0.34069        -2.89842
| 66>    C       -8.33604         2.48591        -3.56227
| 67>    C       -8.70006         1.97809        -4.77684
| 68>    C      -10.05416         2.23949        -5.33077
| 69>    O      -10.83743         3.08966        -4.97916
| 70>    C      -10.25145         1.18191        -6.35037
| 71>    C       -9.06145         0.44528        -6.49905
| 72>    C       -8.02900         1.04549        -5.66243
| 73>    C       -6.68373         0.95691        -5.89620
| 74>    C       -5.73117         1.75882        -5.23221
| 75>    N       -4.93843         2.42556        -4.73743
| 76>    C       -6.10163         0.10520        -6.85630
| 77>    N       -5.56246        -0.56675        -7.61426
| 78>    C       -9.01527        -0.64909        -7.34251
| 79>    C      -10.16494        -0.98402        -8.04684
| 80>    C      -11.33498        -0.23127        -7.92441
| 81>    C      -11.38709         0.85956        -7.06495
| 82>   Br      -12.87629        -0.69782        -8.91530
| 83>   Br      -10.12419        -2.49446        -9.17871
| 84>    H        5.83506        -4.23196         2.17336
| 85>    H        4.88985        -8.98500         1.03786
| 86>    H        0.74278        -6.30970        -0.93688
| 87>    H        1.64932        -0.33825         3.54142
| 88>    H        0.67123        -1.36267         4.58433
| 89>    H       -0.06331         0.04163         3.78955
| 90>    H       -1.45625        -0.65597         1.71565
| 91>    H       -6.29073        -4.36588        -6.98677
| 92>    H       -4.49663        -5.95489        -6.43090
| 93>    H       -5.59668         5.06287         1.75958
| 94>    H       -6.19702         6.08204         0.43952
| 95>    H       -4.48272         5.64781         0.53000
| 96>    H       -7.36561         4.69699        -1.40825
| 97>    H       -8.93946         3.30347        -3.18235
| 98>    H       -8.12892        -1.25650        -7.42786
| 99>    H      -12.29280         1.43582        -6.95634
|100> *
|101>
|102>                          ****END OF INPUT****

CARTESIAN COORDINATES (ANGSTROEM)
---------------------------------
  C      2.995130   -7.052990    0.082270
  O      2.490660   -8.049480   -0.376460
  C      4.248900   -6.948730    0.864170
  C      4.502280   -5.597450    1.162620
  C      5.613010   -5.254200    1.912480
  C      6.459200   -6.268630    2.348180
  C      6.209580   -7.605400    2.034800
  C      5.092370   -7.954520    1.285350
  Br     7.384730   -8.961540    2.629130
  Br     7.969250   -5.804270    3.386300
  C      3.467810   -4.774710    0.535260
  C      3.576880   -3.428570    0.281690
  C      4.603660   -2.610940    0.794630
  N      5.398200   -1.894440    1.210320
  C      2.731210   -2.730450   -0.603170
  N      2.085690   -2.129050   -1.337270
  C      2.460150   -5.666270    0.027410
  C      1.175720   -5.467620   -0.405260
  C      0.317240   -4.375610   -0.206040
  C      0.311890   -3.359920    0.746310
  S      1.300860   -2.993130    2.115420
  C      0.296560   -1.604590    2.505120
  C      0.655260   -0.765450    3.673010
  C     -0.735280   -1.449460    1.639530
  C     -0.761880   -2.447840    0.632680
  C     -1.602290   -2.755150   -0.442180
  S     -1.080820   -4.203630   -1.253510
  C     -2.720240   -2.069130   -0.924860
  C     -3.484190   -2.483000   -2.027180
  C     -4.558790   -1.591280   -2.326180
  N     -5.362620   -1.792670   -3.364100
  C     -5.133930   -2.861630   -4.100170
  C     -6.014120   -3.070480   -5.275140
  O     -6.944340   -2.330370   -5.528990
  C     -5.681190   -4.238140   -6.102570
  C     -4.704330   -5.100800   -5.800690
  C     -3.844400   -4.985880   -4.608880
  O     -3.005070   -5.813210   -4.329050
  C     -4.081350   -3.774910   -3.779420
  N     -3.272530   -3.575120   -2.758640
  C     -4.627980   -0.487070   -1.462160
  S     -3.354820   -0.575170   -0.284710
  C     -5.550350    0.545850   -1.646730
  C     -5.663760    1.809860   -1.086560
  S     -4.794630    2.641090    0.149900
  C     -5.764380    4.084300   -0.120800
  C     -5.498460    5.290800    0.698670
  C     -6.687520    3.922430   -1.100300
  C     -6.661260    2.625220   -1.674150
  C     -7.324450    1.982990   -2.722000
  S     -6.748880    0.340690   -2.898420
  C     -8.336040    2.485910   -3.562270
  C     -8.700060    1.978090   -4.776840
  C    -10.054160    2.239490   -5.330770
  O    -10.837430    3.089660   -4.979160
  C    -10.251450    1.181910   -6.350370
  C     -9.061450    0.445280   -6.499050
  C     -8.029000    1.045490   -5.662430
  C     -6.683730    0.956910   -5.896200
  C     -5.731170    1.758820   -5.232210
  N     -4.938430    2.425560   -4.737430
  C     -6.101630    0.105200   -6.856300
  N     -5.562460   -0.566750   -7.614260
  C     -9.015270   -0.649090   -7.342510
  C    -10.164940   -0.984020   -8.046840
  C    -11.334980   -0.231270   -7.924410
  C    -11.387090    0.859560   -7.064950
  Br   -12.876290   -0.697820   -8.915300
  Br   -10.124190   -2.494460   -9.178710
  H      5.835060   -4.231960    2.173360
  H      4.889850   -8.985000    1.037860
  H      0.742780   -6.309700   -0.936880
  H      1.649320   -0.338250    3.541420
  H      0.671230   -1.362670    4.584330
  H     -0.063310    0.041630    3.789550
  H     -1.456250   -0.655970    1.715650
  H     -6.290730   -4.365880   -6.986770
  H     -4.496630   -5.954890   -6.430900
  H     -5.596680    5.062870    1.759580
  H     -6.197020    6.082040    0.439520
  H     -4.482720    5.647810    0.530000
  H     -7.365610    4.696990   -1.408250
  H     -8.939460    3.303470   -3.182350
  H     -8.128920   -1.256500   -7.427860
  H    -12.292800    1.435820   -6.956340

 Total Charge           Charge          ....    0
 Multiplicity           Mult            ....    1
 Number of Electrons    NEL             ....  610
 Basis Dimension        Dim             .... 1138

ORBITAL ENERGIES
----------------

  NO   OCC          E(Eh)            E(eV)
   0   2.0000    -482.872723    -13139.6348
   1   2.0000    -482.872610    -13139.6317
   2   2.0000    -482.872462    -13139.6277
   3   2.0000    -482.872334    -13139.6242
   4   2.0000     -89.013925     -2422.1920
   5   2.0000     -88.974179     -2421.1105
   6   2.0000     -88.972924     -2421.0763
   7   2.0000     -88.971969     -2421.0504
   8   2.0000     -88.971066     -2421.0258
   9   2.0000     -62.550352     -1702.0816
  10   2.0000     -62.550232     -1702.0783
  11   2.0000     -62.550085     -1702.0743
  12   2.0000     -62.549938     -1702.0703
  13   2.0000     -56.384293     -1534.2946
  14   2.0000     -56.384174     -1534.2914
  15   2.0000     -56.384023     -1534.2873
  16   2.0000     -56.383891     -1534.2837
  17   2.0000     -56.381652     -1534.2228
  18   2.0000     -56.381562     -1534.2203
  19   2.0000     -56.381526     -1534.2193
  20   2.0000     -56.381446     -1534.2171
  21   2.0000     -56.381387     -1534.2155
  22   2.0000     -56.381298     -1534.2131
  23   2.0000     -56.381232     -1534.2113
  24   2.0000     -56.381147     -1534.2090
  25   2.0000     -19.241046      -523.5755
  26   2.0000     -19.235680      -523.4295
  27   2.0000     -19.217546      -522.9360
  28   2.0000     -19.217109      -522.9241
  29   2.0000     -14.463918      -393.5832
  30   2.0000     -14.462833      -393.5537
  31   2.0000     -14.415714      -392.2715
  32   2.0000     -14.412821      -392.1928
  33   2.0000     -14.412507      -392.1843
  34   2.0000     -14.412453      -392.1828
  35   2.0000     -10.388858      -282.6952
  36   2.0000     -10.384907      -282.5877
  37   2.0000     -10.369550      -282.1698
  38   2.0000     -10.367907      -282.1251
  39   2.0000     -10.355419      -281.7853
  40   2.0000     -10.354987      -281.7735
  41   2.0000     -10.349517      -281.6247
  42   2.0000     -10.348613      -281.6001
  43   2.0000     -10.348246      -281.5901
  44   2.0000     -10.348181      -281.5883
  45   2.0000     -10.348025      -281.5841
  46   2.0000     -10.346453      -281.5413
  47   2.0000     -10.346040      -281.5301
  48   2.0000     -10.345587      -281.5177
  49   2.0000     -10.344523      -281.4888
  50   2.0000     -10.341325      -281.4017
  51   2.0000     -10.339918      -281.3635
  52   2.0000     -10.339543      -281.3533
  53   2.0000     -10.339363      -281.3484
  54   2.0000     -10.338519      -281.3254
  55   2.0000     -10.327696      -281.0309
  56   2.0000     -10.324410      -280.9415
  57   2.0000     -10.322635      -280.8932
  58   2.0000     -10.322299      -280.8840
  59   2.0000     -10.322178      -280.8808
  60   2.0000     -10.321590      -280.8647
  61   2.0000     -10.319208      -280.7999
  62   2.0000     -10.318519      -280.7812
  63   2.0000     -10.317491      -280.7532
  64   2.0000     -10.316587      -280.7286
  65   2.0000     -10.316187      -280.7177
  66   2.0000     -10.315738      -280.7055
  67   2.0000     -10.314756      -280.6788
  68   2.0000     -10.314491      -280.6716
  69   2.0000     -10.313174      -280.6357
  70   2.0000     -10.311115      -280.5797
  71   2.0000     -10.307386      -280.4782
  72   2.0000     -10.306815      -280.4627
  73   2.0000     -10.306333      -280.4496
  74   2.0000     -10.306023      -280.4411
  75   2.0000     -10.303918      -280.3839
  76   2.0000     -10.303017      -280.3594
  77   2.0000     -10.299017      -280.2505
  78   2.0000     -10.298908      -280.2475
  79   2.0000     -10.298037      -280.2238
  80   2.0000     -10.297522      -280.2098
  81   2.0000     -10.292868      -280.0832
  82   2.0000     -10.292491      -280.0729
  83   2.0000     -10.290783      -280.0264
  84   2.0000     -10.290623      -280.0221
  85   2.0000      -8.779677      -238.9072
  86   2.0000      -8.779558      -238.9039
  87   2.0000      -8.779410      -238.8999
  88   2.0000      -8.779241      -238.8953
  89   2.0000      -8.107422      -220.6142
  90   2.0000      -8.068071      -219.5434
  91   2.0000      -8.067727      -219.5340
  92   2.0000      -8.067123      -219.5176
  93   2.0000      -8.065192      -219.4650
  94   2.0000      -6.615770      -180.0243
  95   2.0000      -6.615670      -180.0215
  96   2.0000      -6.615462      -180.0159
  97   2.0000      -6.615374      -180.0135
  98   2.0000      -6.601788      -179.6438
  99   2.0000      -6.601660      -179.6403
 100   2.0000      -6.601557      -179.6375
 101   2.0000      -6.601345      -179.6317
 102   2.0000      -6.601074      -179.6244
 103   2.0000      -6.600948      -179.6209
 104   2.0000      -6.600820      -179.6174
 105   2.0000      -6.600605      -179.6116
 106   2.0000      -6.076567      -165.3518
 107   2.0000      -6.072439      -165.2395
 108   2.0000      -6.070124      -165.1765
 109   2.0000      -6.037665      -164.2932
 110   2.0000      -6.037340      -164.2844
 111   2.0000      -6.036866      -164.2715
 112   2.0000      -6.034892      -164.2178
 113   2.0000      -6.033165      -164.1708
 114   2.0000      -6.032983      -164.1658
 115   2.0000      -6.032547      -164.1540
 116   2.0000      -6.030260      -164.0917
 117   2.0000      -6.029877      -164.0813
 118   2.0000      -6.029430      -164.0691
 119   2.0000      -6.028373      -164.0404
 120   2.0000      -6.026904      -164.0004
 121   2.0000      -2.731672       -74.3326
 122   2.0000      -2.731532       -74.3288
 123   2.0000      -2.731433       -74.3261
 124   2.0000      -2.731267       -74.3215
 125   2.0000      -2.727940       -74.2310
 126   2.0000      -2.727826       -74.2279
 127   2.0000      -2.727629       -74.2225
 128   2.0000      -2.727512       -74.2194
 129   2.0000      -2.727334       -74.2145
 130   2.0000      -2.727255       -74.2124
 131   2.0000      -2.727050       -74.2068
 132   2.0000      -2.726921       -74.2033
 133   2.0000      -2.716248       -73.9129
 134   2.0000      -2.716228       -73.9123
 135   2.0000      -2.716117       -73.9093
 136   2.0000      -2.716093       -73.9086
 137   2.0000      -2.716004       -73.9062
 138   2.0000      -2.715977       -73.9055
 139   2.0000      -2.715778       -73.9001
 140   2.0000      -2.715762       -73.8996
 141   2.0000      -1.155782       -31.4504
 142   2.0000      -1.149972       -31.2923
 143   2.0000      -1.133222       -30.8365
 144   2.0000      -1.132666       -30.8214
 145   2.0000      -1.116103       -30.3707
 146   2.0000      -1.045678       -28.4544
 147   2.0000      -1.033267       -28.1166
 148   2.0000      -1.026630       -27.9360
 149   2.0000      -1.020484       -27.7688
 150   2.0000      -1.018303       -27.7094
 151   2.0000      -1.009404       -27.4673
 152   2.0000      -1.004269       -27.3275
 153   2.0000      -1.003334       -27.3021
 154   2.0000      -0.992483       -27.0068
 155   2.0000      -0.991401       -26.9774
 156   2.0000      -0.974832       -26.5265
 157   2.0000      -0.973414       -26.4880
 158   2.0000      -0.966212       -26.2920
 159   2.0000      -0.961476       -26.1631
 160   2.0000      -0.949065       -25.8254
 161   2.0000      -0.926141       -25.2016
 162   2.0000      -0.917896       -24.9772
 163   2.0000      -0.914722       -24.8908
 164   2.0000      -0.910751       -24.7828
 165   2.0000      -0.907162       -24.6851
 166   2.0000      -0.904447       -24.6112
 167   2.0000      -0.890023       -24.2187
 168   2.0000      -0.887258       -24.1435
 169   2.0000      -0.877604       -23.8808
 170   2.0000      -0.869825       -23.6691
 171   2.0000      -0.865417       -23.5492
 172   2.0000      -0.852741       -23.2043
 173   2.0000      -0.849193       -23.1077
 174   2.0000      -0.848549       -23.0902
 175   2.0000      -0.847586       -23.0640
 176   2.0000      -0.844517       -22.9805
 177   2.0000      -0.814792       -22.1716
 178   2.0000      -0.811948       -22.0942
 179   2.0000      -0.802994       -21.8506
 180   2.0000      -0.792638       -21.5688
 181   2.0000      -0.790889       -21.5212
 182   2.0000      -0.790209       -21.5027
 183   2.0000      -0.777330       -21.1522
 184   2.0000      -0.768264       -20.9055
 185   2.0000      -0.761457       -20.7203
 186   2.0000      -0.761240       -20.7144
 187   2.0000      -0.739861       -20.1326
 188   2.0000      -0.728126       -19.8133
 189   2.0000      -0.710533       -19.3346
 190   2.0000      -0.706053       -19.2127
 191   2.0000      -0.695906       -18.9366
 192   2.0000      -0.692084       -18.8326
 193   2.0000      -0.688034       -18.7224
 194   2.0000      -0.680874       -18.5275
 195   2.0000      -0.679492       -18.4899
 196   2.0000      -0.672020       -18.2866
 197   2.0000      -0.663295       -18.0492
 198   2.0000      -0.654885       -17.8203
 199   2.0000      -0.652451       -17.7541
 200   2.0000      -0.647863       -17.6293
 201   2.0000      -0.643217       -17.5028
 202   2.0000      -0.635873       -17.3030
 203   2.0000      -0.630031       -17.1440
 204   2.0000      -0.618623       -16.8336
 205   2.0000      -0.616342       -16.7715
 206   2.0000      -0.613279       -16.6882
 207   2.0000      -0.613079       -16.6827
 208   2.0000      -0.597949       -16.2710
 209   2.0000      -0.588353       -16.0099
 210   2.0000      -0.586390       -15.9565
 211   2.0000      -0.583852       -15.8874
 212   2.0000      -0.582119       -15.8403
 213   2.0000      -0.580791       -15.8041
 214   2.0000      -0.571200       -15.5431
 215   2.0000      -0.567382       -15.4393
 216   2.0000      -0.564320       -15.3559
 217   2.0000      -0.556633       -15.1468
 218   2.0000      -0.548281       -14.9195
 219   2.0000      -0.548200       -14.9173
 220   2.0000      -0.546285       -14.8652
 221   2.0000      -0.543797       -14.7975
 222   2.0000      -0.542174       -14.7533
 223   2.0000      -0.540094       -14.6967
 224   2.0000      -0.538687       -14.6584
 225   2.0000      -0.537534       -14.6270
 226   2.0000      -0.533906       -14.5283
 227   2.0000      -0.531959       -14.4753
 228   2.0000      -0.529304       -14.4031
 229   2.0000      -0.525600       -14.3023
 230   2.0000      -0.522728       -14.2241
 231   2.0000      -0.520862       -14.1734
 232   2.0000      -0.519668       -14.1409
 233   2.0000      -0.516727       -14.0609
 234   2.0000      -0.514320       -13.9954
 235   2.0000      -0.510912       -13.9026
 236   2.0000      -0.508580       -13.8392
 237   2.0000      -0.506803       -13.7908
 238   2.0000      -0.505574       -13.7574
 239   2.0000      -0.502793       -13.6817
 240   2.0000      -0.499925       -13.6037
 241   2.0000      -0.499353       -13.5881
 242   2.0000      -0.498113       -13.5543
 243   2.0000      -0.492337       -13.3972
 244   2.0000      -0.489574       -13.3220
 245   2.0000      -0.486343       -13.2341
 246   2.0000      -0.484035       -13.1713
 247   2.0000      -0.482103       -13.1187
 248   2.0000      -0.476532       -12.9671
 249   2.0000      -0.473412       -12.8822
 250   2.0000      -0.472008       -12.8440
 251   2.0000      -0.466339       -12.6897
 252   2.0000      -0.461454       -12.5568
 253   2.0000      -0.459133       -12.4937
 254   2.0000      -0.458418       -12.4742
 255   2.0000      -0.455873       -12.4049
 256   2.0000      -0.455653       -12.3989
 257   2.0000      -0.454862       -12.3774
 258   2.0000      -0.448629       -12.2078
 259   2.0000      -0.447927       -12.1887
 260   2.0000      -0.447643       -12.1810
 261   2.0000      -0.441949       -12.0261
 262   2.0000      -0.441448       -12.0124
 263   2.0000      -0.437485       -11.9046
 264   2.0000      -0.437156       -11.8956
 265   2.0000      -0.433793       -11.8041
 266   2.0000      -0.433076       -11.7846
 267   2.0000      -0.431353       -11.7377
 268   2.0000      -0.425529       -11.5792
 269   2.0000      -0.424645       -11.5552
 270   2.0000      -0.423337       -11.5196
 271   2.0000      -0.421596       -11.4722
 272   2.0000      -0.418902       -11.3989
 273   2.0000      -0.416345       -11.3293
 274   2.0000      -0.413319       -11.2470
 275   2.0000      -0.406107       -11.0507
 276   2.0000      -0.401394       -10.9225
 277   2.0000      -0.396932       -10.8011
 278   2.0000      -0.395778       -10.7697
 279   2.0000      -0.394843       -10.7442
 280   2.0000      -0.388752       -10.5785
 281   2.0000      -0.386722       -10.5232
 282   2.0000      -0.386520       -10.5177
 283   2.0000      -0.380179       -10.3452
 284   2.0000      -0.376049       -10.2328
 285   2.0000      -0.372941       -10.1482
 286   2.0000      -0.368421       -10.0252
 287   2.0000      -0.361754        -9.8438
 288   2.0000      -0.358278        -9.7492
 289   2.0000      -0.347024        -9.4430
 290   2.0000      -0.345906        -9.4126
 291   2.0000      -0.344236        -9.3671
 292   2.0000      -0.342421        -9.3178
 293   2.0000      -0.341002        -9.2791
 294   2.0000      -0.336161        -9.1474
 295   2.0000      -0.335879        -9.1397
 296   2.0000      -0.333404        -9.0724
 297   2.0000      -0.325651        -8.8614
 298   2.0000      -0.322643        -8.7796
 299   2.0000      -0.314065        -8.5461
 300   2.0000      -0.313063        -8.5189
 301   2.0000      -0.303170        -8.2497
 302   2.0000      -0.302912        -8.2427
 303   2.0000      -0.283243        -7.7074
 304   2.0000      -0.241268        -6.5652
 305   0.0000      -0.128977        -3.5096
 306   0.0000      -0.103377        -2.8130
 307   0.0000      -0.081137        -2.2079
 308   0.0000      -0.078090        -2.1249
 309   0.0000      -0.062573        -1.7027

MULLIKEN ATOMIC CHARGES
-----------------------
   0 C :    0.138900
   1 O :   -0.132120
   2 C :    0.003245
   3 C :    0.026343
   4 C :   -0.021121
   5 C :   -0.020235
   6 C :   -0.017365
   7 C :   -0.026843
   8 Br:    0.007930
   9 Br:    0.014788
  10 C :    0.271641
  11 C :   -0.349212
  12 C :   -0.177397
  13 N :    0.155258
  14 C :   -0.201389
  15 N :    0.173325
  16 C :   -0.144401
  17 C :    0.064961
  18 C :   -0.160812
  19 C :   -0.040147
  20 S :    0.148091
  21 C :   -0.200692
  22 C :    0.114915
  23 C :   -0.000999
  24 C :    0.090584
  25 C :   -0.087389
  26 S :    0.227391
  27 C :   -0.140310
  28 C :    0.040435
  29 C :    0.024182
  30 N :    0.037162
  31 C :   -0.098770
  32 C :    0.170616
  33 O :   -0.127164
  34 C :   -0.006438
  35 C :   -0.018220
  36 C :    0.140644
  37 O :   -0.097016
  38 C :   -0.116097
  39 N :    0.048688
  40 C :   -0.108853
  41 S :    0.219757
  42 C :   -0.128929
  43 C :   -0.056896
  44 S :    0.120651
  45 C :   -0.196173
  46 C :    0.113857
  47 C :    0.005262
  48 C :    0.178954
  49 C :   -0.147315
  50 S :    0.190921
  51 C :    0.049422
  52 C :   -0.142075
  53 C :    0.142792
  54 O :   -0.140543
  55 C :    0.003656
  56 C :    0.008897
  57 C :    0.243511
  58 C :   -0.303152
  59 C :   -0.203654
  60 N :    0.169046
  61 C :   -0.173928
  62 N :    0.153142
  63 C :    0.008576
  64 C :   -0.019236
  65 C :   -0.017713
  66 C :   -0.026704
  67 Br:    0.006471
  68 Br:    0.009249
  69 H :    0.006012
  70 H :    0.005828
  71 H :    0.027955
  72 H :    0.050608
  73 H :    0.041197
  74 H :    0.026475
  75 H :   -0.017266
  76 H :    0.023690
  77 H :    0.024212
  78 H :    0.040631
  79 H :    0.031025
  80 H :    0.046151
  81 H :   -0.013653
  82 H :    0.019494
  83 H :    0.008225
  84 H :    0.005458
Sum of atomic charges:   -0.0000000

LOEWDIN ATOMIC CHARGES
----------------------
   0 C :    0.083568
   1 O :   -0.133983
   2 C :   -0.045967
   3 C :   -0.006266
   4 C :   -0.014145
   5 C :   -0.118709
   6 C :   -0.127449
   7 C :    0.006800
   8 Br:    0.132416
   9 Br:    0.137030
  10 C :    0.044013
  11 C :   -0.148911
  12 C :   -0.021890
  13 N :   -0.052520
  14 C :   -0.026563
  15 N :   -0.047013
  16 C :   -0.099901
  17 C :    0.037227
  18 C :   -0.194434
  19 C :   -0.169254
  20 S :    0.448885
  21 C :   -0.134834
  22 C :   -0.057826
  23 C :   -0.074726
  24 C :   -0.066803
  25 C :   -0.160064
  26 S :    0.519003
  27 C :   -0.188796
  28 C :   -0.042436
  29 C :   -0.045933
  30 N :   -0.008376
  31 C :   -0.032582
  32 C :    0.070778
  33 O :   -0.104944
  34 C :   -0.006411
  35 C :   -0.005896
  36 C :    0.056956
  37 O :   -0.092232
  38 C :   -0.030268
  39 N :   -0.004526
  40 C :   -0.190659
  41 S :    0.521300
  42 C :   -0.180812
  43 C :   -0.190482
  44 S :    0.391725
  45 C :   -0.127821
  46 C :   -0.057820
  47 C :   -0.064344
  48 C :   -0.038454
  49 C :   -0.184475
  50 S :    0.536578
  51 C :    0.045383
  52 C :   -0.094893
  53 C :    0.082692
  54 O :   -0.140838
  55 C :   -0.044311
  56 C :   -0.004029
  57 C :    0.059047
  58 C :   -0.134780
  59 C :   -0.034249
  60 N :   -0.051729
  61 C :   -0.016730
  62 N :   -0.060459
  63 C :   -0.001860
  64 C :   -0.119926
  65 C :   -0.125377
  66 C :    0.003497
  67 Br:    0.131459
  68 Br:    0.134416
  69 H :    0.043171
  70 H :    0.045914
  71 H :    0.048590
  72 H :    0.046185
  73 H :    0.042056
  74 H :    0.041053
  75 H :    0.021833
  76 H :    0.049440
  77 H :    0.048594
  78 H :    0.041544
  79 H :    0.042999
  80 H :    0.044340
  81 H :    0.034401
  82 H :    0.048500
  83 H :    0.040926
  84 H :    0.045386

  Mayer bond orders larger than 0.100000
B(  0-C ,  1-O ) :   2.2774 B(  0-C ,  2-C ) :   0.9165 B(  0-C , 16-C ) :   0.9490
B(  2-C ,  3-C ) :   1.3313 B(  2-C ,  7-C ) :   1.3762 B(  3-C ,  4-C ) :   1.3764
B(  3-C , 10-C ) :   1.0010 B(  4-C ,  5-C ) :   1.3599 B(  4-C , 69-H ) :   0.9836
B(  5-C ,  6-C ) :   1.4311 B(  5-C ,  9-Br) :   1.0491 B(  6-C ,  7-C ) :   1.3496
B(  6-C ,  8-Br) :   1.0285 B(  7-C , 70-H ) :   1.0089 B( 10-C , 11-C ) :   1.5990
B( 10-C , 16-C ) :   1.0909 B( 11-C , 12-C ) :   1.1339 B( 11-C , 14-C ) :   1.1636
B( 12-C , 13-N ) :   2.9874 B( 14-C , 15-N ) :   3.0140 B( 16-C , 17-C ) :   1.5815
B( 17-C , 18-C ) :   1.2070 B( 17-C , 71-H ) :   0.9299 B( 18-C , 19-C ) :   1.4086
B( 18-C , 26-S ) :   1.0765 B( 19-C , 20-S ) :   1.0870 B( 19-C , 24-C ) :   1.2737
B( 20-S , 21-C ) :   1.0754 B( 21-C , 22-C ) :   1.0722 B( 21-C , 23-C ) :   1.6688
B( 22-C , 72-H ) :   0.9467 B( 22-C , 73-H ) :   0.9468 B( 22-C , 74-H ) :   0.9556
B( 23-C , 24-C ) :   1.1525 B( 23-C , 75-H ) :   0.9845 B( 24-C , 25-C ) :   1.3296
B( 25-C , 26-S ) :   1.1585 B( 25-C , 27-C ) :   1.2849 B( 27-C , 28-C ) :   1.2885
B( 27-C , 40-C ) :   0.1082 B( 27-C , 41-S ) :   1.1487 B( 28-C , 29-C ) :   1.2106
B( 28-C , 39-N ) :   1.4294 B( 29-C , 30-N ) :   1.4199 B( 29-C , 40-C ) :   1.2837
B( 30-N , 31-C ) :   1.6895 B( 31-C , 32-C ) :   0.9128 B( 31-C , 38-C ) :   1.1220
B( 32-C , 33-O ) :   2.1499 B( 32-C , 34-C ) :   1.0325 B( 34-C , 35-C ) :   1.6756
B( 34-C , 76-H ) :   1.0003 B( 35-C , 36-C ) :   1.0190 B( 35-C , 77-H ) :   0.9976
B( 36-C , 37-O ) :   2.2537 B( 36-C , 38-C ) :   0.8911 B( 38-C , 39-N ) :   1.6935
B( 40-C , 41-S ) :   1.1471 B( 40-C , 42-C ) :   1.2708 B( 42-C , 43-C ) :   1.4234
B( 42-C , 50-S ) :   1.1585 B( 43-C , 44-S ) :   1.0516 B( 43-C , 48-C ) :   1.2734
B( 44-S , 45-C ) :   1.0751 B( 45-C , 46-C ) :   1.0729 B( 45-C , 47-C ) :   1.6628
B( 46-C , 78-H ) :   0.9480 B( 46-C , 79-H ) :   0.9562 B( 46-C , 80-H ) :   0.9465
B( 47-C , 48-C ) :   1.1603 B( 47-C , 81-H ) :   0.9925 B( 48-C , 49-C ) :   1.3265
B( 49-C , 50-S ) :   1.0801 B( 49-C , 51-C ) :   1.1690 B( 51-C , 52-C ) :   1.6196
B( 51-C , 82-H ) :   0.9517 B( 52-C , 53-C ) :   0.9502 B( 52-C , 57-C ) :   1.0358
B( 53-C , 54-O ) :   2.2729 B( 53-C , 55-C ) :   0.9163 B( 55-C , 56-C ) :   1.3267
B( 55-C , 66-C ) :   1.3740 B( 56-C , 57-C ) :   1.0065 B( 56-C , 63-C ) :   1.3875
B( 57-C , 58-C ) :   1.6684 B( 58-C , 59-C ) :   1.1516 B( 58-C , 61-C ) :   1.1466
B( 59-C , 60-N ) :   3.0185 B( 61-C , 62-N ) :   2.9760 B( 63-C , 64-C ) :   1.3612
B( 63-C , 83-H ) :   0.9756 B( 64-C , 65-C ) :   1.4223 B( 64-C , 68-Br) :   1.0436
B( 65-C , 66-C ) :   1.3583 B( 65-C , 67-Br) :   1.0281 B( 66-C , 84-H ) :   1.0074

-----------------------------------------------------------------------------
         ABSORPTION SPECTRUM VIA TRANSITION ELECTRIC DIPOLE MOMENTS
-----------------------------------------------------------------------------
State   Energy  Wavelength   fosc         T2         TX        TY        TZ
        (cm-1)    (nm)                  (au**2)     (au)      (au)      (au)
-----------------------------------------------------------------------------
   0    8995.1   1111.7   0.664189397  24.30870   3.83926  -2.43443   1.90850
   1   14601.5    684.9   0.098780332   2.22714  -1.36289  -0.15462  -0.58803
   2   18006.4    555.4   0.053795170   0.98354  -0.98721   0.07050   0.06321
   3   18256.9    547.7   0.314759057   5.67581   1.60774  -0.32552   1.72772
   4   20245.8    493.9   0.283410964   4.60847  -1.90899   0.90098   0.39047
   5   20963.6    477.0   0.022601795   0.35494  -0.25306  -0.47543  -0.25469
   6   23272.6    429.7   0.035235111   0.49843  -0.25265  -0.11207  -0.64964
   7   23454.3    426.4   0.013954366   0.19587  -0.34882   0.25708   0.09002
   8   23828.5    419.7   0.147796001   2.04193   0.99319  -1.01989   0.12378
   9   24176.4    413.6   0.031458810   0.42838   0.34728   0.33864   0.43943
  10   24427.1    409.4   0.080721885   1.08792   0.92699  -0.47760   0.02223
  11   24658.1    405.5   0.070157536   0.93668   0.46942  -0.25999   0.80543
  12   24778.6    403.6   0.062576643   0.83140   0.19349   0.74039   0.49576
  13   25173.5    397.2   0.000331279   0.00433  -0.05369   0.00837   0.03714
  14   26492.9    377.5   0.006460431   0.08028  -0.16333  -0.09327  -0.21190
  15   27560.8    362.8   0.048580624   0.58029  -0.46499  -0.40317  -0.44892
  16   27759.1    360.2   0.018447470   0.21878  -0.25144  -0.06145  -0.38959
  17   28163.8    355.1   0.013855703   0.16196   0.26994  -0.28147  -0.09936
  18   28535.4    350.4   0.064896779   0.74871  -0.69916   0.46604   0.20663
  19   29149.2    343.1   0.070380356   0.79488  -0.63970   0.58426  -0.21049
  20   29400.2    340.1   0.045525377   0.50978   0.11374   0.35017   0.61173
  21   29531.1    338.6   0.019892220   0.22176   0.36498  -0.00563   0.29751
  22   29910.6    334.3   0.075294451   0.82873   0.23818   0.85910   0.18424
  23   29982.3    333.5   0.121456960   1.33362   0.06552  -0.73671  -0.88690
  24   30225.1    330.9   0.038098362   0.41497   0.17684  -0.44757   0.42823
  25   30684.2    325.9   0.011671501   0.12522   0.12825  -0.23446   0.23196
  26   30915.5    323.5   0.153320588   1.63268  -0.53304  -0.51791  -1.03938
  27   31280.1    319.7   0.004363761   0.04593  -0.06939   0.04327   0.19809
  28   31764.7    314.8   0.124938465   1.29487   0.62601  -0.94818  -0.06267
  29   31915.5    313.3   0.002957315   0.03051   0.03651   0.01573   0.17007
  30   32326.9    309.3   0.008063364   0.08212  -0.11312   0.02976   0.26160
  31   32383.7    308.8   0.073246795   0.74463  -0.13653   0.82089  -0.22830
  32   32562.1    307.1   0.007385963   0.07467   0.24188  -0.03674   0.12174
  33   32666.7    306.1   0.026453469   0.26660   0.38631   0.04718   0.33932
  34   32858.3    304.3   0.071320045   0.71456  -0.55626   0.29689  -0.56303
  35   32975.2    303.3   0.077622179   0.77495  -0.76113  -0.39135  -0.20610
  36   33040.2    302.7   0.057243436   0.57037  -0.75264   0.06091  -0.01383
  37   33659.7    297.1   0.000977582   0.00956  -0.03990   0.07560   0.04748
  38   34063.9    293.6   0.259577855   2.50870  -0.77765   0.31584  -1.34321
  39   34269.4    291.8   0.052304077   0.50246   0.15562  -0.67103   0.16725
  40   34436.6    290.4   0.216085660   2.06576   1.37296  -0.41611   0.08718
  41   34552.8    289.4   0.095855465   0.91329   0.38568   0.60477   0.63151
  42   34630.7    288.8   0.464045446   4.41139  -0.44748  -1.87380  -0.83668
  43   34942.4    286.2   0.256057210   2.41246  -1.45593   0.51654  -0.16097
  44   34994.6    285.8   0.003310736   0.03115   0.12205  -0.12688  -0.01227
  45   35229.9    283.8   0.125979974   1.17724  -0.49348  -0.20373  -0.94457
  46   35342.8    282.9   0.061263587   0.57066  -0.08591  -0.62923  -0.40908
  47   35546.5    281.3   0.063436457   0.58751  -0.29130  -0.62821  -0.32864
  48   35957.4    278.1   0.017835729   0.16330   0.31130  -0.15482  -0.20596
  49   36349.0    275.1   0.109053666   0.98770   0.47592  -0.86792   0.08891
  50   36509.5    273.9   0.001617308   0.01458  -0.07476  -0.05259   0.07893
  51   36746.2    272.1   0.011553671   0.10351   0.07891   0.14504   0.27613
  52   37099.8    269.5   0.001194757   0.01060  -0.04080   0.03351   0.08840
  53   37267.3    268.3   0.052246790   0.46154  -0.56562   0.37599  -0.01581
  54   37470.5    266.9   0.106388383   0.93472  -0.20012  -0.90958  -0.25948
  55   37585.9    266.1   0.003173437   0.02780   0.04237  -0.15872  -0.02842
  56   37654.5    265.6   0.001527799   0.01336   0.00426   0.03935   0.10859
  57   37662.4    265.5   0.029743920   0.26000  -0.13331   0.40356   0.28171
  58   37821.8    264.4   0.020876498   0.18171   0.32218   0.02728   0.27779
  59   38088.6    262.5   0.018759292   0.16214  -0.02594   0.05413   0.39817
  60   38196.9    261.8   0.131503649   1.13340   0.06074   0.92516   0.52325
  61   38264.7    261.3   0.046052241   0.39621  -0.48620  -0.09748  -0.38770
  62   38437.8    260.2   0.011322936   0.09698   0.20140  -0.21884  -0.09232
  63   38636.8    258.8   0.069761118   0.59441  -0.13778   0.22880   0.72324
  64   38767.9    257.9   0.072721310   0.61754  -0.05153  -0.70328  -0.34683
  65   38977.0    256.6   0.048723379   0.41153  -0.53485  -0.29723  -0.19267
  66   39239.1    254.8   0.068013033   0.57062  -0.57419   0.16228  -0.46325
  67   39359.7    254.1   0.029084640   0.24327  -0.12460  -0.16747  -0.44688
  68   39489.4    253.2   0.014268039   0.11895   0.25902  -0.19379  -0.11959
  69   39861.2    250.9   0.013269960   0.10960  -0.32626  -0.04325   0.03576
  70   40004.1    250.0   0.001986398   0.01635  -0.05612  -0.09193   0.06889
  71   40091.8    249.4   0.004738945   0.03891   0.15900  -0.11109  -0.03592
  72   40201.2    248.7   0.010505732   0.08603  -0.24754   0.11474   0.10766
  73   40262.9    248.4   0.080557959   0.65869  -0.03890   0.40330   0.70322

FINAL SINGLE POINT ENERGY    -14827.254574508012

DIPOLE MOMENT
-------------
                                X             Y             Z
Electronic contribution:     35.97083    -106.57633     -46.00255
Nuclear contribution   :    -37.94884     107.15034      48.67454
                        -----------------------------------------
Total Dipole Moment    :     -1.97801       0.57401       2.67200
                        -----------------------------------------
Magnitude (a.u.)       :      3.37366
Magnitude (Debye)      :      8.57517

Rotational constants in cm-1:     0.001605     0.000221     0.000199
Rotational constants in MHz :    48.107422     6.616851     5.957093

                             ****ORCA TERMINATED NORMALLY****
TOTAL RUN TIME: 0 days 0 hours 11 minutes 38 seconds 503 msec
