                         Program Version 4.2.0 -  RELEASE  -
|  1> # ORCA input file
|  2> # SCF done       -195.732179986824          0.000606031732
|  3> ! CAM-B3LYP def2-SVP def2/J RIJCOSX Grid4 TightSCF
|  4> %maxcore 5000
|  5> %tddft
|  6>     Mode sTDDFT
|  7>     Ethresh 5.0
|  8>     maxcore 5000
|  9> end
| 10>
| 11> %pal
| 12>   nprocs 6
| 13>   end
| 14> * xyz 0 1
| 15>    C       -5.16737        -2.66707         4.39280
| 16>    O       -5.41384        -3.63642         3.69975
| 17>    C       -5.88533        -2.26870         5.62130
| 18>    C       -5.30458        -1.09914         6.14278
| 19>    C       -5.82218        -0.53652         7.29739
| 20>    C       -6.90844        -1.15218         7.91051
| 21>    C       -7.47549        -2.31416         7.38477
| 22>    C       -6.96129        -2.88263         6.22655
| 23>   Br       -8.94987        -3.13071         8.23966
| 24>   Br       -7.61465        -0.38329         9.48670
| 25>    C       -4.19007        -0.70058         5.28102
| 26>    C       -3.38184         0.38582         5.49148
| 27>    C       -3.52628         1.27645         6.57717
| 28>    N       -3.59309         2.03314         7.43738
| 29>    C       -2.29500         0.77925         4.68090
| 30>    N       -1.39475         1.17353         4.08721
| 31>    C       -4.11711        -1.66338         4.20117
| 32>    C       -3.21713        -1.65023         3.16364
| 33>    C       -3.08905        -2.52575         2.08166
| 34>    C       -2.08712        -2.33358         1.11436
| 35>    O       -1.20362        -1.31586         1.17333
| 36>    C       -0.48439        -1.15225        -0.03712
| 37>    C       -0.00781        -2.50412        -0.58357
| 38>    C        0.94893        -3.19371         0.38634
| 39>    O       -1.13479        -3.33073        -0.86732
| 40>    C       -2.09337        -3.28175         0.08646
| 41>    C       -3.13159        -4.20427         0.23131
| 42>    S       -4.04384        -3.93466         1.68691
| 43>    C       -3.47922        -5.27182        -0.64299
| 44>    C       -3.21255        -5.25958        -2.02989
| 45>    C       -3.48432        -6.41206        -2.84978
| 46>    N       -3.18128        -6.37565        -4.14784
| 47>    C       -2.66933        -5.29743        -4.68933
| 48>    C       -2.49846        -4.12191        -3.88747
| 49>    N       -2.77498        -4.13465        -2.60917
| 50>    C       -2.03419        -2.91251        -4.46426
| 51>    N       -1.64108        -1.94557        -4.93497
| 52>    C       -2.34811        -5.33018        -6.06675
| 53>    N       -2.09760        -5.36578        -7.18407
| 54>    C       -4.06886        -7.60577        -2.35472
| 55>    C       -4.48514        -7.54935        -1.00602
| 56>    C       -4.18013        -6.40376        -0.17374
| 57>    N       -4.65089        -6.55467         1.06277
| 58>    S       -5.42594        -7.95231         1.16344
| 59>    N       -5.19504        -8.45703        -0.33764
| 60>    C       -4.17837        -8.72542        -3.21760
| 61>    C       -4.44277       -10.06306        -2.92214
| 62>    O       -4.59175       -10.56036        -1.67838
| 63>    C       -4.43399       -11.96794        -1.63278
| 64>    C       -5.22842       -12.65265        -2.75127
| 65>    C       -6.72435       -12.37549        -2.62405
| 66>    O       -4.73449       -12.21553        -4.01505
| 67>    C       -4.46958       -10.89446        -4.06337
| 68>    C       -4.14132       -10.22921        -5.23441
| 69>    S       -3.86895        -8.52911        -4.91728
| 70>    C       -4.05047       -10.77320        -6.53307
| 71>    C       -3.35359       -10.24115        -7.57627
| 72>    C       -3.70066       -10.57703        -8.98209
| 73>    O       -4.39310       -11.48776        -9.36871
| 74>    C       -3.06701        -9.50793        -9.78881
| 75>    C       -2.28646        -8.68413        -8.95511
| 76>    C       -2.31762        -9.22678        -7.60137
| 77>    C       -1.36028        -9.02298        -6.64496
| 78>    C       -1.27845        -9.78163        -5.45748
| 79>    N       -1.14436       -10.40342        -4.50158
| 80>    C       -0.30778        -8.09231        -6.75926
| 81>    N        0.56633        -7.34928        -6.78078
| 82>    C       -1.63488        -7.58043        -9.47633
| 83>    C       -1.76362        -7.32094       -10.83589
| 84>    C       -2.51986        -8.15452       -11.66364
| 85>    C       -3.18364        -9.25709       -11.14051
| 86>   Br       -2.66047        -7.78800       -13.51160
| 87>   Br       -0.89381        -5.80991       -11.55782
| 88>    H       -5.41311         0.35965         7.73455
| 89>    H       -7.39065        -3.77992         5.80889
| 90>    H       -2.48391        -0.85235         3.14240
| 91>    H        0.35777        -0.50171         0.19786
| 92>    H       -1.12829        -0.66899        -0.78300
| 93>    H        0.47533        -2.35562        -1.55432
| 94>    H        0.49976        -3.28306         1.37347
| 95>    H        1.86555        -2.61728         0.46982
| 96>    H        1.18878        -4.18852         0.01969
| 97>    H       -4.79107       -12.27748        -0.65058
| 98>    H       -3.37044       -12.22012        -1.73857
| 99>    H       -5.03712       -13.73007        -2.73651
|100>    H       -6.91044       -11.30631        -2.54491
|101>    H       -7.11462       -12.86542        -1.73684
|102>    H       -7.24392       -12.75930        -3.49827
|103>    H       -4.64991       -11.65371        -6.73859
|104>    H       -1.06539        -6.90823        -8.85442
|105>    H       -3.77567        -9.89968       -11.77360
|106> *
|107>
|108>                          ****END OF INPUT****

CARTESIAN COORDINATES (ANGSTROEM)
---------------------------------
  C     -5.167370   -2.667070    4.392800
  O     -5.413840   -3.636420    3.699750
  C     -5.885330   -2.268700    5.621300
  C     -5.304580   -1.099140    6.142780
  C     -5.822180   -0.536520    7.297390
  C     -6.908440   -1.152180    7.910510
  C     -7.475490   -2.314160    7.384770
  C     -6.961290   -2.882630    6.226550
  Br    -8.949870   -3.130710    8.239660
  Br    -7.614650   -0.383290    9.486700
  C     -4.190070   -0.700580    5.281020
  C     -3.381840    0.385820    5.491480
  C     -3.526280    1.276450    6.577170
  N     -3.593090    2.033140    7.437380
  C     -2.295000    0.779250    4.680900
  N     -1.394750    1.173530    4.087210
  C     -4.117110   -1.663380    4.201170
  C     -3.217130   -1.650230    3.163640
  C     -3.089050   -2.525750    2.081660
  C     -2.087120   -2.333580    1.114360
  O     -1.203620   -1.315860    1.173330
  C     -0.484390   -1.152250   -0.037120
  C     -0.007810   -2.504120   -0.583570
  C      0.948930   -3.193710    0.386340
  O     -1.134790   -3.330730   -0.867320
  C     -2.093370   -3.281750    0.086460
  C     -3.131590   -4.204270    0.231310
  S     -4.043840   -3.934660    1.686910
  C     -3.479220   -5.271820   -0.642990
  C     -3.212550   -5.259580   -2.029890
  C     -3.484320   -6.412060   -2.849780
  N     -3.181280   -6.375650   -4.147840
  C     -2.669330   -5.297430   -4.689330
  C     -2.498460   -4.121910   -3.887470
  N     -2.774980   -4.134650   -2.609170
  C     -2.034190   -2.912510   -4.464260
  N     -1.641080   -1.945570   -4.934970
  C     -2.348110   -5.330180   -6.066750
  N     -2.097600   -5.365780   -7.184070
  C     -4.068860   -7.605770   -2.354720
  C     -4.485140   -7.549350   -1.006020
  C     -4.180130   -6.403760   -0.173740
  N     -4.650890   -6.554670    1.062770
  S     -5.425940   -7.952310    1.163440
  N     -5.195040   -8.457030   -0.337640
  C     -4.178370   -8.725420   -3.217600
  C     -4.442770  -10.063060   -2.922140
  O     -4.591750  -10.560360   -1.678380
  C     -4.433990  -11.967940   -1.632780
  C     -5.228420  -12.652650   -2.751270
  C     -6.724350  -12.375490   -2.624050
  O     -4.734490  -12.215530   -4.015050
  C     -4.469580  -10.894460   -4.063370
  C     -4.141320  -10.229210   -5.234410
  S     -3.868950   -8.529110   -4.917280
  C     -4.050470  -10.773200   -6.533070
  C     -3.353590  -10.241150   -7.576270
  C     -3.700660  -10.577030   -8.982090
  O     -4.393100  -11.487760   -9.368710
  C     -3.067010   -9.507930   -9.788810
  C     -2.286460   -8.684130   -8.955110
  C     -2.317620   -9.226780   -7.601370
  C     -1.360280   -9.022980   -6.644960
  C     -1.278450   -9.781630   -5.457480
  N     -1.144360  -10.403420   -4.501580
  C     -0.307780   -8.092310   -6.759260
  N      0.566330   -7.349280   -6.780780
  C     -1.634880   -7.580430   -9.476330
  C     -1.763620   -7.320940  -10.835890
  C     -2.519860   -8.154520  -11.663640
  C     -3.183640   -9.257090  -11.140510
  Br    -2.660470   -7.788000  -13.511600
  Br    -0.893810   -5.809910  -11.557820
  H     -5.413110    0.359650    7.734550
  H     -7.390650   -3.779920    5.808890
  H     -2.483910   -0.852350    3.142400
  H      0.357770   -0.501710    0.197860
  H     -1.128290   -0.668990   -0.783000
  H      0.475330   -2.355620   -1.554320
  H      0.499760   -3.283060    1.373470
  H      1.865550   -2.617280    0.469820
  H      1.188780   -4.188520    0.019690
  H     -4.791070  -12.277480   -0.650580
  H     -3.370440  -12.220120   -1.738570
  H     -5.037120  -13.730070   -2.736510
  H     -6.910440  -11.306310   -2.544910
  H     -7.114620  -12.865420   -1.736840
  H     -7.243920  -12.759300   -3.498270
  H     -4.649910  -11.653710   -6.738590
  H     -1.065390   -6.908230   -8.854420
  H     -3.775670   -9.899680  -11.773600

 Total Charge           Charge          ....    0
 Multiplicity           Mult            ....    1
 Number of Electrons    NEL             ....  624
 Basis Dimension        Dim             .... 1196

ORBITAL ENERGIES
----------------

  NO   OCC          E(Eh)            E(eV)
   0   2.0000    -482.877940    -13139.7768
   1   2.0000    -482.875420    -13139.7082
   2   2.0000    -482.870865    -13139.5843
   3   2.0000    -482.867343    -13139.4884
   4   2.0000     -89.052881     -2423.2521
   5   2.0000     -88.968903     -2420.9669
   6   2.0000     -88.967065     -2420.9169
   7   2.0000     -62.555560     -1702.2233
   8   2.0000     -62.553038     -1702.1547
   9   2.0000     -62.548474     -1702.0305
  10   2.0000     -62.544977     -1701.9353
  11   2.0000     -56.389500     -1534.4363
  12   2.0000     -56.386996     -1534.3682
  13   2.0000     -56.386863     -1534.3646
  14   2.0000     -56.386764     -1534.3619
  15   2.0000     -56.384329     -1534.2956
  16   2.0000     -56.384236     -1534.2931
  17   2.0000     -56.382413     -1534.2435
  18   2.0000     -56.379777     -1534.1717
  19   2.0000     -56.379689     -1534.1693
  20   2.0000     -56.378936     -1534.1488
  21   2.0000     -56.376270     -1534.0763
  22   2.0000     -56.376176     -1534.0738
  23   2.0000     -19.277777      -524.5750
  24   2.0000     -19.275981      -524.5261
  25   2.0000     -19.275141      -524.5033
  26   2.0000     -19.265449      -524.2395
  27   2.0000     -19.226996      -523.1932
  28   2.0000     -19.217449      -522.9334
  29   2.0000     -14.475265      -393.8920
  30   2.0000     -14.466502      -393.6535
  31   2.0000     -14.459871      -393.4731
  32   2.0000     -14.458527      -393.4365
  33   2.0000     -14.442936      -393.0123
  34   2.0000     -14.436275      -392.8310
  35   2.0000     -14.419192      -392.3662
  36   2.0000     -14.416658      -392.2972
  37   2.0000     -14.415708      -392.2714
  38   2.0000     -14.414665      -392.2430
  39   2.0000     -10.393275      -282.8154
  40   2.0000     -10.389056      -282.7006
  41   2.0000     -10.375078      -282.3202
  42   2.0000     -10.369557      -282.1700
  43   2.0000     -10.364459      -282.0313
  44   2.0000     -10.360621      -281.9268
  45   2.0000     -10.359664      -281.9008
  46   2.0000     -10.357922      -281.8534
  47   2.0000     -10.357591      -281.8444
  48   2.0000     -10.356209      -281.8068
  49   2.0000     -10.354410      -281.7578
  50   2.0000     -10.353854      -281.7427
  51   2.0000     -10.353812      -281.7416
  52   2.0000     -10.353327      -281.7283
  53   2.0000     -10.352385      -281.7027
  54   2.0000     -10.349643      -281.6281
  55   2.0000     -10.349581      -281.6264
  56   2.0000     -10.346718      -281.5485
  57   2.0000     -10.346376      -281.5392
  58   2.0000     -10.345897      -281.5262
  59   2.0000     -10.345515      -281.5158
  60   2.0000     -10.345248      -281.5085
  61   2.0000     -10.344151      -281.4787
  62   2.0000     -10.342142      -281.4240
  63   2.0000     -10.337360      -281.2939
  64   2.0000     -10.337215      -281.2899
  65   2.0000     -10.330888      -281.1178
  66   2.0000     -10.330032      -281.0945
  67   2.0000     -10.328288      -281.0470
  68   2.0000     -10.324890      -280.9545
  69   2.0000     -10.323450      -280.9154
  70   2.0000     -10.322050      -280.8773
  71   2.0000     -10.321341      -280.8580
  72   2.0000     -10.319490      -280.8076
  73   2.0000     -10.318682      -280.7856
  74   2.0000     -10.317407      -280.7509
  75   2.0000     -10.317296      -280.7479
  76   2.0000     -10.316769      -280.7336
  77   2.0000     -10.312245      -280.6105
  78   2.0000     -10.311234      -280.5829
  79   2.0000     -10.311024      -280.5772
  80   2.0000     -10.310833      -280.5720
  81   2.0000     -10.305475      -280.4262
  82   2.0000     -10.303261      -280.3660
  83   2.0000     -10.301779      -280.3257
  84   2.0000     -10.299786      -280.2714
  85   2.0000     -10.299409      -280.2612
  86   2.0000     -10.298169      -280.2274
  87   2.0000     -10.282269      -279.7948
  88   2.0000     -10.276285      -279.6319
  89   2.0000      -8.784892      -239.0491
  90   2.0000      -8.782360      -238.9802
  91   2.0000      -8.777787      -238.8557
  92   2.0000      -8.774310      -238.7611
  93   2.0000      -8.144161      -221.6139
  94   2.0000      -8.061493      -219.3644
  95   2.0000      -8.059600      -219.3129
  96   2.0000      -6.620989      -180.1663
  97   2.0000      -6.618507      -180.0987
  98   2.0000      -6.613869      -179.9725
  99   2.0000      -6.610471      -179.8801
 100   2.0000      -6.607006      -179.7858
 101   2.0000      -6.606273      -179.7658
 102   2.0000      -6.604459      -179.7165
 103   2.0000      -6.603708      -179.6960
 104   2.0000      -6.599921      -179.5930
 105   2.0000      -6.599171      -179.5726
 106   2.0000      -6.596432      -179.4981
 107   2.0000      -6.595617      -179.4759
 108   2.0000      -6.115138      -166.4014
 109   2.0000      -6.107357      -166.1896
 110   2.0000      -6.107142      -166.1838
 111   2.0000      -6.031435      -164.1237
 112   2.0000      -6.029248      -164.0642
 113   2.0000      -6.026903      -164.0004
 114   2.0000      -6.024868      -163.9450
 115   2.0000      -6.022673      -163.8853
 116   2.0000      -6.021052      -163.8411
 117   2.0000      -2.736910       -74.4751
 118   2.0000      -2.734432       -74.4077
 119   2.0000      -2.733181       -74.3736
 120   2.0000      -2.732514       -74.3555
 121   2.0000      -2.730646       -74.3047
 122   2.0000      -2.730010       -74.2873
 123   2.0000      -2.729783       -74.2812
 124   2.0000      -2.726378       -74.1885
 125   2.0000      -2.726054       -74.1797
 126   2.0000      -2.725435       -74.1629
 127   2.0000      -2.722629       -74.0865
 128   2.0000      -2.721964       -74.0684
 129   2.0000      -2.721447       -74.0543
 130   2.0000      -2.721433       -74.0540
 131   2.0000      -2.718872       -73.9843
 132   2.0000      -2.718847       -73.9836
 133   2.0000      -2.714350       -73.8612
 134   2.0000      -2.714348       -73.8612
 135   2.0000      -2.710808       -73.7648
 136   2.0000      -2.710795       -73.7645
 137   2.0000      -1.205958       -32.8158
 138   2.0000      -1.201615       -32.6976
 139   2.0000      -1.166629       -31.7456
 140   2.0000      -1.160899       -31.5897
 141   2.0000      -1.151200       -31.3257
 142   2.0000      -1.142622       -31.0923
 143   2.0000      -1.133162       -30.8349
 144   2.0000      -1.133057       -30.8320
 145   2.0000      -1.060212       -28.8498
 146   2.0000      -1.025623       -27.9086
 147   2.0000      -1.024894       -27.8888
 148   2.0000      -1.022692       -27.8289
 149   2.0000      -1.015254       -27.6265
 150   2.0000      -1.009425       -27.4679
 151   2.0000      -1.009203       -27.4618
 152   2.0000      -1.006883       -27.3987
 153   2.0000      -1.003645       -27.3106
 154   2.0000      -0.996458       -27.1150
 155   2.0000      -0.995427       -27.0869
 156   2.0000      -0.992114       -26.9968
 157   2.0000      -0.981476       -26.7073
 158   2.0000      -0.976358       -26.5681
 159   2.0000      -0.971752       -26.4427
 160   2.0000      -0.925250       -25.1773
 161   2.0000      -0.920251       -25.0413
 162   2.0000      -0.918942       -25.0057
 163   2.0000      -0.915649       -24.9161
 164   2.0000      -0.913452       -24.8563
 165   2.0000      -0.908527       -24.7223
 166   2.0000      -0.905678       -24.6448
 167   2.0000      -0.902607       -24.5612
 168   2.0000      -0.896433       -24.3932
 169   2.0000      -0.891813       -24.2675
 170   2.0000      -0.874834       -23.8054
 171   2.0000      -0.865298       -23.5460
 172   2.0000      -0.853365       -23.2212
 173   2.0000      -0.847214       -23.0539
 174   2.0000      -0.845943       -23.0193
 175   2.0000      -0.838864       -22.8267
 176   2.0000      -0.834029       -22.6951
 177   2.0000      -0.828440       -22.5430
 178   2.0000      -0.819410       -22.2973
 179   2.0000      -0.812551       -22.1106
 180   2.0000      -0.796238       -21.6667
 181   2.0000      -0.792793       -21.5730
 182   2.0000      -0.783955       -21.3325
 183   2.0000      -0.771149       -20.9840
 184   2.0000      -0.768179       -20.9032
 185   2.0000      -0.760954       -20.7066
 186   2.0000      -0.759634       -20.6707
 187   2.0000      -0.742796       -20.2125
 188   2.0000      -0.733114       -19.9491
 189   2.0000      -0.729619       -19.8539
 190   2.0000      -0.720089       -19.5946
 191   2.0000      -0.711786       -19.3687
 192   2.0000      -0.704728       -19.1766
 193   2.0000      -0.698371       -19.0036
 194   2.0000      -0.696820       -18.9614
 195   2.0000      -0.692587       -18.8462
 196   2.0000      -0.684618       -18.6294
 197   2.0000      -0.674582       -18.3563
 198   2.0000      -0.668994       -18.2042
 199   2.0000      -0.667780       -18.1712
 200   2.0000      -0.661427       -17.9984
 201   2.0000      -0.652077       -17.7439
 202   2.0000      -0.645475       -17.5643
 203   2.0000      -0.640054       -17.4167
 204   2.0000      -0.629719       -17.1355
 205   2.0000      -0.626432       -17.0461
 206   2.0000      -0.623511       -16.9666
 207   2.0000      -0.621721       -16.9179
 208   2.0000      -0.617956       -16.8154
 209   2.0000      -0.615344       -16.7444
 210   2.0000      -0.611406       -16.6372
 211   2.0000      -0.602212       -16.3870
 212   2.0000      -0.597564       -16.2606
 213   2.0000      -0.592640       -16.1265
 214   2.0000      -0.590821       -16.0770
 215   2.0000      -0.588559       -16.0155
 216   2.0000      -0.584160       -15.8958
 217   2.0000      -0.579570       -15.7709
 218   2.0000      -0.566913       -15.4265
 219   2.0000      -0.564290       -15.3551
 220   2.0000      -0.557655       -15.1746
 221   2.0000      -0.554666       -15.0932
 222   2.0000      -0.551699       -15.0125
 223   2.0000      -0.549309       -14.9475
 224   2.0000      -0.547184       -14.8896
 225   2.0000      -0.545909       -14.8549
 226   2.0000      -0.543670       -14.7940
 227   2.0000      -0.541197       -14.7267
 228   2.0000      -0.540896       -14.7185
 229   2.0000      -0.540109       -14.6971
 230   2.0000      -0.538463       -14.6523
 231   2.0000      -0.535672       -14.5764
 232   2.0000      -0.531637       -14.4666
 233   2.0000      -0.530454       -14.4344
 234   2.0000      -0.524764       -14.2796
 235   2.0000      -0.519443       -14.1348
 236   2.0000      -0.517686       -14.0870
 237   2.0000      -0.510767       -13.8987
 238   2.0000      -0.506774       -13.7900
 239   2.0000      -0.505616       -13.7585
 240   2.0000      -0.504639       -13.7319
 241   2.0000      -0.501993       -13.6599
 242   2.0000      -0.499709       -13.5978
 243   2.0000      -0.498772       -13.5723
 244   2.0000      -0.495697       -13.4886
 245   2.0000      -0.494083       -13.4447
 246   2.0000      -0.490851       -13.3567
 247   2.0000      -0.489383       -13.3168
 248   2.0000      -0.487928       -13.2772
 249   2.0000      -0.487372       -13.2621
 250   2.0000      -0.483808       -13.1651
 251   2.0000      -0.481250       -13.0955
 252   2.0000      -0.477903       -13.0044
 253   2.0000      -0.474651       -12.9159
 254   2.0000      -0.471451       -12.8288
 255   2.0000      -0.469507       -12.7759
 256   2.0000      -0.465908       -12.6780
 257   2.0000      -0.463480       -12.6119
 258   2.0000      -0.462287       -12.5795
 259   2.0000      -0.461172       -12.5491
 260   2.0000      -0.456909       -12.4331
 261   2.0000      -0.455391       -12.3918
 262   2.0000      -0.454538       -12.3686
 263   2.0000      -0.452598       -12.3158
 264   2.0000      -0.450895       -12.2695
 265   2.0000      -0.449166       -12.2224
 266   2.0000      -0.445233       -12.1154
 267   2.0000      -0.444456       -12.0943
 268   2.0000      -0.443038       -12.0557
 269   2.0000      -0.440358       -11.9827
 270   2.0000      -0.438384       -11.9290
 271   2.0000      -0.435486       -11.8502
 272   2.0000      -0.432434       -11.7671
 273   2.0000      -0.430924       -11.7260
 274   2.0000      -0.429767       -11.6946
 275   2.0000      -0.429699       -11.6927
 276   2.0000      -0.427516       -11.6333
 277   2.0000      -0.425727       -11.5846
 278   2.0000      -0.424714       -11.5571
 279   2.0000      -0.421747       -11.4763
 280   2.0000      -0.417478       -11.3601
 281   2.0000      -0.415733       -11.3127
 282   2.0000      -0.414055       -11.2670
 283   2.0000      -0.410252       -11.1635
 284   2.0000      -0.403214       -10.9720
 285   2.0000      -0.400614       -10.9013
 286   2.0000      -0.400230       -10.8908
 287   2.0000      -0.398215       -10.8360
 288   2.0000      -0.393030       -10.6949
 289   2.0000      -0.392408       -10.6780
 290   2.0000      -0.390624       -10.6294
 291   2.0000      -0.389899       -10.6097
 292   2.0000      -0.384276       -10.4567
 293   2.0000      -0.382948       -10.4205
 294   2.0000      -0.375723       -10.2239
 295   2.0000      -0.363899        -9.9022
 296   2.0000      -0.360721        -9.8157
 297   2.0000      -0.357440        -9.7264
 298   2.0000      -0.350733        -9.5439
 299   2.0000      -0.348702        -9.4887
 300   2.0000      -0.342778        -9.3275
 301   2.0000      -0.340276        -9.2594
 302   2.0000      -0.337667        -9.1884
 303   2.0000      -0.335801        -9.1376
 304   2.0000      -0.330337        -8.9889
 305   2.0000      -0.320644        -8.7252
 306   2.0000      -0.313033        -8.5181
 307   2.0000      -0.306630        -8.3438
 308   2.0000      -0.296787        -8.0760
 309   2.0000      -0.296346        -8.0640
 310   2.0000      -0.288855        -7.8601
 311   2.0000      -0.252870        -6.8809
 312   0.0000      -0.138136        -3.7589
 313   0.0000      -0.090206        -2.4546
 314   0.0000      -0.085072        -2.3149
 315   0.0000      -0.069813        -1.8997
 316   0.0000      -0.062351        -1.6967

MULLIKEN ATOMIC CHARGES
-----------------------
   0 C :    0.167763
   1 O :   -0.170941
   2 C :   -0.016683
   3 C :    0.030024
   4 C :   -0.008341
   5 C :   -0.025557
   6 C :   -0.014030
   7 C :   -0.021172
   8 Br:    0.009694
   9 Br:    0.020185
  10 C :    0.325349
  11 C :   -0.348170
  12 C :   -0.192036
  13 N :    0.158389
  14 C :   -0.193317
  15 N :    0.153743
  16 C :   -0.094676
  17 C :   -0.036451
  18 C :   -0.117219
  19 C :    0.145828
  20 O :   -0.284883
  21 C :    0.232319
  22 C :    0.017565
  23 C :    0.062066
  24 O :   -0.280926
  25 C :    0.219100
  26 C :   -0.254561
  27 S :    0.234366
  28 C :    0.152881
  29 C :   -0.088287
  30 C :   -0.036058
  31 N :   -0.022132
  32 C :   -0.083831
  33 C :   -0.143184
  34 N :    0.091475
  35 C :   -0.229044
  36 N :    0.245360
  37 C :   -0.226049
  38 N :    0.250931
  39 C :    0.204316
  40 C :   -0.038942
  41 C :   -0.006049
  42 N :   -0.288677
  43 S :    0.552477
  44 N :   -0.251520
  45 C :   -0.229193
  46 C :    0.172018
  47 O :   -0.272261
  48 C :    0.230109
  49 C :    0.018472
  50 C :    0.059730
  51 O :   -0.267261
  52 C :    0.212570
  53 C :   -0.197264
  54 S :    0.173700
  55 C :    0.069486
  56 C :   -0.132720
  57 C :    0.141796
  58 O :   -0.135929
  59 C :    0.001820
  60 C :    0.011784
  61 C :    0.247719
  62 C :   -0.320530
  63 C :   -0.189371
  64 N :    0.157319
  65 C :   -0.190346
  66 N :    0.172620
  67 C :    0.008029
  68 C :   -0.026283
  69 C :   -0.016258
  70 C :   -0.028258
  71 Br:    0.008342
  72 Br:    0.021684
  73 H :    0.007324
  74 H :    0.001468
  75 H :    0.026004
  76 H :    0.041888
  77 H :    0.045713
  78 H :    0.032713
  79 H :    0.029048
  80 H :    0.026341
  81 H :    0.032273
  82 H :    0.028436
  83 H :    0.048053
  84 H :    0.031729
  85 H :    0.032478
  86 H :    0.022211
  87 H :    0.036337
  88 H :    0.028861
  89 H :    0.020969
  90 H :    0.005542
Sum of atomic charges:   -0.0000000

LOEWDIN ATOMIC CHARGES
----------------------
   0 C :    0.082989
   1 O :   -0.159737
   2 C :   -0.041382
   3 C :   -0.010461
   4 C :   -0.006941
   5 C :   -0.119822
   6 C :   -0.124218
   7 C :    0.003811
   8 Br:    0.134397
   9 Br:    0.140107
  10 C :    0.074010
  11 C :   -0.136826
  12 C :   -0.019830
  13 N :   -0.048779
  14 C :   -0.023104
  15 N :   -0.045303
  16 C :   -0.113902
  17 C :    0.064023
  18 C :   -0.211006
  19 C :    0.015671
  20 O :   -0.076492
  21 C :    0.085363
  22 C :    0.054853
  23 C :   -0.058123
  24 O :   -0.083437
  25 C :   -0.008861
  26 C :   -0.176456
  27 S :    0.534836
  28 C :   -0.040602
  29 C :   -0.003904
  30 C :   -0.011605
  31 N :   -0.017906
  32 C :   -0.022053
  33 C :   -0.027229
  34 N :    0.022873
  35 C :   -0.035159
  36 N :   -0.008748
  37 C :   -0.024319
  38 N :   -0.002563
  39 C :   -0.023235
  40 C :   -0.044921
  41 C :   -0.041873
  42 N :   -0.291943
  43 S :    0.684797
  44 N :   -0.261401
  45 C :   -0.175282
  46 C :    0.009525
  47 O :   -0.067007
  48 C :    0.081596
  49 C :    0.055571
  50 C :   -0.058295
  51 O :   -0.078856
  52 C :    0.015051
  53 C :   -0.208311
  54 S :    0.506055
  55 C :    0.058421
  56 C :   -0.092178
  57 C :    0.082923
  58 O :   -0.137144
  59 C :   -0.045238
  60 C :   -0.009241
  61 C :    0.059857
  62 C :   -0.139432
  63 C :   -0.029022
  64 N :   -0.059443
  65 C :   -0.023996
  66 N :   -0.046109
  67 C :    0.000759
  68 C :   -0.118445
  69 C :   -0.124226
  70 C :    0.003262
  71 Br:    0.133587
  72 Br:    0.143422
  73 H :    0.044681
  74 H :    0.044289
  75 H :    0.051786
  76 H :    0.038413
  77 H :    0.028984
  78 H :    0.036019
  79 H :    0.031389
  80 H :    0.035429
  81 H :    0.034291
  82 H :    0.033141
  83 H :    0.029645
  84 H :    0.035320
  85 H :    0.032664
  86 H :    0.033957
  87 H :    0.035684
  88 H :    0.052476
  89 H :    0.043144
  90 H :    0.045299

  Mayer bond orders larger than 0.100000
B(  0-C ,  1-O ) :   2.1442 B(  0-C ,  2-C ) :   0.9517 B(  0-C , 16-C ) :   0.9850
B(  2-C ,  3-C ) :   1.3338 B(  2-C ,  7-C ) :   1.3749 B(  3-C ,  4-C ) :   1.3720
B(  3-C , 10-C ) :   0.9831 B(  4-C ,  5-C ) :   1.3652 B(  4-C , 73-H ) :   0.9777
B(  5-C ,  6-C ) :   1.4281 B(  5-C ,  9-Br) :   1.0557 B(  6-C ,  7-C ) :   1.3485
B(  6-C ,  8-Br) :   1.0282 B(  7-C , 74-H ) :   1.0073 B( 10-C , 11-C ) :   1.6254
B( 10-C , 16-C ) :   1.0931 B( 11-C , 12-C ) :   1.1448 B( 11-C , 14-C ) :   1.1469
B( 12-C , 13-N ) :   2.9691 B( 14-C , 15-N ) :   2.9585 B( 16-C , 17-C ) :   1.4609
B( 17-C , 18-C ) :   1.3044 B( 17-C , 75-H ) :   0.9349 B( 18-C , 19-C ) :   1.3504
B( 18-C , 26-C ) :   0.1124 B( 18-C , 27-S ) :   1.0467 B( 19-C , 20-O ) :   1.1676
B( 19-C , 25-C ) :   1.2407 B( 20-O , 21-C ) :   0.9342 B( 21-C , 22-C ) :   1.0388
B( 21-C , 76-H ) :   0.9522 B( 21-C , 77-H ) :   0.9475 B( 22-C , 23-C ) :   1.0622
B( 22-C , 24-O ) :   0.9287 B( 22-C , 78-H ) :   0.9338 B( 23-C , 79-H ) :   0.9590
B( 23-C , 80-H ) :   0.9619 B( 23-C , 81-H ) :   0.9593 B( 24-O , 25-C ) :   1.1690
B( 25-C , 26-C ) :   1.3844 B( 26-C , 27-S ) :   1.1181 B( 26-C , 28-C ) :   1.1400
B( 28-C , 29-C ) :   1.2726 B( 28-C , 39-C ) :   0.1181 B( 28-C , 41-C ) :   1.2106
B( 29-C , 30-C ) :   1.1035 B( 29-C , 34-N ) :   1.4539 B( 30-C , 31-N ) :   1.3878
B( 30-C , 39-C ) :   1.2414 B( 31-N , 32-C ) :   1.6779 B( 32-C , 33-C ) :   1.2004
B( 32-C , 37-C ) :   1.1687 B( 33-C , 34-N ) :   1.7315 B( 33-C , 35-C ) :   1.1753
B( 35-C , 36-N ) :   3.0486 B( 37-C , 38-N ) :   3.0099 B( 39-C , 40-C ) :   1.1858
B( 39-C , 45-C ) :   1.1904 B( 40-C , 41-C ) :   1.0977 B( 40-C , 44-N ) :   1.5381
B( 41-C , 42-N ) :   1.5113 B( 42-N , 43-S ) :   1.2736 B( 42-N , 44-N ) :   0.1507
B( 43-S , 44-N ) :   1.2994 B( 45-C , 46-C ) :   1.4211 B( 45-C , 53-C ) :   0.1068
B( 45-C , 54-S ) :   1.1228 B( 46-C , 47-O ) :   1.1880 B( 46-C , 52-C ) :   1.1903
B( 47-O , 48-C ) :   0.9446 B( 48-C , 49-C ) :   1.0372 B( 48-C , 82-H ) :   0.9518
B( 48-C , 83-H ) :   0.9446 B( 49-C , 50-C ) :   1.0644 B( 49-C , 51-O ) :   0.9249
B( 49-C , 84-H ) :   0.9348 B( 50-C , 85-H ) :   0.9587 B( 50-C , 86-H ) :   0.9621
B( 50-C , 87-H ) :   0.9592 B( 51-O , 52-C ) :   1.2080 B( 52-C , 53-C ) :   1.4337
B( 53-C , 54-S ) :   1.0289 B( 53-C , 55-C ) :   1.1406 B( 55-C , 56-C ) :   1.6164
B( 55-C , 88-H ) :   0.9590 B( 56-C , 57-C ) :   0.9427 B( 56-C , 61-C ) :   1.0409
B( 57-C , 58-O ) :   2.2820 B( 57-C , 59-C ) :   0.9194 B( 59-C , 60-C ) :   1.3247
B( 59-C , 70-C ) :   1.3719 B( 60-C , 61-C ) :   1.0116 B( 60-C , 67-C ) :   1.3769
B( 61-C , 62-C ) :   1.6621 B( 62-C , 63-C ) :   1.1488 B( 62-C , 65-C ) :   1.1454
B( 63-C , 64-N ) :   3.0113 B( 65-C , 66-N ) :   2.9893 B( 67-C , 68-C ) :   1.3706
B( 67-C , 89-H ) :   0.9724 B( 68-C , 69-C ) :   1.4175 B( 68-C , 72-Br) :   1.0560
B( 69-C , 70-C ) :   1.3566 B( 69-C , 71-Br) :   1.0305 B( 70-C , 90-H ) :   1.0086

-----------------------------------------------------------------------------
         ABSORPTION SPECTRUM VIA TRANSITION ELECTRIC DIPOLE MOMENTS
-----------------------------------------------------------------------------
State   Energy  Wavelength   fosc         T2         TX        TY        TZ
        (cm-1)    (nm)                  (au**2)     (au)      (au)      (au)
-----------------------------------------------------------------------------
   0    9107.5   1098.0   0.571574966  20.66091  -0.10805   2.99573   3.41684
   1   16558.3    603.9   0.015310221   0.30440   0.31286  -0.36640  -0.26883
   2   16661.4    600.2   0.031352762   0.61950  -0.24575  -0.35088   0.66029
   3   17653.6    566.5   0.021857741   0.40761   0.32197   0.39565   0.38394
   4   19914.0    502.2   0.257089754   4.25012  -0.74799   0.69383   1.79143
   5   20550.0    486.6   0.539954215   8.65010  -0.28801   1.49268   2.51775
   6   21725.2    460.3   0.030060655   0.45552  -0.51635   0.10920   0.42070
   7   24098.8    415.0   0.044279424   0.60490   0.33613   0.51437  -0.47680
   8   24133.2    414.4   0.004996332   0.06816   0.19183   0.15453  -0.08649
   9   25013.8    399.8   0.018492153   0.24338   0.15593  -0.02062  -0.46759
  10   25240.5    396.2   0.186844143   2.43701   0.09009  -0.89810  -1.27370
  11   26230.8    381.2   0.039384111   0.49429  -0.18787  -0.35655   0.57608
  12   26353.0    379.5   0.005638586   0.07044  -0.20525   0.08524  -0.14508
  13   26510.7    377.2   0.000835111   0.01037   0.09363   0.03056  -0.02587
  14   26860.4    372.3   0.026241523   0.32163  -0.37091  -0.41678   0.10175
  15   26909.8    371.6   0.149709765   1.83154   0.94781   0.35470  -0.89854
  16   27511.7    363.5   0.027594767   0.33021  -0.04594   0.09055  -0.56559
  17   28076.8    356.2   0.063034704   0.73911   0.21356  -0.14798  -0.81951
  18   28659.9    348.9   0.018170075   0.20872   0.34803  -0.01595  -0.29553
  19   29261.8    341.7   0.009486429   0.10673   0.13728   0.20273  -0.21629
  20   29874.9    334.7   0.030268483   0.33355   0.48941  -0.08086   0.29579
  21   30068.7    332.6   0.137517349   1.50563   0.75325   0.91998   0.30313
  22   30894.6    323.7   0.410647221   4.37585  -0.53114  -0.42082   1.97905
  23   31182.8    320.7   0.020939194   0.22107  -0.41257  -0.21028  -0.08146
  24   31359.4    318.9   0.329451763   3.45860   0.52474   0.88908  -1.54686
  25   31483.0    317.6   0.002101072   0.02197   0.09353  -0.11498   0.00077
  26   31740.5    315.1   0.122242844   1.26790   0.35928   0.46396  -0.96102
  27   32193.0    310.6   0.017033542   0.17419  -0.20262  -0.34971   0.10410
  28   32323.1    309.4   0.032189880   0.32786   0.41748   0.37869  -0.10080
  29   32559.8    307.1   0.024622865   0.24896   0.06392   0.14002   0.47462
  30   32736.1    305.5   0.126523209   1.27238  -0.31611   0.11311  -1.07688
  31   33056.4    302.5   0.066295444   0.66024   0.66604   0.45854  -0.07986
  32   33064.6    302.4   0.049070651   0.48858  -0.33023  -0.36290   0.49782
  33   33465.6    298.8   0.031913822   0.31395   0.37670   0.40760   0.07686
  34   33533.8    298.2   0.030689814   0.30129  -0.14995  -0.49105  -0.19409
  35   33757.2    296.2   0.111334719   1.08577   0.46724   0.38387  -0.84859
  36   34058.8    293.6   0.093689609   0.90560  -0.81355  -0.08468   0.48639
  37   34466.5    290.1   0.052448107   0.50097   0.38321   0.53446   0.26166
  38   34648.2    288.6   0.103762064   0.98590   0.72111   0.30736   0.60945
  39   34780.5    287.5   0.150720260   1.42663   0.74445   0.50533   0.78554
  40   34890.2    286.6   0.480667832   4.53542   1.27343   1.43245  -0.92838
  41   35088.8    285.0   0.206361278   1.93614  -0.71300   0.16929  -1.18284
  42   35410.8    282.4   0.051933957   0.48283  -0.20998   0.05516   0.66007
  43   35707.1    280.1   0.077674213   0.71614  -0.33997  -0.68435   0.36364
  44   36046.4    277.4   0.001737906   0.01587  -0.04076  -0.11330  -0.03707
  45   36127.8    276.8   0.142347239   1.29713  -0.45677  -1.02450   0.19720
  46   36258.5    275.8   0.087495401   0.79442  -0.06446  -0.15417   0.87550
  47   36469.0    274.2   0.019791957   0.17867   0.26760   0.28724  -0.15669
  48   36669.2    272.7   0.129779590   1.16515  -0.48851  -0.86298  -0.42634
  49   37075.0    269.7   0.055744647   0.49499   0.01446  -0.28517  -0.64301
  50   37119.5    269.4   0.031331099   0.27787   0.50059   0.13823   0.09042
  51   37205.0    268.8   0.121989836   1.07944  -0.59772  -0.19835   0.82633
  52   37341.8    267.8   0.110983592   0.97845   0.12201  -0.61655  -0.76383
  53   37740.4    265.0   0.182454049   1.59156   0.61440   0.49690  -0.98345
  54   37996.6    263.2   0.011740175   0.10172   0.13847   0.10338  -0.26806
  55   38305.9    261.1   0.015785379   0.13566   0.31044  -0.13302   0.14695
  56   38363.2    260.7   0.066689226   0.57229  -0.06443   0.41271  -0.63072
  57   38888.4    257.1   0.055504193   0.46987  -0.07444  -0.64257  -0.22679
  58   39111.4    255.7   0.046143200   0.38840   0.40604   0.25979  -0.39503
  59   39235.3    254.9   0.003940809   0.03307   0.17297   0.02983   0.04751
  60   39390.9    253.9   0.002029723   0.01696   0.08176   0.05564  -0.08475
  61   39993.9    250.0   0.060640455   0.49917   0.37919   0.58853  -0.09493
  62   40211.4    248.7   0.000925989   0.00758   0.00440  -0.08398   0.02256

FINAL SINGLE POINT ENERGY    -14401.275986470650

DIPOLE MOMENT
-------------
                                X             Y             Z
Electronic contribution:    -59.14732      62.11315     -10.68959
Nuclear contribution   :     57.24378     -65.27331      11.92064
                        -----------------------------------------
Total Dipole Moment    :     -1.90355      -3.16015       1.23105
                        -----------------------------------------
Magnitude (a.u.)       :      3.88916
Magnitude (Debye)      :      9.88545

Rotational constants in cm-1:     0.001361     0.000224     0.000203
Rotational constants in MHz :    40.807047     6.726400     6.074508

                             ****ORCA TERMINATED NORMALLY****
TOTAL RUN TIME: 0 days 0 hours 11 minutes 38 seconds 234 msec
