                         Program Version 4.2.0 -  RELEASE  -
|  1> # ORCA input file
|  2> # SCF done       -196.775056218465          0.000678753288
|  3> ! CAM-B3LYP def2-SVP def2/J RIJCOSX Grid4 TightSCF
|  4> %maxcore 5000
|  5> %tddft
|  6>     Mode sTDDFT
|  7>     Ethresh 5.0
|  8>     maxcore 5000
|  9> end
| 10>
| 11> %pal
| 12>   nprocs 6
| 13>   end
| 14> * xyz 0 1
| 15>    C       -1.20977        -1.81633        -3.98566
| 16>    O       -1.55334        -2.98422        -3.96913
| 17>    C       -1.42319        -0.85676        -5.08293
| 18>    C       -0.85607         0.38314        -4.73571
| 19>    C       -0.94604         1.44585        -5.61914
| 20>    C       -1.59773         1.25137        -6.83254
| 21>    C       -2.15337         0.01386        -7.16901
| 22>    C       -2.06747        -1.05520        -6.28655
| 23>   Br       -3.03155        -0.22182        -8.82454
| 24>   Br       -1.72398         2.70352        -8.03438
| 25>    C       -0.24554         0.27005        -3.41198
| 26>    C        0.49006         1.24388        -2.79384
| 27>    C        0.73019         2.52102        -3.34801
| 28>    N        0.95461         3.57175        -3.74938
| 29>    C        1.13840         1.11196        -1.54593
| 30>    N        1.70415         1.07415        -0.54821
| 31>    C       -0.51753        -1.07317        -2.92636
| 32>    C       -0.24759        -1.54739        -1.66968
| 33>    C       -0.45661        -2.82263        -1.11731
| 34>    C       -0.16341        -3.09941         0.22393
| 35>    C       -0.41240        -4.41733         0.55727
| 36>    C       -0.88725        -5.16443        -0.54560
| 37>    S       -1.05598        -4.24517        -1.96679
| 38>    C       -1.09824        -6.49743        -0.10863
| 39>    C       -0.76421        -6.59404         1.25403
| 40>    C       -0.32217        -5.28940         1.72002
| 41>    C        0.09027        -4.95704         2.97548
| 42>    C        0.14565        -5.90355         4.02186
| 43>    N        0.19764        -6.67232         4.87020
| 44>    C        0.49045        -3.64552         3.31249
| 45>    N        0.81013        -2.58127         3.59219
| 46>    C       -0.94198        -7.88069         1.76392
| 47>    C       -1.39067        -8.75237         0.79073
| 48>    S       -1.61606        -7.98246        -0.76776
| 49>    C       -1.69557       -10.13481         0.99382
| 50>    C       -2.03959       -11.16392         0.13293
| 51>    C       -2.25596       -11.12935        -1.33337
| 52>    O       -3.27435       -11.48816        -1.84661
| 53>    O       -1.22686       -10.66184        -2.06322
| 54>    C       -2.27744       -12.26452         1.01621
| 55>    N       -2.06587       -11.89625         2.25951
| 56>    O       -1.71671       -10.59842         2.25772
| 57>    C       -2.65252       -13.60947         0.69054
| 58>    C       -2.52564       -14.26269        -0.51435
| 59>    C       -2.97184       -15.58438        -0.42710
| 60>    C       -3.45067       -15.91246         0.85356
| 61>    S       -3.32702       -14.61285         1.95094
| 62>    C       -3.89911       -17.26087         0.83528
| 63>    C       -3.69157       -17.77910        -0.45823
| 64>    C       -3.10103       -16.74313        -1.29194
| 65>    C       -2.74889       -16.85614        -2.60443
| 66>    C       -2.96776       -18.05447        -3.31705
| 67>    N       -3.15299       -19.03987        -3.87331
| 68>    C       -2.12001       -15.80915        -3.31183
| 69>    N       -1.57400       -14.97377        -3.87526
| 70>    C       -4.10910       -19.09589        -0.58759
| 71>    C       -4.64685       -19.59390         0.59227
| 72>    S       -4.59312       -18.40107         1.88611
| 73>    C       -5.14127       -20.88547         0.86888
| 74>    C       -5.51023       -21.87098         0.00227
| 75>    C       -5.57539       -23.27059         0.50878
| 76>    O       -5.55172       -23.62559         1.66260
| 77>    C       -5.61555       -24.11511        -0.70415
| 78>    C       -5.70442       -23.29483        -1.84394
| 79>    C       -5.79678       -21.89864        -1.41708
| 80>    C       -6.32174       -20.88648        -2.17546
| 81>    C       -6.62968       -19.60748        -1.67015
| 82>    N       -6.91934       -18.56363        -1.29124
| 83>    C       -6.70987       -21.03710        -3.52465
| 84>    N       -7.04551       -21.11454        -4.61842
| 85>    C       -5.70878       -23.86354        -3.10568
| 86>    C       -5.63725       -25.24847        -3.20930
| 87>    C       -5.56964       -26.05751        -2.07227
| 88>    C       -5.55537       -25.48963        -0.80460
| 89>   Br       -5.48852       -27.93721        -2.24304
| 90>   Br       -5.62835       -26.03056        -4.92884
| 91>    H       -0.53268         2.41593        -5.39598
| 92>    H       -2.49343        -2.01540        -6.53309
| 93>    H        0.18484        -0.84858        -0.96352
| 94>    H        0.21440        -2.34856         0.89524
| 95>    H       -0.75814        -8.18875         2.77711
| 96>    H       -0.43097       -10.47773        -1.54770
| 97>    H       -2.13350       -13.80892        -1.40556
| 98>    H       -3.98873       -19.69021        -1.47460
| 99>    H       -5.16833       -21.17235         1.91594
|100>    H       -5.75158       -23.26700        -4.00284
|101>    H       -5.49778       -26.10579         0.07918
|102> *
|103>
|104>                          ****END OF INPUT****

CARTESIAN COORDINATES (ANGSTROEM)
---------------------------------
  C     -1.209770   -1.816330   -3.985660
  O     -1.553340   -2.984220   -3.969130
  C     -1.423190   -0.856760   -5.082930
  C     -0.856070    0.383140   -4.735710
  C     -0.946040    1.445850   -5.619140
  C     -1.597730    1.251370   -6.832540
  C     -2.153370    0.013860   -7.169010
  C     -2.067470   -1.055200   -6.286550
  Br    -3.031550   -0.221820   -8.824540
  Br    -1.723980    2.703520   -8.034380
  C     -0.245540    0.270050   -3.411980
  C      0.490060    1.243880   -2.793840
  C      0.730190    2.521020   -3.348010
  N      0.954610    3.571750   -3.749380
  C      1.138400    1.111960   -1.545930
  N      1.704150    1.074150   -0.548210
  C     -0.517530   -1.073170   -2.926360
  C     -0.247590   -1.547390   -1.669680
  C     -0.456610   -2.822630   -1.117310
  C     -0.163410   -3.099410    0.223930
  C     -0.412400   -4.417330    0.557270
  C     -0.887250   -5.164430   -0.545600
  S     -1.055980   -4.245170   -1.966790
  C     -1.098240   -6.497430   -0.108630
  C     -0.764210   -6.594040    1.254030
  C     -0.322170   -5.289400    1.720020
  C      0.090270   -4.957040    2.975480
  C      0.145650   -5.903550    4.021860
  N      0.197640   -6.672320    4.870200
  C      0.490450   -3.645520    3.312490
  N      0.810130   -2.581270    3.592190
  C     -0.941980   -7.880690    1.763920
  C     -1.390670   -8.752370    0.790730
  S     -1.616060   -7.982460   -0.767760
  C     -1.695570  -10.134810    0.993820
  C     -2.039590  -11.163920    0.132930
  C     -2.255960  -11.129350   -1.333370
  O     -3.274350  -11.488160   -1.846610
  O     -1.226860  -10.661840   -2.063220
  C     -2.277440  -12.264520    1.016210
  N     -2.065870  -11.896250    2.259510
  O     -1.716710  -10.598420    2.257720
  C     -2.652520  -13.609470    0.690540
  C     -2.525640  -14.262690   -0.514350
  C     -2.971840  -15.584380   -0.427100
  C     -3.450670  -15.912460    0.853560
  S     -3.327020  -14.612850    1.950940
  C     -3.899110  -17.260870    0.835280
  C     -3.691570  -17.779100   -0.458230
  C     -3.101030  -16.743130   -1.291940
  C     -2.748890  -16.856140   -2.604430
  C     -2.967760  -18.054470   -3.317050
  N     -3.152990  -19.039870   -3.873310
  C     -2.120010  -15.809150   -3.311830
  N     -1.574000  -14.973770   -3.875260
  C     -4.109100  -19.095890   -0.587590
  C     -4.646850  -19.593900    0.592270
  S     -4.593120  -18.401070    1.886110
  C     -5.141270  -20.885470    0.868880
  C     -5.510230  -21.870980    0.002270
  C     -5.575390  -23.270590    0.508780
  O     -5.551720  -23.625590    1.662600
  C     -5.615550  -24.115110   -0.704150
  C     -5.704420  -23.294830   -1.843940
  C     -5.796780  -21.898640   -1.417080
  C     -6.321740  -20.886480   -2.175460
  C     -6.629680  -19.607480   -1.670150
  N     -6.919340  -18.563630   -1.291240
  C     -6.709870  -21.037100   -3.524650
  N     -7.045510  -21.114540   -4.618420
  C     -5.708780  -23.863540   -3.105680
  C     -5.637250  -25.248470   -3.209300
  C     -5.569640  -26.057510   -2.072270
  C     -5.555370  -25.489630   -0.804600
  Br    -5.488520  -27.937210   -2.243040
  Br    -5.628350  -26.030560   -4.928840
  H     -0.532680    2.415930   -5.395980
  H     -2.493430   -2.015400   -6.533090
  H      0.184840   -0.848580   -0.963520
  H      0.214400   -2.348560    0.895240
  H     -0.758140   -8.188750    2.777110
  H     -0.430970  -10.477730   -1.547700
  H     -2.133500  -13.808920   -1.405560
  H     -3.988730  -19.690210   -1.474600
  H     -5.168330  -21.172350    1.915940
  H     -5.751580  -23.267000   -4.002840
  H     -5.497780  -26.105790    0.079180

 Total Charge           Charge          ....    0
 Multiplicity           Mult            ....    1
 Number of Electrons    NEL             ....  642
 Basis Dimension        Dim             .... 1207

ORBITAL ENERGIES
----------------

  NO   OCC          E(Eh)            E(eV)
   0   2.0000    -482.885894    -13139.9932
   1   2.0000    -482.884371    -13139.9518
   2   2.0000    -482.878947    -13139.8042
   3   2.0000    -482.877266    -13139.7584
   4   2.0000     -89.020651     -2422.3751
   5   2.0000     -89.008601     -2422.0472
   6   2.0000     -89.004553     -2421.9370
   7   2.0000     -89.003310     -2421.9032
   8   2.0000     -62.563499     -1702.4394
   9   2.0000     -62.561966     -1702.3976
  10   2.0000     -62.556536     -1702.2499
  11   2.0000     -62.554903     -1702.2054
  12   2.0000     -56.397461     -1534.6529
  13   2.0000     -56.395936     -1534.6114
  14   2.0000     -56.394793     -1534.5803
  15   2.0000     -56.394687     -1534.5774
  16   2.0000     -56.393255     -1534.5385
  17   2.0000     -56.393152     -1534.5357
  18   2.0000     -56.390488     -1534.4632
  19   2.0000     -56.388869     -1534.4191
  20   2.0000     -56.387830     -1534.3909
  21   2.0000     -56.387740     -1534.3884
  22   2.0000     -56.386190     -1534.3462
  23   2.0000     -56.386094     -1534.3436
  24   2.0000     -19.347830      -526.4812
  25   2.0000     -19.289551      -524.8954
  26   2.0000     -19.245678      -523.7015
  27   2.0000     -19.229727      -523.2675
  28   2.0000     -19.227049      -523.1946
  29   2.0000     -14.486736      -394.2041
  30   2.0000     -14.446065      -393.0974
  31   2.0000     -14.445391      -393.0791
  32   2.0000     -14.439020      -392.9057
  33   2.0000     -14.436823      -392.8459
  34   2.0000     -14.433770      -392.7629
  35   2.0000     -14.430040      -392.6613
  36   2.0000     -14.426567      -392.5668
  37   2.0000     -14.421479      -392.4284
  38   2.0000     -10.437729      -284.0250
  39   2.0000     -10.396285      -282.8973
  40   2.0000     -10.393441      -282.8199
  41   2.0000     -10.384072      -282.5650
  42   2.0000     -10.378399      -282.4106
  43   2.0000     -10.374104      -282.2937
  44   2.0000     -10.371152      -282.2134
  45   2.0000     -10.364492      -282.0322
  46   2.0000     -10.364005      -282.0189
  47   2.0000     -10.362813      -281.9865
  48   2.0000     -10.361160      -281.9415
  49   2.0000     -10.360639      -281.9273
  50   2.0000     -10.359434      -281.8945
  51   2.0000     -10.358394      -281.8662
  52   2.0000     -10.356659      -281.8190
  53   2.0000     -10.356072      -281.8030
  54   2.0000     -10.355928      -281.7991
  55   2.0000     -10.355158      -281.7782
  56   2.0000     -10.353396      -281.7302
  57   2.0000     -10.351818      -281.6873
  58   2.0000     -10.351128      -281.6685
  59   2.0000     -10.345883      -281.5258
  60   2.0000     -10.345609      -281.5183
  61   2.0000     -10.345537      -281.5164
  62   2.0000     -10.345429      -281.5134
  63   2.0000     -10.344554      -281.4896
  64   2.0000     -10.340220      -281.3717
  65   2.0000     -10.339145      -281.3424
  66   2.0000     -10.336485      -281.2701
  67   2.0000     -10.336397      -281.2677
  68   2.0000     -10.335356      -281.2393
  69   2.0000     -10.334497      -281.2160
  70   2.0000     -10.332154      -281.1522
  71   2.0000     -10.331946      -281.1465
  72   2.0000     -10.331637      -281.1381
  73   2.0000     -10.330233      -281.0999
  74   2.0000     -10.330180      -281.0985
  75   2.0000     -10.327122      -281.0153
  76   2.0000     -10.326316      -280.9933
  77   2.0000     -10.324687      -280.9490
  78   2.0000     -10.323718      -280.9226
  79   2.0000     -10.323139      -280.9069
  80   2.0000     -10.322312      -280.8844
  81   2.0000     -10.322125      -280.8793
  82   2.0000     -10.320880      -280.8454
  83   2.0000     -10.319448      -280.8065
  84   2.0000     -10.317200      -280.7453
  85   2.0000     -10.316716      -280.7321
  86   2.0000     -10.316412      -280.7239
  87   2.0000     -10.316109      -280.7156
  88   2.0000     -10.315295      -280.6934
  89   2.0000     -10.314443      -280.6703
  90   2.0000     -10.310075      -280.5514
  91   2.0000     -10.307648      -280.4854
  92   2.0000      -8.792827      -239.2650
  93   2.0000      -8.791284      -239.2230
  94   2.0000      -8.785844      -239.0750
  95   2.0000      -8.784243      -239.0314
  96   2.0000      -8.114777      -220.8143
  97   2.0000      -8.100868      -220.4358
  98   2.0000      -8.099204      -220.3905
  99   2.0000      -8.097595      -220.3468
 100   2.0000      -6.629007      -180.3844
 101   2.0000      -6.627467      -180.3426
 102   2.0000      -6.621972      -180.1930
 103   2.0000      -6.620449      -180.1516
 104   2.0000      -6.614928      -180.0014
 105   2.0000      -6.614133      -179.9797
 106   2.0000      -6.613387      -179.9594
 107   2.0000      -6.612576      -179.9373
 108   2.0000      -6.607965      -179.8119
 109   2.0000      -6.607195      -179.7909
 110   2.0000      -6.606335      -179.7675
 111   2.0000      -6.605536      -179.7458
 112   2.0000      -6.084110      -165.5571
 113   2.0000      -6.079720      -165.4376
 114   2.0000      -6.077154      -165.3678
 115   2.0000      -6.070287      -165.1809
 116   2.0000      -6.068344      -165.1280
 117   2.0000      -6.066845      -165.0872
 118   2.0000      -6.065478      -165.0501
 119   2.0000      -6.064177      -165.0146
 120   2.0000      -6.063476      -164.9956
 121   2.0000      -6.062534      -164.9699
 122   2.0000      -6.061753      -164.9487
 123   2.0000      -6.060070      -164.9029
 124   2.0000      -2.744886       -74.6922
 125   2.0000      -2.743403       -74.6518
 126   2.0000      -2.741156       -74.5907
 127   2.0000      -2.740479       -74.5722
 128   2.0000      -2.739570       -74.5475
 129   2.0000      -2.738945       -74.5305
 130   2.0000      -2.737874       -74.5013
 131   2.0000      -2.736283       -74.4581
 132   2.0000      -2.734119       -74.3992
 133   2.0000      -2.733507       -74.3825
 134   2.0000      -2.732586       -74.3575
 135   2.0000      -2.731947       -74.3401
 136   2.0000      -2.729314       -74.2684
 137   2.0000      -2.729298       -74.2680
 138   2.0000      -2.727742       -74.2256
 139   2.0000      -2.727731       -74.2253
 140   2.0000      -2.722370       -74.0795
 141   2.0000      -2.722351       -74.0789
 142   2.0000      -2.720722       -74.0346
 143   2.0000      -2.720691       -74.0338
 144   2.0000      -1.287684       -35.0397
 145   2.0000      -1.212714       -32.9996
 146   2.0000      -1.161747       -31.6127
 147   2.0000      -1.143149       -31.1067
 148   2.0000      -1.128844       -30.7174
 149   2.0000      -1.068206       -29.0674
 150   2.0000      -1.058467       -28.8023
 151   2.0000      -1.039046       -28.2739
 152   2.0000      -1.038746       -28.2657
 153   2.0000      -1.031335       -28.0640
 154   2.0000      -1.030770       -28.0487
 155   2.0000      -1.026387       -27.9294
 156   2.0000      -1.022703       -27.8292
 157   2.0000      -1.022184       -27.8151
 158   2.0000      -1.019282       -27.7361
 159   2.0000      -1.015139       -27.6233
 160   2.0000      -1.013572       -27.5807
 161   2.0000      -1.010105       -27.4863
 162   2.0000      -1.001976       -27.2652
 163   2.0000      -0.996709       -27.1218
 164   2.0000      -0.991125       -26.9699
 165   2.0000      -0.982351       -26.7311
 166   2.0000      -0.980441       -26.6792
 167   2.0000      -0.966245       -26.2929
 168   2.0000      -0.951180       -25.8829
 169   2.0000      -0.936394       -25.4806
 170   2.0000      -0.931654       -25.3516
 171   2.0000      -0.930227       -25.3128
 172   2.0000      -0.923920       -25.1411
 173   2.0000      -0.922305       -25.0972
 174   2.0000      -0.914858       -24.8945
 175   2.0000      -0.910995       -24.7894
 176   2.0000      -0.903842       -24.5948
 177   2.0000      -0.893861       -24.3232
 178   2.0000      -0.882829       -24.0230
 179   2.0000      -0.880016       -23.9465
 180   2.0000      -0.875437       -23.8218
 181   2.0000      -0.869654       -23.6645
 182   2.0000      -0.866454       -23.5774
 183   2.0000      -0.864399       -23.5215
 184   2.0000      -0.856331       -23.3020
 185   2.0000      -0.832068       -22.6417
 186   2.0000      -0.822562       -22.3831
 187   2.0000      -0.804045       -21.8792
 188   2.0000      -0.801237       -21.8028
 189   2.0000      -0.793057       -21.5802
 190   2.0000      -0.783909       -21.3313
 191   2.0000      -0.783398       -21.3173
 192   2.0000      -0.775563       -21.1041
 193   2.0000      -0.770625       -20.9698
 194   2.0000      -0.753123       -20.4935
 195   2.0000      -0.744657       -20.2631
 196   2.0000      -0.730357       -19.8740
 197   2.0000      -0.728081       -19.8121
 198   2.0000      -0.721532       -19.6339
 199   2.0000      -0.714646       -19.4465
 200   2.0000      -0.710834       -19.3428
 201   2.0000      -0.710356       -19.3298
 202   2.0000      -0.704628       -19.1739
 203   2.0000      -0.697189       -18.9715
 204   2.0000      -0.696116       -18.9423
 205   2.0000      -0.692775       -18.8514
 206   2.0000      -0.686422       -18.6785
 207   2.0000      -0.673246       -18.3199
 208   2.0000      -0.668666       -18.1953
 209   2.0000      -0.658479       -17.9181
 210   2.0000      -0.655991       -17.8504
 211   2.0000      -0.645710       -17.5707
 212   2.0000      -0.643038       -17.4980
 213   2.0000      -0.641363       -17.4524
 214   2.0000      -0.633590       -17.2409
 215   2.0000      -0.631921       -17.1954
 216   2.0000      -0.629316       -17.1246
 217   2.0000      -0.625337       -17.0163
 218   2.0000      -0.615694       -16.7539
 219   2.0000      -0.611185       -16.6312
 220   2.0000      -0.607364       -16.5272
 221   2.0000      -0.602767       -16.4021
 222   2.0000      -0.594056       -16.1651
 223   2.0000      -0.590682       -16.0733
 224   2.0000      -0.580913       -15.8074
 225   2.0000      -0.573084       -15.5944
 226   2.0000      -0.570959       -15.5366
 227   2.0000      -0.569545       -15.4981
 228   2.0000      -0.562399       -15.3037
 229   2.0000      -0.561363       -15.2755
 230   2.0000      -0.560159       -15.2427
 231   2.0000      -0.559256       -15.2181
 232   2.0000      -0.556216       -15.1354
 233   2.0000      -0.554338       -15.0843
 234   2.0000      -0.553404       -15.0589
 235   2.0000      -0.550112       -14.9693
 236   2.0000      -0.549536       -14.9536
 237   2.0000      -0.546205       -14.8630
 238   2.0000      -0.536900       -14.6098
 239   2.0000      -0.535522       -14.5723
 240   2.0000      -0.534275       -14.5384
 241   2.0000      -0.528011       -14.3679
 242   2.0000      -0.523447       -14.2437
 243   2.0000      -0.521106       -14.1800
 244   2.0000      -0.520153       -14.1541
 245   2.0000      -0.516695       -14.0600
 246   2.0000      -0.514903       -14.0112
 247   2.0000      -0.514627       -14.0037
 248   2.0000      -0.513674       -13.9778
 249   2.0000      -0.512771       -13.9532
 250   2.0000      -0.510522       -13.8920
 251   2.0000      -0.506385       -13.7794
 252   2.0000      -0.503745       -13.7076
 253   2.0000      -0.502432       -13.6719
 254   2.0000      -0.501299       -13.6410
 255   2.0000      -0.500046       -13.6069
 256   2.0000      -0.494772       -13.4634
 257   2.0000      -0.493588       -13.4312
 258   2.0000      -0.486804       -13.2466
 259   2.0000      -0.482879       -13.1398
 260   2.0000      -0.477560       -12.9951
 261   2.0000      -0.474986       -12.9250
 262   2.0000      -0.474640       -12.9156
 263   2.0000      -0.473866       -12.8945
 264   2.0000      -0.469451       -12.7744
 265   2.0000      -0.468923       -12.7600
 266   2.0000      -0.466614       -12.6972
 267   2.0000      -0.466180       -12.6854
 268   2.0000      -0.465531       -12.6677
 269   2.0000      -0.463850       -12.6220
 270   2.0000      -0.463028       -12.5996
 271   2.0000      -0.457961       -12.4618
 272   2.0000      -0.457792       -12.4571
 273   2.0000      -0.455681       -12.3997
 274   2.0000      -0.455187       -12.3863
 275   2.0000      -0.454910       -12.3787
 276   2.0000      -0.454484       -12.3671
 277   2.0000      -0.452494       -12.3130
 278   2.0000      -0.450419       -12.2565
 279   2.0000      -0.447973       -12.1900
 280   2.0000      -0.447584       -12.1794
 281   2.0000      -0.445918       -12.1340
 282   2.0000      -0.444599       -12.0982
 283   2.0000      -0.442873       -12.0512
 284   2.0000      -0.441284       -12.0079
 285   2.0000      -0.436492       -11.8776
 286   2.0000      -0.435282       -11.8446
 287   2.0000      -0.434647       -11.8274
 288   2.0000      -0.433402       -11.7935
 289   2.0000      -0.430109       -11.7039
 290   2.0000      -0.424360       -11.5474
 291   2.0000      -0.422868       -11.5068
 292   2.0000      -0.419538       -11.4162
 293   2.0000      -0.417655       -11.3650
 294   2.0000      -0.413072       -11.2403
 295   2.0000      -0.410188       -11.1618
 296   2.0000      -0.407353       -11.0846
 297   2.0000      -0.406499       -11.0614
 298   2.0000      -0.404255       -11.0003
 299   2.0000      -0.401263       -10.9189
 300   2.0000      -0.398654       -10.8479
 301   2.0000      -0.392019       -10.6674
 302   2.0000      -0.384635       -10.4665
 303   2.0000      -0.376913       -10.2563
 304   2.0000      -0.374107       -10.1800
 305   2.0000      -0.371052       -10.0968
 306   2.0000      -0.362289        -9.8584
 307   2.0000      -0.358984        -9.7685
 308   2.0000      -0.354932        -9.6582
 309   2.0000      -0.352785        -9.5998
 310   2.0000      -0.350908        -9.5487
 311   2.0000      -0.347650        -9.4600
 312   2.0000      -0.344266        -9.3679
 313   2.0000      -0.343017        -9.3340
 314   2.0000      -0.335735        -9.1358
 315   2.0000      -0.334763        -9.1094
 316   2.0000      -0.328568        -8.9408
 317   2.0000      -0.323265        -8.7965
 318   2.0000      -0.315234        -8.5780
 319   2.0000      -0.288243        -7.8435
 320   2.0000      -0.278720        -7.5844
 321   0.0000      -0.129974        -3.5368
 322   0.0000      -0.118700        -3.2300
 323   0.0000      -0.103843        -2.8257
 324   0.0000      -0.095215        -2.5909
 325   0.0000      -0.085893        -2.3373

MULLIKEN ATOMIC CHARGES
-----------------------
   0 C :    0.170471
   1 O :   -0.180072
   2 C :   -0.014845
   3 C :    0.034154
   4 C :   -0.008445
   5 C :   -0.025427
   6 C :   -0.014247
   7 C :   -0.018252
   8 Br:    0.022225
   9 Br:    0.030166
  10 C :    0.314608
  11 C :   -0.334978
  12 C :   -0.185865
  13 N :    0.165398
  14 C :   -0.196090
  15 N :    0.164257
  16 C :   -0.087269
  17 C :   -0.027297
  18 C :   -0.053531
  19 C :   -0.057534
  20 C :    0.053039
  21 C :   -0.070510
  22 S :    0.255404
  23 C :   -0.092915
  24 C :    0.035509
  25 C :    0.297286
  26 C :   -0.288539
  27 C :   -0.193439
  28 N :    0.189744
  29 C :   -0.194361
  30 N :    0.193096
  31 C :   -0.027925
  32 C :   -0.144596
  33 S :    0.211102
  34 C :    0.224640
  35 C :   -0.202705
  36 C :    0.164248
  37 O :   -0.144203
  38 O :   -0.158640
  39 C :    0.043732
  40 N :    0.014363
  41 O :   -0.168271
  42 C :   -0.107495
  43 C :   -0.025763
  44 C :    0.006421
  45 C :   -0.099099
  46 S :    0.254617
  47 C :   -0.072821
  48 C :   -0.002941
  49 C :    0.307533
  50 C :   -0.285839
  51 C :   -0.183396
  52 N :    0.169118
  53 C :   -0.184287
  54 N :    0.181182
  55 C :   -0.002538
  56 C :   -0.108905
  57 S :    0.221544
  58 C :    0.080251
  59 C :   -0.135933
  60 C :    0.136174
  61 O :   -0.135465
  62 C :    0.002931
  63 C :    0.014412
  64 C :    0.264386
  65 C :   -0.325032
  66 C :   -0.200098
  67 N :    0.175203
  68 C :   -0.171353
  69 N :    0.170437
  70 C :   -0.005283
  71 C :   -0.025449
  72 C :   -0.016946
  73 C :   -0.019276
  74 Br:    0.016174
  75 Br:    0.024800
  76 H :    0.009633
  77 H :    0.007985
  78 H :    0.022688
  79 H :    0.030166
  80 H :    0.031300
  81 H :    0.189061
  82 H :    0.022735
  83 H :    0.025745
  84 H :    0.024721
  85 H :    0.017004
  86 H :    0.008211
Sum of atomic charges:   -0.0000000

LOEWDIN ATOMIC CHARGES
----------------------
   0 C :    0.087077
   1 O :   -0.164935
   2 C :   -0.043781
   3 C :   -0.010486
   4 C :   -0.005325
   5 C :   -0.116738
   6 C :   -0.122266
   7 C :    0.008610
   8 Br:    0.143928
   9 Br:    0.148248
  10 C :    0.073446
  11 C :   -0.127592
  12 C :   -0.019944
  13 N :   -0.037647
  14 C :   -0.023538
  15 N :   -0.037364
  16 C :   -0.106049
  17 C :    0.058518
  18 C :   -0.180002
  19 C :    0.012642
  20 C :   -0.071662
  21 C :   -0.173781
  22 S :    0.557262
  23 C :   -0.174075
  24 C :   -0.057715
  25 C :    0.073458
  26 C :   -0.091220
  27 C :   -0.019323
  28 N :   -0.020010
  29 C :   -0.019941
  30 N :   -0.016644
  31 C :   -0.000686
  32 C :   -0.197890
  33 S :    0.510896
  34 C :    0.038648
  35 C :   -0.147140
  36 C :    0.063718
  37 O :   -0.123544
  38 O :   -0.024472
  39 C :   -0.034104
  40 N :   -0.042233
  41 O :    0.039472
  42 C :   -0.176061
  43 C :   -0.009274
  44 C :   -0.061072
  45 C :   -0.177971
  46 S :    0.523086
  47 C :   -0.160453
  48 C :   -0.062768
  49 C :    0.080598
  50 C :   -0.093967
  51 C :   -0.012092
  52 N :   -0.030990
  53 C :   -0.018239
  54 N :   -0.022627
  55 C :    0.010899
  56 C :   -0.181076
  57 S :    0.506338
  58 C :    0.045098
  59 C :   -0.092722
  60 C :    0.083969
  61 O :   -0.135235
  62 C :   -0.045165
  63 C :   -0.008432
  64 C :    0.063240
  65 C :   -0.128893
  66 C :   -0.016042
  67 N :   -0.038730
  68 C :   -0.020906
  69 N :   -0.035594
  70 C :   -0.006321
  71 C :   -0.117399
  72 C :   -0.123675
  73 C :    0.007675
  74 Br:    0.139009
  75 Br:    0.144994
  76 H :    0.045527
  77 H :    0.047116
  78 H :    0.055003
  79 H :    0.049111
  80 H :    0.050356
  81 H :    0.091323
  82 H :    0.043126
  83 H :    0.042639
  84 H :    0.047258
  85 H :    0.046722
  86 H :    0.046802

  Mayer bond orders larger than 0.100000
B(  0-C ,  1-O ) :   2.1196 B(  0-C ,  2-C ) :   0.9652 B(  0-C , 16-C ) :   0.9813
B(  2-C ,  3-C ) :   1.3272 B(  2-C ,  7-C ) :   1.3674 B(  3-C ,  4-C ) :   1.3692
B(  3-C , 10-C ) :   0.9909 B(  4-C ,  5-C ) :   1.3669 B(  4-C , 76-H ) :   0.9788
B(  5-C ,  6-C ) :   1.4189 B(  5-C ,  9-Br) :   1.0634 B(  6-C ,  7-C ) :   1.3516
B(  6-C ,  8-Br) :   1.0368 B(  7-C , 77-H ) :   1.0086 B( 10-C , 11-C ) :   1.6490
B( 10-C , 16-C ) :   1.0689 B( 11-C , 12-C ) :   1.1400 B( 11-C , 14-C ) :   1.1420
B( 12-C , 13-N ) :   2.9723 B( 14-C , 15-N ) :   2.9720 B( 16-C , 17-C ) :   1.5142
B( 17-C , 18-C ) :   1.2541 B( 17-C , 78-H ) :   0.9412 B( 18-C , 19-C ) :   1.3380
B( 18-C , 22-S ) :   1.0797 B( 19-C , 20-C ) :   1.3278 B( 19-C , 79-H ) :   1.0069
B( 20-C , 21-C ) :   1.3637 B( 20-C , 25-C ) :   0.9879 B( 21-C , 22-S ) :   1.1286
B( 21-C , 23-C ) :   1.1938 B( 23-C , 24-C ) :   1.4301 B( 23-C , 33-S ) :   1.1261
B( 24-C , 25-C ) :   0.9888 B( 24-C , 31-C ) :   1.2631 B( 25-C , 26-C ) :   1.7272
B( 26-C , 27-C ) :   1.1332 B( 26-C , 29-C ) :   1.1363 B( 27-C , 28-N ) :   2.9968
B( 29-C , 30-N ) :   2.9948 B( 31-C , 32-C ) :   1.4460 B( 31-C , 80-H ) :   1.0098
B( 32-C , 33-S ) :   1.1155 B( 32-C , 34-C ) :   1.0877 B( 34-C , 35-C ) :   1.5055
B( 34-C , 41-O ) :   1.2006 B( 35-C , 36-C ) :   0.8731 B( 35-C , 39-C ) :   1.2301
B( 36-C , 37-O ) :   2.2107 B( 36-C , 38-O ) :   1.2096 B( 38-O , 81-H ) :   0.9456
B( 39-C , 40-N ) :   1.7220 B( 39-C , 42-C ) :   1.0657 B( 40-N , 41-O ) :   0.9979
B( 42-C , 43-C ) :   1.5068 B( 42-C , 46-S ) :   1.1151 B( 43-C , 44-C ) :   1.2946
B( 43-C , 82-H ) :   0.9782 B( 44-C , 45-C ) :   1.4439 B( 44-C , 49-C ) :   0.9959
B( 45-C , 46-S ) :   1.1282 B( 45-C , 47-C ) :   1.1823 B( 47-C , 48-C ) :   1.4195
B( 47-C , 57-S ) :   1.1581 B( 48-C , 49-C ) :   0.9937 B( 48-C , 55-C ) :   1.3634
B( 49-C , 50-C ) :   1.7202 B( 50-C , 51-C ) :   1.1332 B( 50-C , 53-C ) :   1.1335
B( 51-C , 52-N ) :   2.9806 B( 53-C , 54-N ) :   2.9871 B( 55-C , 56-C ) :   1.3895
B( 55-C , 83-H ) :   0.9776 B( 56-C , 57-S ) :   1.0935 B( 56-C , 58-C ) :   1.1416
B( 58-C , 59-C ) :   1.6669 B( 58-C , 84-H ) :   0.9282 B( 59-C , 60-C ) :   0.9472
B( 59-C , 64-C ) :   1.0364 B( 60-C , 61-O ) :   2.2697 B( 60-C , 62-C ) :   0.9216
B( 62-C , 63-C ) :   1.3277 B( 62-C , 73-C ) :   1.3749 B( 63-C , 64-C ) :   1.0018
B( 63-C , 70-C ) :   1.3724 B( 64-C , 65-C ) :   1.6615 B( 65-C , 66-C ) :   1.1714
B( 65-C , 68-C ) :   1.1237 B( 66-C , 67-N ) :   2.9970 B( 68-C , 69-N ) :   2.9963
B( 70-C , 71-C ) :   1.3697 B( 70-C , 85-H ) :   0.9833 B( 71-C , 72-C ) :   1.4201
B( 71-C , 75-Br) :   1.0538 B( 72-C , 73-C ) :   1.3571 B( 72-C , 74-Br) :   1.0337
B( 73-C , 86-H ) :   1.0080

-----------------------------------------------------------------------------
         ABSORPTION SPECTRUM VIA TRANSITION ELECTRIC DIPOLE MOMENTS
-----------------------------------------------------------------------------
State   Energy  Wavelength   fosc         T2         TX        TY        TZ
        (cm-1)    (nm)                  (au**2)     (au)      (au)      (au)
-----------------------------------------------------------------------------
   0   15528.9    644.0   0.324468217   6.87871  -0.79019  -2.50078   0.02038
   1   16084.7    621.7   0.188791258   3.86407  -0.13287  -1.72703   0.92941
   2   21524.3    464.6   0.828064242  12.66513  -1.41787  -3.22010  -0.53451
   3   22874.2    437.2   0.460160851   6.62278   0.07596   2.13894  -1.42897
   4   23046.0    433.9   0.642123544   9.17272   0.17246   2.58083  -1.57553
   5   26649.4    375.2   0.064469560   0.79642   0.06316   0.83936  -0.29650
   6   26768.8    373.6   0.038785287   0.47700  -0.11747   0.42108  -0.53469
   7   27233.4    367.2   0.034127170   0.41255   0.49091   0.37250   0.18109
   8   27885.7    358.6   0.018412508   0.21737  -0.34372   0.19353  -0.24856
   9   28315.4    353.2   0.304411846   3.53928  -0.38453  -1.84032   0.06807
  10   28847.2    346.7   0.013891032   0.15853   0.07946  -0.30554   0.24261
  11   29415.8    340.0   0.161249842   1.80466  -0.50671   0.28046  -1.21212
  12   29790.9    335.7   0.249372441   2.75575   0.40620   1.54462  -0.45268
  13   30072.8    332.5   0.086125714   0.94283   0.30491  -0.22692  -0.89351
  14   30376.6    329.2   0.007057231   0.07648  -0.18933   0.19986  -0.02633
  15   30541.1    327.4   0.385447281   4.15485   0.35686  -1.23306  -1.58337
  16   30815.0    324.5   0.511411642   5.46367   0.55942   0.26245   2.25429
  17   31856.0    313.9   0.081629383   0.84359   0.36826   0.06151   0.83916
  18   32446.8    308.2   0.086986198   0.88258  -0.09573  -0.78006  -0.51470
  19   32623.8    306.5   0.001239767   0.01251  -0.08083   0.06546  -0.04114
  20   32744.9    305.4   0.310733041   3.12406  -0.07274   1.74216   0.28922
  21   33015.1    302.9   0.457567323   4.56266   0.42472   2.07600   0.26923
  22   33237.6    300.9   0.029820785   0.29537  -0.00110   0.28028   0.46563
  23   33305.0    300.3   0.150272075   1.48540   0.32015  -0.76601   0.89227
  24   33454.5    298.9   0.084486691   0.83140   0.22367  -0.62106  -0.62901
  25   33739.6    296.4   0.064612758   0.63045   0.03027  -0.62314   0.49115
  26   33996.4    294.1   0.128921716   1.24844  -0.45256  -0.78546   0.65321
  27   34062.4    293.6   0.416548756   4.02593   1.05768   1.17206   1.23835
  28   34119.2    293.1   0.487540016   4.70421  -0.87279  -1.57307  -1.21156
  29   34475.2    290.1   0.113846375   1.08715  -0.14627  -0.04057   1.03155
  30   34749.1    287.8   0.276639439   2.62088   0.37447   1.51257  -0.43908
  31   34860.3    286.9   0.023607804   0.22295  -0.03422  -0.46795  -0.05287
  32   34941.3    286.2   0.211550780   1.99320  -0.65231   1.00746  -0.74344
  33   35025.0    285.5   0.291659963   2.74141  -0.30842   0.01505  -1.62667
  34   36306.3    275.4   0.065386959   0.59290   0.17090   0.10071   0.74401
  35   36362.0    275.0   0.008446488   0.07647  -0.12486  -0.12030  -0.21543
  36   36439.4    274.4   0.006741588   0.06091   0.09854   0.06837   0.21569
  37   36701.6    272.5   0.015938036   0.14296  -0.12589  -0.02962  -0.35530
  38   36937.9    270.7   0.050058692   0.44615  -0.29618  -0.58875  -0.10862
  39   37100.4    269.5   0.105908005   0.93978   0.17400  -0.40709   0.86243
  40   37138.2    269.3   0.089165267   0.79041   0.04753  -0.73214   0.50212
  41   37334.1    267.9   0.001609755   0.01419  -0.04212   0.10283  -0.04298
  42   37587.5    266.0   0.098386796   0.86172  -0.31960  -0.86665  -0.09223
  43   38065.8    262.7   0.030659148   0.26516   0.23128  -0.38207  -0.25631
  44   38189.8    261.9   0.098670119   0.85058  -0.33387   0.19898  -0.83637
  45   38544.2    259.4   0.060119858   0.51349   0.01254  -0.38655   0.60325
  46   38826.1    257.6   0.000677936   0.00575  -0.00170   0.01995  -0.07313
  47   39155.2    255.4   0.094875133   0.79770   0.14862  -0.49110   0.73104
  48   39316.5    254.3   0.019812934   0.16590  -0.25658   0.04751  -0.31275
  49   39471.8    253.3   0.000782222   0.00652   0.04972   0.00163   0.06363
  50   39562.5    252.8   0.029372125   0.24441   0.23538  -0.06888   0.42926
  51   39691.8    251.9   0.001871926   0.01553  -0.06276  -0.10763   0.00152
  52   39970.3    250.2   0.003429217   0.02824   0.08797   0.12532   0.06928
  53   40132.6    249.2   0.011478890   0.09416   0.03367  -0.11288  -0.28335
  54   40256.1    248.4   0.001362897   0.01115   0.00061  -0.04252  -0.09663

FINAL SINGLE POINT ENERGY    -14817.476643531018

DIPOLE MOMENT
-------------
                                X             Y             Z
Electronic contribution:    -45.97383     -50.80437    -148.89301
Nuclear contribution   :     46.41923      50.35890     149.37606
                        -----------------------------------------
Total Dipole Moment    :      0.44540      -0.44546       0.48305
                        -----------------------------------------
Magnitude (a.u.)       :      0.79382
Magnitude (Debye)      :      2.01773

Rotational constants in cm-1:     0.001094     0.000119     0.000108
Rotational constants in MHz :    32.789467     3.554923     3.244637

                             ****ORCA TERMINATED NORMALLY****
TOTAL RUN TIME: 0 days 0 hours 9 minutes 34 seconds 572 msec
