                         Program Version 4.2.0 -  RELEASE  -
|  1> # ORCA input file
|  2> # SCF done       -196.138855491732          0.000492046247
|  3> ! CAM-B3LYP def2-SVP def2/J RIJCOSX Grid4 TightSCF
|  4> %maxcore 5000
|  5> %tddft
|  6>     Mode sTDDFT
|  7>     Ethresh 5.0
|  8>     maxcore 5000
|  9> end
| 10>
| 11> %pal
| 12>   nprocs 6
| 13>   end
| 14> * xyz 0 1
| 15>    C        0.74095        -1.08945        -3.27276
| 16>    O        0.13397        -1.09775        -2.22464
| 17>    C        0.98814         0.10229        -4.11209
| 18>    C        1.69827        -0.26493        -5.26684
| 19>    C        2.02320         0.70164        -6.20485
| 20>    C        1.63568         2.01576        -5.96828
| 21>    C        0.93510         2.37053        -4.81312
| 22>    C        0.60376         1.40484        -3.87186
| 23>   Br        0.42598         4.16582        -4.51846
| 24>   Br        2.07375         3.33366        -7.25073
| 25>    C        1.96096        -1.70158        -5.21882
| 26>    C        2.72211        -2.39009        -6.12634
| 27>    C        3.30993        -1.80299        -7.26829
| 28>    N        3.80818        -1.38719        -8.21454
| 29>    C        3.05968        -3.75911        -6.05624
| 30>    N        3.39402        -4.85770        -6.06757
| 31>    C        1.33265        -2.22483        -4.01664
| 32>    C        1.21804        -3.56145        -3.73600
| 33>    C        0.70616        -4.22476        -2.60656
| 34>    C        0.34419        -3.78528        -1.33736
| 35>    C       -0.10219        -4.82165        -0.53236
| 36>    C       -0.09096        -6.07794        -1.18227
| 37>    S        0.49893        -5.97855        -2.76982
| 38>    C       -0.61676        -7.04673        -0.29292
| 39>    C       -0.95782        -6.41234         0.91267
| 40>    C       -0.62590        -4.99950         0.81320
| 41>    C       -0.76421        -4.05405         1.78514
| 42>    C       -1.30551        -4.36765         3.05069
| 43>    N       -1.75349        -4.62451         4.07429
| 44>    C       -0.36311        -2.71015         1.61717
| 45>    N       -0.02574        -1.61964         1.51771
| 46>    C       -1.51548        -7.28864         1.84546
| 47>    C       -1.60141        -8.58002         1.36528
| 48>    S       -0.97006        -8.71751        -0.26456
| 49>    C       -2.15843        -9.73343         2.03125
| 50>    C       -1.90125       -11.02926         1.53777
| 51>    C       -2.42179       -12.16195         2.11663
| 52>    C       -3.24025       -11.99370         3.22991
| 53>    C       -3.49785       -10.69250         3.72439
| 54>    C       -2.97330        -9.55677         3.15386
| 55>    O       -4.32914       -10.81816         4.78580
| 56>    C       -4.54039       -12.16173         4.89156
| 57>    N       -3.92190       -12.88581         4.00565
| 58>    C       -5.40788       -12.63942         5.91167
| 59>    C       -5.74196       -13.95394         6.17690
| 60>    C       -6.64258       -14.04094         7.23780
| 61>    C       -6.98302       -12.78090         7.76645
| 62>    S       -6.19617       -11.49511         6.96857
| 63>    C       -7.90085       -12.97000         8.82794
| 64>    C       -8.14849       -14.34980         8.97131
| 65>    C       -7.36324       -15.06706         7.97768
| 66>    C       -7.32003       -16.41434         7.77879
| 67>    C       -8.08332       -17.31154         8.55773
| 68>    N       -8.70915       -18.03965         9.18345
| 69>    C       -6.51986       -17.00568         6.77666
| 70>    N       -5.87707       -17.49580         5.96444
| 71>    C       -9.06105       -14.62813         9.98230
| 72>    C       -9.48733       -13.48147        10.63880
| 73>    S       -8.77191       -12.02817         9.94245
| 74>    C      -10.46015       -13.43587        11.66236
| 75>    C      -10.77384       -12.42751        12.52148
| 76>    C      -12.11995       -12.40544        13.15863
| 77>    O      -12.91937       -13.30804        13.20354
| 78>    C      -12.27903       -11.02033        13.65665
| 79>    C      -11.07830       -10.31036        13.46818
| 80>    C      -10.07838       -11.21882        12.91140
| 81>    C       -8.72265       -11.06414        13.02442
| 82>    C       -7.80438       -12.09831        12.74543
| 83>    N       -7.04042       -12.93514        12.56451
| 84>    C       -8.10621        -9.89564        13.51818
| 85>    N       -7.56601        -8.95709        13.89637
| 86>    C      -10.99908        -8.97656        13.82819
| 87>    C      -12.12296        -8.37029        14.37855
| 88>    C      -13.30704        -9.08513        14.57764
| 89>    C      -13.39097       -10.42343        14.21357
| 90>   Br      -14.81454        -8.23907        15.33994
| 91>   Br      -12.02696        -6.54403        14.85351
| 92>    H        2.55969         0.46864        -7.11004
| 93>    H        0.06147         1.66173        -2.97507
| 94>    H        1.55225        -4.24073        -4.51158
| 95>    H        0.39986        -2.75302        -1.04375
| 96>    H       -1.82909        -6.99967         2.83101
| 97>    H       -1.26334       -11.12817         0.67142
| 98>    H       -2.21585       -13.14582         1.73017
| 99>    H       -3.20551        -8.58191         3.54736
|100>    H       -5.33701       -14.77271         5.61164
|101>    H       -9.39550       -15.61047        10.26334
|102>    H      -11.11319       -14.30244        11.71524
|103>    H      -10.10133        -8.39696        13.68349
|104>    H      -14.30164       -10.98266        14.36203
|105> *
|106>
|107>                          ****END OF INPUT****

CARTESIAN COORDINATES (ANGSTROEM)
---------------------------------
  C      0.740950   -1.089450   -3.272760
  O      0.133970   -1.097750   -2.224640
  C      0.988140    0.102290   -4.112090
  C      1.698270   -0.264930   -5.266840
  C      2.023200    0.701640   -6.204850
  C      1.635680    2.015760   -5.968280
  C      0.935100    2.370530   -4.813120
  C      0.603760    1.404840   -3.871860
  Br     0.425980    4.165820   -4.518460
  Br     2.073750    3.333660   -7.250730
  C      1.960960   -1.701580   -5.218820
  C      2.722110   -2.390090   -6.126340
  C      3.309930   -1.802990   -7.268290
  N      3.808180   -1.387190   -8.214540
  C      3.059680   -3.759110   -6.056240
  N      3.394020   -4.857700   -6.067570
  C      1.332650   -2.224830   -4.016640
  C      1.218040   -3.561450   -3.736000
  C      0.706160   -4.224760   -2.606560
  C      0.344190   -3.785280   -1.337360
  C     -0.102190   -4.821650   -0.532360
  C     -0.090960   -6.077940   -1.182270
  S      0.498930   -5.978550   -2.769820
  C     -0.616760   -7.046730   -0.292920
  C     -0.957820   -6.412340    0.912670
  C     -0.625900   -4.999500    0.813200
  C     -0.764210   -4.054050    1.785140
  C     -1.305510   -4.367650    3.050690
  N     -1.753490   -4.624510    4.074290
  C     -0.363110   -2.710150    1.617170
  N     -0.025740   -1.619640    1.517710
  C     -1.515480   -7.288640    1.845460
  C     -1.601410   -8.580020    1.365280
  S     -0.970060   -8.717510   -0.264560
  C     -2.158430   -9.733430    2.031250
  C     -1.901250  -11.029260    1.537770
  C     -2.421790  -12.161950    2.116630
  C     -3.240250  -11.993700    3.229910
  C     -3.497850  -10.692500    3.724390
  C     -2.973300   -9.556770    3.153860
  O     -4.329140  -10.818160    4.785800
  C     -4.540390  -12.161730    4.891560
  N     -3.921900  -12.885810    4.005650
  C     -5.407880  -12.639420    5.911670
  C     -5.741960  -13.953940    6.176900
  C     -6.642580  -14.040940    7.237800
  C     -6.983020  -12.780900    7.766450
  S     -6.196170  -11.495110    6.968570
  C     -7.900850  -12.970000    8.827940
  C     -8.148490  -14.349800    8.971310
  C     -7.363240  -15.067060    7.977680
  C     -7.320030  -16.414340    7.778790
  C     -8.083320  -17.311540    8.557730
  N     -8.709150  -18.039650    9.183450
  C     -6.519860  -17.005680    6.776660
  N     -5.877070  -17.495800    5.964440
  C     -9.061050  -14.628130    9.982300
  C     -9.487330  -13.481470   10.638800
  S     -8.771910  -12.028170    9.942450
  C    -10.460150  -13.435870   11.662360
  C    -10.773840  -12.427510   12.521480
  C    -12.119950  -12.405440   13.158630
  O    -12.919370  -13.308040   13.203540
  C    -12.279030  -11.020330   13.656650
  C    -11.078300  -10.310360   13.468180
  C    -10.078380  -11.218820   12.911400
  C     -8.722650  -11.064140   13.024420
  C     -7.804380  -12.098310   12.745430
  N     -7.040420  -12.935140   12.564510
  C     -8.106210   -9.895640   13.518180
  N     -7.566010   -8.957090   13.896370
  C    -10.999080   -8.976560   13.828190
  C    -12.122960   -8.370290   14.378550
  C    -13.307040   -9.085130   14.577640
  C    -13.390970  -10.423430   14.213570
  Br   -14.814540   -8.239070   15.339940
  Br   -12.026960   -6.544030   14.853510
  H      2.559690    0.468640   -7.110040
  H      0.061470    1.661730   -2.975070
  H      1.552250   -4.240730   -4.511580
  H      0.399860   -2.753020   -1.043750
  H     -1.829090   -6.999670    2.831010
  H     -1.263340  -11.128170    0.671420
  H     -2.215850  -13.145820    1.730170
  H     -3.205510   -8.581910    3.547360
  H     -5.337010  -14.772710    5.611640
  H     -9.395500  -15.610470   10.263340
  H    -11.113190  -14.302440   11.715240
  H    -10.101330   -8.396960   13.683490
  H    -14.301640  -10.982660   14.362030

 Total Charge           Charge          ....    0
 Multiplicity           Mult            ....    1
 Number of Electrons    NEL             ....  646
 Basis Dimension        Dim             .... 1231

ORBITAL ENERGIES
----------------

  NO   OCC          E(Eh)            E(eV)
   0   2.0000    -482.883556    -13139.9296
   1   2.0000    -482.882866    -13139.9108
   2   2.0000    -482.878316    -13139.7870
   3   2.0000    -482.876656    -13139.7418
   4   2.0000     -89.011974     -2422.1390
   5   2.0000     -89.009406     -2422.0691
   6   2.0000     -89.003456     -2421.9072
   7   2.0000     -89.002377     -2421.8778
   8   2.0000     -62.561164     -1702.3758
   9   2.0000     -62.560490     -1702.3575
  10   2.0000     -62.555903     -1702.2327
  11   2.0000     -62.554281     -1702.1885
  12   2.0000     -56.395121     -1534.5893
  13   2.0000     -56.394460     -1534.5713
  14   2.0000     -56.392457     -1534.5168
  15   2.0000     -56.392360     -1534.5141
  16   2.0000     -56.391775     -1534.4982
  17   2.0000     -56.391681     -1534.4956
  18   2.0000     -56.389854     -1534.4459
  19   2.0000     -56.388242     -1534.4021
  20   2.0000     -56.387205     -1534.3738
  21   2.0000     -56.387100     -1534.3710
  22   2.0000     -56.385570     -1534.3294
  23   2.0000     -56.385475     -1534.3268
  24   2.0000     -19.323752      -525.8260
  25   2.0000     -19.231474      -523.3150
  26   2.0000     -19.228903      -523.2451
  27   2.0000     -14.442540      -393.0015
  28   2.0000     -14.441566      -392.9750
  29   2.0000     -14.440349      -392.9419
  30   2.0000     -14.435947      -392.8221
  31   2.0000     -14.430470      -392.6730
  32   2.0000     -14.430143      -392.6642
  33   2.0000     -14.429976      -392.6596
  34   2.0000     -14.425851      -392.5474
  35   2.0000     -14.421362      -392.4252
  36   2.0000     -10.400644      -283.0159
  37   2.0000     -10.383375      -282.5460
  38   2.0000     -10.380315      -282.4627
  39   2.0000     -10.380101      -282.4569
  40   2.0000     -10.375673      -282.3364
  41   2.0000     -10.366950      -282.0991
  42   2.0000     -10.362362      -281.9742
  43   2.0000     -10.362011      -281.9647
  44   2.0000     -10.361651      -281.9548
  45   2.0000     -10.361523      -281.9514
  46   2.0000     -10.359583      -281.8986
  47   2.0000     -10.357654      -281.8461
  48   2.0000     -10.357426      -281.8399
  49   2.0000     -10.355677      -281.7923
  50   2.0000     -10.355236      -281.7803
  51   2.0000     -10.355026      -281.7746
  52   2.0000     -10.352194      -281.6975
  53   2.0000     -10.352129      -281.6958
  54   2.0000     -10.351226      -281.6712
  55   2.0000     -10.345930      -281.5271
  56   2.0000     -10.342622      -281.4370
  57   2.0000     -10.342453      -281.4325
  58   2.0000     -10.342037      -281.4211
  59   2.0000     -10.340909      -281.3904
  60   2.0000     -10.340441      -281.3777
  61   2.0000     -10.340098      -281.3684
  62   2.0000     -10.339237      -281.3449
  63   2.0000     -10.336281      -281.2645
  64   2.0000     -10.335448      -281.2418
  65   2.0000     -10.334922      -281.2275
  66   2.0000     -10.331747      -281.1411
  67   2.0000     -10.331305      -281.1291
  68   2.0000     -10.328421      -281.0506
  69   2.0000     -10.328089      -281.0416
  70   2.0000     -10.326910      -281.0095
  71   2.0000     -10.325594      -280.9737
  72   2.0000     -10.325128      -280.9610
  73   2.0000     -10.323948      -280.9289
  74   2.0000     -10.322948      -280.9017
  75   2.0000     -10.322253      -280.8828
  76   2.0000     -10.320783      -280.8428
  77   2.0000     -10.320421      -280.8329
  78   2.0000     -10.320156      -280.8257
  79   2.0000     -10.319904      -280.8189
  80   2.0000     -10.318319      -280.7757
  81   2.0000     -10.315536      -280.7000
  82   2.0000     -10.314676      -280.6766
  83   2.0000     -10.314314      -280.6668
  84   2.0000     -10.313443      -280.6431
  85   2.0000     -10.313439      -280.6429
  86   2.0000     -10.313220      -280.6370
  87   2.0000     -10.311471      -280.5894
  88   2.0000     -10.309625      -280.5392
  89   2.0000     -10.307814      -280.4899
  90   2.0000     -10.305529      -280.4277
  91   2.0000     -10.300860      -280.3006
  92   2.0000     -10.299912      -280.2749
  93   2.0000      -8.790490      -239.2014
  94   2.0000      -8.789821      -239.1832
  95   2.0000      -8.785215      -239.0579
  96   2.0000      -8.783611      -239.0142
  97   2.0000      -8.106294      -220.5835
  98   2.0000      -8.103558      -220.5090
  99   2.0000      -8.098287      -220.3656
 100   2.0000      -8.096897      -220.3278
 101   2.0000      -6.626646      -180.3202
 102   2.0000      -6.626022      -180.3032
 103   2.0000      -6.621337      -180.1757
 104   2.0000      -6.619790      -180.1336
 105   2.0000      -6.612607      -179.9382
 106   2.0000      -6.611907      -179.9191
 107   2.0000      -6.611802      -179.9163
 108   2.0000      -6.611115      -179.8976
 109   2.0000      -6.607363      -179.7955
 110   2.0000      -6.606534      -179.7729
 111   2.0000      -6.605702      -179.7503
 112   2.0000      -6.604938      -179.7295
 113   2.0000      -6.075482      -165.3223
 114   2.0000      -6.072775      -165.2486
 115   2.0000      -6.071243      -165.2069
 116   2.0000      -6.068821      -165.1410
 117   2.0000      -6.068587      -165.1347
 118   2.0000      -6.067378      -165.1018
 119   2.0000      -6.066119      -165.0675
 120   2.0000      -6.066023      -165.0649
 121   2.0000      -6.063234      -164.9890
 122   2.0000      -6.061914      -164.9531
 123   2.0000      -6.060830      -164.9236
 124   2.0000      -6.059345      -164.8832
 125   2.0000      -2.742547       -74.6285
 126   2.0000      -2.741898       -74.6108
 127   2.0000      -2.738763       -74.5255
 128   2.0000      -2.738174       -74.5095
 129   2.0000      -2.738110       -74.5078
 130   2.0000      -2.737536       -74.4921
 131   2.0000      -2.737263       -74.4847
 132   2.0000      -2.735656       -74.4410
 133   2.0000      -2.733476       -74.3817
 134   2.0000      -2.732873       -74.3653
 135   2.0000      -2.731927       -74.3395
 136   2.0000      -2.731292       -74.3222
 137   2.0000      -2.726987       -74.2051
 138   2.0000      -2.726972       -74.2047
 139   2.0000      -2.726282       -74.1859
 140   2.0000      -2.726271       -74.1856
 141   2.0000      -2.721731       -74.0621
 142   2.0000      -2.721724       -74.0619
 143   2.0000      -2.720106       -74.0179
 144   2.0000      -2.720082       -74.0172
 145   2.0000      -1.252910       -34.0934
 146   2.0000      -1.147716       -31.2309
 147   2.0000      -1.144961       -31.1560
 148   2.0000      -1.064223       -28.9590
 149   2.0000      -1.057899       -28.7869
 150   2.0000      -1.044177       -28.4135
 151   2.0000      -1.037598       -28.2345
 152   2.0000      -1.034516       -28.1506
 153   2.0000      -1.031106       -28.0578
 154   2.0000      -1.029634       -28.0178
 155   2.0000      -1.020718       -27.7751
 156   2.0000      -1.019093       -27.7309
 157   2.0000      -1.017757       -27.6946
 158   2.0000      -1.015566       -27.6349
 159   2.0000      -1.013502       -27.5788
 160   2.0000      -1.012832       -27.5606
 161   2.0000      -1.008028       -27.4298
 162   2.0000      -1.001861       -27.2620
 163   2.0000      -0.988905       -26.9095
 164   2.0000      -0.984740       -26.7961
 165   2.0000      -0.980156       -26.6714
 166   2.0000      -0.974955       -26.5299
 167   2.0000      -0.965131       -26.2626
 168   2.0000      -0.938473       -25.5371
 169   2.0000      -0.931878       -25.3577
 170   2.0000      -0.930107       -25.3095
 171   2.0000      -0.923505       -25.1298
 172   2.0000      -0.920537       -25.0491
 173   2.0000      -0.914751       -24.8917
 174   2.0000      -0.912471       -24.8296
 175   2.0000      -0.904257       -24.6061
 176   2.0000      -0.892313       -24.2811
 177   2.0000      -0.886772       -24.1303
 178   2.0000      -0.883068       -24.0295
 179   2.0000      -0.876238       -23.8437
 180   2.0000      -0.872506       -23.7421
 181   2.0000      -0.871135       -23.7048
 182   2.0000      -0.865424       -23.5494
 183   2.0000      -0.861849       -23.4521
 184   2.0000      -0.857796       -23.3418
 185   2.0000      -0.854895       -23.2629
 186   2.0000      -0.830575       -22.6011
 187   2.0000      -0.810012       -22.0415
 188   2.0000      -0.802577       -21.8392
 189   2.0000      -0.793522       -21.5928
 190   2.0000      -0.787096       -21.4180
 191   2.0000      -0.780238       -21.2314
 192   2.0000      -0.774449       -21.0738
 193   2.0000      -0.769890       -20.9498
 194   2.0000      -0.760750       -20.7010
 195   2.0000      -0.744233       -20.2516
 196   2.0000      -0.733508       -19.9598
 197   2.0000      -0.725179       -19.7331
 198   2.0000      -0.717831       -19.5332
 199   2.0000      -0.717467       -19.5233
 200   2.0000      -0.711973       -19.3738
 201   2.0000      -0.705035       -19.1850
 202   2.0000      -0.701322       -19.0839
 203   2.0000      -0.701009       -19.0754
 204   2.0000      -0.697570       -18.9818
 205   2.0000      -0.694690       -18.9035
 206   2.0000      -0.687180       -18.6991
 207   2.0000      -0.683528       -18.5997
 208   2.0000      -0.669288       -18.2122
 209   2.0000      -0.662012       -18.0143
 210   2.0000      -0.653505       -17.7828
 211   2.0000      -0.647193       -17.6110
 212   2.0000      -0.642656       -17.4875
 213   2.0000      -0.636696       -17.3254
 214   2.0000      -0.634875       -17.2758
 215   2.0000      -0.630626       -17.1602
 216   2.0000      -0.628045       -17.0900
 217   2.0000      -0.623264       -16.9599
 218   2.0000      -0.620748       -16.8914
 219   2.0000      -0.617004       -16.7895
 220   2.0000      -0.615251       -16.7418
 221   2.0000      -0.604334       -16.4448
 222   2.0000      -0.602364       -16.3911
 223   2.0000      -0.592844       -16.1321
 224   2.0000      -0.589545       -16.0423
 225   2.0000      -0.585320       -15.9274
 226   2.0000      -0.576543       -15.6885
 227   2.0000      -0.568898       -15.4805
 228   2.0000      -0.564737       -15.3673
 229   2.0000      -0.561724       -15.2853
 230   2.0000      -0.560133       -15.2420
 231   2.0000      -0.556350       -15.1390
 232   2.0000      -0.555578       -15.1181
 233   2.0000      -0.553895       -15.0722
 234   2.0000      -0.551737       -15.0135
 235   2.0000      -0.549930       -14.9644
 236   2.0000      -0.548909       -14.9366
 237   2.0000      -0.544765       -14.8238
 238   2.0000      -0.541315       -14.7299
 239   2.0000      -0.538276       -14.6472
 240   2.0000      -0.536726       -14.6050
 241   2.0000      -0.527220       -14.3464
 242   2.0000      -0.525409       -14.2971
 243   2.0000      -0.523299       -14.2397
 244   2.0000      -0.521231       -14.1834
 245   2.0000      -0.516647       -14.0587
 246   2.0000      -0.515740       -14.0340
 247   2.0000      -0.514698       -14.0056
 248   2.0000      -0.510800       -13.8996
 249   2.0000      -0.510297       -13.8859
 250   2.0000      -0.509979       -13.8772
 251   2.0000      -0.509133       -13.8542
 252   2.0000      -0.506054       -13.7704
 253   2.0000      -0.504274       -13.7220
 254   2.0000      -0.503428       -13.6990
 255   2.0000      -0.499135       -13.5821
 256   2.0000      -0.495934       -13.4951
 257   2.0000      -0.494399       -13.4533
 258   2.0000      -0.491156       -13.3650
 259   2.0000      -0.487105       -13.2548
 260   2.0000      -0.477972       -13.0063
 261   2.0000      -0.473638       -12.8883
 262   2.0000      -0.472552       -12.8588
 263   2.0000      -0.471680       -12.8351
 264   2.0000      -0.470862       -12.8128
 265   2.0000      -0.470490       -12.8027
 266   2.0000      -0.469856       -12.7854
 267   2.0000      -0.466775       -12.7016
 268   2.0000      -0.465855       -12.6765
 269   2.0000      -0.463849       -12.6220
 270   2.0000      -0.462960       -12.5978
 271   2.0000      -0.462445       -12.5838
 272   2.0000      -0.460820       -12.5395
 273   2.0000      -0.458200       -12.4682
 274   2.0000      -0.457120       -12.4389
 275   2.0000      -0.456378       -12.4187
 276   2.0000      -0.456020       -12.4089
 277   2.0000      -0.452825       -12.3220
 278   2.0000      -0.451479       -12.2854
 279   2.0000      -0.451256       -12.2793
 280   2.0000      -0.449822       -12.2403
 281   2.0000      -0.448791       -12.2122
 282   2.0000      -0.447749       -12.1839
 283   2.0000      -0.446074       -12.1383
 284   2.0000      -0.442910       -12.0522
 285   2.0000      -0.442619       -12.0443
 286   2.0000      -0.438832       -11.9412
 287   2.0000      -0.438210       -11.9243
 288   2.0000      -0.436654       -11.8820
 289   2.0000      -0.435459       -11.8494
 290   2.0000      -0.433811       -11.8046
 291   2.0000      -0.431799       -11.7499
 292   2.0000      -0.431539       -11.7428
 293   2.0000      -0.425945       -11.5906
 294   2.0000      -0.419976       -11.4281
 295   2.0000      -0.416287       -11.3277
 296   2.0000      -0.410504       -11.1704
 297   2.0000      -0.408661       -11.1202
 298   2.0000      -0.406972       -11.0743
 299   2.0000      -0.401314       -10.9203
 300   2.0000      -0.397031       -10.8038
 301   2.0000      -0.391867       -10.6633
 302   2.0000      -0.391255       -10.6466
 303   2.0000      -0.388190       -10.5632
 304   2.0000      -0.381792       -10.3891
 305   2.0000      -0.368153       -10.0180
 306   2.0000      -0.364897        -9.9294
 307   2.0000      -0.362518        -9.8646
 308   2.0000      -0.356539        -9.7019
 309   2.0000      -0.353577        -9.6213
 310   2.0000      -0.351426        -9.5628
 311   2.0000      -0.348925        -9.4947
 312   2.0000      -0.346185        -9.4202
 313   2.0000      -0.343732        -9.3534
 314   2.0000      -0.341110        -9.2821
 315   2.0000      -0.338064        -9.1992
 316   2.0000      -0.334990        -9.1155
 317   2.0000      -0.332906        -9.0588
 318   2.0000      -0.321251        -8.7417
 319   2.0000      -0.317460        -8.6385
 320   2.0000      -0.312585        -8.5059
 321   2.0000      -0.285996        -7.7823
 322   2.0000      -0.265545        -7.2259
 323   0.0000      -0.127519        -3.4700
 324   0.0000      -0.119475        -3.2511
 325   0.0000      -0.100446        -2.7333
 326   0.0000      -0.096083        -2.6146
 327   0.0000      -0.077584        -2.1112

MULLIKEN ATOMIC CHARGES
-----------------------
   0 C :    0.156045
   1 O :   -0.143863
   2 C :   -0.014562
   3 C :    0.032554
   4 C :   -0.008035
   5 C :   -0.025302
   6 C :   -0.014648
   7 C :   -0.019667
   8 Br:    0.017244
   9 Br:    0.022643
  10 C :    0.310048
  11 C :   -0.346154
  12 C :   -0.186621
  13 N :    0.158803
  14 C :   -0.196275
  15 N :    0.158411
  16 C :   -0.097503
  17 C :    0.041435
  18 C :   -0.117073
  19 C :    0.002646
  20 C :   -0.011649
  21 C :   -0.079078
  22 S :    0.209153
  23 C :   -0.108961
  24 C :    0.030289
  25 C :    0.310737
  26 C :   -0.294398
  27 C :   -0.186677
  28 N :    0.171005
  29 C :   -0.189863
  30 N :    0.194850
  31 C :   -0.049714
  32 C :   -0.066038
  33 S :    0.189620
  34 C :    0.140252
  35 C :   -0.045064
  36 C :   -0.037537
  37 C :    0.029416
  38 C :    0.249490
  39 C :   -0.148489
  40 O :   -0.204943
  41 C :    0.131392
  42 N :   -0.033425
  43 C :   -0.125659
  44 C :   -0.025451
  45 C :    0.019200
  46 C :   -0.094592
  47 S :    0.247139
  48 C :   -0.080522
  49 C :    0.027680
  50 C :    0.295258
  51 C :   -0.285767
  52 C :   -0.189214
  53 N :    0.184011
  54 C :   -0.192942
  55 N :    0.188862
  56 C :    0.004825
  57 C :   -0.088233
  58 S :    0.210785
  59 C :    0.047627
  60 C :   -0.135717
  61 C :    0.142892
  62 O :   -0.129077
  63 C :    0.003489
  64 C :    0.020642
  65 C :    0.236780
  66 C :   -0.313677
  67 C :   -0.211027
  68 N :    0.180325
  69 C :   -0.174552
  70 N :    0.167361
  71 C :   -0.010597
  72 C :   -0.022353
  73 C :   -0.015473
  74 C :   -0.023074
  75 Br:    0.019718
  76 Br:    0.025623
  77 H :    0.007555
  78 H :    0.009679
  79 H :    0.011447
  80 H :    0.039122
  81 H :    0.008552
  82 H :   -0.004659
  83 H :   -0.008951
  84 H :   -0.009412
  85 H :    0.030235
  86 H :    0.021391
  87 H :    0.037379
  88 H :    0.012383
  89 H :    0.010495
Sum of atomic charges:   -0.0000000

LOEWDIN ATOMIC CHARGES
----------------------
   0 C :    0.086399
   1 O :   -0.131295
   2 C :   -0.041020
   3 C :   -0.013099
   4 C :   -0.006681
   5 C :   -0.119010
   6 C :   -0.122111
   7 C :    0.007722
   8 Br:    0.139892
   9 Br:    0.141942
  10 C :    0.075522
  11 C :   -0.136845
  12 C :   -0.019985
  13 N :   -0.044704
  14 C :   -0.024111
  15 N :   -0.048222
  16 C :   -0.101652
  17 C :    0.045256
  18 C :   -0.179414
  19 C :    0.022146
  20 C :   -0.076489
  21 C :   -0.154081
  22 S :    0.498130
  23 C :   -0.195262
  24 C :   -0.050391
  25 C :    0.075829
  26 C :   -0.092619
  27 C :   -0.014184
  28 N :   -0.031512
  29 C :   -0.022548
  30 N :   -0.013494
  31 C :   -0.035479
  32 C :   -0.140212
  33 S :    0.488694
  34 C :   -0.039918
  35 C :   -0.028159
  36 C :   -0.009905
  37 C :   -0.025437
  38 C :    0.037001
  39 C :   -0.027763
  40 O :   -0.014103
  41 C :    0.047254
  42 N :   -0.096300
  43 C :   -0.189875
  44 C :    0.007453
  45 C :   -0.056864
  46 C :   -0.179983
  47 S :    0.514237
  48 C :   -0.154750
  49 C :   -0.068024
  50 C :    0.076331
  51 C :   -0.090157
  52 C :   -0.017057
  53 N :   -0.022533
  54 C :   -0.019470
  55 N :   -0.019231
  56 C :    0.016108
  57 C :   -0.176369
  58 S :    0.514891
  59 C :    0.053623
  60 C :   -0.100772
  61 C :    0.084152
  62 O :   -0.130524
  63 C :   -0.043704
  64 C :   -0.010143
  65 C :    0.058221
  66 C :   -0.137019
  67 C :   -0.038015
  68 N :   -0.040269
  69 C :   -0.023048
  70 N :   -0.037953
  71 C :   -0.009106
  72 C :   -0.117473
  73 C :   -0.122692
  74 C :    0.008378
  75 Br:    0.141653
  76 Br:    0.145363
  77 H :    0.044608
  78 H :    0.047638
  79 H :    0.043312
  80 H :    0.044219
  81 H :    0.039539
  82 H :    0.023328
  83 H :    0.041624
  84 H :    0.040081
  85 H :    0.052207
  86 H :    0.048346
  87 H :    0.057110
  88 H :    0.045041
  89 H :    0.047787

  Mayer bond orders larger than 0.100000
B(  0-C ,  1-O ) :   2.1820 B(  0-C ,  2-C ) :   0.9509 B(  0-C , 16-C ) :   0.9464
B(  2-C ,  3-C ) :   1.3310 B(  2-C ,  7-C ) :   1.3703 B(  3-C ,  4-C ) :   1.3660
B(  3-C , 10-C ) :   0.9871 B(  4-C ,  5-C ) :   1.3699 B(  4-C , 77-H ) :   0.9787
B(  5-C ,  6-C ) :   1.4211 B(  5-C ,  9-Br) :   1.0579 B(  6-C ,  7-C ) :   1.3502
B(  6-C ,  8-Br) :   1.0356 B(  7-C , 78-H ) :   1.0082 B( 10-C , 11-C ) :   1.6333
B( 10-C , 16-C ) :   1.0848 B( 11-C , 12-C ) :   1.1421 B( 11-C , 14-C ) :   1.1397
B( 12-C , 13-N ) :   2.9717 B( 14-C , 15-N ) :   2.9772 B( 16-C , 17-C ) :   1.5812
B( 17-C , 18-C ) :   1.2262 B( 17-C , 79-H ) :   0.9126 B( 18-C , 19-C ) :   1.3898
B( 18-C , 22-S ) :   1.0711 B( 19-C , 20-C ) :   1.3281 B( 19-C , 80-H ) :   0.9721
B( 20-C , 21-C ) :   1.3773 B( 20-C , 25-C ) :   0.9931 B( 21-C , 22-S ) :   1.1737
B( 21-C , 23-C ) :   1.2017 B( 23-C , 24-C ) :   1.4383 B( 23-C , 33-S ) :   1.1096
B( 24-C , 25-C ) :   0.9972 B( 24-C , 31-C ) :   1.2790 B( 25-C , 26-C ) :   1.7174
B( 26-C , 27-C ) :   1.1370 B( 26-C , 29-C ) :   1.1329 B( 27-C , 28-N ) :   2.9847
B( 29-C , 30-N ) :   2.9963 B( 31-C , 32-C ) :   1.4824 B( 31-C , 81-H ) :   0.9900
B( 32-C , 33-S ) :   1.1254 B( 32-C , 34-C ) :   1.0666 B( 34-C , 35-C ) :   1.2951
B( 34-C , 39-C ) :   1.3301 B( 35-C , 36-C ) :   1.4147 B( 35-C , 82-H ) :   0.9836
B( 36-C , 37-C ) :   1.2964 B( 36-C , 83-H ) :   1.0182 B( 37-C , 38-C ) :   1.2635
B( 37-C , 42-N ) :   1.2964 B( 38-C , 39-C ) :   1.3362 B( 38-C , 40-O ) :   1.0937
B( 39-C , 84-H ) :   1.0187 B( 40-O , 41-C ) :   1.1826 B( 41-C , 42-N ) :   1.7781
B( 41-C , 43-C ) :   1.0610 B( 43-C , 44-C ) :   1.4752 B( 43-C , 47-S ) :   1.1137
B( 44-C , 45-C ) :   1.2815 B( 44-C , 85-H ) :   1.0079 B( 45-C , 46-C ) :   1.4232
B( 45-C , 50-C ) :   0.9895 B( 46-C , 47-S ) :   1.1298 B( 46-C , 48-C ) :   1.2084
B( 48-C , 49-C ) :   1.4027 B( 48-C , 58-S ) :   1.1603 B( 49-C , 50-C ) :   0.9929
B( 49-C , 56-C ) :   1.3061 B( 50-C , 51-C ) :   1.7286 B( 51-C , 52-C ) :   1.1323
B( 51-C , 54-C ) :   1.1336 B( 52-C , 53-N ) :   2.9936 B( 54-C , 55-N ) :   2.9988
B( 56-C , 57-C ) :   1.3952 B( 56-C , 86-H ) :   1.0019 B( 57-C , 58-S ) :   1.0867
B( 57-C , 59-C ) :   1.1501 B( 59-C , 60-C ) :   1.6382 B( 59-C , 87-H ) :   0.9452
B( 60-C , 61-C ) :   0.9415 B( 60-C , 65-C ) :   1.0348 B( 61-C , 62-O ) :   2.2793
B( 61-C , 63-C ) :   0.9212 B( 63-C , 64-C ) :   1.3285 B( 63-C , 74-C ) :   1.3760
B( 64-C , 65-C ) :   1.0075 B( 64-C , 71-C ) :   1.3687 B( 65-C , 66-C ) :   1.6655
B( 66-C , 67-C ) :   1.1528 B( 66-C , 69-C ) :   1.1274 B( 67-C , 68-N ) :   3.0242
B( 69-C , 70-N ) :   2.9957 B( 71-C , 72-C ) :   1.3686 B( 71-C , 88-H ) :   0.9838
B( 72-C , 73-C ) :   1.4205 B( 72-C , 76-Br) :   1.0540 B( 73-C , 74-C ) :   1.3546
B( 73-C , 75-Br) :   1.0378 B( 74-C , 89-H ) :   1.0078

-----------------------------------------------------------------------------
         ABSORPTION SPECTRUM VIA TRANSITION ELECTRIC DIPOLE MOMENTS
-----------------------------------------------------------------------------
State   Energy  Wavelength   fosc         T2         TX        TY        TZ
        (cm-1)    (nm)                  (au**2)     (au)      (au)      (au)
-----------------------------------------------------------------------------
   0   14100.0    709.2   0.597251643  13.94480  -1.79754  -1.76300   2.75780
   1   14752.8    677.8   0.099883710   2.22892  -0.83852   0.56795   1.09692
   2   20747.7    482.0   1.429573481  22.68363  -2.28182  -1.43522   3.92646
   3   21665.1    461.6   0.581236235   8.83217   0.57122   2.83734  -0.67481
   4   22377.3    446.9   0.076765669   1.12937  -0.24567  -0.13279   1.02537
   5   24421.5    409.5   0.018700667   0.25209  -0.13659  -0.23498  -0.42216
   6   26373.7    379.2   0.183238823   2.28729   0.40048   1.20148  -0.82666
   7   26667.5    375.0   0.005444499   0.06721   0.10736  -0.00370   0.23595
   8   27873.7    358.8   0.483591775   5.71163  -1.94830  -0.33698   1.34246
   9   28383.6    352.3   0.129007500   1.49631   0.43746  -1.13436  -0.13480
  10   28582.3    349.9   0.066483682   0.76576   0.64940   0.54622  -0.21374
  11   29173.1    342.8   0.017890671   0.20189   0.07414  -0.17204   0.40841
  12   29310.1    341.2   0.066937749   0.75185  -0.59720  -0.21228   0.59172
  13   29672.8    337.0   0.264457478   2.93409   0.33522  -1.67979  -0.00181
  14   30086.4    332.4   0.297703279   3.25753  -0.07460  -1.75394  -0.41914
  15   30255.0    330.5   0.442830847   4.81855  -0.18875   2.08345   0.66495
  16   30642.1    326.3   0.266282171   2.86087  -0.63678  -1.54776  -0.24456
  17   31129.0    321.2   0.142682715   1.50897   0.29028  -1.10318  -0.45574
  18   31686.5    315.6   0.430724256   4.47508   1.15340   0.21046  -1.76081
  19   31895.7    313.5   0.056344431   0.58156   0.27361  -0.16895  -0.69149
  20   32365.3    309.0   0.111044753   1.12952  -0.38352  -0.51374   0.84765
  21   32684.6    306.0   0.042273034   0.42579  -0.57219   0.31226   0.02979
  22   32754.7    305.3   0.011314066   0.11372  -0.27851  -0.18327  -0.05062
  23   32811.9    304.8   0.184184633   1.84798   0.77154  -0.42610  -1.03496
  24   33006.0    303.0   0.029843969   0.29767   0.11500  -0.52684  -0.08297
  25   33503.8    298.5   0.116650899   1.14623   0.96555  -0.29029  -0.36009
  26   33541.2    298.1   0.145243548   1.42559  -0.88065   0.79653  -0.12485
  27   33690.6    296.8   0.195712989   1.91243  -0.04811   1.37666  -0.12214
  28   34099.9    293.3   0.007181109   0.06933  -0.14070   0.10177   0.19793
  29   34295.5    291.6   0.054122959   0.51954  -0.20099   0.69187  -0.02133
  30   34478.8    290.0   0.090750548   0.86651   0.36055  -0.48886  -0.70535
  31   34777.3    287.5   0.389513471   3.68725  -0.57146   1.75406   0.53287
  32   35001.3    285.7   0.019445577   0.18290   0.06373   0.39975  -0.13799
  33   35272.5    283.5   0.655772640   6.12058  -1.88555   0.78119   1.39823
  34   35409.1    282.4   0.016783994   0.15605  -0.36726   0.01907  -0.14423
  35   35476.3    281.9   0.281721852   2.61431   0.76119   1.16340   0.82548
  36   36010.2    277.7   0.105980222   0.96889  -0.66109   0.33205   0.64930
  37   36311.1    275.4   0.039886550   0.36163   0.25800  -0.45455  -0.29740
  38   36624.5    273.0   0.034354116   0.30880  -0.31041   0.11482   0.44639
  39   36788.1    271.8   0.016221717   0.14517  -0.19053   0.13113  -0.30277
  40   36804.6    271.7   0.061390199   0.54913  -0.39503  -0.29163   0.55500
  41   36844.7    271.4   0.009252799   0.08267   0.12924  -0.12658   0.22349
  42   37367.7    267.6   0.007026277   0.06190   0.17273  -0.00449  -0.17901
  43   37425.8    267.2   0.088875656   0.78179  -0.58737   0.08945   0.65482
  44   37663.7    265.5   0.009892989   0.08647  -0.09174  -0.08633  -0.26572
  45   37860.5    264.1   0.033679233   0.29285  -0.14715   0.18704   0.48602
  46   37978.0    263.3   0.000472508   0.00410   0.05603  -0.01866  -0.02467
  47   38414.6    260.3   0.055817298   0.47835  -0.09800  -0.62047   0.28943
  48   38868.0    257.3   0.095916552   0.81241  -0.05194  -0.89195  -0.11892
  49   39117.5    255.6   0.042100724   0.35432   0.26124   0.52894  -0.07929
  50   39607.6    252.5   0.112157319   0.93223  -0.02407  -0.90929   0.32379
  51   39759.0    251.5   0.111967771   0.92711  -0.08104  -0.90063   0.33078
  52   40039.8    249.8   0.193673865   1.59241   0.70258   1.01129  -0.27583

FINAL SINGLE POINT ENERGY    -14782.617945609953

DIPOLE MOMENT
-------------
                                X             Y             Z
Electronic contribution:    -64.27844     206.05696      21.05287
Nuclear contribution   :     62.03713    -206.17441     -21.15384
                        -----------------------------------------
Total Dipole Moment    :     -2.24130      -0.11745      -0.10096
                        -----------------------------------------
Magnitude (a.u.)       :      2.24665
Magnitude (Debye)      :      5.71052

Rotational constants in cm-1:     0.000780     0.000113     0.000101
Rotational constants in MHz :    23.391477     3.400033     3.013576

                             ****ORCA TERMINATED NORMALLY****
TOTAL RUN TIME: 0 days 0 hours 9 minutes 17 seconds 304 msec
