                         Program Version 4.2.0 -  RELEASE  -
|  1> # ORCA input file
|  2> # SCF done       -196.100753618013          0.000368664918
|  3> ! CAM-B3LYP def2-SVP def2/J RIJCOSX Grid4 TightSCF
|  4> %maxcore 5000
|  5> %tddft
|  6>     Mode sTDDFT
|  7>     Ethresh 5.0
|  8>     maxcore 5000
|  9> end
| 10>
| 11> %pal
| 12>   nprocs 6
| 13>   end
| 14> * xyz 0 1
| 15>    C        5.04060        -3.42167         1.17480
| 16>    O        4.96122        -4.46419         0.56507
| 17>    C        6.26866        -2.62107         1.36911
| 18>    C        5.98678        -1.49400         2.15972
| 19>    C        7.00434        -0.61070         2.48110
| 20>    C        8.28451        -0.86871         2.00383
| 21>    C        8.55319        -1.98946         1.21405
| 22>    C        7.53679        -2.87946         0.89215
| 23>   Br       10.30236        -2.31253         0.57811
| 24>   Br        9.67572         0.33050         2.44906
| 25>    C        4.56641        -1.50244         2.49821
| 26>    C        3.89476        -0.49515         3.13799
| 27>    C        4.51160         0.67831         3.62332
| 28>    N        4.96207         1.64641         4.04266
| 29>    C        2.50166        -0.46808         3.36591
| 30>    N        1.37566        -0.36939         3.56620
| 31>    C        3.99119        -2.71887         1.95244
| 32>    C        2.76031        -3.21493         2.28727
| 33>    C        2.07894        -4.32263         1.74514
| 34>    C        2.21692        -4.97791         0.52706
| 35>    C        1.31428        -6.02243         0.39243
| 36>    C        0.47475        -6.18179         1.51819
| 37>    S        0.76988        -5.01257         2.71405
| 38>    C       -0.35629        -7.30962         1.30740
| 39>    C       -0.04974        -7.85587         0.04320
| 40>    C        0.99096        -7.05510        -0.57988
| 41>    C        1.53554        -7.22809        -1.81744
| 42>    C        1.13613        -8.28075        -2.66964
| 43>    N        0.81727        -9.13469        -3.36473
| 44>    C        2.51383        -6.35831        -2.34770
| 45>    N        3.29076        -5.65074        -2.80477
| 46>    C       -0.79752        -8.99461        -0.24502
| 47>    C       -1.65508        -9.30878         0.79291
| 48>    S       -1.56047        -8.19343         2.13503
| 49>    C       -2.53655       -10.42529         0.89616
| 50>    N       -3.23767       -10.54660         2.01391
| 51>    N       -4.02501       -11.54648         2.24965
| 52>    C       -4.20262       -12.54455         1.39625
| 53>    C       -3.53379       -12.51909         0.13921
| 54>    C       -2.66483       -11.41251        -0.12217
| 55>    N       -2.09423       -11.49810        -1.32047
| 56>    S       -2.60530       -12.83848        -2.04434
| 57>    N       -3.57003       -13.37617        -0.87718
| 58>    C       -5.04673       -13.61748         1.80861
| 59>    C       -5.33310       -14.78591         1.12773
| 60>    C       -6.16253       -15.61706         1.87628
| 61>    C       -6.50342       -15.06270         3.12844
| 62>    S       -5.80297       -13.52780         3.38229
| 63>    C       -7.32502       -15.99032         3.81867
| 64>    C       -7.49879       -17.12700         3.00168
| 65>    C       -6.76648       -16.93240         1.76119
| 66>    C       -6.64002       -17.82788         0.74016
| 67>    C       -7.25507       -19.09643         0.80246
| 68>    N       -7.76176       -20.12237         0.87692
| 69>    C       -5.88845       -17.54879        -0.42106
| 70>    N       -5.28340       -17.32156        -1.36763
| 71>    C       -8.25509       -18.11906         3.60753
| 72>    C       -8.66218       -17.76080         4.88631
| 73>    S       -8.11932       -16.14197         5.31402
| 74>    C       -9.44718       -18.49523         5.79972
| 75>    C       -9.70095       -19.83457         5.82111
| 76>    C      -10.87524       -20.32464         6.59605
| 77>    O      -11.53000       -19.69724         7.39313
| 78>    C      -11.08737       -21.71278         6.13326
| 79>    C      -10.05252       -22.07667         5.25192
| 80>    C       -9.09574       -20.97377         5.16227
| 81>    C       -7.79016       -21.10952         4.77138
| 82>    C       -6.81252       -20.10537         4.91765
| 83>    N       -5.97544       -19.32965         5.04049
| 84>    C       -7.24173       -22.30874         4.26616
| 85>    N       -6.74814       -23.25990         3.85786
| 86>    C      -10.06197       -23.32456         4.65333
| 87>    C      -11.10075       -24.19804         4.95623
| 88>    C      -12.11409       -23.83698         5.84798
| 89>    C      -12.11362       -22.58133         6.44231
| 90>   Br      -13.50485       -25.04949         6.25329
| 91>   Br      -11.12408       -25.89857         4.13402
| 92>    H        6.83688         0.26150         3.09196
| 93>    H        7.72951        -3.75008         0.28461
| 94>    H        2.23817        -2.72949         3.10373
| 95>    H        2.94078        -4.69316        -0.21280
| 96>    H       -0.73723        -9.58450        -1.14171
| 97>    H       -4.94237       -14.99447         0.14810
| 98>    H       -8.54106       -19.04310         3.13925
| 99>    H       -9.97556       -17.92002         6.55399
|100>    H       -9.30009       -23.63071         3.95452
|101>    H      -12.89469       -22.29137         7.12781
|102> *
|103>
|104>                          ****END OF INPUT****

CARTESIAN COORDINATES (ANGSTROEM)
---------------------------------
  C      5.040600   -3.421670    1.174800
  O      4.961220   -4.464190    0.565070
  C      6.268660   -2.621070    1.369110
  C      5.986780   -1.494000    2.159720
  C      7.004340   -0.610700    2.481100
  C      8.284510   -0.868710    2.003830
  C      8.553190   -1.989460    1.214050
  C      7.536790   -2.879460    0.892150
  Br    10.302360   -2.312530    0.578110
  Br     9.675720    0.330500    2.449060
  C      4.566410   -1.502440    2.498210
  C      3.894760   -0.495150    3.137990
  C      4.511600    0.678310    3.623320
  N      4.962070    1.646410    4.042660
  C      2.501660   -0.468080    3.365910
  N      1.375660   -0.369390    3.566200
  C      3.991190   -2.718870    1.952440
  C      2.760310   -3.214930    2.287270
  C      2.078940   -4.322630    1.745140
  C      2.216920   -4.977910    0.527060
  C      1.314280   -6.022430    0.392430
  C      0.474750   -6.181790    1.518190
  S      0.769880   -5.012570    2.714050
  C     -0.356290   -7.309620    1.307400
  C     -0.049740   -7.855870    0.043200
  C      0.990960   -7.055100   -0.579880
  C      1.535540   -7.228090   -1.817440
  C      1.136130   -8.280750   -2.669640
  N      0.817270   -9.134690   -3.364730
  C      2.513830   -6.358310   -2.347700
  N      3.290760   -5.650740   -2.804770
  C     -0.797520   -8.994610   -0.245020
  C     -1.655080   -9.308780    0.792910
  S     -1.560470   -8.193430    2.135030
  C     -2.536550  -10.425290    0.896160
  N     -3.237670  -10.546600    2.013910
  N     -4.025010  -11.546480    2.249650
  C     -4.202620  -12.544550    1.396250
  C     -3.533790  -12.519090    0.139210
  C     -2.664830  -11.412510   -0.122170
  N     -2.094230  -11.498100   -1.320470
  S     -2.605300  -12.838480   -2.044340
  N     -3.570030  -13.376170   -0.877180
  C     -5.046730  -13.617480    1.808610
  C     -5.333100  -14.785910    1.127730
  C     -6.162530  -15.617060    1.876280
  C     -6.503420  -15.062700    3.128440
  S     -5.802970  -13.527800    3.382290
  C     -7.325020  -15.990320    3.818670
  C     -7.498790  -17.127000    3.001680
  C     -6.766480  -16.932400    1.761190
  C     -6.640020  -17.827880    0.740160
  C     -7.255070  -19.096430    0.802460
  N     -7.761760  -20.122370    0.876920
  C     -5.888450  -17.548790   -0.421060
  N     -5.283400  -17.321560   -1.367630
  C     -8.255090  -18.119060    3.607530
  C     -8.662180  -17.760800    4.886310
  S     -8.119320  -16.141970    5.314020
  C     -9.447180  -18.495230    5.799720
  C     -9.700950  -19.834570    5.821110
  C    -10.875240  -20.324640    6.596050
  O    -11.530000  -19.697240    7.393130
  C    -11.087370  -21.712780    6.133260
  C    -10.052520  -22.076670    5.251920
  C     -9.095740  -20.973770    5.162270
  C     -7.790160  -21.109520    4.771380
  C     -6.812520  -20.105370    4.917650
  N     -5.975440  -19.329650    5.040490
  C     -7.241730  -22.308740    4.266160
  N     -6.748140  -23.259900    3.857860
  C    -10.061970  -23.324560    4.653330
  C    -11.100750  -24.198040    4.956230
  C    -12.114090  -23.836980    5.847980
  C    -12.113620  -22.581330    6.442310
  Br   -13.504850  -25.049490    6.253290
  Br   -11.124080  -25.898570    4.134020
  H      6.836880    0.261500    3.091960
  H      7.729510   -3.750080    0.284610
  H      2.238170   -2.729490    3.103730
  H      2.940780   -4.693160   -0.212800
  H     -0.737230   -9.584500   -1.141710
  H     -4.942370  -14.994470    0.148100
  H     -8.541060  -19.043100    3.139250
  H     -9.975560  -17.920020    6.553990
  H     -9.300090  -23.630710    3.954520
  H    -12.894690  -22.291370    7.127810

 Total Charge           Charge          ....    0
 Multiplicity           Mult            ....    1
 Number of Electrons    NEL             ....  654
 Basis Dimension        Dim             .... 1220

ORBITAL ENERGIES
----------------

  NO   OCC          E(Eh)            E(eV)
   0   2.0000    -482.880215    -13139.8387
   1   2.0000    -482.879874    -13139.8294
   2   2.0000    -482.878539    -13139.7931
   3   2.0000    -482.878370    -13139.7884
   4   2.0000     -89.064146     -2423.5586
   5   2.0000     -89.005968     -2421.9755
   6   2.0000     -89.005313     -2421.9577
   7   2.0000     -89.001804     -2421.8622
   8   2.0000     -89.001147     -2421.8443
   9   2.0000     -62.557826     -1702.2850
  10   2.0000     -62.557471     -1702.2753
  11   2.0000     -62.556187     -1702.2404
  12   2.0000     -62.555999     -1702.2353
  13   2.0000     -56.391778     -1534.4983
  14   2.0000     -56.391423     -1534.4886
  15   2.0000     -56.390154     -1534.4541
  16   2.0000     -56.389962     -1534.4489
  17   2.0000     -56.389120     -1534.4260
  18   2.0000     -56.389028     -1534.4235
  19   2.0000     -56.388770     -1534.4164
  20   2.0000     -56.388667     -1534.4136
  21   2.0000     -56.387474     -1534.3812
  22   2.0000     -56.387375     -1534.3785
  23   2.0000     -56.387287     -1534.3761
  24   2.0000     -56.387191     -1534.3735
  25   2.0000     -19.230623      -523.2918
  26   2.0000     -19.228885      -523.2446
  27   2.0000     -14.478650      -393.9841
  28   2.0000     -14.478446      -393.9785
  29   2.0000     -14.466790      -393.6614
  30   2.0000     -14.466192      -393.6451
  31   2.0000     -14.440651      -392.9501
  32   2.0000     -14.438738      -392.8980
  33   2.0000     -14.438634      -392.8952
  34   2.0000     -14.436396      -392.8343
  35   2.0000     -14.428859      -392.6292
  36   2.0000     -14.426384      -392.5619
  37   2.0000     -14.423717      -392.4893
  38   2.0000     -14.423309      -392.4782
  39   2.0000     -10.382695      -282.5275
  40   2.0000     -10.380187      -282.4593
  41   2.0000     -10.375266      -282.3253
  42   2.0000     -10.375174      -282.3228
  43   2.0000     -10.363031      -281.9924
  44   2.0000     -10.362725      -281.9841
  45   2.0000     -10.362390      -281.9750
  46   2.0000     -10.361769      -281.9581
  47   2.0000     -10.360769      -281.9309
  48   2.0000     -10.360476      -281.9229
  49   2.0000     -10.358209      -281.8612
  50   2.0000     -10.357683      -281.8469
  51   2.0000     -10.357649      -281.8460
  52   2.0000     -10.357279      -281.8359
  53   2.0000     -10.357059      -281.8299
  54   2.0000     -10.355492      -281.7873
  55   2.0000     -10.354755      -281.7672
  56   2.0000     -10.354450      -281.7589
  57   2.0000     -10.352844      -281.7152
  58   2.0000     -10.352101      -281.6950
  59   2.0000     -10.346188      -281.5341
  60   2.0000     -10.345926      -281.5270
  61   2.0000     -10.340874      -281.3895
  62   2.0000     -10.338644      -281.3288
  63   2.0000     -10.338599      -281.3276
  64   2.0000     -10.338582      -281.3271
  65   2.0000     -10.338456      -281.3237
  66   2.0000     -10.337754      -281.3046
  67   2.0000     -10.336787      -281.2783
  68   2.0000     -10.336436      -281.2687
  69   2.0000     -10.335785      -281.2510
  70   2.0000     -10.335180      -281.2346
  71   2.0000     -10.329754      -281.0869
  72   2.0000     -10.328748      -281.0595
  73   2.0000     -10.325912      -280.9824
  74   2.0000     -10.325025      -280.9582
  75   2.0000     -10.323792      -280.9247
  76   2.0000     -10.322435      -280.8877
  77   2.0000     -10.322324      -280.8847
  78   2.0000     -10.318437      -280.7789
  79   2.0000     -10.318389      -280.7776
  80   2.0000     -10.318015      -280.7675
  81   2.0000     -10.317918      -280.7648
  82   2.0000     -10.316856      -280.7359
  83   2.0000     -10.316746      -280.7329
  84   2.0000     -10.315945      -280.7111
  85   2.0000     -10.315618      -280.7022
  86   2.0000     -10.315424      -280.6970
  87   2.0000     -10.313959      -280.6571
  88   2.0000     -10.313792      -280.6525
  89   2.0000     -10.312523      -280.6180
  90   2.0000     -10.312467      -280.6165
  91   2.0000     -10.309383      -280.5326
  92   2.0000     -10.308123      -280.4983
  93   2.0000      -8.787153      -239.1106
  94   2.0000      -8.786794      -239.1008
  95   2.0000      -8.785539      -239.0667
  96   2.0000      -8.785334      -239.0611
  97   2.0000      -8.155533      -221.9233
  98   2.0000      -8.100690      -220.4310
  99   2.0000      -8.100141      -220.4161
 100   2.0000      -8.095612      -220.2928
 101   2.0000      -8.095028      -220.2769
 102   2.0000      -6.623297      -180.2291
 103   2.0000      -6.622922      -180.2189
 104   2.0000      -6.621750      -180.1870
 105   2.0000      -6.621524      -180.1808
 106   2.0000      -6.609272      -179.8474
 107   2.0000      -6.608934      -179.8382
 108   2.0000      -6.608486      -179.8260
 109   2.0000      -6.608117      -179.8160
 110   2.0000      -6.607633      -179.8028
 111   2.0000      -6.607421      -179.7971
 112   2.0000      -6.606824      -179.7808
 113   2.0000      -6.606650      -179.7761
 114   2.0000      -6.126697      -166.7159
 115   2.0000      -6.118693      -166.4981
 116   2.0000      -6.118220      -166.4852
 117   2.0000      -6.069820      -165.1682
 118   2.0000      -6.069227      -165.1521
 119   2.0000      -6.065667      -165.0552
 120   2.0000      -6.065129      -165.0406
 121   2.0000      -6.064902      -165.0344
 122   2.0000      -6.064271      -165.0172
 123   2.0000      -6.063218      -164.9885
 124   2.0000      -6.062670      -164.9736
 125   2.0000      -6.060522      -164.9152
 126   2.0000      -6.059947      -164.8995
 127   2.0000      -6.058134      -164.8502
 128   2.0000      -6.057564      -164.8347
 129   2.0000      -2.739180       -74.5369
 130   2.0000      -2.738844       -74.5277
 131   2.0000      -2.737585       -74.4935
 132   2.0000      -2.737386       -74.4881
 133   2.0000      -2.735417       -74.4345
 134   2.0000      -2.735073       -74.4251
 135   2.0000      -2.734851       -74.4191
 136   2.0000      -2.734439       -74.4079
 137   2.0000      -2.733866       -74.3923
 138   2.0000      -2.733663       -74.3867
 139   2.0000      -2.733262       -74.3758
 140   2.0000      -2.733013       -74.3691
 141   2.0000      -2.723671       -74.1149
 142   2.0000      -2.723649       -74.1143
 143   2.0000      -2.723305       -74.1049
 144   2.0000      -2.723298       -74.1047
 145   2.0000      -2.722008       -74.0696
 146   2.0000      -2.721985       -74.0690
 147   2.0000      -2.721816       -74.0644
 148   2.0000      -2.721797       -74.0639
 149   2.0000      -1.168614       -31.7996
 150   2.0000      -1.146977       -31.2108
 151   2.0000      -1.144938       -31.1553
 152   2.0000      -1.143668       -31.1208
 153   2.0000      -1.059076       -28.8189
 154   2.0000      -1.058292       -28.7976
 155   2.0000      -1.033267       -28.1166
 156   2.0000      -1.031999       -28.0821
 157   2.0000      -1.031686       -28.0736
 158   2.0000      -1.030248       -28.0345
 159   2.0000      -1.025703       -27.9108
 160   2.0000      -1.017382       -27.6844
 161   2.0000      -1.015847       -27.6426
 162   2.0000      -1.014851       -27.6155
 163   2.0000      -1.014752       -27.6128
 164   2.0000      -1.011867       -27.5343
 165   2.0000      -1.009645       -27.4738
 166   2.0000      -1.003474       -27.3059
 167   2.0000      -1.003304       -27.3013
 168   2.0000      -0.984963       -26.8022
 169   2.0000      -0.983893       -26.7731
 170   2.0000      -0.977434       -26.5973
 171   2.0000      -0.971545       -26.4371
 172   2.0000      -0.953584       -25.9483
 173   2.0000      -0.943734       -25.6803
 174   2.0000      -0.930961       -25.3327
 175   2.0000      -0.929867       -25.3030
 176   2.0000      -0.925270       -25.1779
 177   2.0000      -0.924133       -25.1469
 178   2.0000      -0.916240       -24.9321
 179   2.0000      -0.915713       -24.9178
 180   2.0000      -0.905605       -24.6428
 181   2.0000      -0.901933       -24.5429
 182   2.0000      -0.883606       -24.0441
 183   2.0000      -0.882595       -24.0166
 184   2.0000      -0.872708       -23.7476
 185   2.0000      -0.869452       -23.6590
 186   2.0000      -0.867153       -23.5964
 187   2.0000      -0.865805       -23.5598
 188   2.0000      -0.857852       -23.3433
 189   2.0000      -0.857208       -23.3258
 190   2.0000      -0.840769       -22.8785
 191   2.0000      -0.815187       -22.1824
 192   2.0000      -0.807209       -21.9653
 193   2.0000      -0.789720       -21.4894
 194   2.0000      -0.789064       -21.4715
 195   2.0000      -0.786604       -21.4046
 196   2.0000      -0.780642       -21.2424
 197   2.0000      -0.774060       -21.0632
 198   2.0000      -0.772424       -21.0187
 199   2.0000      -0.758595       -20.6424
 200   2.0000      -0.747773       -20.3479
 201   2.0000      -0.733113       -19.9490
 202   2.0000      -0.726904       -19.7801
 203   2.0000      -0.715165       -19.4606
 204   2.0000      -0.711710       -19.3666
 205   2.0000      -0.704762       -19.1775
 206   2.0000      -0.703675       -19.1480
 207   2.0000      -0.699227       -19.0269
 208   2.0000      -0.697272       -18.9737
 209   2.0000      -0.692944       -18.8560
 210   2.0000      -0.689107       -18.7516
 211   2.0000      -0.683200       -18.5908
 212   2.0000      -0.675055       -18.3692
 213   2.0000      -0.662033       -18.0148
 214   2.0000      -0.660229       -17.9657
 215   2.0000      -0.655517       -17.8375
 216   2.0000      -0.645137       -17.5551
 217   2.0000      -0.642070       -17.4716
 218   2.0000      -0.630754       -17.1637
 219   2.0000      -0.627477       -17.0745
 220   2.0000      -0.627086       -17.0639
 221   2.0000      -0.626740       -17.0545
 222   2.0000      -0.623372       -16.9628
 223   2.0000      -0.618111       -16.8197
 224   2.0000      -0.610051       -16.6003
 225   2.0000      -0.603152       -16.4126
 226   2.0000      -0.595278       -16.1983
 227   2.0000      -0.593749       -16.1567
 228   2.0000      -0.590710       -16.0740
 229   2.0000      -0.587900       -15.9976
 230   2.0000      -0.573396       -15.6029
 231   2.0000      -0.570734       -15.5305
 232   2.0000      -0.562109       -15.2958
 233   2.0000      -0.560859       -15.2617
 234   2.0000      -0.559415       -15.2225
 235   2.0000      -0.557413       -15.1680
 236   2.0000      -0.554897       -15.0995
 237   2.0000      -0.552858       -15.0440
 238   2.0000      -0.551325       -15.0023
 239   2.0000      -0.550001       -14.9663
 240   2.0000      -0.540243       -14.7008
 241   2.0000      -0.538927       -14.6649
 242   2.0000      -0.536401       -14.5962
 243   2.0000      -0.536369       -14.5953
 244   2.0000      -0.532060       -14.4781
 245   2.0000      -0.528687       -14.3863
 246   2.0000      -0.526504       -14.3269
 247   2.0000      -0.516860       -14.0645
 248   2.0000      -0.515976       -14.0404
 249   2.0000      -0.515709       -14.0331
 250   2.0000      -0.514194       -13.9919
 251   2.0000      -0.512934       -13.9576
 252   2.0000      -0.512322       -13.9410
 253   2.0000      -0.509679       -13.8691
 254   2.0000      -0.508788       -13.8448
 255   2.0000      -0.505559       -13.7570
 256   2.0000      -0.503029       -13.6881
 257   2.0000      -0.500347       -13.6151
 258   2.0000      -0.497470       -13.5368
 259   2.0000      -0.495837       -13.4924
 260   2.0000      -0.493376       -13.4254
 261   2.0000      -0.490335       -13.3427
 262   2.0000      -0.486456       -13.2371
 263   2.0000      -0.484639       -13.1877
 264   2.0000      -0.470658       -12.8072
 265   2.0000      -0.469058       -12.7637
 266   2.0000      -0.468487       -12.7482
 267   2.0000      -0.468218       -12.7409
 268   2.0000      -0.467758       -12.7283
 269   2.0000      -0.466407       -12.6916
 270   2.0000      -0.465544       -12.6681
 271   2.0000      -0.465123       -12.6566
 272   2.0000      -0.464502       -12.6397
 273   2.0000      -0.464180       -12.6310
 274   2.0000      -0.461562       -12.5597
 275   2.0000      -0.460463       -12.5298
 276   2.0000      -0.458565       -12.4782
 277   2.0000      -0.457708       -12.4549
 278   2.0000      -0.454469       -12.3667
 279   2.0000      -0.451775       -12.2934
 280   2.0000      -0.450993       -12.2721
 281   2.0000      -0.450758       -12.2657
 282   2.0000      -0.449493       -12.2313
 283   2.0000      -0.447486       -12.1767
 284   2.0000      -0.446945       -12.1620
 285   2.0000      -0.445469       -12.1218
 286   2.0000      -0.439984       -11.9726
 287   2.0000      -0.438806       -11.9405
 288   2.0000      -0.437734       -11.9114
 289   2.0000      -0.437064       -11.8931
 290   2.0000      -0.436311       -11.8726
 291   2.0000      -0.434552       -11.8248
 292   2.0000      -0.434273       -11.8172
 293   2.0000      -0.433149       -11.7866
 294   2.0000      -0.427591       -11.6354
 295   2.0000      -0.426648       -11.6097
 296   2.0000      -0.419840       -11.4244
 297   2.0000      -0.419357       -11.4113
 298   2.0000      -0.415060       -11.2943
 299   2.0000      -0.408825       -11.1247
 300   2.0000      -0.406784       -11.0692
 301   2.0000      -0.406052       -11.0492
 302   2.0000      -0.403154       -10.9704
 303   2.0000      -0.403088       -10.9686
 304   2.0000      -0.395499       -10.7621
 305   2.0000      -0.393567       -10.7095
 306   2.0000      -0.393107       -10.6970
 307   2.0000      -0.392655       -10.6847
 308   2.0000      -0.380151       -10.3444
 309   2.0000      -0.370906       -10.0929
 310   2.0000      -0.363452        -9.8900
 311   2.0000      -0.359786        -9.7903
 312   2.0000      -0.356120        -9.6905
 313   2.0000      -0.353456        -9.6180
 314   2.0000      -0.350629        -9.5411
 315   2.0000      -0.348439        -9.4815
 316   2.0000      -0.346482        -9.4283
 317   2.0000      -0.341754        -9.2996
 318   2.0000      -0.337668        -9.1884
 319   2.0000      -0.333951        -9.0873
 320   2.0000      -0.331657        -9.0249
 321   2.0000      -0.329381        -8.9629
 322   2.0000      -0.322974        -8.7886
 323   2.0000      -0.316851        -8.6220
 324   2.0000      -0.315460        -8.5841
 325   2.0000      -0.287836        -7.8324
 326   2.0000      -0.267027        -7.2662
 327   0.0000      -0.130552        -3.5525
 328   0.0000      -0.118889        -3.2351
 329   0.0000      -0.102959        -2.8017
 330   0.0000      -0.096788        -2.6337
 331   0.0000      -0.094411        -2.5690

MULLIKEN ATOMIC CHARGES
-----------------------
   0 C :    0.154024
   1 O :   -0.141949
   2 C :   -0.018955
   3 C :    0.036838
   4 C :   -0.010532
   5 C :   -0.023923
   6 C :   -0.014607
   7 C :   -0.018324
   8 Br:    0.018544
   9 Br:    0.024357
  10 C :    0.293924
  11 C :   -0.333826
  12 C :   -0.186425
  13 N :    0.162346
  14 C :   -0.205206
  15 N :    0.164916
  16 C :   -0.096416
  17 C :    0.032239
  18 C :   -0.116325
  19 C :    0.040128
  20 C :   -0.020476
  21 C :   -0.087477
  22 S :    0.215912
  23 C :   -0.087962
  24 C :    0.014424
  25 C :    0.307780
  26 C :   -0.290414
  27 C :   -0.189762
  28 N :    0.176593
  29 C :   -0.187000
  30 N :    0.185552
  31 C :   -0.054710
  32 C :   -0.124225
  33 S :    0.256146
  34 C :    0.018159
  35 N :   -0.060537
  36 N :   -0.059954
  37 C :    0.011780
  38 C :    0.031983
  39 C :    0.031906
  40 N :   -0.255285
  41 S :    0.577795
  42 N :   -0.252340
  43 C :   -0.129415
  44 C :   -0.050244
  45 C :    0.014510
  46 C :   -0.087311
  47 S :    0.255747
  48 C :   -0.078942
  49 C :   -0.000176
  50 C :    0.310443
  51 C :   -0.290363
  52 C :   -0.184867
  53 N :    0.170662
  54 C :   -0.184447
  55 N :    0.178331
  56 C :   -0.005045
  57 C :   -0.112237
  58 S :    0.224758
  59 C :    0.082977
  60 C :   -0.135128
  61 C :    0.136588
  62 O :   -0.134351
  63 C :    0.005695
  64 C :    0.012963
  65 C :    0.267876
  66 C :   -0.328055
  67 C :   -0.198022
  68 N :    0.172608
  69 C :   -0.173476
  70 N :    0.172119
  71 C :   -0.007872
  72 C :   -0.022725
  73 C :   -0.015729
  74 C :   -0.023242
  75 Br:    0.017244
  76 Br:    0.025867
  77 H :    0.009109
  78 H :    0.009543
  79 H :    0.025306
  80 H :    0.032221
  81 H :    0.021406
  82 H :    0.020493
  83 H :    0.025541
  84 H :    0.025529
  85 H :    0.017107
  86 H :    0.008290
Sum of atomic charges:   -0.0000000

LOEWDIN ATOMIC CHARGES
----------------------
   0 C :    0.084807
   1 O :   -0.130185
   2 C :   -0.041298
   3 C :   -0.012507
   4 C :   -0.006574
   5 C :   -0.118449
   6 C :   -0.121891
   7 C :    0.008279
   8 Br:    0.141017
   9 Br:    0.143505
  10 C :    0.073381
  11 C :   -0.133222
  12 C :   -0.020429
  13 N :   -0.042031
  14 C :   -0.024938
  15 N :   -0.045524
  16 C :   -0.096416
  17 C :    0.046197
  18 C :   -0.177100
  19 C :    0.025284
  20 C :   -0.069432
  21 C :   -0.160564
  22 S :    0.500515
  23 C :   -0.179909
  24 C :   -0.060517
  25 C :    0.075183
  26 C :   -0.092541
  27 C :   -0.016520
  28 N :   -0.027446
  29 C :   -0.019718
  30 N :   -0.018913
  31 C :   -0.011465
  32 C :   -0.172722
  33 S :    0.526091
  34 C :   -0.027223
  35 N :   -0.061740
  36 N :   -0.063768
  37 C :   -0.025019
  38 C :   -0.053973
  39 C :   -0.053664
  40 N :   -0.262483
  41 S :    0.700358
  42 N :   -0.262114
  43 C :   -0.176005
  44 C :   -0.008492
  45 C :   -0.064035
  46 C :   -0.173934
  47 S :    0.527664
  48 C :   -0.160665
  49 C :   -0.060996
  50 C :    0.080688
  51 C :   -0.096072
  52 C :   -0.012643
  53 N :   -0.031638
  54 C :   -0.017464
  55 N :   -0.026168
  56 C :    0.008739
  57 C :   -0.180307
  58 S :    0.507130
  59 C :    0.045540
  60 C :   -0.091477
  61 C :    0.083782
  62 O :   -0.134343
  63 C :   -0.045008
  64 C :   -0.008789
  65 C :    0.063491
  66 C :   -0.128736
  67 C :   -0.015212
  68 N :   -0.041054
  69 C :   -0.021016
  70 N :   -0.035566
  71 C :   -0.006182
  72 C :   -0.117237
  73 C :   -0.123153
  74 C :    0.007648
  75 Br:    0.139842
  76 Br:    0.145685
  77 H :    0.044955
  78 H :    0.047591
  79 H :    0.045000
  80 H :    0.045740
  81 H :    0.042043
  82 H :    0.042189
  83 H :    0.042714
  84 H :    0.047630
  85 H :    0.046812
  86 H :    0.046988

  Mayer bond orders larger than 0.100000
B(  0-C ,  1-O ) :   2.2067 B(  0-C ,  2-C ) :   0.9456 B(  0-C , 16-C ) :   0.9464
B(  2-C ,  3-C ) :   1.3282 B(  2-C ,  7-C ) :   1.3714 B(  3-C ,  4-C ) :   1.3649
B(  3-C , 10-C ) :   0.9932 B(  4-C ,  5-C ) :   1.3697 B(  4-C , 77-H ) :   0.9800
B(  5-C ,  6-C ) :   1.4203 B(  5-C ,  9-Br) :   1.0577 B(  6-C ,  7-C ) :   1.3513
B(  6-C ,  8-Br) :   1.0363 B(  7-C , 78-H ) :   1.0080 B( 10-C , 11-C ) :   1.6493
B( 10-C , 16-C ) :   1.0746 B( 11-C , 12-C ) :   1.1385 B( 11-C , 14-C ) :   1.1388
B( 12-C , 13-N ) :   2.9760 B( 14-C , 15-N ) :   2.9943 B( 16-C , 17-C ) :   1.5970
B( 17-C , 18-C ) :   1.1981 B( 17-C , 79-H ) :   0.9272 B( 18-C , 19-C ) :   1.4017
B( 18-C , 22-S ) :   1.0784 B( 19-C , 20-C ) :   1.3452 B( 19-C , 80-H ) :   0.9748
B( 20-C , 21-C ) :   1.3877 B( 20-C , 25-C ) :   0.9918 B( 21-C , 22-S ) :   1.1670
B( 21-C , 23-C ) :   1.2010 B( 23-C , 24-C ) :   1.4242 B( 23-C , 33-S ) :   1.1191
B( 24-C , 25-C ) :   0.9986 B( 24-C , 31-C ) :   1.2704 B( 25-C , 26-C ) :   1.7180
B( 26-C , 27-C ) :   1.1385 B( 26-C , 29-C ) :   1.1313 B( 27-C , 28-N ) :   2.9875
B( 29-C , 30-N ) :   2.9921 B( 31-C , 32-C ) :   1.4819 B( 31-C , 81-H ) :   0.9812
B( 32-C , 33-S ) :   1.0962 B( 32-C , 34-C ) :   1.1612 B( 34-C , 35-N ) :   1.7110
B( 34-C , 37-C ) :   0.1205 B( 34-C , 39-C ) :   1.1245 B( 35-N , 36-N ) :   1.2366
B( 36-N , 37-C ) :   1.7107 B( 37-C , 38-C ) :   1.1252 B( 37-C , 43-C ) :   1.1664
B( 38-C , 39-C ) :   1.1928 B( 38-C , 42-N ) :   1.5472 B( 39-C , 40-N ) :   1.5443
B( 40-N , 41-S ) :   1.2810 B( 40-N , 42-N ) :   0.1410 B( 41-S , 42-N ) :   1.2807
B( 43-C , 44-C ) :   1.4815 B( 43-C , 47-S ) :   1.0925 B( 44-C , 45-C ) :   1.2708
B( 44-C , 82-H ) :   0.9820 B( 45-C , 46-C ) :   1.4241 B( 45-C , 50-C ) :   0.9990
B( 46-C , 47-S ) :   1.1266 B( 46-C , 48-C ) :   1.1951 B( 48-C , 49-C ) :   1.4123
B( 48-C , 58-S ) :   1.1559 B( 49-C , 50-C ) :   0.9952 B( 49-C , 56-C ) :   1.3619
B( 50-C , 51-C ) :   1.7165 B( 51-C , 52-C ) :   1.1344 B( 51-C , 54-C ) :   1.1354
B( 52-C , 53-N ) :   2.9804 B( 54-C , 55-N ) :   2.9899 B( 56-C , 57-C ) :   1.3916
B( 56-C , 83-H ) :   0.9800 B( 57-C , 58-S ) :   1.0947 B( 57-C , 59-C ) :   1.1360
B( 59-C , 60-C ) :   1.6698 B( 59-C , 84-H ) :   0.9298 B( 60-C , 61-C ) :   0.9460
B( 60-C , 65-C ) :   1.0368 B( 61-C , 62-O ) :   2.2723 B( 61-C , 63-C ) :   0.9211
B( 63-C , 64-C ) :   1.3287 B( 63-C , 74-C ) :   1.3711 B( 64-C , 65-C ) :   1.0012
B( 64-C , 71-C ) :   1.3716 B( 65-C , 66-C ) :   1.6601 B( 66-C , 67-C ) :   1.1726
B( 66-C , 69-C ) :   1.1248 B( 67-C , 68-N ) :   2.9973 B( 69-C , 70-N ) :   2.9960
B( 71-C , 72-C ) :   1.3669 B( 71-C , 85-H ) :   0.9834 B( 72-C , 73-C ) :   1.4200
B( 72-C , 76-Br) :   1.0548 B( 73-C , 74-C ) :   1.3558 B( 73-C , 75-Br) :   1.0357
B( 74-C , 86-H ) :   1.0088

-----------------------------------------------------------------------------
         ABSORPTION SPECTRUM VIA TRANSITION ELECTRIC DIPOLE MOMENTS
-----------------------------------------------------------------------------
State   Energy  Wavelength   fosc         T2         TX        TY        TZ
        (cm-1)    (nm)                  (au**2)     (au)      (au)      (au)
-----------------------------------------------------------------------------
   0   13811.1    724.1   1.158714699  27.62003   3.08414   4.17848  -0.80523
   1   15197.0    658.0   0.075073330   1.62631  -0.68573  -0.76463  -0.75593
   2   18320.6    545.8   0.947667930  17.02909   2.34940   3.30956  -0.74580
   3   20713.6    482.8   0.008221666   0.13067  -0.15345  -0.30630   0.11536
   4   21235.9    470.9   0.161922308   2.51022   0.71448  -0.12237   1.40881
   5   22088.2    452.7   0.081523684   1.21506   0.34587   0.98386   0.35700
   6   22971.1    435.3   0.354770258   5.08442   1.06979   1.82885   0.77154
   7   24741.0    404.2   0.019216077   0.25570  -0.02806   0.46736   0.19101
   8   26350.7    379.5   0.009313925   0.11636   0.28068   0.13778   0.13639
   9   26853.0    372.4   0.025950105   0.31814   0.05403   0.37070  -0.42167
  10   27067.5    369.4   0.005758450   0.07004   0.26186  -0.02212   0.03126
  11   28015.8    356.9   0.257050228   3.02058   1.55855   0.46616  -0.61172
  12   28380.6    352.4   0.092121212   1.06860  -0.20817  -0.61259   0.80622
  13   28660.7    348.9   0.046398833   0.53296  -0.50860  -0.15666   0.49974
  14   29002.4    344.8   0.020246742   0.22982   0.26119  -0.23396  -0.32690
  15   29145.8    343.1   0.246111018   2.77991   1.03244   0.17118  -1.29795
  16   29185.4    342.6   0.152246147   1.71734  -0.17449  -1.08441  -0.71480
  17   29612.5    337.7   0.259278377   2.88248   1.16513   1.23485  -0.00954
  18   30137.5    331.8   0.020360038   0.22241  -0.46519  -0.07633   0.01323
  19   30652.7    326.2   0.056343200   0.60513   0.15920  -0.64324  -0.40747
  20   30689.5    325.8   0.002659521   0.02853   0.08454  -0.11567  -0.08946
  21   31036.4    322.2   0.080798880   0.85706  -0.87528  -0.23962  -0.18309
  22   31581.7    316.6   0.086142974   0.89796  -0.09218   0.11687   0.93585
  23   31761.6    314.8   0.114823097   1.19015  -0.83038  -0.65788   0.26043
  24   32272.7    309.9   0.393728112   4.01639   1.24686   1.50084  -0.45741
  25   32688.0    305.9   0.156853919   1.57973  -0.17010   0.84557   0.91423
  26   32739.6    305.4   0.091386563   0.91894  -0.25613   0.47740   0.79084
  27   32934.2    303.6   0.168367051   1.68301   0.34072   0.06467  -1.25009
  28   32993.6    303.1   0.075477163   0.75311  -0.74707  -0.44160   0.00052
  29   33147.5    301.7   0.275501012   2.73620  -0.64057  -1.49591  -0.29686
  30   33298.7    300.3   0.131814395   1.30320   1.02190   0.35592  -0.36365
  31   33418.1    299.2   0.140085803   1.38003  -1.14512   0.08589   0.24770
  32   33720.5    296.6   0.044702084   0.43643   0.50188   0.10121  -0.41749
  33   34491.0    289.9   0.238693457   2.27830  -0.89298   0.90418   0.81447
  34   34642.1    288.7   0.317975104   3.02179  -1.32105  -0.48615   1.01994
  35   34705.8    288.1   0.277327414   2.63067  -0.80898  -1.29409  -0.54915
  36   34958.7    286.1   0.251490106   2.36832   1.22785  -0.48969  -0.78799
  37   35125.9    284.7   0.132048931   1.23761  -0.97732   0.44972   0.28320
  38   35335.8    283.0   0.142810553   1.33052  -0.59813  -0.32711   0.93046
  39   35436.8    282.2   0.123833608   1.15043   0.99605  -0.12036  -0.37926
  40   35735.9    279.8   0.183878903   1.69396  -0.58446   0.58826   1.00315
  41   36085.9    277.1   0.005272023   0.04810   0.05799  -0.03176  -0.20911
  42   36192.0    276.3   0.034924859   0.31769  -0.46385   0.17525   0.26799
  43   36578.4    273.4   0.055354674   0.49820   0.52211   0.45022  -0.15135
  44   36719.2    272.3   0.018109698   0.16237   0.26437   0.23127   0.19745
  45   37110.8    269.5   0.000247903   0.00220   0.02873   0.03171   0.01918
  46   37229.6    268.6   0.001431566   0.01266  -0.08942   0.04531   0.05109
  47   37395.6    267.4   0.165120966   1.45364  -0.79033  -0.90850  -0.06040
  48   37506.6    266.6   0.118963762   1.04420   0.77547   0.61826  -0.24618
  49   37647.2    265.6   0.069472115   0.60751  -0.14292   0.54461   0.53897
  50   37693.0    265.3   0.040628924   0.35485  -0.08222  -0.26972  -0.52473
  51   37780.8    264.7   0.020119260   0.17531  -0.02163   0.26715   0.32167
  52   38068.7    262.7   0.002346734   0.02029  -0.05848   0.12340  -0.04057
  53   38251.8    261.4   0.021793114   0.18756   0.13580  -0.37954  -0.15833
  54   38410.4    260.3   0.013909111   0.11921   0.22272   0.15385  -0.21433
  55   38589.6    259.1   0.107520166   0.91727  -0.37997   0.58382   0.65730
  56   38720.2    258.3   0.035249131   0.29970  -0.24679  -0.17188  -0.45744
  57   38845.3    257.4   0.011193710   0.09487  -0.27582   0.08344   0.10876
  58   38994.5    256.4   0.031950874   0.26975  -0.39732  -0.10108   0.31884
  59   39229.6    254.9   0.010885695   0.09135  -0.25519   0.05215   0.15334
  60   39369.5    254.0   0.027265321   0.22800   0.08436  -0.46980   0.01276
  61   39567.5    252.7   0.005506798   0.04582  -0.03278  -0.15312  -0.14594
  62   39859.6    250.9   0.052592110   0.43437   0.43317  -0.28478  -0.40698
  63   40037.6    249.8   0.021539021   0.17711  -0.09784  -0.40078  -0.08310
  64   40069.2    249.6   0.041437578   0.34045   0.22874   0.53658   0.01453
  65   40326.0    248.0   0.009546414   0.07793  -0.22038   0.10591   0.13472

FINAL SINGLE POINT ENERGY    -15153.570032618922

DIPOLE MOMENT
-------------
                                X             Y             Z
Electronic contribution:     45.69142     -47.01656      32.73602
Nuclear contribution   :    -47.07513      46.65992     -32.27361
                        -----------------------------------------
Total Dipole Moment    :     -1.38372      -0.35664       0.46241
                        -----------------------------------------
Magnitude (a.u.)       :      1.50189
Magnitude (Debye)      :      3.81751

Rotational constants in cm-1:     0.001779     0.000096     0.000095
Rotational constants in MHz :    53.333649     2.877341     2.837637

                             ****ORCA TERMINATED NORMALLY****
TOTAL RUN TIME: 0 days 0 hours 9 minutes 54 seconds 597 msec
