                         Program Version 4.2.0 -  RELEASE  -
|  1> # ORCA input file
|  2> # SCF done       -188.282058742384          0.000726595250
|  3> ! CAM-B3LYP def2-SVP def2/J RIJCOSX Grid4 TightSCF
|  4> %maxcore 5000
|  5> %tddft
|  6>     Mode sTDDFT
|  7>     Ethresh 5.0
|  8>     maxcore 5000
|  9> end
| 10>
| 11> %pal
| 12>   nprocs 6
| 13>   end
| 14> * xyz 0 1
| 15>    C        2.91841        -5.30841        -4.13376
| 16>    O        2.57732        -6.40190        -3.72118
| 17>    C        3.95779        -5.04096        -5.14496
| 18>    C        4.04051        -3.65557        -5.37390
| 19>    C        4.96374        -3.16777        -6.28354
| 20>    C        5.78554        -4.07128        -6.94905
| 21>    C        5.69164        -5.44554        -6.71723
| 22>    C        4.76840        -5.94062        -5.80522
| 23>   Br        6.82114        -6.64759        -7.63814
| 24>   Br        7.05015        -3.40645        -8.18592
| 25>    C        3.05369        -2.97804        -4.53362
| 26>    C        2.77724        -1.63798        -4.56432
| 27>    C        3.44429        -0.71449        -5.39924
| 28>    N        3.95166         0.07989        -6.05307
| 29>    C        1.77849        -0.98924        -3.80540
| 30>    N        0.97870        -0.39512        -3.23553
| 31>    C        2.40329        -3.99669        -3.72769
| 32>    C        1.51543        -3.77111        -2.70712
| 33>    C        0.82391        -4.67742        -1.88856
| 34>    C       -0.00978        -4.24115        -0.85007
| 35>    C       -0.62199        -5.28820        -0.19006
| 36>    C       -0.26807        -6.54562        -0.73568
| 37>    S        0.83434        -6.43534        -2.02607
| 38>    C       -0.96136        -7.54913        -0.01170
| 39>    C       -1.74497        -6.93083         0.98541
| 40>    C       -1.55247        -5.49298         0.91120
| 41>    C       -2.11713        -4.53968         1.70539
| 42>    C       -3.01323        -4.86252         2.74727
| 43>    N       -3.74105        -5.11748         3.59542
| 44>    C       -1.83915        -3.16512         1.54361
| 45>    N       -1.61266        -2.04843         1.41960
| 46>    C       -2.47525        -7.84787         1.73888
| 47>    C       -2.24661        -9.14100         1.31031
| 48>    S       -1.12575        -9.24712        -0.02229
| 49>    C       -2.83069       -10.34114         1.82359
| 50>    N       -3.68157       -10.25183         2.86294
| 51>    C       -4.22995       -11.37081         3.25224
| 52>    C       -3.97215       -12.58061         2.56881
| 53>    N       -3.05234       -12.58665         1.59254
| 54>    N       -2.47849       -11.49257         1.24489
| 55>    C       -4.62538       -13.81773         2.87016
| 56>    C       -4.38425       -15.03752         2.26829
| 57>    C       -5.20978       -16.03740         2.78070
| 58>    C       -6.08080       -15.56500         3.78120
| 59>    S       -5.88231       -13.90074         4.08983
| 60>    C       -6.88291       -16.64193         4.23545
| 61>    C       -6.51976       -17.79675         3.51337
| 62>    C       -5.44933       -17.45881         2.58909
| 63>    C       -4.79725       -18.31679         1.75409
| 64>    C       -5.13517       -19.68677         1.71076
| 65>    N       -5.42783       -20.79532         1.69400
| 66>    C       -3.75913       -17.89959         0.89353
| 67>    N       -2.92110       -17.56479         0.18737
| 68>    C       -7.24131       -18.91964         3.89286
| 69>    C       -8.14944       -18.64270         4.90636
| 70>    S       -8.11944       -16.94329         5.36286
| 71>    C       -9.07513       -19.50503         5.53060
| 72>    C       -9.10745       -20.86739         5.54652
| 73>    C      -10.39325       -21.53958         5.88853
| 74>    O      -11.37300       -21.02475         6.37057
| 75>    C      -10.21818       -22.94227         5.45663
| 76>    C       -8.89548       -23.13624         5.01710
| 77>    C       -8.14464       -21.89560         5.20958
| 78>    C       -6.78112       -21.81931         5.31195
| 79>    C       -6.08863       -20.66712         5.73404
| 80>    N       -5.48981       -19.75693         6.09522
| 81>    C       -5.91541       -22.91510         5.10190
| 82>    N       -5.17456       -23.77685         4.94856
| 83>    C       -8.50665       -24.36806         4.52010
| 84>    C       -9.44453       -25.39419         4.48166
| 85>    C      -10.75083       -25.19944         4.93823
| 86>    C      -11.14722       -23.96170         5.42880
| 87>   Br      -12.00034       -26.61525         4.88708
| 88>   Br       -8.92326       -27.07370         3.79204
| 89>    H        5.06850        -2.11480        -6.48838
| 90>    H        4.68671        -6.99967        -5.61588
| 91>    H        1.30243        -2.73693        -2.46398
| 92>    H       -0.14036        -3.19851        -0.61972
| 93>    H       -3.14131        -7.61985         2.55076
| 94>    H       -4.87876       -11.32845         4.11839
| 95>    H       -3.64235       -15.15457         1.49958
| 96>    H       -7.15629       -19.88567         3.43024
| 97>    H       -9.92444       -19.02804         6.01095
| 98>    H       -7.50932       -24.54870         4.15227
| 99>    H      -12.15501       -23.79986         5.77846
|100> *
|101>
|102>                          ****END OF INPUT****

CARTESIAN COORDINATES (ANGSTROEM)
---------------------------------
  C      2.918410   -5.308410   -4.133760
  O      2.577320   -6.401900   -3.721180
  C      3.957790   -5.040960   -5.144960
  C      4.040510   -3.655570   -5.373900
  C      4.963740   -3.167770   -6.283540
  C      5.785540   -4.071280   -6.949050
  C      5.691640   -5.445540   -6.717230
  C      4.768400   -5.940620   -5.805220
  Br     6.821140   -6.647590   -7.638140
  Br     7.050150   -3.406450   -8.185920
  C      3.053690   -2.978040   -4.533620
  C      2.777240   -1.637980   -4.564320
  C      3.444290   -0.714490   -5.399240
  N      3.951660    0.079890   -6.053070
  C      1.778490   -0.989240   -3.805400
  N      0.978700   -0.395120   -3.235530
  C      2.403290   -3.996690   -3.727690
  C      1.515430   -3.771110   -2.707120
  C      0.823910   -4.677420   -1.888560
  C     -0.009780   -4.241150   -0.850070
  C     -0.621990   -5.288200   -0.190060
  C     -0.268070   -6.545620   -0.735680
  S      0.834340   -6.435340   -2.026070
  C     -0.961360   -7.549130   -0.011700
  C     -1.744970   -6.930830    0.985410
  C     -1.552470   -5.492980    0.911200
  C     -2.117130   -4.539680    1.705390
  C     -3.013230   -4.862520    2.747270
  N     -3.741050   -5.117480    3.595420
  C     -1.839150   -3.165120    1.543610
  N     -1.612660   -2.048430    1.419600
  C     -2.475250   -7.847870    1.738880
  C     -2.246610   -9.141000    1.310310
  S     -1.125750   -9.247120   -0.022290
  C     -2.830690  -10.341140    1.823590
  N     -3.681570  -10.251830    2.862940
  C     -4.229950  -11.370810    3.252240
  C     -3.972150  -12.580610    2.568810
  N     -3.052340  -12.586650    1.592540
  N     -2.478490  -11.492570    1.244890
  C     -4.625380  -13.817730    2.870160
  C     -4.384250  -15.037520    2.268290
  C     -5.209780  -16.037400    2.780700
  C     -6.080800  -15.565000    3.781200
  S     -5.882310  -13.900740    4.089830
  C     -6.882910  -16.641930    4.235450
  C     -6.519760  -17.796750    3.513370
  C     -5.449330  -17.458810    2.589090
  C     -4.797250  -18.316790    1.754090
  C     -5.135170  -19.686770    1.710760
  N     -5.427830  -20.795320    1.694000
  C     -3.759130  -17.899590    0.893530
  N     -2.921100  -17.564790    0.187370
  C     -7.241310  -18.919640    3.892860
  C     -8.149440  -18.642700    4.906360
  S     -8.119440  -16.943290    5.362860
  C     -9.075130  -19.505030    5.530600
  C     -9.107450  -20.867390    5.546520
  C    -10.393250  -21.539580    5.888530
  O    -11.373000  -21.024750    6.370570
  C    -10.218180  -22.942270    5.456630
  C     -8.895480  -23.136240    5.017100
  C     -8.144640  -21.895600    5.209580
  C     -6.781120  -21.819310    5.311950
  C     -6.088630  -20.667120    5.734040
  N     -5.489810  -19.756930    6.095220
  C     -5.915410  -22.915100    5.101900
  N     -5.174560  -23.776850    4.948560
  C     -8.506650  -24.368060    4.520100
  C     -9.444530  -25.394190    4.481660
  C    -10.750830  -25.199440    4.938230
  C    -11.147220  -23.961700    5.428800
  Br   -12.000340  -26.615250    4.887080
  Br    -8.923260  -27.073700    3.792040
  H      5.068500   -2.114800   -6.488380
  H      4.686710   -6.999670   -5.615880
  H      1.302430   -2.736930   -2.463980
  H     -0.140360   -3.198510   -0.619720
  H     -3.141310   -7.619850    2.550760
  H     -4.878760  -11.328450    4.118390
  H     -3.642350  -15.154570    1.499580
  H     -7.156290  -19.885670    3.430240
  H     -9.924440  -19.028040    6.010950
  H     -7.509320  -24.548700    4.152270
  H    -12.155010  -23.799860    5.778460

 Total Charge           Charge          ....    0
 Multiplicity           Mult            ....    1
 Number of Electrons    NEL             ....  626
 Basis Dimension        Dim             .... 1179

ORBITAL ENERGIES
----------------

  NO   OCC          E(Eh)            E(eV)
   0   2.0000    -482.882336    -13139.8964
   1   2.0000    -482.881517    -13139.8741
   2   2.0000    -482.880412    -13139.8440
   3   2.0000    -482.879988    -13139.8325
   4   2.0000     -89.012208     -2422.1453
   5   2.0000     -89.009274     -2422.0655
   6   2.0000     -89.002384     -2421.8780
   7   2.0000     -89.000209     -2421.8188
   8   2.0000     -62.559911     -1702.3417
   9   2.0000     -62.559113     -1702.3200
  10   2.0000     -62.558015     -1702.2901
  11   2.0000     -62.557582     -1702.2783
  12   2.0000     -56.393864     -1534.5551
  13   2.0000     -56.393063     -1534.5333
  14   2.0000     -56.391985     -1534.5039
  15   2.0000     -56.391549     -1534.4921
  16   2.0000     -56.391211     -1534.4829
  17   2.0000     -56.391106     -1534.4800
  18   2.0000     -56.390407     -1534.4610
  19   2.0000     -56.390315     -1534.4585
  20   2.0000     -56.389306     -1534.4310
  21   2.0000     -56.389204     -1534.4282
  22   2.0000     -56.388871     -1534.4192
  23   2.0000     -56.388773     -1534.4165
  24   2.0000     -19.238894      -523.5169
  25   2.0000     -19.230778      -523.2961
  26   2.0000     -14.481624      -394.0650
  27   2.0000     -14.473213      -393.8361
  28   2.0000     -14.459460      -393.4619
  29   2.0000     -14.444003      -393.0413
  30   2.0000     -14.440763      -392.9531
  31   2.0000     -14.437390      -392.8614
  32   2.0000     -14.436903      -392.8481
  33   2.0000     -14.430854      -392.6835
  34   2.0000     -14.428036      -392.6068
  35   2.0000     -14.424843      -392.5199
  36   2.0000     -14.424677      -392.5154
  37   2.0000     -10.386937      -282.6429
  38   2.0000     -10.381963      -282.5076
  39   2.0000     -10.379937      -282.4524
  40   2.0000     -10.379454      -282.4393
  41   2.0000     -10.373570      -282.2792
  42   2.0000     -10.366052      -282.0746
  43   2.0000     -10.362694      -281.9832
  44   2.0000     -10.361599      -281.9534
  45   2.0000     -10.359956      -281.9087
  46   2.0000     -10.359591      -281.8988
  47   2.0000     -10.359586      -281.8987
  48   2.0000     -10.359051      -281.8841
  49   2.0000     -10.358976      -281.8821
  50   2.0000     -10.358522      -281.8697
  51   2.0000     -10.357179      -281.8332
  52   2.0000     -10.356465      -281.8137
  53   2.0000     -10.356020      -281.8016
  54   2.0000     -10.354827      -281.7692
  55   2.0000     -10.353447      -281.7316
  56   2.0000     -10.344684      -281.4932
  57   2.0000     -10.343991      -281.4743
  58   2.0000     -10.343843      -281.4703
  59   2.0000     -10.343005      -281.4475
  60   2.0000     -10.341317      -281.4015
  61   2.0000     -10.339986      -281.3653
  62   2.0000     -10.339033      -281.3394
  63   2.0000     -10.338332      -281.3203
  64   2.0000     -10.337459      -281.2966
  65   2.0000     -10.337295      -281.2921
  66   2.0000     -10.336556      -281.2720
  67   2.0000     -10.333835      -281.1979
  68   2.0000     -10.331499      -281.1344
  69   2.0000     -10.329841      -281.0893
  70   2.0000     -10.326861      -281.0082
  71   2.0000     -10.326488      -280.9980
  72   2.0000     -10.325309      -280.9659
  73   2.0000     -10.325295      -280.9655
  74   2.0000     -10.325036      -280.9585
  75   2.0000     -10.323932      -280.9285
  76   2.0000     -10.322904      -280.9005
  77   2.0000     -10.321295      -280.8567
  78   2.0000     -10.318990      -280.7940
  79   2.0000     -10.318852      -280.7902
  80   2.0000     -10.318498      -280.7806
  81   2.0000     -10.318152      -280.7712
  82   2.0000     -10.317599      -280.7561
  83   2.0000     -10.317393      -280.7505
  84   2.0000     -10.315838      -280.7082
  85   2.0000     -10.315787      -280.7068
  86   2.0000     -10.314432      -280.6700
  87   2.0000     -10.311876      -280.6004
  88   2.0000     -10.311160      -280.5809
  89   2.0000     -10.310880      -280.5733
  90   2.0000      -8.789221      -239.1669
  91   2.0000      -8.788442      -239.1457
  92   2.0000      -8.787330      -239.1154
  93   2.0000      -8.786900      -239.1037
  94   2.0000      -8.106685      -220.5941
  95   2.0000      -8.103975      -220.5204
  96   2.0000      -8.096277      -220.3109
  97   2.0000      -8.092595      -220.2107
  98   2.0000      -6.625341      -180.2847
  99   2.0000      -6.624553      -180.2632
 100   2.0000      -6.623533      -180.2355
 101   2.0000      -6.623069      -180.2229
 102   2.0000      -6.611355      -179.9041
 103   2.0000      -6.610576      -179.8829
 104   2.0000      -6.610556      -179.8824
 105   2.0000      -6.609779      -179.8612
 106   2.0000      -6.609435      -179.8519
 107   2.0000      -6.609009      -179.8403
 108   2.0000      -6.608613      -179.8295
 109   2.0000      -6.608205      -179.8184
 110   2.0000      -6.075874      -165.3329
 111   2.0000      -6.073103      -165.2575
 112   2.0000      -6.071758      -165.2209
 113   2.0000      -6.069146      -165.1499
 114   2.0000      -6.068977      -165.1453
 115   2.0000      -6.066485      -165.0775
 116   2.0000      -6.065474      -165.0499
 117   2.0000      -6.061960      -164.9543
 118   2.0000      -6.061138      -164.9320
 119   2.0000      -6.058932      -164.8719
 120   2.0000      -6.057242      -164.8259
 121   2.0000      -6.055224      -164.7710
 122   2.0000      -2.741277       -74.5940
 123   2.0000      -2.740508       -74.5730
 124   2.0000      -2.739399       -74.5428
 125   2.0000      -2.739001       -74.5320
 126   2.0000      -2.737477       -74.4905
 127   2.0000      -2.736871       -74.4740
 128   2.0000      -2.736689       -74.4691
 129   2.0000      -2.736082       -74.4526
 130   2.0000      -2.735618       -74.4399
 131   2.0000      -2.735177       -74.4280
 132   2.0000      -2.735047       -74.4244
 133   2.0000      -2.734557       -74.4111
 134   2.0000      -2.725732       -74.1709
 135   2.0000      -2.725720       -74.1706
 136   2.0000      -2.724949       -74.1496
 137   2.0000      -2.724943       -74.1495
 138   2.0000      -2.723806       -74.1185
 139   2.0000      -2.723784       -74.1179
 140   2.0000      -2.723365       -74.1065
 141   2.0000      -2.723356       -74.1063
 142   2.0000      -1.173773       -31.9400
 143   2.0000      -1.154851       -31.4251
 144   2.0000      -1.146918       -31.2092
 145   2.0000      -1.063813       -28.9478
 146   2.0000      -1.060218       -28.8500
 147   2.0000      -1.054530       -28.6952
 148   2.0000      -1.035296       -28.1718
 149   2.0000      -1.034442       -28.1486
 150   2.0000      -1.033455       -28.1217
 151   2.0000      -1.029501       -28.0142
 152   2.0000      -1.021473       -27.7957
 153   2.0000      -1.018860       -27.7246
 154   2.0000      -1.017007       -27.6742
 155   2.0000      -1.016954       -27.6727
 156   2.0000      -1.014833       -27.6150
 157   2.0000      -1.010871       -27.5072
 158   2.0000      -1.005169       -27.3520
 159   2.0000      -1.004666       -27.3384
 160   2.0000      -0.987841       -26.8805
 161   2.0000      -0.985707       -26.8224
 162   2.0000      -0.981098       -26.6970
 163   2.0000      -0.971851       -26.4454
 164   2.0000      -0.958242       -26.0751
 165   2.0000      -0.935378       -25.4529
 166   2.0000      -0.931392       -25.3445
 167   2.0000      -0.927667       -25.2431
 168   2.0000      -0.926067       -25.1996
 169   2.0000      -0.918237       -24.9865
 170   2.0000      -0.917560       -24.9681
 171   2.0000      -0.909022       -24.7358
 172   2.0000      -0.904034       -24.6000
 173   2.0000      -0.887787       -24.1579
 174   2.0000      -0.883667       -24.0458
 175   2.0000      -0.876476       -23.8501
 176   2.0000      -0.874735       -23.8028
 177   2.0000      -0.868640       -23.6369
 178   2.0000      -0.866289       -23.5729
 179   2.0000      -0.859699       -23.3936
 180   2.0000      -0.859336       -23.3837
 181   2.0000      -0.845311       -23.0021
 182   2.0000      -0.818442       -22.2710
 183   2.0000      -0.811699       -22.0874
 184   2.0000      -0.803052       -21.8522
 185   2.0000      -0.791894       -21.5485
 186   2.0000      -0.785618       -21.3778
 187   2.0000      -0.782042       -21.2805
 188   2.0000      -0.778454       -21.1828
 189   2.0000      -0.771419       -20.9914
 190   2.0000      -0.762611       -20.7517
 191   2.0000      -0.736486       -20.0408
 192   2.0000      -0.731323       -19.9003
 193   2.0000      -0.719512       -19.5789
 194   2.0000      -0.713901       -19.4262
 195   2.0000      -0.711794       -19.3689
 196   2.0000      -0.706273       -19.2187
 197   2.0000      -0.703476       -19.1426
 198   2.0000      -0.701811       -19.0972
 199   2.0000      -0.694544       -18.8995
 200   2.0000      -0.691787       -18.8245
 201   2.0000      -0.686001       -18.6670
 202   2.0000      -0.682274       -18.5656
 203   2.0000      -0.673063       -18.3150
 204   2.0000      -0.660131       -17.9631
 205   2.0000      -0.659543       -17.9471
 206   2.0000      -0.646586       -17.5945
 207   2.0000      -0.638811       -17.3829
 208   2.0000      -0.635415       -17.2905
 209   2.0000      -0.632437       -17.2095
 210   2.0000      -0.630074       -17.1452
 211   2.0000      -0.628470       -17.1015
 212   2.0000      -0.625751       -17.0275
 213   2.0000      -0.617407       -16.8005
 214   2.0000      -0.610616       -16.6157
 215   2.0000      -0.604184       -16.4407
 216   2.0000      -0.594993       -16.1906
 217   2.0000      -0.589932       -16.0529
 218   2.0000      -0.582565       -15.8524
 219   2.0000      -0.581172       -15.8145
 220   2.0000      -0.576144       -15.6777
 221   2.0000      -0.567098       -15.4315
 222   2.0000      -0.565296       -15.3825
 223   2.0000      -0.563459       -15.3325
 224   2.0000      -0.559963       -15.2374
 225   2.0000      -0.559349       -15.2207
 226   2.0000      -0.557057       -15.1583
 227   2.0000      -0.554107       -15.0780
 228   2.0000      -0.552234       -15.0271
 229   2.0000      -0.548795       -14.9335
 230   2.0000      -0.544252       -14.8098
 231   2.0000      -0.542152       -14.7527
 232   2.0000      -0.540454       -14.7065
 233   2.0000      -0.533283       -14.5114
 234   2.0000      -0.530438       -14.4340
 235   2.0000      -0.524061       -14.2604
 236   2.0000      -0.520452       -14.1622
 237   2.0000      -0.519381       -14.1331
 238   2.0000      -0.516857       -14.0644
 239   2.0000      -0.515446       -14.0260
 240   2.0000      -0.514220       -13.9926
 241   2.0000      -0.512706       -13.9514
 242   2.0000      -0.510122       -13.8811
 243   2.0000      -0.506533       -13.7835
 244   2.0000      -0.505140       -13.7456
 245   2.0000      -0.503611       -13.7039
 246   2.0000      -0.499002       -13.5785
 247   2.0000      -0.498370       -13.5613
 248   2.0000      -0.494281       -13.4501
 249   2.0000      -0.491387       -13.3713
 250   2.0000      -0.488904       -13.3037
 251   2.0000      -0.486602       -13.2411
 252   2.0000      -0.473670       -12.8892
 253   2.0000      -0.471621       -12.8335
 254   2.0000      -0.470934       -12.8148
 255   2.0000      -0.469599       -12.7784
 256   2.0000      -0.469446       -12.7743
 257   2.0000      -0.469253       -12.7690
 258   2.0000      -0.467415       -12.7190
 259   2.0000      -0.466717       -12.7000
 260   2.0000      -0.465167       -12.6578
 261   2.0000      -0.462253       -12.5785
 262   2.0000      -0.461366       -12.5544
 263   2.0000      -0.460537       -12.5319
 264   2.0000      -0.459263       -12.4972
 265   2.0000      -0.458494       -12.4763
 266   2.0000      -0.452785       -12.3209
 267   2.0000      -0.452650       -12.3172
 268   2.0000      -0.451767       -12.2932
 269   2.0000      -0.450816       -12.2673
 270   2.0000      -0.449479       -12.2310
 271   2.0000      -0.447114       -12.1666
 272   2.0000      -0.447015       -12.1639
 273   2.0000      -0.445994       -12.1361
 274   2.0000      -0.443215       -12.0605
 275   2.0000      -0.442226       -12.0336
 276   2.0000      -0.440373       -11.9831
 277   2.0000      -0.438748       -11.9389
 278   2.0000      -0.438456       -11.9310
 279   2.0000      -0.437131       -11.8949
 280   2.0000      -0.434967       -11.8360
 281   2.0000      -0.434791       -11.8313
 282   2.0000      -0.430006       -11.7010
 283   2.0000      -0.428446       -11.6586
 284   2.0000      -0.422944       -11.5089
 285   2.0000      -0.418570       -11.3899
 286   2.0000      -0.417687       -11.3658
 287   2.0000      -0.412843       -11.2340
 288   2.0000      -0.409110       -11.1325
 289   2.0000      -0.407223       -11.0811
 290   2.0000      -0.405748       -11.0410
 291   2.0000      -0.404075       -10.9954
 292   2.0000      -0.395189       -10.7536
 293   2.0000      -0.394485       -10.7345
 294   2.0000      -0.384274       -10.4566
 295   2.0000      -0.375690       -10.2230
 296   2.0000      -0.365757        -9.9528
 297   2.0000      -0.361058        -9.8249
 298   2.0000      -0.357159        -9.7188
 299   2.0000      -0.355875        -9.6838
 300   2.0000      -0.352833        -9.6011
 301   2.0000      -0.350434        -9.5358
 302   2.0000      -0.349222        -9.5028
 303   2.0000      -0.344791        -9.3822
 304   2.0000      -0.340023        -9.2525
 305   2.0000      -0.337813        -9.1924
 306   2.0000      -0.333187        -9.0665
 307   2.0000      -0.326580        -8.8867
 308   2.0000      -0.325371        -8.8538
 309   2.0000      -0.318772        -8.6742
 310   2.0000      -0.318041        -8.6543
 311   2.0000      -0.289433        -7.8759
 312   2.0000      -0.271290        -7.3822
 313   0.0000      -0.127495        -3.4693
 314   0.0000      -0.118935        -3.2364
 315   0.0000      -0.099753        -2.7144
 316   0.0000      -0.096691        -2.6311
 317   0.0000      -0.081368        -2.2141

MULLIKEN ATOMIC CHARGES
-----------------------
   0 C :    0.165303
   1 O :   -0.176981
   2 C :   -0.014048
   3 C :    0.033349
   4 C :   -0.008042
   5 C :   -0.025497
   6 C :   -0.017155
   7 C :   -0.019313
   8 Br:    0.018674
   9 Br:    0.026873
  10 C :    0.312501
  11 C :   -0.338896
  12 C :   -0.187795
  13 N :    0.163894
  14 C :   -0.196888
  15 N :    0.164327
  16 C :   -0.093098
  17 C :   -0.025741
  18 C :   -0.053745
  19 C :   -0.057205
  20 C :    0.047644
  21 C :   -0.073417
  22 S :    0.250618
  23 C :   -0.097177
  24 C :    0.017946
  25 C :    0.300958
  26 C :   -0.291476
  27 C :   -0.191485
  28 N :    0.178993
  29 C :   -0.193131
  30 N :    0.184574
  31 C :   -0.048214
  32 C :   -0.036084
  33 S :    0.263640
  34 C :   -0.073519
  35 N :   -0.007459
  36 C :    0.004830
  37 C :    0.008695
  38 N :   -0.039117
  39 N :   -0.049245
  40 C :   -0.040956
  41 C :   -0.051582
  42 C :    0.035423
  43 C :   -0.097872
  44 S :    0.192830
  45 C :   -0.071511
  46 C :   -0.000962
  47 C :    0.298828
  48 C :   -0.275954
  49 C :   -0.182517
  50 N :    0.170812
  51 C :   -0.192658
  52 N :    0.190163
  53 C :   -0.000841
  54 C :   -0.111895
  55 S :    0.220608
  56 C :    0.085005
  57 C :   -0.135962
  58 C :    0.136528
  59 O :   -0.133250
  60 C :    0.004615
  61 C :    0.014631
  62 C :    0.261461
  63 C :   -0.319957
  64 C :   -0.199168
  65 N :    0.171046
  66 C :   -0.172415
  67 N :    0.170898
  68 C :   -0.005310
  69 C :   -0.024063
  70 C :   -0.018387
  71 C :   -0.019602
  72 Br:    0.018202
  73 Br:    0.026848
  74 H :    0.009714
  75 H :    0.007693
  76 H :    0.022590
  77 H :    0.029814
  78 H :    0.024106
  79 H :    0.026698
  80 H :    0.031511
  81 H :    0.026836
  82 H :    0.024403
  83 H :    0.016988
  84 H :    0.008525
Sum of atomic charges:   -0.0000000

LOEWDIN ATOMIC CHARGES
----------------------
   0 C :    0.085592
   1 O :   -0.165342
   2 C :   -0.042985
   3 C :   -0.010292
   4 C :   -0.005946
   5 C :   -0.117817
   6 C :   -0.122756
   7 C :    0.007192
   8 Br:    0.140963
   9 Br:    0.145236
  10 C :    0.074020
  11 C :   -0.130819
  12 C :   -0.019954
  13 N :   -0.041133
  14 C :   -0.023726
  15 N :   -0.039478
  16 C :   -0.111169
  17 C :    0.059089
  18 C :   -0.182866
  19 C :    0.013585
  20 C :   -0.073572
  21 C :   -0.167658
  22 S :    0.553328
  23 C :   -0.178819
  24 C :   -0.060394
  25 C :    0.075771
  26 C :   -0.097834
  27 C :   -0.017992
  28 N :   -0.027131
  29 C :   -0.019856
  30 N :   -0.023105
  31 C :   -0.001157
  32 C :   -0.184907
  33 S :    0.531346
  34 C :   -0.014231
  35 N :   -0.044308
  36 C :    0.035115
  37 C :   -0.052971
  38 N :   -0.010111
  39 N :   -0.060626
  40 C :   -0.177789
  41 C :    0.002656
  42 C :   -0.057080
  43 C :   -0.176436
  44 S :    0.486692
  45 C :   -0.162734
  46 C :   -0.061536
  47 C :    0.078220
  48 C :   -0.089244
  49 C :   -0.011609
  50 N :   -0.028181
  51 C :   -0.020470
  52 N :   -0.016607
  53 C :    0.010306
  54 C :   -0.179500
  55 S :    0.504287
  56 C :    0.044021
  57 C :   -0.090591
  58 C :    0.083995
  59 O :   -0.133818
  60 C :   -0.045339
  61 C :   -0.008910
  62 C :    0.063281
  63 C :   -0.128216
  64 C :   -0.015103
  65 N :   -0.040351
  66 C :   -0.021038
  67 N :   -0.034270
  68 C :   -0.006208
  69 C :   -0.117139
  70 C :   -0.123195
  71 C :    0.007919
  72 Br:    0.140644
  73 Br:    0.146516
  74 H :    0.045372
  75 H :    0.046648
  76 H :    0.054668
  77 H :    0.048694
  78 H :    0.047493
  79 H :    0.027172
  80 H :    0.050337
  81 H :    0.042962
  82 H :    0.047295
  83 H :    0.046799
  84 H :    0.047107

  Mayer bond orders larger than 0.100000
B(  0-C ,  1-O ) :   2.1290 B(  0-C ,  2-C ) :   0.9629 B(  0-C , 16-C ) :   0.9847
B(  2-C ,  3-C ) :   1.3281 B(  2-C ,  7-C ) :   1.3697 B(  3-C ,  4-C ) :   1.3713
B(  3-C , 10-C ) :   0.9902 B(  4-C ,  5-C ) :   1.3672 B(  4-C , 74-H ) :   0.9788
B(  5-C ,  6-C ) :   1.4221 B(  5-C ,  9-Br) :   1.0599 B(  6-C ,  7-C ) :   1.3519
B(  6-C ,  8-Br) :   1.0357 B(  7-C , 75-H ) :   1.0083 B( 10-C , 11-C ) :   1.6455
B( 10-C , 16-C ) :   1.0750 B( 11-C , 12-C ) :   1.1415 B( 11-C , 14-C ) :   1.1410
B( 12-C , 13-N ) :   2.9727 B( 14-C , 15-N ) :   2.9741 B( 16-C , 17-C ) :   1.4974
B( 17-C , 18-C ) :   1.2651 B( 17-C , 76-H ) :   0.9434 B( 18-C , 19-C ) :   1.3267
B( 18-C , 22-S ) :   1.0744 B( 19-C , 20-C ) :   1.3335 B( 19-C , 77-H ) :   1.0080
B( 20-C , 21-C ) :   1.3617 B( 20-C , 25-C ) :   0.9873 B( 21-C , 22-S ) :   1.1337
B( 21-C , 23-C ) :   1.2034 B( 23-C , 24-C ) :   1.4196 B( 23-C , 33-S ) :   1.1289
B( 24-C , 25-C ) :   1.0000 B( 24-C , 31-C ) :   1.2695 B( 25-C , 26-C ) :   1.7195
B( 26-C , 27-C ) :   1.1332 B( 26-C , 29-C ) :   1.1337 B( 27-C , 28-N ) :   2.9968
B( 29-C , 30-N ) :   2.9935 B( 31-C , 32-C ) :   1.4631 B( 31-C , 78-H ) :   1.0058
B( 32-C , 33-S ) :   1.1166 B( 32-C , 34-C ) :   1.0615 B( 34-C , 35-N ) :   1.5221
B( 34-C , 39-N ) :   1.5828 B( 35-N , 36-C ) :   1.6333 B( 36-C , 37-C ) :   1.2364
B( 36-C , 79-H ) :   0.9741 B( 37-C , 38-N ) :   1.5581 B( 37-C , 40-C ) :   1.0793
B( 38-N , 39-N ) :   1.3680 B( 40-C , 41-C ) :   1.4697 B( 40-C , 44-S ) :   1.1140
B( 41-C , 42-C ) :   1.2495 B( 41-C , 80-H ) :   1.0140 B( 42-C , 43-C ) :   1.4326
B( 42-C , 47-C ) :   0.9889 B( 43-C , 44-S ) :   1.1319 B( 43-C , 45-C ) :   1.1950
B( 45-C , 46-C ) :   1.4138 B( 45-C , 55-S ) :   1.1543 B( 46-C , 47-C ) :   0.9987
B( 46-C , 53-C ) :   1.3606 B( 47-C , 48-C ) :   1.7276 B( 48-C , 49-C ) :   1.1330
B( 48-C , 51-C ) :   1.1285 B( 49-C , 50-N ) :   2.9797 B( 51-C , 52-N ) :   3.0012
B( 53-C , 54-C ) :   1.3930 B( 53-C , 81-H ) :   0.9782 B( 54-C , 55-S ) :   1.0929
B( 54-C , 56-C ) :   1.1380 B( 56-C , 57-C ) :   1.6731 B( 56-C , 82-H ) :   0.9268
B( 57-C , 58-C ) :   0.9447 B( 57-C , 62-C ) :   1.0365 B( 58-C , 59-O ) :   2.2717
B( 58-C , 60-C ) :   0.9223 B( 60-C , 61-C ) :   1.3278 B( 60-C , 71-C ) :   1.3738
B( 61-C , 62-C ) :   1.0010 B( 61-C , 68-C ) :   1.3727 B( 62-C , 63-C ) :   1.6623
B( 63-C , 64-C ) :   1.1712 B( 63-C , 66-C ) :   1.1220 B( 64-C , 65-N ) :   2.9947
B( 66-C , 67-N ) :   2.9960 B( 68-C , 69-C ) :   1.3690 B( 68-C , 83-H ) :   0.9821
B( 69-C , 70-C ) :   1.4193 B( 69-C , 73-Br) :   1.0559 B( 70-C , 71-C ) :   1.3561
B( 70-C , 72-Br) :   1.0372 B( 71-C , 84-H ) :   1.0075

-----------------------------------------------------------------------------
         ABSORPTION SPECTRUM VIA TRANSITION ELECTRIC DIPOLE MOMENTS
-----------------------------------------------------------------------------
State   Energy  Wavelength   fosc         T2         TX        TY        TZ
        (cm-1)    (nm)                  (au**2)     (au)      (au)      (au)
-----------------------------------------------------------------------------
   0   14682.0    681.1   0.625134510  14.01726   1.73767   3.00756  -1.39727
   1   16016.6    624.4   0.239987677   4.93280  -1.19388  -1.37149   1.27533
   2   20727.3    482.5   1.686668813  26.78933   2.18787   4.17994  -2.12854
   3   22247.2    449.5   0.429484632   6.35547  -1.68837  -0.83854   1.67383
   4   23745.0    421.1   0.025698198   0.35629   0.34108   0.38479  -0.30314
   5   24020.4    416.3   0.009973159   0.13669   0.02342   0.27035  -0.25110
   6   25316.1    395.0   0.051598186   0.67099   0.34571   0.63697   0.38176
   7   26234.1    381.2   0.112195140   1.40794  -0.74856  -0.39870   0.82984
   8   26596.7    376.0   0.010866472   0.13450   0.23632  -0.02006   0.27974
   9   26890.9    371.9   0.040112183   0.49107   0.18703  -0.67513   0.01730
  10   27938.6    357.9   0.455437136   5.36660  -1.31531  -1.90416   0.10356
  11   28517.1    350.7   0.003172486   0.03662   0.05957  -0.14418  -0.11085
  12   28784.3    347.4   0.038192978   0.43682  -0.24861   0.54188   0.28527
  13   28849.7    346.6   0.027080525   0.30902   0.53980  -0.09794  -0.08968
  14   29262.7    341.7   0.037097767   0.41736  -0.26340   0.46579   0.36197
  15   29764.7    336.0   0.114540119   1.26687   0.75763  -0.26574  -0.78883
  16   30035.6    332.9   0.058696582   0.64336   0.22973  -0.58627  -0.49686
  17   30295.6    330.1   0.538281271   5.84932  -0.97984   1.71295   1.39823
  18   30822.2    324.4   0.132688715   1.41725   0.19037   1.04210   0.54317
  19   31060.8    321.9   0.022636761   0.23993   0.14826  -0.44526   0.14031
  20   31261.5    319.9   0.032166898   0.33875   0.36646  -0.37172  -0.25746
  21   31944.6    313.0   0.035358234   0.36439   0.34301   0.23458   0.43784
  22   32039.3    312.1   0.244671340   2.51406   0.87943  -0.92566  -0.94012
  23   32619.6    306.6   0.063982621   0.64574   0.30307   0.72718  -0.15844
  24   32731.6    305.5   0.142676308   1.43503  -0.52467  -0.96314   0.48179
  25   32922.1    303.7   0.173643485   1.73639   1.01940   0.79406  -0.25822
  26   32968.8    303.3   0.022785809   0.22753  -0.37495  -0.19869   0.21786
  27   33091.6    302.2   0.054939195   0.54656  -0.00769  -0.73455  -0.08330
  28   33152.7    301.6   0.375131079   3.72512   1.03804   1.62258  -0.12176
  29   33367.6    299.7   0.095232944   0.93959  -0.33379  -0.43174   0.80111
  30   33770.8    296.1   0.181516087   1.76949   0.75519  -0.92966  -0.57872
  31   34560.4    289.3   0.073695316   0.70200  -0.45013   0.44729   0.54710
  32   34737.6    287.9   0.112672345   1.06781   0.06484  -0.99943   0.25444
  33   34880.9    286.7   0.116320322   1.09785  -0.59666   0.23638   0.82823
  34   34970.4    286.0   0.590481429   5.55879   1.57256  -1.28105  -1.20199
  35   35125.9    284.7   0.320174658   3.00079   0.29972  -1.66184  -0.38633
  36   35546.2    281.3   0.396246179   3.66985  -1.85291  -0.35897   0.32818
  37   35630.9    280.7   0.081483472   0.75287  -0.26958  -0.59738  -0.56862
  38   36079.0    277.2   0.012831005   0.11708   0.17820   0.25835   0.13631
  39   36432.2    274.5   0.033823547   0.30564   0.42194  -0.07556  -0.34914
  40   36620.8    273.1   0.074675702   0.67132  -0.59241  -0.27279   0.49593
  41   36938.9    270.7   0.001856674   0.01655  -0.01783   0.04685   0.11847
  42   36950.0    270.6   0.002775885   0.02473  -0.13973   0.04021   0.05993
  43   37009.7    270.2   0.048203548   0.42878  -0.01004  -0.58717  -0.28969
  44   37221.6    268.7   0.005180766   0.04582   0.10240  -0.14329  -0.12167
  45   37504.6    266.6   0.051613873   0.45306  -0.53814  -0.37845   0.14228
  46   37652.8    265.6   0.005953070   0.05205  -0.18561  -0.02395   0.13049
  47   37807.1    264.5   0.039928058   0.34768   0.13419   0.54380   0.18427
  48   38032.8    262.9   0.018604936   0.16104   0.38466   0.02864  -0.11072
  49   38091.2    262.5   0.003596473   0.03108   0.05169   0.14109   0.09222
  50   38250.8    261.4   0.125724256   1.08207  -0.75050  -0.17124   0.69964
  51   38349.9    260.8   0.000316900   0.00272   0.02959   0.04045  -0.01444
  52   38587.6    259.2   0.055917005   0.47706  -0.38009   0.57246  -0.06985
  53   39369.5    254.0   0.017718309   0.14816  -0.31517   0.20105  -0.09172
  54   39558.1    252.8   0.084856892   0.70620   0.58078   0.14305  -0.59028
  55   39694.3    251.9   0.033851955   0.28076  -0.29695  -0.27097   0.34518
  56   39724.0    251.7   0.052633399   0.43620  -0.10223   0.65241   0.01044
  57   39960.7    250.2   0.048787637   0.40193   0.34500   0.41996  -0.32641
  58   40098.9    249.4   0.001633917   0.01341  -0.11336   0.01203   0.02049
  59   40210.2    248.7   0.000850090   0.00696   0.05098   0.03048  -0.05858

FINAL SINGLE POINT ENERGY    -14663.365288042993

DIPOLE MOMENT
-------------
                                X             Y             Z
Electronic contribution:     42.44548    -115.37666     -89.12311
Nuclear contribution   :    -44.03891     113.96126      89.57415
                        -----------------------------------------
Total Dipole Moment    :     -1.59343      -1.41540       0.45105
                        -----------------------------------------
Magnitude (a.u.)       :      2.17849
Magnitude (Debye)      :      5.53728

Rotational constants in cm-1:     0.001278     0.000108     0.000100
Rotational constants in MHz :    38.314209     3.224701     3.005545

                             ****ORCA TERMINATED NORMALLY****
TOTAL RUN TIME: 0 days 0 hours 9 minutes 35 seconds 122 msec
