                         Program Version 4.2.0 -  RELEASE  -
|  1> # ORCA input file
|  2> # SCF done       -204.170322819595          0.000975858307
|  3> ! CAM-B3LYP def2-SVP def2/J RIJCOSX Grid4 TightSCF
|  4> %maxcore 5000
|  5> %tddft
|  6>     Mode sTDDFT
|  7>     Ethresh 5.0
|  8>     maxcore 5000
|  9> end
| 10>
| 11> %pal
| 12>   nprocs 6
| 13>   end
| 14> * xyz 0 1
| 15>    C        0.45567        -2.13750        -2.88564
| 16>    O       -0.68326        -2.42584        -2.59152
| 17>    C        0.94402        -0.77621        -3.18909
| 18>    C        2.31159        -0.81804        -3.50601
| 19>    C        2.97207         0.35538        -3.83348
| 20>    C        2.25453         1.54612        -3.83360
| 21>    C        0.89489         1.57612        -3.51188
| 22>    C        0.22775         0.40252        -3.18685
| 23>   Br       -0.05598         3.20843        -3.51492
| 24>   Br        3.16014         3.14347        -4.28274
| 25>    C        2.77517        -2.20019        -3.40576
| 26>    C        4.07681        -2.59987        -3.55482
| 27>    C        5.13865        -1.72497        -3.87544
| 28>    N        6.04355        -1.07087        -4.13942
| 29>    C        4.57177        -3.91213        -3.39119
| 30>    N        5.06322        -4.94189        -3.26060
| 31>    C        1.62737        -3.02669        -3.06141
| 32>    C        1.66481        -4.39479        -3.00912
| 33>    C        0.69540        -5.34023        -2.62471
| 34>    C       -0.56947        -5.22480        -2.05840
| 35>    C       -1.14073        -6.46171        -1.79900
| 36>    C       -0.31417        -7.54701        -2.17022
| 37>    S        1.16381        -7.03846        -2.82605
| 38>    C       -0.99301        -8.75588        -1.86111
| 39>    C       -2.23615        -8.43328        -1.30023
| 40>    C       -2.36869        -6.98892        -1.22356
| 41>    C       -3.41253        -6.30183        -0.67778
| 42>    C       -4.50861        -6.98768        -0.11124
| 43>    N       -5.37925        -7.57088         0.35505
| 44>    C       -3.46469        -4.89280        -0.60217
| 45>    N       -3.52871        -3.75228        -0.51382
| 46>    C       -2.98039        -9.56765        -0.95919
| 47>    C       -2.30871       -10.72588        -1.25710
| 48>    S       -0.74165       -10.44415        -1.95526
| 49>    C       -2.82322       -12.10378        -0.96377
| 50>    C       -1.91803       -13.20632        -1.50844
| 51>    N       -2.78007       -12.17333         0.51516
| 52>    N       -3.71937       -12.20647         1.26289
| 53>    C       -5.14980       -12.27996         0.89364
| 54>    C       -5.32940       -12.25318        -0.58079
| 55>    C       -4.21661       -12.20586        -1.46788
| 56>    N       -4.67788       -12.22717        -2.68548
| 57>    O       -6.01018       -12.29189        -2.57996
| 58>    N       -6.41097       -12.30985        -1.30383
| 59>    C       -5.87252       -11.13051         1.59480
| 60>    C       -5.57487       -13.62493         1.40473
| 61>    C       -5.13549       -14.82562         0.90909
| 62>    C       -5.67998       -15.90642         1.61288
| 63>    C       -6.53501       -15.49933         2.64616
| 64>    S       -6.65925       -13.80046         2.75312
| 65>    C       -7.04157       -16.65917         3.29535
| 66>    C       -6.49348       -17.79345         2.66386
| 67>    C       -5.62406       -17.35604         1.58375
| 68>    C       -4.91843       -18.14057         0.71890
| 69>    C       -4.97750       -19.54822         0.78863
| 70>    N       -5.04110       -20.69014         0.86827
| 71>    C       -4.09036       -17.57392        -0.27246
| 72>    N       -3.41165       -17.08303        -1.05564
| 73>    C       -6.93989       -18.98769         3.21201
| 74>    C       -7.83194       -18.78399         4.25665
| 75>    S       -8.08414       -17.06937         4.57103
| 76>    C       -8.47458       -19.73055         5.08084
| 77>    C       -8.65651       -21.06739         4.88470
| 78>    C       -8.97012       -21.91744         6.06737
| 79>    O       -9.29202       -21.53758         7.16740
| 80>    C       -8.74666       -23.30594         5.61178
| 81>    C       -8.44968       -23.30599         4.23635
| 82>    C       -8.53715       -21.93533         3.73206
| 83>    C       -8.73904       -21.60154         2.41904
| 84>    C       -9.06905       -20.30384         1.98092
| 85>    N       -9.36168       -19.26648         1.58633
| 86>    C       -8.73762       -22.53666         1.36113
| 87>    N       -8.75322       -23.25905         0.47077
| 88>    C       -8.15945       -24.49663         3.59309
| 89>    C       -8.18272       -25.67371         4.33332
| 90>    C       -8.49760       -25.66771         5.69438
| 91>    C       -8.78034       -24.47360         6.34551
| 92>   Br       -8.53660       -27.28529         6.66942
| 93>   Br       -7.77691       -27.30163         3.46514
| 94>    H        4.01857         0.37536        -4.09003
| 95>    H       -0.82193         0.40732        -2.93681
| 96>    H        2.59847        -4.85343        -3.31296
| 97>    H       -1.03083        -4.27344        -1.86261
| 98>    H       -3.96096        -9.54412        -0.51998
| 99>    H       -0.93658       -13.13081        -1.04724
|100>    H       -1.83084       -13.10449        -2.58734
|101>    H       -2.33277       -14.18674        -1.28376
|102>    H       -5.55746       -10.17016         1.19209
|103>    H       -5.64157       -11.15237         2.65682
|104>    H       -6.94459       -11.23311         1.44573
|105>    H       -4.45651       -14.91849         0.08054
|106>    H       -6.60315       -19.96196         2.90805
|107>    H       -8.81848       -19.36728         6.04498
|108>    H       -7.90510       -24.53531         2.54603
|109>    H       -9.01946       -24.45783         7.39748
|110> *
|111>
|112>                          ****END OF INPUT****

CARTESIAN COORDINATES (ANGSTROEM)
---------------------------------
  C      0.455670   -2.137500   -2.885640
  O     -0.683260   -2.425840   -2.591520
  C      0.944020   -0.776210   -3.189090
  C      2.311590   -0.818040   -3.506010
  C      2.972070    0.355380   -3.833480
  C      2.254530    1.546120   -3.833600
  C      0.894890    1.576120   -3.511880
  C      0.227750    0.402520   -3.186850
  Br    -0.055980    3.208430   -3.514920
  Br     3.160140    3.143470   -4.282740
  C      2.775170   -2.200190   -3.405760
  C      4.076810   -2.599870   -3.554820
  C      5.138650   -1.724970   -3.875440
  N      6.043550   -1.070870   -4.139420
  C      4.571770   -3.912130   -3.391190
  N      5.063220   -4.941890   -3.260600
  C      1.627370   -3.026690   -3.061410
  C      1.664810   -4.394790   -3.009120
  C      0.695400   -5.340230   -2.624710
  C     -0.569470   -5.224800   -2.058400
  C     -1.140730   -6.461710   -1.799000
  C     -0.314170   -7.547010   -2.170220
  S      1.163810   -7.038460   -2.826050
  C     -0.993010   -8.755880   -1.861110
  C     -2.236150   -8.433280   -1.300230
  C     -2.368690   -6.988920   -1.223560
  C     -3.412530   -6.301830   -0.677780
  C     -4.508610   -6.987680   -0.111240
  N     -5.379250   -7.570880    0.355050
  C     -3.464690   -4.892800   -0.602170
  N     -3.528710   -3.752280   -0.513820
  C     -2.980390   -9.567650   -0.959190
  C     -2.308710  -10.725880   -1.257100
  S     -0.741650  -10.444150   -1.955260
  C     -2.823220  -12.103780   -0.963770
  C     -1.918030  -13.206320   -1.508440
  N     -2.780070  -12.173330    0.515160
  N     -3.719370  -12.206470    1.262890
  C     -5.149800  -12.279960    0.893640
  C     -5.329400  -12.253180   -0.580790
  C     -4.216610  -12.205860   -1.467880
  N     -4.677880  -12.227170   -2.685480
  O     -6.010180  -12.291890   -2.579960
  N     -6.410970  -12.309850   -1.303830
  C     -5.872520  -11.130510    1.594800
  C     -5.574870  -13.624930    1.404730
  C     -5.135490  -14.825620    0.909090
  C     -5.679980  -15.906420    1.612880
  C     -6.535010  -15.499330    2.646160
  S     -6.659250  -13.800460    2.753120
  C     -7.041570  -16.659170    3.295350
  C     -6.493480  -17.793450    2.663860
  C     -5.624060  -17.356040    1.583750
  C     -4.918430  -18.140570    0.718900
  C     -4.977500  -19.548220    0.788630
  N     -5.041100  -20.690140    0.868270
  C     -4.090360  -17.573920   -0.272460
  N     -3.411650  -17.083030   -1.055640
  C     -6.939890  -18.987690    3.212010
  C     -7.831940  -18.783990    4.256650
  S     -8.084140  -17.069370    4.571030
  C     -8.474580  -19.730550    5.080840
  C     -8.656510  -21.067390    4.884700
  C     -8.970120  -21.917440    6.067370
  O     -9.292020  -21.537580    7.167400
  C     -8.746660  -23.305940    5.611780
  C     -8.449680  -23.305990    4.236350
  C     -8.537150  -21.935330    3.732060
  C     -8.739040  -21.601540    2.419040
  C     -9.069050  -20.303840    1.980920
  N     -9.361680  -19.266480    1.586330
  C     -8.737620  -22.536660    1.361130
  N     -8.753220  -23.259050    0.470770
  C     -8.159450  -24.496630    3.593090
  C     -8.182720  -25.673710    4.333320
  C     -8.497600  -25.667710    5.694380
  C     -8.780340  -24.473600    6.345510
  Br    -8.536600  -27.285290    6.669420
  Br    -7.776910  -27.301630    3.465140
  H      4.018570    0.375360   -4.090030
  H     -0.821930    0.407320   -2.936810
  H      2.598470   -4.853430   -3.312960
  H     -1.030830   -4.273440   -1.862610
  H     -3.960960   -9.544120   -0.519980
  H     -0.936580  -13.130810   -1.047240
  H     -1.830840  -13.104490   -2.587340
  H     -2.332770  -14.186740   -1.283760
  H     -5.557460  -10.170160    1.192090
  H     -5.641570  -11.152370    2.656820
  H     -6.944590  -11.233110    1.445730
  H     -4.456510  -14.918490    0.080540
  H     -6.603150  -19.961960    2.908050
  H     -8.818480  -19.367280    6.044980
  H     -7.905100  -24.535310    2.546030
  H     -9.019460  -24.457830    7.397480

 Total Charge           Charge          ....    0
 Multiplicity           Mult            ....    1
 Number of Electrons    NEL             ....  664
 Basis Dimension        Dim             .... 1274

ORBITAL ENERGIES
----------------

  NO   OCC          E(Eh)            E(eV)
   0   2.0000    -482.880172    -13139.8375
   1   2.0000    -482.879858    -13139.8290
   2   2.0000    -482.878679    -13139.7969
   3   2.0000    -482.878339    -13139.7876
   4   2.0000     -89.011108     -2422.1154
   5   2.0000     -89.008294     -2422.0388
   6   2.0000     -89.007945     -2422.0293
   7   2.0000     -89.006649     -2421.9940
   8   2.0000     -62.557778     -1702.2837
   9   2.0000     -62.557477     -1702.2755
  10   2.0000     -62.556295     -1702.2433
  11   2.0000     -62.555965     -1702.2343
  12   2.0000     -56.391733     -1534.4971
  13   2.0000     -56.391428     -1534.4888
  14   2.0000     -56.390261     -1534.4570
  15   2.0000     -56.389930     -1534.4480
  16   2.0000     -56.389077     -1534.4248
  17   2.0000     -56.388969     -1534.4219
  18   2.0000     -56.388770     -1534.4164
  19   2.0000     -56.388678     -1534.4139
  20   2.0000     -56.387585     -1534.3842
  21   2.0000     -56.387485     -1534.3815
  22   2.0000     -56.387254     -1534.3752
  23   2.0000     -56.387155     -1534.3725
  24   2.0000     -19.359901      -526.8097
  25   2.0000     -19.232809      -523.3513
  26   2.0000     -19.228227      -523.2267
  27   2.0000     -14.497136      -394.4871
  28   2.0000     -14.496847      -394.4793
  29   2.0000     -14.488450      -394.2508
  30   2.0000     -14.488039      -394.2396
  31   2.0000     -14.448170      -393.1547
  32   2.0000     -14.445362      -393.0783
  33   2.0000     -14.442298      -392.9949
  34   2.0000     -14.439648      -392.9228
  35   2.0000     -14.429395      -392.6438
  36   2.0000     -14.428265      -392.6131
  37   2.0000     -14.424143      -392.5009
  38   2.0000     -14.422893      -392.4669
  39   2.0000     -10.383787      -282.5572
  40   2.0000     -10.380332      -282.4632
  41   2.0000     -10.379425      -282.4385
  42   2.0000     -10.377960      -282.3987
  43   2.0000     -10.367068      -282.1023
  44   2.0000     -10.365798      -282.0677
  45   2.0000     -10.365338      -282.0552
  46   2.0000     -10.364842      -282.0417
  47   2.0000     -10.359014      -281.8831
  48   2.0000     -10.358043      -281.8567
  49   2.0000     -10.357801      -281.8501
  50   2.0000     -10.357675      -281.8467
  51   2.0000     -10.357180      -281.8332
  52   2.0000     -10.356377      -281.8113
  53   2.0000     -10.355683      -281.7925
  54   2.0000     -10.354903      -281.7712
  55   2.0000     -10.354652      -281.7644
  56   2.0000     -10.354343      -281.7560
  57   2.0000     -10.348862      -281.6069
  58   2.0000     -10.348527      -281.5977
  59   2.0000     -10.346200      -281.5344
  60   2.0000     -10.345855      -281.5250
  61   2.0000     -10.344619      -281.4914
  62   2.0000     -10.344494      -281.4880
  63   2.0000     -10.344121      -281.4778
  64   2.0000     -10.342411      -281.4313
  65   2.0000     -10.340748      -281.3861
  66   2.0000     -10.340079      -281.3679
  67   2.0000     -10.339740      -281.3586
  68   2.0000     -10.338575      -281.3269
  69   2.0000     -10.337644      -281.3016
  70   2.0000     -10.335973      -281.2561
  71   2.0000     -10.331777      -281.1419
  72   2.0000     -10.328938      -281.0647
  73   2.0000     -10.326625      -281.0017
  74   2.0000     -10.324648      -280.9480
  75   2.0000     -10.323911      -280.9279
  76   2.0000     -10.323549      -280.9180
  77   2.0000     -10.323315      -280.9117
  78   2.0000     -10.322826      -280.8984
  79   2.0000     -10.319981      -280.8210
  80   2.0000     -10.319948      -280.8201
  81   2.0000     -10.317965      -280.7661
  82   2.0000     -10.317800      -280.7616
  83   2.0000     -10.317557      -280.7550
  84   2.0000     -10.316362      -280.7225
  85   2.0000     -10.315840      -280.7083
  86   2.0000     -10.315777      -280.7066
  87   2.0000     -10.315663      -280.7035
  88   2.0000     -10.315635      -280.7027
  89   2.0000     -10.313884      -280.6551
  90   2.0000     -10.311070      -280.5785
  91   2.0000     -10.308837      -280.5177
  92   2.0000     -10.308166      -280.4995
  93   2.0000     -10.296919      -280.1934
  94   2.0000     -10.295468      -280.1539
  95   2.0000      -8.787103      -239.1092
  96   2.0000      -8.786809      -239.1012
  97   2.0000      -8.785618      -239.0688
  98   2.0000      -8.785299      -239.0601
  99   2.0000      -8.105233      -220.5546
 100   2.0000      -8.102633      -220.4839
 101   2.0000      -8.102435      -220.4785
 102   2.0000      -8.101382      -220.4498
 103   2.0000      -6.623259      -180.2280
 104   2.0000      -6.622955      -180.2198
 105   2.0000      -6.621801      -180.1884
 106   2.0000      -6.621486      -180.1798
 107   2.0000      -6.609232      -179.8464
 108   2.0000      -6.608930      -179.8381
 109   2.0000      -6.608406      -179.8239
 110   2.0000      -6.608133      -179.8164
 111   2.0000      -6.607714      -179.8050
 112   2.0000      -6.607404      -179.7966
 113   2.0000      -6.606927      -179.7836
 114   2.0000      -6.606594      -179.7746
 115   2.0000      -6.074475      -165.2949
 116   2.0000      -6.071685      -165.2189
 117   2.0000      -6.071637      -165.2176
 118   2.0000      -6.070487      -165.1863
 119   2.0000      -6.070130      -165.1766
 120   2.0000      -6.067837      -165.1142
 121   2.0000      -6.067565      -165.1068
 122   2.0000      -6.067346      -165.1009
 123   2.0000      -6.066349      -165.0737
 124   2.0000      -6.065282      -165.0447
 125   2.0000      -6.065073      -165.0390
 126   2.0000      -6.063939      -165.0082
 127   2.0000      -2.739129       -74.5355
 128   2.0000      -2.738838       -74.5276
 129   2.0000      -2.737690       -74.4963
 130   2.0000      -2.737380       -74.4879
 131   2.0000      -2.735396       -74.4339
 132   2.0000      -2.735090       -74.4256
 133   2.0000      -2.734790       -74.4174
 134   2.0000      -2.734495       -74.4094
 135   2.0000      -2.733902       -74.3933
 136   2.0000      -2.733593       -74.3849
 137   2.0000      -2.733311       -74.3772
 138   2.0000      -2.732985       -74.3683
 139   2.0000      -2.723608       -74.1131
 140   2.0000      -2.723592       -74.1127
 141   2.0000      -2.723327       -74.1055
 142   2.0000      -2.723306       -74.1049
 143   2.0000      -2.722102       -74.0722
 144   2.0000      -2.722078       -74.0715
 145   2.0000      -2.721773       -74.0632
 146   2.0000      -2.721754       -74.0627
 147   2.0000      -1.317923       -35.8625
 148   2.0000      -1.174109       -31.9491
 149   2.0000      -1.148790       -31.2602
 150   2.0000      -1.144302       -31.1380
 151   2.0000      -1.063437       -28.9376
 152   2.0000      -1.061350       -28.8808
 153   2.0000      -1.037567       -28.2336
 154   2.0000      -1.036055       -28.1925
 155   2.0000      -1.033539       -28.1240
 156   2.0000      -1.032712       -28.1015
 157   2.0000      -1.031316       -28.0635
 158   2.0000      -1.021881       -27.8068
 159   2.0000      -1.020866       -27.7792
 160   2.0000      -1.019015       -27.7288
 161   2.0000      -1.016636       -27.6641
 162   2.0000      -1.016331       -27.6558
 163   2.0000      -1.014632       -27.6095
 164   2.0000      -1.004848       -27.3433
 165   2.0000      -1.003504       -27.3067
 166   2.0000      -1.001052       -27.2400
 167   2.0000      -0.986021       -26.8310
 168   2.0000      -0.983809       -26.7708
 169   2.0000      -0.979668       -26.6581
 170   2.0000      -0.973631       -26.4939
 171   2.0000      -0.958372       -26.0786
 172   2.0000      -0.936995       -25.4969
 173   2.0000      -0.931131       -25.3374
 174   2.0000      -0.926471       -25.2105
 175   2.0000      -0.925043       -25.1717
 176   2.0000      -0.917508       -24.9667
 177   2.0000      -0.915994       -24.9255
 178   2.0000      -0.912407       -24.8279
 179   2.0000      -0.904330       -24.6081
 180   2.0000      -0.899025       -24.4637
 181   2.0000      -0.885629       -24.0992
 182   2.0000      -0.884287       -24.0627
 183   2.0000      -0.873900       -23.7800
 184   2.0000      -0.872808       -23.7503
 185   2.0000      -0.867344       -23.6016
 186   2.0000      -0.864933       -23.5360
 187   2.0000      -0.857500       -23.3338
 188   2.0000      -0.857460       -23.3327
 189   2.0000      -0.819141       -22.2900
 190   2.0000      -0.816378       -22.2148
 191   2.0000      -0.799594       -21.7581
 192   2.0000      -0.797790       -21.7090
 193   2.0000      -0.794719       -21.6254
 194   2.0000      -0.792287       -21.5592
 195   2.0000      -0.781036       -21.2531
 196   2.0000      -0.778788       -21.1919
 197   2.0000      -0.775763       -21.1096
 198   2.0000      -0.771149       -20.9840
 199   2.0000      -0.766800       -20.8657
 200   2.0000      -0.739911       -20.1340
 201   2.0000      -0.735046       -20.0016
 202   2.0000      -0.724559       -19.7162
 203   2.0000      -0.720210       -19.5979
 204   2.0000      -0.713193       -19.4070
 205   2.0000      -0.707293       -19.2464
 206   2.0000      -0.705001       -19.1840
 207   2.0000      -0.699378       -19.0310
 208   2.0000      -0.698362       -19.0034
 209   2.0000      -0.693587       -18.8735
 210   2.0000      -0.689234       -18.7550
 211   2.0000      -0.685693       -18.6586
 212   2.0000      -0.675917       -18.3926
 213   2.0000      -0.666900       -18.1473
 214   2.0000      -0.663241       -18.0477
 215   2.0000      -0.656887       -17.8748
 216   2.0000      -0.650183       -17.6924
 217   2.0000      -0.646872       -17.6023
 218   2.0000      -0.645186       -17.5564
 219   2.0000      -0.636356       -17.3161
 220   2.0000      -0.633693       -17.2437
 221   2.0000      -0.627373       -17.0717
 222   2.0000      -0.624196       -16.9852
 223   2.0000      -0.622679       -16.9440
 224   2.0000      -0.622492       -16.9389
 225   2.0000      -0.614077       -16.7099
 226   2.0000      -0.604923       -16.4608
 227   2.0000      -0.601275       -16.3615
 228   2.0000      -0.594625       -16.1806
 229   2.0000      -0.591235       -16.0883
 230   2.0000      -0.577893       -15.7253
 231   2.0000      -0.576088       -15.6762
 232   2.0000      -0.569608       -15.4998
 233   2.0000      -0.563839       -15.3428
 234   2.0000      -0.563492       -15.3334
 235   2.0000      -0.561462       -15.2782
 236   2.0000      -0.556439       -15.1415
 237   2.0000      -0.555636       -15.1196
 238   2.0000      -0.552966       -15.0470
 239   2.0000      -0.551333       -15.0025
 240   2.0000      -0.549144       -14.9430
 241   2.0000      -0.547330       -14.8936
 242   2.0000      -0.543046       -14.7770
 243   2.0000      -0.542076       -14.7506
 244   2.0000      -0.538923       -14.6648
 245   2.0000      -0.537873       -14.6363
 246   2.0000      -0.529995       -14.4219
 247   2.0000      -0.528951       -14.3935
 248   2.0000      -0.525458       -14.2984
 249   2.0000      -0.519339       -14.1319
 250   2.0000      -0.518808       -14.1175
 251   2.0000      -0.517366       -14.0783
 252   2.0000      -0.516438       -14.0530
 253   2.0000      -0.514519       -14.0008
 254   2.0000      -0.513669       -13.9776
 255   2.0000      -0.508757       -13.8440
 256   2.0000      -0.508236       -13.8298
 257   2.0000      -0.505367       -13.7517
 258   2.0000      -0.503498       -13.7009
 259   2.0000      -0.501929       -13.6582
 260   2.0000      -0.501161       -13.6373
 261   2.0000      -0.497898       -13.5485
 262   2.0000      -0.495628       -13.4867
 263   2.0000      -0.493695       -13.4341
 264   2.0000      -0.492194       -13.3933
 265   2.0000      -0.489781       -13.3276
 266   2.0000      -0.486973       -13.2512
 267   2.0000      -0.484435       -13.1821
 268   2.0000      -0.482755       -13.1364
 269   2.0000      -0.476265       -12.9598
 270   2.0000      -0.475001       -12.9254
 271   2.0000      -0.471140       -12.8204
 272   2.0000      -0.469980       -12.7888
 273   2.0000      -0.468609       -12.7515
 274   2.0000      -0.467628       -12.7248
 275   2.0000      -0.466909       -12.7052
 276   2.0000      -0.465428       -12.6649
 277   2.0000      -0.464421       -12.6375
 278   2.0000      -0.463453       -12.6112
 279   2.0000      -0.460263       -12.5244
 280   2.0000      -0.459724       -12.5097
 281   2.0000      -0.459606       -12.5065
 282   2.0000      -0.458373       -12.4730
 283   2.0000      -0.455081       -12.3834
 284   2.0000      -0.453897       -12.3512
 285   2.0000      -0.453505       -12.3405
 286   2.0000      -0.452374       -12.3097
 287   2.0000      -0.451531       -12.2868
 288   2.0000      -0.451325       -12.2812
 289   2.0000      -0.450787       -12.2665
 290   2.0000      -0.449958       -12.2440
 291   2.0000      -0.442568       -12.0429
 292   2.0000      -0.440793       -11.9946
 293   2.0000      -0.439887       -11.9699
 294   2.0000      -0.439035       -11.9468
 295   2.0000      -0.438644       -11.9361
 296   2.0000      -0.438268       -11.9259
 297   2.0000      -0.434976       -11.8363
 298   2.0000      -0.434460       -11.8223
 299   2.0000      -0.430799       -11.7226
 300   2.0000      -0.427778       -11.6404
 301   2.0000      -0.420592       -11.4449
 302   2.0000      -0.418700       -11.3934
 303   2.0000      -0.417943       -11.3728
 304   2.0000      -0.412832       -11.2337
 305   2.0000      -0.410090       -11.1591
 306   2.0000      -0.407625       -11.0921
 307   2.0000      -0.404822       -11.0158
 308   2.0000      -0.403530       -10.9806
 309   2.0000      -0.402612       -10.9556
 310   2.0000      -0.397650       -10.8206
 311   2.0000      -0.393158       -10.6984
 312   2.0000      -0.392782       -10.6881
 313   2.0000      -0.382570       -10.4103
 314   2.0000      -0.377841       -10.2816
 315   2.0000      -0.365803        -9.9540
 316   2.0000      -0.361586        -9.8393
 317   2.0000      -0.356258        -9.6943
 318   2.0000      -0.355271        -9.6674
 319   2.0000      -0.350986        -9.5508
 320   2.0000      -0.349822        -9.5192
 321   2.0000      -0.348381        -9.4799
 322   2.0000      -0.346096        -9.4178
 323   2.0000      -0.338213        -9.2032
 324   2.0000      -0.337928        -9.1955
 325   2.0000      -0.336267        -9.1503
 326   2.0000      -0.334062        -9.0903
 327   2.0000      -0.317331        -8.6350
 328   2.0000      -0.316606        -8.6153
 329   2.0000      -0.312499        -8.5035
 330   2.0000      -0.285442        -7.7673
 331   2.0000      -0.281217        -7.6523
 332   0.0000      -0.123376        -3.3572
 333   0.0000      -0.120313        -3.2739
 334   0.0000      -0.099726        -2.7137
 335   0.0000      -0.097547        -2.6544
 336   0.0000      -0.075925        -2.0660

MULLIKEN ATOMIC CHARGES
-----------------------
   0 C :    0.157203
   1 O :   -0.140960
   2 C :   -0.017143
   3 C :    0.033087
   4 C :   -0.005560
   5 C :   -0.027330
   6 C :   -0.015680
   7 C :   -0.016060
   8 Br:    0.019483
   9 Br:    0.024658
  10 C :    0.311569
  11 C :   -0.349327
  12 C :   -0.185374
  13 N :    0.159995
  14 C :   -0.187562
  15 N :    0.155227
  16 C :   -0.089589
  17 C :    0.041965
  18 C :   -0.115127
  19 C :   -0.007293
  20 C :   -0.004669
  21 C :   -0.081055
  22 S :    0.214832
  23 C :   -0.105533
  24 C :    0.009053
  25 C :    0.306586
  26 C :   -0.288312
  27 C :   -0.180504
  28 N :    0.167791
  29 C :   -0.190897
  30 N :    0.198608
  31 C :   -0.013547
  32 C :   -0.024708
  33 S :    0.219516
  34 C :   -0.120715
  35 C :    0.107903
  36 N :   -0.077727
  37 N :   -0.076500
  38 C :   -0.120389
  39 C :   -0.085709
  40 C :   -0.084744
  41 N :    0.073853
  42 O :   -0.118567
  43 N :    0.076186
  44 C :    0.110435
  45 C :   -0.022056
  46 C :   -0.019385
  47 C :    0.009544
  48 C :   -0.103654
  49 S :    0.213259
  50 C :   -0.072987
  51 C :   -0.004726
  52 C :    0.296193
  53 C :   -0.275640
  54 C :   -0.185103
  55 N :    0.172824
  56 C :   -0.181522
  57 N :    0.169337
  58 C :    0.002076
  59 C :   -0.113595
  60 S :    0.220194
  61 C :    0.084945
  62 C :   -0.138053
  63 C :    0.136751
  64 O :   -0.134192
  65 C :    0.003554
  66 C :    0.013620
  67 C :    0.264769
  68 C :   -0.324034
  69 C :   -0.202413
  70 N :    0.174636
  71 C :   -0.173536
  72 N :    0.171798
  73 C :   -0.005681
  74 C :   -0.025978
  75 C :   -0.017099
  76 C :   -0.018770
  77 Br:    0.017025
  78 Br:    0.025504
  79 H :    0.007959
  80 H :    0.010986
  81 H :    0.007058
  82 H :    0.039567
  83 H :   -0.009053
  84 H :    0.041679
  85 H :    0.047666
  86 H :    0.042463
  87 H :    0.036919
  88 H :    0.042597
  89 H :    0.048591
  90 H :   -0.004643
  91 H :    0.025537
  92 H :    0.023746
  93 H :    0.015714
  94 H :    0.008243
Sum of atomic charges:   -0.0000000

LOEWDIN ATOMIC CHARGES
----------------------
   0 C :    0.087418
   1 O :   -0.129205
   2 C :   -0.041759
   3 C :   -0.013205
   4 C :   -0.006433
   5 C :   -0.118315
   6 C :   -0.121733
   7 C :    0.008404
   8 Br:    0.141481
   9 Br:    0.143497
  10 C :    0.075789
  11 C :   -0.134897
  12 C :   -0.019789
  13 N :   -0.042713
  14 C :   -0.023541
  15 N :   -0.046803
  16 C :   -0.098692
  17 C :    0.045280
  18 C :   -0.177711
  19 C :    0.020630
  20 C :   -0.075811
  21 C :   -0.155077
  22 S :    0.505516
  23 C :   -0.190634
  24 C :   -0.051481
  25 C :    0.078455
  26 C :   -0.094062
  27 C :   -0.004097
  28 N :   -0.037058
  29 C :   -0.024471
  30 N :   -0.010313
  31 C :   -0.030567
  32 C :   -0.152907
  33 S :    0.513992
  34 C :   -0.048851
  35 C :   -0.035929
  36 N :   -0.012611
  37 N :   -0.010878
  38 C :   -0.049172
  39 C :   -0.071842
  40 C :   -0.071950
  41 N :   -0.004687
  42 O :    0.058474
  43 N :   -0.002909
  44 C :   -0.036768
  45 C :   -0.156130
  46 C :   -0.028199
  47 C :   -0.055372
  48 C :   -0.185880
  49 S :    0.514005
  50 C :   -0.155966
  51 C :   -0.067663
  52 C :    0.084608
  53 C :   -0.097629
  54 C :   -0.014406
  55 N :   -0.027960
  56 C :   -0.008512
  57 N :   -0.036505
  58 C :    0.013185
  59 C :   -0.183011
  60 S :    0.506988
  61 C :    0.045680
  62 C :   -0.094244
  63 C :    0.083844
  64 O :   -0.135136
  65 C :   -0.045092
  66 C :   -0.008828
  67 C :    0.063871
  68 C :   -0.130269
  69 C :   -0.015555
  70 N :   -0.040008
  71 C :   -0.021299
  72 N :   -0.035807
  73 C :   -0.006510
  74 C :   -0.117514
  75 C :   -0.123505
  76 C :    0.007764
  77 Br:    0.139521
  78 Br:    0.145294
  79 H :    0.044717
  80 H :    0.048102
  81 H :    0.042950
  82 H :    0.043801
  83 H :    0.035506
  84 H :    0.032718
  85 H :    0.038484
  86 H :    0.040039
  87 H :    0.036484
  88 H :    0.033089
  89 H :    0.038493
  90 H :    0.036246
  91 H :    0.043073
  92 H :    0.046999
  93 H :    0.046460
  94 H :    0.047015

  Mayer bond orders larger than 0.100000
B(  0-C ,  1-O ) :   2.1756 B(  0-C ,  2-C ) :   0.9541 B(  0-C , 16-C ) :   0.9412
B(  2-C ,  3-C ) :   1.3283 B(  2-C ,  7-C ) :   1.3723 B(  3-C ,  4-C ) :   1.3638
B(  3-C , 10-C ) :   0.9891 B(  4-C ,  5-C ) :   1.3731 B(  4-C , 79-H ) :   0.9778
B(  5-C ,  6-C ) :   1.4185 B(  5-C ,  9-Br) :   1.0603 B(  6-C ,  7-C ) :   1.3505
B(  6-C ,  8-Br) :   1.0373 B(  7-C , 80-H ) :   1.0078 B( 10-C , 11-C ) :   1.6345
B( 10-C , 16-C ) :   1.0829 B( 11-C , 12-C ) :   1.1428 B( 11-C , 14-C ) :   1.1378
B( 12-C , 13-N ) :   2.9692 B( 14-C , 15-N ) :   2.9684 B( 16-C , 17-C ) :   1.5937
B( 17-C , 18-C ) :   1.2213 B( 17-C , 81-H ) :   0.9075 B( 18-C , 19-C ) :   1.3961
B( 18-C , 22-S ) :   1.0771 B( 19-C , 20-C ) :   1.3121 B( 19-C , 82-H ) :   0.9716
B( 20-C , 21-C ) :   1.3881 B( 20-C , 25-C ) :   0.9925 B( 21-C , 22-S ) :   1.1791
B( 21-C , 23-C ) :   1.1901 B( 23-C , 24-C ) :   1.4483 B( 23-C , 33-S ) :   1.1217
B( 24-C , 25-C ) :   1.0044 B( 24-C , 31-C ) :   1.2969 B( 25-C , 26-C ) :   1.7172
B( 26-C , 27-C ) :   1.1354 B( 26-C , 29-C ) :   1.1311 B( 27-C , 28-N ) :   2.9850
B( 29-C , 30-N ) :   2.9997 B( 31-C , 32-C ) :   1.4962 B( 31-C , 83-H ) :   0.9884
B( 32-C , 33-S ) :   1.1477 B( 32-C , 34-C ) :   0.9683 B( 34-C , 35-C ) :   1.0912
B( 34-C , 36-N ) :   0.9418 B( 34-C , 40-C ) :   0.9255 B( 35-C , 84-H ) :   0.9417
B( 35-C , 85-H ) :   0.9529 B( 35-C , 86-H ) :   0.9476 B( 36-N , 37-N ) :   1.8481
B( 37-N , 38-C ) :   0.9454 B( 38-C , 39-C ) :   0.9258 B( 38-C , 44-C ) :   1.0900
B( 38-C , 45-C ) :   0.9685 B( 39-C , 40-C ) :   1.2093 B( 39-C , 43-N ) :   1.7401
B( 40-C , 41-N ) :   1.7391 B( 41-N , 42-O ) :   1.0516 B( 41-N , 43-N ) :   0.1527
B( 42-O , 43-N ) :   1.0520 B( 44-C , 87-H ) :   0.9442 B( 44-C , 88-H ) :   0.9398
B( 44-C , 89-H ) :   0.9504 B( 45-C , 46-C ) :   1.4989 B( 45-C , 49-S ) :   1.1445
B( 46-C , 47-C ) :   1.2933 B( 46-C , 90-H ) :   0.9926 B( 47-C , 48-C ) :   1.4518
B( 47-C , 52-C ) :   1.0069 B( 48-C , 49-S ) :   1.1262 B( 48-C , 50-C ) :   1.1836
B( 50-C , 51-C ) :   1.4177 B( 50-C , 60-S ) :   1.1651 B( 51-C , 52-C ) :   0.9964
B( 51-C , 58-C ) :   1.3602 B( 52-C , 53-C ) :   1.7205 B( 53-C , 54-C ) :   1.1315
B( 53-C , 56-C ) :   1.1266 B( 54-C , 55-N ) :   2.9839 B( 56-C , 57-N ) :   2.9997
B( 58-C , 59-C ) :   1.3919 B( 58-C , 91-H ) :   0.9800 B( 59-C , 60-S ) :   1.0902
B( 59-C , 61-C ) :   1.1418 B( 61-C , 62-C ) :   1.6683 B( 61-C , 92-H ) :   0.9258
B( 62-C , 63-C ) :   0.9473 B( 62-C , 67-C ) :   1.0387 B( 63-C , 64-O ) :   2.2710
B( 63-C , 65-C ) :   0.9221 B( 65-C , 66-C ) :   1.3273 B( 65-C , 76-C ) :   1.3747
B( 66-C , 67-C ) :   1.0028 B( 66-C , 73-C ) :   1.3720 B( 67-C , 68-C ) :   1.6588
B( 68-C , 69-C ) :   1.1739 B( 68-C , 71-C ) :   1.1220 B( 69-C , 70-N ) :   2.9960
B( 71-C , 72-N ) :   2.9969 B( 73-C , 74-C ) :   1.3699 B( 73-C , 93-H ) :   0.9824
B( 74-C , 75-C ) :   1.4197 B( 74-C , 78-Br) :   1.0554 B( 75-C , 76-C ) :   1.3566
B( 75-C , 77-Br) :   1.0353 B( 76-C , 94-H ) :   1.0074

-----------------------------------------------------------------------------
         ABSORPTION SPECTRUM VIA TRANSITION ELECTRIC DIPOLE MOMENTS
-----------------------------------------------------------------------------
State   Energy  Wavelength   fosc         T2         TX        TY        TZ
        (cm-1)    (nm)                  (au**2)     (au)      (au)      (au)
-----------------------------------------------------------------------------
   0   15614.2    640.4   0.164285185   3.46382  -0.73482  -1.61426   0.56393
   1   16167.8    618.5   0.150957769   3.07384   0.88856   1.45835  -0.39690
   2   21693.7    461.0   0.792367223  12.02452   1.57960   3.03188  -0.58057
   3   22907.2    436.5   0.571229758   8.20945   1.73080   2.11218  -0.86745
   4   23417.2    427.0   0.380060904   5.34310  -1.42698  -1.76232   0.44840
   5   24219.5    412.9   0.003203361   0.04354  -0.06895  -0.19693  -0.00249
   6   26097.5    383.2   0.003684923   0.04648   0.10652   0.18321  -0.03964
   7   27307.5    366.2   0.062251547   0.75049   0.53234   0.65785  -0.18531
   8   27357.5    365.5   0.007296577   0.08780  -0.23202  -0.08730  -0.16233
   9   27405.9    364.9   0.001120163   0.01346   0.07457  -0.03644  -0.08104
  10   28516.7    350.7   0.336178985   3.88104   0.45798   1.55255  -1.12289
  11   28646.0    349.1   0.124826919   1.43456   0.39105  -1.13206  -0.00951
  12   28841.6    346.7   0.006342970   0.07240   0.03456  -0.17468   0.20173
  13   29072.5    344.0   0.006311631   0.07147  -0.24508  -0.10672   0.00433
  14   29952.1    333.9   0.042345671   0.46543  -0.09050  -0.57223   0.36027
  15   30193.8    331.2   0.174090842   1.89816  -0.53524  -0.81859   0.97035
  16   30352.1    329.5   0.159684507   1.73201   0.63793   0.94868  -0.65197
  17   30791.2    324.8   0.279593469   2.98935   0.80677  -1.45398  -0.47373
  18   31537.7    317.1   0.532139339   5.55483  -1.46377   1.73507   0.63384
  19   32083.4    311.7   0.229246008   2.35232   0.31135  -1.03922  -1.08417
  20   32325.0    309.4   0.012248645   0.12475   0.33352  -0.08753   0.07647
  21   32423.1    308.4   0.000228345   0.00232  -0.02355  -0.00339   0.04186
  22   32439.2    308.3   0.147658213   1.49852  -0.13283   1.17580  -0.31364
  23   32738.0    305.5   0.056433126   0.56749  -0.74412   0.02841   0.11386
  24   33239.8    300.8   0.617576880   6.11658   0.39754  -2.42189   0.30495
  25   33260.7    300.7   0.002567246   0.02541  -0.00148   0.15876   0.01421
  26   33363.1    299.7   0.240031930   2.36852  -0.17833  -1.23805   0.89663
  27   33725.6    296.5   0.028317956   0.27643  -0.40653   0.18422   0.27789
  28   33831.0    295.6   0.059596637   0.57994   0.65802   0.25513  -0.28611
  29   34186.8    292.5   0.107777737   1.03788  -0.91728   0.41264   0.16188
  30   34496.0    289.9   0.243817508   2.32687   0.78633  -0.36049  -1.25642
  31   34597.7    289.0   0.224193089   2.13329  -1.32160   0.62107   0.03074
  32   34854.6    286.9   0.387486459   3.65992  -0.15549  -1.03769   1.59967
  33   34915.8    286.4   0.167765244   1.58182  -1.04919   0.68113   0.13066
  34   35543.0    281.3   0.178722308   1.65539   0.93968  -0.76224  -0.43746
  35   35795.9    279.4   0.033292665   0.30619  -0.23348   0.34675   0.36255
  36   35915.3    278.4   0.003167025   0.02903  -0.07403   0.08645   0.12679
  37   36147.8    276.6   0.001257134   0.01145   0.06505  -0.01053  -0.08431
  38   36424.1    274.5   0.016937456   0.15309   0.13059  -0.10776  -0.35273
  39   36753.0    272.1   0.051814743   0.46413  -0.50396  -0.39057   0.24002
  40   36793.8    271.8   0.056142611   0.50233  -0.50982  -0.41868   0.25907
  41   37029.8    270.1   0.003517242   0.03127   0.14945   0.07969  -0.05083
  42   37197.6    268.8   0.000471604   0.00417  -0.02655  -0.05709   0.01449
  43   37365.7    267.6   0.000099864   0.00088   0.00748  -0.02577   0.01264
  44   37664.7    265.5   0.037187352   0.32504   0.10321  -0.54388  -0.13631
  45   37691.4    265.3   0.017710993   0.15470   0.05427  -0.36918  -0.12431
  46   38246.3    261.5   0.167377010   1.44073  -0.74474  -0.67603   0.65504
  47   38945.2    256.8   0.237933199   2.01130  -0.69605  -1.13519   0.48801
  48   38981.5    256.5   0.100389459   0.84782   0.07058  -0.48531   0.77930
  49   39400.3    253.8   0.042826948   0.35784   0.10367   0.54910  -0.21352
  50   39530.2    253.0   0.034810226   0.28990  -0.29620   0.41414   0.17509
  51   39567.2    252.7   0.010866218   0.09041   0.10714   0.27878  -0.03485
  52   39642.4    252.3   0.008316688   0.06907  -0.25996  -0.01055   0.03708
  53   39780.2    251.4   0.000828534   0.00686   0.06084   0.05214  -0.02091
  54   40185.8    248.8   0.001521358   0.01246   0.05083  -0.07595  -0.06411
  55   40195.0    248.8   0.010726749   0.08786  -0.07306  -0.26448   0.11212
  56   40281.1    248.3   0.190354320   1.55574  -0.73160  -0.99259   0.18782

FINAL SINGLE POINT ENERGY    -14910.253976585087

DIPOLE MOMENT
-------------
                                X             Y             Z
Electronic contribution:     11.94602       2.46607      11.05248
Nuclear contribution   :    -12.21771      -2.32367      -9.35911
                        -----------------------------------------
Total Dipole Moment    :     -0.27169       0.14241       1.69337
                        -----------------------------------------
Magnitude (a.u.)       :      1.72093
Magnitude (Debye)      :      4.37427

Rotational constants in cm-1:     0.002357     0.000100     0.000098
Rotational constants in MHz :    70.673354     2.996339     2.936153

                             ****ORCA TERMINATED NORMALLY****
TOTAL RUN TIME: 0 days 0 hours 11 minutes 19 seconds 394 msec
