                         Program Version 4.2.0 -  RELEASE  -
|  1> # ORCA input file
|  2> # SCF done       -188.325782205881          0.000876890059
|  3> ! CAM-B3LYP def2-SVP def2/J RIJCOSX Grid4 TightSCF
|  4> %maxcore 5000
|  5> %tddft
|  6>     Mode sTDDFT
|  7>     Ethresh 5.0
|  8>     maxcore 5000
|  9> end
| 10>
| 11> %pal
| 12>   nprocs 6
| 13>   end
| 14> * xyz 0 1
| 15>    C        2.76429        -2.37673        -3.16769
| 16>    O        2.64738        -3.57987        -3.02088
| 17>    C        3.77406        -1.69210        -3.99482
| 18>    C        3.56721        -0.30234        -3.92844
| 19>    C        4.41307         0.54694        -4.62230
| 20>    C        5.44790        -0.00598        -5.36934
| 21>    C        5.64139        -1.38841        -5.43099
| 22>    C        4.79652        -2.24512        -4.73737
| 23>   Br        7.05561        -2.11193        -6.45340
| 24>   Br        6.60579         1.15480        -6.30906
| 25>    C        2.41533        -0.03589        -3.06721
| 26>    C        1.88123         1.20055        -2.82489
| 27>    C        2.39166         2.40038        -3.36856
| 28>    N        2.76247         3.40589        -3.77772
| 29>    C        0.74708         1.46516        -2.02595
| 30>    N       -0.16960         1.76055        -1.40160
| 31>    C        1.95082        -1.31720        -2.56213
| 32>    C        0.96721        -1.50626        -1.62585
| 33>    C        0.47407        -2.68892        -1.05178
| 34>    C       -0.47994        -2.66339        -0.02596
| 35>    C       -0.81114        -3.92872         0.41816
| 36>    C       -0.12132        -4.94178        -0.28932
| 37>    S        0.94223        -4.33657        -1.47002
| 38>    C       -0.51154        -6.19660         0.24832
| 39>    C       -1.43135        -5.97485         1.29374
| 40>    C       -1.65575        -4.54672         1.43091
| 41>    C       -2.47213        -3.92174         2.32657
| 42>    C       -3.22874        -4.64010         3.27756
| 43>    N       -3.83820        -5.22719         4.05078
| 44>    C       -2.60662        -2.51723         2.36828
| 45>    N       -2.71515        -1.37689         2.40511
| 46>    C       -1.84669        -7.15893         1.90124
| 47>    C       -1.25260        -8.25616         1.31254
| 48>    S       -0.17773        -7.85114         0.00335
| 49>    C       -1.41942        -9.63088         1.69000
| 50>    N       -2.15189        -9.88982         2.76818
| 51>    C       -2.24416       -11.17512         3.10210
| 52>    N       -1.68887       -12.17768         2.41367
| 53>    C       -1.00025       -11.80549         1.35330
| 54>    N       -0.81409       -10.56461         0.94844
| 55>    C       -2.97235       -11.47284         4.30098
| 56>    C       -3.16716       -12.69875         4.90195
| 57>    C       -3.87928       -12.56663         6.09411
| 58>    C       -4.22190       -11.22730         6.37416
| 59>    S       -3.67211       -10.14102         5.18317
| 60>    C       -4.91949       -11.19010         7.61071
| 61>    C       -5.00320       -12.50393         8.11260
| 62>    C       -4.37252       -13.41216         7.16736
| 63>    C       -4.30195       -14.76987         7.27224
| 64>    C       -4.85830       -15.44442         8.38030
| 65>    N       -5.31345       -15.96987         9.29220
| 66>    C       -3.67939       -15.57551         6.29492
| 67>    N       -3.16962       -16.23538         5.50879
| 68>    C       -5.66727       -12.57755         9.32877
| 69>    C       -6.10781       -11.33321         9.76094
| 70>    S       -5.65170       -10.05462         8.64137
| 71>    C       -6.77988       -10.99380        10.95441
| 72>    C       -7.43374       -11.80039        11.83686
| 73>    C       -7.67212       -11.28795        13.21661
| 74>    O       -7.55342       -10.14821        13.59595
| 75>    C       -8.02182       -12.48290        14.01325
| 76>    C       -8.12125       -13.60044        13.16392
| 77>    C       -7.91182       -13.16680        11.78250
| 78>    C       -8.34953       -13.84817        10.67836
| 79>    C       -8.35499       -13.31008         9.37598
| 80>    N       -8.39774       -12.89579         8.30653
| 81>    C       -8.93597       -15.13183        10.72967
| 82>    N       -9.42197       -16.17037        10.72374
| 83>    C       -8.39507       -14.84894        13.69489
| 84>    C       -8.57899       -14.96000        15.06886
| 85>    C       -8.49857       -13.84191        15.90352
| 86>    C       -8.21427       -12.58904        15.37519
| 87>   Br       -8.76692       -14.01707        17.76530
| 88>   Br       -8.93958       -16.66476        15.79845
| 89>    H        4.29878         1.61846        -4.59886
| 90>    H        4.93560        -3.31448        -4.77482
| 91>    H        0.49418        -0.61686        -1.22694
| 92>    H       -0.88418        -1.74343         0.35817
| 93>    H       -2.53410        -7.24896         2.72214
| 94>    H       -0.53931       -12.58948         0.76601
| 95>    H       -2.79482       -13.61375         4.47880
| 96>    H       -5.78457       -13.47548         9.90682
| 97>    H       -6.71022        -9.95432        11.26137
| 98>    H       -8.45518       -15.73250        13.07982
| 99>    H       -8.14420       -11.72079        16.01185
|100> *
|101>
|102>                          ****END OF INPUT****

CARTESIAN COORDINATES (ANGSTROEM)
---------------------------------
  C      2.764290   -2.376730   -3.167690
  O      2.647380   -3.579870   -3.020880
  C      3.774060   -1.692100   -3.994820
  C      3.567210   -0.302340   -3.928440
  C      4.413070    0.546940   -4.622300
  C      5.447900   -0.005980   -5.369340
  C      5.641390   -1.388410   -5.430990
  C      4.796520   -2.245120   -4.737370
  Br     7.055610   -2.111930   -6.453400
  Br     6.605790    1.154800   -6.309060
  C      2.415330   -0.035890   -3.067210
  C      1.881230    1.200550   -2.824890
  C      2.391660    2.400380   -3.368560
  N      2.762470    3.405890   -3.777720
  C      0.747080    1.465160   -2.025950
  N     -0.169600    1.760550   -1.401600
  C      1.950820   -1.317200   -2.562130
  C      0.967210   -1.506260   -1.625850
  C      0.474070   -2.688920   -1.051780
  C     -0.479940   -2.663390   -0.025960
  C     -0.811140   -3.928720    0.418160
  C     -0.121320   -4.941780   -0.289320
  S      0.942230   -4.336570   -1.470020
  C     -0.511540   -6.196600    0.248320
  C     -1.431350   -5.974850    1.293740
  C     -1.655750   -4.546720    1.430910
  C     -2.472130   -3.921740    2.326570
  C     -3.228740   -4.640100    3.277560
  N     -3.838200   -5.227190    4.050780
  C     -2.606620   -2.517230    2.368280
  N     -2.715150   -1.376890    2.405110
  C     -1.846690   -7.158930    1.901240
  C     -1.252600   -8.256160    1.312540
  S     -0.177730   -7.851140    0.003350
  C     -1.419420   -9.630880    1.690000
  N     -2.151890   -9.889820    2.768180
  C     -2.244160  -11.175120    3.102100
  N     -1.688870  -12.177680    2.413670
  C     -1.000250  -11.805490    1.353300
  N     -0.814090  -10.564610    0.948440
  C     -2.972350  -11.472840    4.300980
  C     -3.167160  -12.698750    4.901950
  C     -3.879280  -12.566630    6.094110
  C     -4.221900  -11.227300    6.374160
  S     -3.672110  -10.141020    5.183170
  C     -4.919490  -11.190100    7.610710
  C     -5.003200  -12.503930    8.112600
  C     -4.372520  -13.412160    7.167360
  C     -4.301950  -14.769870    7.272240
  C     -4.858300  -15.444420    8.380300
  N     -5.313450  -15.969870    9.292200
  C     -3.679390  -15.575510    6.294920
  N     -3.169620  -16.235380    5.508790
  C     -5.667270  -12.577550    9.328770
  C     -6.107810  -11.333210    9.760940
  S     -5.651700  -10.054620    8.641370
  C     -6.779880  -10.993800   10.954410
  C     -7.433740  -11.800390   11.836860
  C     -7.672120  -11.287950   13.216610
  O     -7.553420  -10.148210   13.595950
  C     -8.021820  -12.482900   14.013250
  C     -8.121250  -13.600440   13.163920
  C     -7.911820  -13.166800   11.782500
  C     -8.349530  -13.848170   10.678360
  C     -8.354990  -13.310080    9.375980
  N     -8.397740  -12.895790    8.306530
  C     -8.935970  -15.131830   10.729670
  N     -9.421970  -16.170370   10.723740
  C     -8.395070  -14.848940   13.694890
  C     -8.578990  -14.960000   15.068860
  C     -8.498570  -13.841910   15.903520
  C     -8.214270  -12.589040   15.375190
  Br    -8.766920  -14.017070   17.765300
  Br    -8.939580  -16.664760   15.798450
  H      4.298780    1.618460   -4.598860
  H      4.935600   -3.314480   -4.774820
  H      0.494180   -0.616860   -1.226940
  H     -0.884180   -1.743430    0.358170
  H     -2.534100   -7.248960    2.722140
  H     -0.539310  -12.589480    0.766010
  H     -2.794820  -13.613750    4.478800
  H     -5.784570  -13.475480    9.906820
  H     -6.710220   -9.954320   11.261370
  H     -8.455180  -15.732500   13.079820
  H     -8.144200  -11.720790   16.011850

 Total Charge           Charge          ....    0
 Multiplicity           Mult            ....    1
 Number of Electrons    NEL             ....  626
 Basis Dimension        Dim             .... 1179

ORBITAL ENERGIES
----------------

  NO   OCC          E(Eh)            E(eV)
   0   2.0000    -482.884890    -13139.9659
   1   2.0000    -482.882990    -13139.9142
   2   2.0000    -482.879653    -13139.8234
   3   2.0000    -482.878060    -13139.7800
   4   2.0000     -89.006562     -2421.9917
   5   2.0000     -89.005221     -2421.9552
   6   2.0000     -89.003956     -2421.9208
   7   2.0000     -89.002553     -2421.8826
   8   2.0000     -62.562489     -1702.4119
   9   2.0000     -62.560577     -1702.3599
  10   2.0000     -62.557231     -1702.2688
  11   2.0000     -62.555669     -1702.2263
  12   2.0000     -56.396447     -1534.6253
  13   2.0000     -56.394546     -1534.5736
  14   2.0000     -56.393787     -1534.5530
  15   2.0000     -56.393680     -1534.5500
  16   2.0000     -56.391867     -1534.5007
  17   2.0000     -56.391766     -1534.4980
  18   2.0000     -56.391185     -1534.4822
  19   2.0000     -56.389634     -1534.4400
  20   2.0000     -56.388527     -1534.4098
  21   2.0000     -56.388435     -1534.4073
  22   2.0000     -56.386959     -1534.3672
  23   2.0000     -56.386860     -1534.3645
  24   2.0000     -19.242370      -523.6115
  25   2.0000     -19.228288      -523.2283
  26   2.0000     -14.442692      -393.0056
  27   2.0000     -14.441245      -392.9662
  28   2.0000     -14.439932      -392.9305
  29   2.0000     -14.439738      -392.9253
  30   2.0000     -14.437501      -392.8644
  31   2.0000     -14.437124      -392.8541
  32   2.0000     -14.435478      -392.8093
  33   2.0000     -14.431230      -392.6937
  34   2.0000     -14.427999      -392.6058
  35   2.0000     -14.427520      -392.5928
  36   2.0000     -14.422434      -392.4544
  37   2.0000     -10.390199      -282.7317
  38   2.0000     -10.389261      -282.7062
  39   2.0000     -10.387854      -282.6679
  40   2.0000     -10.379497      -282.4405
  41   2.0000     -10.376961      -282.3715
  42   2.0000     -10.374662      -282.3089
  43   2.0000     -10.372439      -282.2484
  44   2.0000     -10.365037      -282.0470
  45   2.0000     -10.362793      -281.9859
  46   2.0000     -10.362405      -281.9754
  47   2.0000     -10.361919      -281.9621
  48   2.0000     -10.359788      -281.9042
  49   2.0000     -10.358042      -281.8567
  50   2.0000     -10.357555      -281.8434
  51   2.0000     -10.356904      -281.8257
  52   2.0000     -10.356660      -281.8190
  53   2.0000     -10.354575      -281.7623
  54   2.0000     -10.351257      -281.6720
  55   2.0000     -10.349472      -281.6235
  56   2.0000     -10.347676      -281.5746
  57   2.0000     -10.347099      -281.5589
  58   2.0000     -10.342416      -281.4314
  59   2.0000     -10.341365      -281.4028
  60   2.0000     -10.341309      -281.4013
  61   2.0000     -10.339914      -281.3634
  62   2.0000     -10.339538      -281.3531
  63   2.0000     -10.338068      -281.3131
  64   2.0000     -10.336761      -281.2776
  65   2.0000     -10.335410      -281.2408
  66   2.0000     -10.333921      -281.2003
  67   2.0000     -10.332869      -281.1717
  68   2.0000     -10.329651      -281.0841
  69   2.0000     -10.329344      -281.0757
  70   2.0000     -10.328519      -281.0533
  71   2.0000     -10.327951      -281.0378
  72   2.0000     -10.326147      -280.9887
  73   2.0000     -10.324051      -280.9317
  74   2.0000     -10.323061      -280.9048
  75   2.0000     -10.321862      -280.8722
  76   2.0000     -10.321735      -280.8687
  77   2.0000     -10.321596      -280.8649
  78   2.0000     -10.320369      -280.8315
  79   2.0000     -10.319705      -280.8134
  80   2.0000     -10.319397      -280.8051
  81   2.0000     -10.317911      -280.7646
  82   2.0000     -10.317644      -280.7574
  83   2.0000     -10.317139      -280.7436
  84   2.0000     -10.316011      -280.7129
  85   2.0000     -10.315675      -280.7038
  86   2.0000     -10.315229      -280.6916
  87   2.0000     -10.314168      -280.6628
  88   2.0000     -10.311832      -280.5992
  89   2.0000     -10.308589      -280.5110
  90   2.0000      -8.791815      -239.2375
  91   2.0000      -8.789893      -239.1851
  92   2.0000      -8.786531      -239.0937
  93   2.0000      -8.784990      -239.0517
  94   2.0000      -8.100572      -220.4278
  95   2.0000      -8.099960      -220.4111
  96   2.0000      -8.096661      -220.3214
  97   2.0000      -8.096289      -220.3112
  98   2.0000      -6.627975      -180.3564
  99   2.0000      -6.626064      -180.3044
 100   2.0000      -6.622667      -180.2119
 101   2.0000      -6.621170      -180.1712
 102   2.0000      -6.613925      -179.9740
 103   2.0000      -6.613129      -179.9524
 104   2.0000      -6.611998      -179.9216
 105   2.0000      -6.611198      -179.8998
 106   2.0000      -6.608648      -179.8305
 107   2.0000      -6.607870      -179.8093
 108   2.0000      -6.607097      -179.7882
 109   2.0000      -6.606292      -179.7663
 110   2.0000      -6.069652      -165.1636
 111   2.0000      -6.069094      -165.1484
 112   2.0000      -6.065801      -165.0588
 113   2.0000      -6.065667      -165.0552
 114   2.0000      -6.065431      -165.0488
 115   2.0000      -6.064906      -165.0345
 116   2.0000      -6.063324      -164.9914
 117   2.0000      -6.062499      -164.9690
 118   2.0000      -6.061514      -164.9422
 119   2.0000      -6.060915      -164.9259
 120   2.0000      -6.059321      -164.8825
 121   2.0000      -6.058927      -164.8718
 122   2.0000      -2.743848       -74.6639
 123   2.0000      -2.741994       -74.6134
 124   2.0000      -2.740113       -74.5623
 125   2.0000      -2.739501       -74.5456
 126   2.0000      -2.738577       -74.5205
 127   2.0000      -2.738171       -74.5094
 128   2.0000      -2.737550       -74.4925
 129   2.0000      -2.737081       -74.4798
 130   2.0000      -2.734786       -74.4173
 131   2.0000      -2.734213       -74.4017
 132   2.0000      -2.733276       -74.3762
 133   2.0000      -2.732666       -74.3596
 134   2.0000      -2.728309       -74.2411
 135   2.0000      -2.728300       -74.2408
 136   2.0000      -2.726360       -74.1880
 137   2.0000      -2.726346       -74.1876
 138   2.0000      -2.723044       -74.0978
 139   2.0000      -2.723036       -74.0976
 140   2.0000      -2.721459       -74.0547
 141   2.0000      -2.721452       -74.0545
 142   2.0000      -1.158270       -31.5181
 143   2.0000      -1.145620       -31.1739
 144   2.0000      -1.144498       -31.1434
 145   2.0000      -1.060290       -28.8520
 146   2.0000      -1.058787       -28.8110
 147   2.0000      -1.036444       -28.2031
 148   2.0000      -1.033884       -28.1334
 149   2.0000      -1.032290       -28.0900
 150   2.0000      -1.031525       -28.0692
 151   2.0000      -1.027367       -27.9561
 152   2.0000      -1.022243       -27.8166
 153   2.0000      -1.019961       -27.7545
 154   2.0000      -1.017991       -27.7009
 155   2.0000      -1.015894       -27.6439
 156   2.0000      -1.014735       -27.6123
 157   2.0000      -1.007984       -27.4287
 158   2.0000      -1.007295       -27.4099
 159   2.0000      -1.004668       -27.3384
 160   2.0000      -1.001819       -27.2609
 161   2.0000      -0.988204       -26.8904
 162   2.0000      -0.982941       -26.7472
 163   2.0000      -0.970901       -26.4195
 164   2.0000      -0.968534       -26.3552
 165   2.0000      -0.935936       -25.4681
 166   2.0000      -0.932069       -25.3629
 167   2.0000      -0.929891       -25.3036
 168   2.0000      -0.925124       -25.1739
 169   2.0000      -0.920918       -25.0595
 170   2.0000      -0.915824       -24.9208
 171   2.0000      -0.908938       -24.7335
 172   2.0000      -0.905572       -24.6419
 173   2.0000      -0.887190       -24.1417
 174   2.0000      -0.883595       -24.0438
 175   2.0000      -0.875530       -23.8244
 176   2.0000      -0.872877       -23.7522
 177   2.0000      -0.869909       -23.6714
 178   2.0000      -0.867725       -23.6120
 179   2.0000      -0.862512       -23.4702
 180   2.0000      -0.857170       -23.3248
 181   2.0000      -0.842183       -22.9170
 182   2.0000      -0.830838       -22.6082
 183   2.0000      -0.807559       -21.9748
 184   2.0000      -0.802449       -21.8357
 185   2.0000      -0.789770       -21.4907
 186   2.0000      -0.787326       -21.4242
 187   2.0000      -0.781215       -21.2579
 188   2.0000      -0.777221       -21.1493
 189   2.0000      -0.768488       -20.9116
 190   2.0000      -0.759601       -20.6698
 191   2.0000      -0.739044       -20.1104
 192   2.0000      -0.728282       -19.8176
 193   2.0000      -0.719976       -19.5915
 194   2.0000      -0.711381       -19.3577
 195   2.0000      -0.710508       -19.3339
 196   2.0000      -0.708464       -19.2783
 197   2.0000      -0.701912       -19.1000
 198   2.0000      -0.699228       -19.0270
 199   2.0000      -0.696250       -18.9459
 200   2.0000      -0.689820       -18.7710
 201   2.0000      -0.686757       -18.6876
 202   2.0000      -0.672621       -18.3030
 203   2.0000      -0.672156       -18.2903
 204   2.0000      -0.661220       -17.9927
 205   2.0000      -0.651366       -17.7246
 206   2.0000      -0.644356       -17.5338
 207   2.0000      -0.640388       -17.4258
 208   2.0000      -0.635783       -17.3005
 209   2.0000      -0.633302       -17.2330
 210   2.0000      -0.629459       -17.1284
 211   2.0000      -0.628208       -17.0944
 212   2.0000      -0.625954       -17.0331
 213   2.0000      -0.614049       -16.7091
 214   2.0000      -0.610059       -16.6005
 215   2.0000      -0.597511       -16.2591
 216   2.0000      -0.595578       -16.2065
 217   2.0000      -0.584762       -15.9122
 218   2.0000      -0.583046       -15.8655
 219   2.0000      -0.577866       -15.7245
 220   2.0000      -0.569361       -15.4931
 221   2.0000      -0.565710       -15.3937
 222   2.0000      -0.563352       -15.3296
 223   2.0000      -0.561451       -15.2778
 224   2.0000      -0.559526       -15.2255
 225   2.0000      -0.557628       -15.1738
 226   2.0000      -0.556412       -15.1408
 227   2.0000      -0.552299       -15.0288
 228   2.0000      -0.552057       -15.0222
 229   2.0000      -0.548695       -14.9307
 230   2.0000      -0.545631       -14.8474
 231   2.0000      -0.541033       -14.7223
 232   2.0000      -0.535172       -14.5628
 233   2.0000      -0.530085       -14.4243
 234   2.0000      -0.528207       -14.3732
 235   2.0000      -0.521761       -14.1978
 236   2.0000      -0.517600       -14.0846
 237   2.0000      -0.517198       -14.0737
 238   2.0000      -0.515202       -14.0194
 239   2.0000      -0.513343       -13.9688
 240   2.0000      -0.512764       -13.9530
 241   2.0000      -0.512510       -13.9461
 242   2.0000      -0.510570       -13.8933
 243   2.0000      -0.507944       -13.8219
 244   2.0000      -0.506077       -13.7711
 245   2.0000      -0.501435       -13.6447
 246   2.0000      -0.500071       -13.6076
 247   2.0000      -0.496432       -13.5086
 248   2.0000      -0.493888       -13.4394
 249   2.0000      -0.490532       -13.3480
 250   2.0000      -0.487561       -13.2672
 251   2.0000      -0.484514       -13.1843
 252   2.0000      -0.477775       -13.0009
 253   2.0000      -0.473774       -12.8920
 254   2.0000      -0.472140       -12.8476
 255   2.0000      -0.471114       -12.8197
 256   2.0000      -0.469406       -12.7732
 257   2.0000      -0.467685       -12.7263
 258   2.0000      -0.467400       -12.7186
 259   2.0000      -0.466285       -12.6883
 260   2.0000      -0.464743       -12.6463
 261   2.0000      -0.463240       -12.6054
 262   2.0000      -0.461455       -12.5568
 263   2.0000      -0.459848       -12.5131
 264   2.0000      -0.459020       -12.4906
 265   2.0000      -0.456930       -12.4337
 266   2.0000      -0.455381       -12.3915
 267   2.0000      -0.451761       -12.2930
 268   2.0000      -0.450582       -12.2610
 269   2.0000      -0.450035       -12.2461
 270   2.0000      -0.449476       -12.2309
 271   2.0000      -0.448391       -12.2014
 272   2.0000      -0.448126       -12.1941
 273   2.0000      -0.446761       -12.1570
 274   2.0000      -0.446382       -12.1467
 275   2.0000      -0.442511       -12.0413
 276   2.0000      -0.439542       -11.9606
 277   2.0000      -0.438352       -11.9282
 278   2.0000      -0.437492       -11.9048
 279   2.0000      -0.434994       -11.8368
 280   2.0000      -0.434543       -11.8245
 281   2.0000      -0.431656       -11.7460
 282   2.0000      -0.431175       -11.7329
 283   2.0000      -0.422211       -11.4889
 284   2.0000      -0.421137       -11.4597
 285   2.0000      -0.420108       -11.4317
 286   2.0000      -0.414994       -11.2926
 287   2.0000      -0.412266       -11.2183
 288   2.0000      -0.408502       -11.1159
 289   2.0000      -0.405666       -11.0387
 290   2.0000      -0.402289       -10.9468
 291   2.0000      -0.397484       -10.8161
 292   2.0000      -0.392416       -10.6782
 293   2.0000      -0.383349       -10.4315
 294   2.0000      -0.376032       -10.2324
 295   2.0000      -0.368174       -10.0185
 296   2.0000      -0.365274        -9.9396
 297   2.0000      -0.363590        -9.8938
 298   2.0000      -0.359747        -9.7892
 299   2.0000      -0.359206        -9.7745
 300   2.0000      -0.353869        -9.6293
 301   2.0000      -0.353362        -9.6155
 302   2.0000      -0.351885        -9.5753
 303   2.0000      -0.348859        -9.4929
 304   2.0000      -0.344915        -9.3856
 305   2.0000      -0.340715        -9.2713
 306   2.0000      -0.336537        -9.1576
 307   2.0000      -0.332117        -9.0374
 308   2.0000      -0.329985        -8.9793
 309   2.0000      -0.321559        -8.7501
 310   2.0000      -0.316068        -8.6006
 311   2.0000      -0.285132        -7.7588
 312   2.0000      -0.281584        -7.6623
 313   0.0000      -0.124337        -3.3834
 314   0.0000      -0.120550        -3.2803
 315   0.0000      -0.100028        -2.7219
 316   0.0000      -0.096176        -2.6171
 317   0.0000      -0.083248        -2.2653

MULLIKEN ATOMIC CHARGES
-----------------------
   0 C :    0.169346
   1 O :   -0.180681
   2 C :   -0.013493
   3 C :    0.032889
   4 C :   -0.008789
   5 C :   -0.026141
   6 C :   -0.015820
   7 C :   -0.020058
   8 Br:    0.019527
   9 Br:    0.028340
  10 C :    0.314373
  11 C :   -0.338507
  12 C :   -0.188689
  13 N :    0.168651
  14 C :   -0.193872
  15 N :    0.161936
  16 C :   -0.090902
  17 C :   -0.020578
  18 C :   -0.057637
  19 C :   -0.056777
  20 C :    0.051632
  21 C :   -0.075791
  22 S :    0.250638
  23 C :   -0.096939
  24 C :    0.017160
  25 C :    0.301664
  26 C :   -0.291422
  27 C :   -0.188202
  28 N :    0.177584
  29 C :   -0.194602
  30 N :    0.184815
  31 C :   -0.035922
  32 C :   -0.055858
  33 S :    0.265173
  34 C :   -0.035861
  35 N :   -0.063835
  36 C :   -0.024660
  37 N :   -0.083050
  38 C :    0.125121
  39 N :   -0.108678
  40 C :   -0.066133
  41 C :   -0.027943
  42 C :    0.011846
  43 C :   -0.096478
  44 S :    0.258809
  45 C :   -0.075800
  46 C :   -0.000480
  47 C :    0.302681
  48 C :   -0.283354
  49 C :   -0.182849
  50 N :    0.170989
  51 C :   -0.193469
  52 N :    0.187076
  53 C :   -0.003979
  54 C :   -0.108416
  55 S :    0.228536
  56 C :    0.080634
  57 C :   -0.134764
  58 C :    0.136506
  59 O :   -0.134084
  60 C :    0.006111
  61 C :    0.012721
  62 C :    0.262514
  63 C :   -0.318834
  64 C :   -0.202656
  65 N :    0.174239
  66 C :   -0.171284
  67 N :    0.172542
  68 C :   -0.003968
  69 C :   -0.024781
  70 C :   -0.017777
  71 C :   -0.021199
  72 Br:    0.017057
  73 Br:    0.025786
  74 H :    0.010175
  75 H :    0.007899
  76 H :    0.018454
  77 H :    0.029715
  78 H :    0.019500
  79 H :    0.028371
  80 H :    0.026229
  81 H :    0.026538
  82 H :    0.025135
  83 H :    0.017426
  84 H :    0.008674
Sum of atomic charges:   -0.0000000

LOEWDIN ATOMIC CHARGES
----------------------
   0 C :    0.086367
   1 O :   -0.166233
   2 C :   -0.043248
   3 C :   -0.010399
   4 C :   -0.005759
   5 C :   -0.117290
   6 C :   -0.122675
   7 C :    0.007192
   8 Br:    0.141582
   9 Br:    0.146433
  10 C :    0.073840
  11 C :   -0.129431
  12 C :   -0.020073
  13 N :   -0.039502
  14 C :   -0.023343
  15 N :   -0.038142
  16 C :   -0.109551
  17 C :    0.059566
  18 C :   -0.182115
  19 C :    0.013532
  20 C :   -0.072756
  21 C :   -0.169382
  22 S :    0.554282
  23 C :   -0.176097
  24 C :   -0.062295
  25 C :    0.076173
  26 C :   -0.097925
  27 C :   -0.016336
  28 N :   -0.029805
  29 C :   -0.020410
  30 N :   -0.021818
  31 C :    0.005255
  32 C :   -0.190459
  33 S :    0.532862
  34 C :    0.036538
  35 N :   -0.117148
  36 C :    0.038369
  37 N :   -0.106428
  38 C :    0.085548
  39 N :   -0.126127
  40 C :   -0.193365
  41 C :    0.011371
  42 C :   -0.065482
  43 C :   -0.171506
  44 S :    0.531013
  45 C :   -0.163659
  46 C :   -0.059908
  47 C :    0.079269
  48 C :   -0.094572
  49 C :   -0.011788
  50 N :   -0.031259
  51 C :   -0.019619
  52 N :   -0.022012
  53 C :    0.009745
  54 C :   -0.178760
  55 S :    0.510548
  56 C :    0.044610
  57 C :   -0.090504
  58 C :    0.084348
  59 O :   -0.133639
  60 C :   -0.045235
  61 C :   -0.008695
  62 C :    0.062829
  63 C :   -0.127381
  64 C :   -0.015727
  65 N :   -0.038454
  66 C :   -0.020823
  67 N :   -0.034210
  68 C :   -0.006357
  69 C :   -0.117209
  70 C :   -0.123439
  71 C :    0.007905
  72 Br:    0.139773
  73 Br:    0.145711
  74 H :    0.045533
  75 H :    0.046684
  76 H :    0.054594
  77 H :    0.048825
  78 H :    0.046058
  79 H :    0.028012
  80 H :    0.050013
  81 H :    0.042551
  82 H :    0.047612
  83 H :    0.046796
  84 H :    0.047010

  Mayer bond orders larger than 0.100000
B(  0-C ,  1-O ) :   2.1225 B(  0-C ,  2-C ) :   0.9645 B(  0-C , 16-C ) :   0.9832
B(  2-C ,  3-C ) :   1.3284 B(  2-C ,  7-C ) :   1.3683 B(  3-C ,  4-C ) :   1.3700
B(  3-C , 10-C ) :   0.9892 B(  4-C ,  5-C ) :   1.3667 B(  4-C , 74-H ) :   0.9788
B(  5-C ,  6-C ) :   1.4213 B(  5-C ,  9-Br) :   1.0624 B(  6-C ,  7-C ) :   1.3510
B(  6-C ,  8-Br) :   1.0356 B(  7-C , 75-H ) :   1.0085 B( 10-C , 11-C ) :   1.6469
B( 10-C , 16-C ) :   1.0739 B( 11-C , 12-C ) :   1.1410 B( 11-C , 14-C ) :   1.1420
B( 12-C , 13-N ) :   2.9728 B( 14-C , 15-N ) :   2.9656 B( 16-C , 17-C ) :   1.5040
B( 17-C , 18-C ) :   1.2615 B( 17-C , 76-H ) :   0.9409 B( 18-C , 19-C ) :   1.3311
B( 18-C , 22-S ) :   1.0766 B( 19-C , 20-C ) :   1.3293 B( 19-C , 77-H ) :   1.0085
B( 20-C , 21-C ) :   1.3649 B( 20-C , 25-C ) :   0.9864 B( 21-C , 22-S ) :   1.1323
B( 21-C , 23-C ) :   1.1986 B( 23-C , 24-C ) :   1.4184 B( 23-C , 33-S ) :   1.1388
B( 24-C , 25-C ) :   1.0004 B( 24-C , 31-C ) :   1.2691 B( 25-C , 26-C ) :   1.7210
B( 26-C , 27-C ) :   1.1336 B( 26-C , 29-C ) :   1.1333 B( 27-C , 28-N ) :   2.9955
B( 29-C , 30-N ) :   2.9935 B( 31-C , 32-C ) :   1.4716 B( 31-C , 78-H ) :   1.0052
B( 32-C , 33-S ) :   1.1150 B( 32-C , 34-C ) :   1.0345 B( 34-C , 35-N ) :   1.5776
B( 34-C , 39-N ) :   1.5924 B( 35-N , 36-C ) :   1.5644 B( 36-C , 37-N ) :   1.5897
B( 36-C , 40-C ) :   1.0269 B( 37-N , 38-C ) :   1.5081 B( 38-C , 39-N ) :   1.4960
B( 38-C , 79-H ) :   0.9762 B( 40-C , 41-C ) :   1.4739 B( 40-C , 44-S ) :   1.1153
B( 41-C , 42-C ) :   1.2708 B( 41-C , 80-H ) :   1.0074 B( 42-C , 43-C ) :   1.4215
B( 42-C , 47-C ) :   0.9923 B( 43-C , 44-S ) :   1.1441 B( 43-C , 45-C ) :   1.1898
B( 45-C , 46-C ) :   1.4187 B( 45-C , 55-S ) :   1.1582 B( 46-C , 47-C ) :   0.9977
B( 46-C , 53-C ) :   1.3605 B( 47-C , 48-C ) :   1.7231 B( 48-C , 49-C ) :   1.1328
B( 48-C , 51-C ) :   1.1322 B( 49-C , 50-N ) :   2.9810 B( 51-C , 52-N ) :   3.0022
B( 53-C , 54-C ) :   1.3910 B( 53-C , 81-H ) :   0.9774 B( 54-C , 55-S ) :   1.0966
B( 54-C , 56-C ) :   1.1394 B( 56-C , 57-C ) :   1.6730 B( 56-C , 82-H ) :   0.9273
B( 57-C , 58-C ) :   0.9446 B( 57-C , 62-C ) :   1.0347 B( 58-C , 59-O ) :   2.2697
B( 58-C , 60-C ) :   0.9236 B( 60-C , 61-C ) :   1.3286 B( 60-C , 71-C ) :   1.3710
B( 61-C , 62-C ) :   1.0013 B( 61-C , 68-C ) :   1.3723 B( 62-C , 63-C ) :   1.6638
B( 63-C , 64-C ) :   1.1713 B( 63-C , 66-C ) :   1.1212 B( 64-C , 65-N ) :   2.9955
B( 66-C , 67-N ) :   2.9963 B( 68-C , 69-C ) :   1.3676 B( 68-C , 83-H ) :   0.9834
B( 69-C , 70-C ) :   1.4194 B( 69-C , 73-Br) :   1.0553 B( 70-C , 71-C ) :   1.3564
B( 70-C , 72-Br) :   1.0357 B( 71-C , 84-H ) :   1.0089

-----------------------------------------------------------------------------
         ABSORPTION SPECTRUM VIA TRANSITION ELECTRIC DIPOLE MOMENTS
-----------------------------------------------------------------------------
State   Energy  Wavelength   fosc         T2         TX        TY        TZ
        (cm-1)    (nm)                  (au**2)     (au)      (au)      (au)
-----------------------------------------------------------------------------
   0   15907.8    628.6   0.337673377   6.98814  -1.40521  -0.93163   2.03607
   1   16679.2    599.5   0.259411312   5.12022   0.79854   1.87895  -0.97576
   2   21662.8    461.6   1.115894867  16.95836   2.38085   1.66219  -2.92011
   3   22869.8    437.3   0.922562463  13.28032  -1.30033  -2.97937   1.64707
   4   23978.0    417.0   0.001312396   0.01802   0.06880   0.02553   0.11240
   5   25797.2    387.6   0.001866801   0.02382   0.08339   0.03633  -0.12469
   6   26470.5    377.8   0.146141194   1.81755   0.75336   0.67896  -0.88826
   7   27076.2    369.3   0.023621927   0.28721  -0.49469  -0.10234   0.17896
   8   28302.2    353.3   0.339469602   3.94872  -0.62970   0.13501   1.87989
   9   28576.6    349.9   0.017424896   0.20074  -0.29493   0.26430  -0.20953
  10   29102.0    343.6   0.041124791   0.46522   0.51623   0.10895  -0.43227
  11   29571.0    338.2   0.167431026   1.86400  -0.42303   0.72590   1.07615
  12   29845.0    335.1   0.160300022   1.76823  -0.17901  -1.03595   0.81425
  13   30176.2    331.4   0.508615346   5.54882  -1.32279  -0.51252   1.88052
  14   30227.5    330.8   0.303397278   3.30434  -0.81499   1.62164   0.10214
  15   30583.0    327.0   0.024660779   0.26546  -0.05740   0.27881   0.42946
  16   30693.5    325.8   0.071239207   0.76410   0.02058  -0.82888   0.27681
  17   31873.9    313.7   0.043757631   0.45195   0.58340   0.33332   0.02234
  18   32090.7    311.6   0.203233089   2.08492   0.16306  -1.37448   0.41128
  19   32568.2    307.0   0.006767692   0.06841   0.19601   0.16602  -0.04928
  20   32616.5    306.6   0.057269606   0.57805  -0.24157   0.01045   0.72082
  21   32868.9    304.2   0.079906099   0.80033   0.09375  -0.07899  -0.88617
  22   33085.6    302.2   0.477268401   4.74896   0.74655   1.09419  -1.73042
  23   33228.6    300.9   0.076862826   0.76152   0.52198   0.52056   0.46699
  24   33341.2    299.9   0.055109758   0.54416  -0.43160   0.53799   0.26163
  25   33738.1    296.4   0.231345411   2.25744   0.45224  -1.42747  -0.12344
  26   33894.1    295.0   0.076371388   0.74179   0.07422  -0.85779   0.02202
  27   34170.8    292.6   0.034203109   0.32952   0.45821  -0.31118  -0.15078
  28   34378.9    290.9   0.126897267   1.21517   0.02667   0.92436   0.60001
  29   34501.8    289.8   0.340319224   3.24728  -0.98796   1.32601   0.71618
  30   34549.6    289.4   0.013803469   0.13153  -0.15465  -0.29988   0.13299
  31   34576.9    289.2   0.083450661   0.79455   0.48240   0.25096  -0.70630
  32   34768.7    287.6   0.955863515   9.05072  -1.17734   1.37268   2.40423
  33   34931.0    286.3   0.103903140   0.97925   0.86976  -0.05175   0.46914
  34   35230.3    283.8   0.068120538   0.63656  -0.44321  -0.53256   0.39560
  35   35534.7    281.4   0.114454070   1.06036   0.47562  -0.85946  -0.30901
  36   35814.0    279.2   0.015053930   0.13838   0.04916  -0.36821   0.01968
  37   35836.8    279.0   0.001959608   0.01800  -0.01687  -0.10863   0.07692
  38   35960.9    278.1   0.008682753   0.07949  -0.14829  -0.21741  -0.10116
  39   36658.0    272.8   0.063174192   0.56734  -0.32379   0.28227   0.61873
  40   36794.8    271.8   0.043828877   0.39215   0.36324  -0.12587  -0.49433
  41   37071.7    269.7   0.053405592   0.47426   0.19394  -0.57417  -0.32707
  42   37140.5    269.2   0.011681549   0.10354   0.21080   0.17924  -0.16426
  43   37157.9    269.1   0.001061329   0.00940  -0.05179   0.07688  -0.02847
  44   37373.7    267.6   0.001348903   0.01188  -0.00516  -0.05070  -0.09636
  45   37456.6    267.0   0.148083202   1.30153   0.77060   0.57827  -0.61098
  46   37803.5    264.5   0.003061691   0.02666   0.11053  -0.11656  -0.02930
  47   37864.5    264.1   0.002087772   0.01815  -0.01678  -0.05706   0.12089
  48   38076.2    262.6   0.032815003   0.28372   0.02915  -0.42211   0.32357
  49   38109.4    262.4   0.038990119   0.33682   0.10060  -0.53340  -0.20538
  50   38478.8    259.9   0.068708607   0.58785   0.09707   0.51120   0.56312
  51   39175.8    255.3   0.024163471   0.20306  -0.26043  -0.34487  -0.12766
  52   39317.1    254.3   0.100485764   0.84139   0.73979   0.02081  -0.54191
  53   39591.0    252.6   0.007567267   0.06292  -0.15747  -0.16503   0.10435
  54   39895.1    250.7   0.117464530   0.96931   0.11441   0.96778  -0.14009
  55   39915.0    250.5   0.015258863   0.12585   0.00642  -0.35466   0.00540
  56   40086.2    249.5   0.004043510   0.03321  -0.05954  -0.01451   0.17161
  57   40177.1    248.9   0.020717476   0.16976   0.26139   0.18622  -0.25838
  58   40229.6    248.6   0.251131259   2.05509  -0.32982  -1.26761   0.58263

FINAL SINGLE POINT ENERGY    -14663.420810977903

DIPOLE MOMENT
-------------
                                X             Y             Z
Electronic contribution:     49.11358       3.92533      31.27044
Nuclear contribution   :    -46.70893      -4.25061     -31.96197
                        -----------------------------------------
Total Dipole Moment    :      2.40465      -0.32529      -0.69153
                        -----------------------------------------
Magnitude (a.u.)       :      2.52317
Magnitude (Debye)      :      6.41338

Rotational constants in cm-1:     0.001840     0.000111     0.000107
Rotational constants in MHz :    55.157345     3.342218     3.216185

                             ****ORCA TERMINATED NORMALLY****
TOTAL RUN TIME: 0 days 0 hours 9 minutes 12 seconds 310 msec
