                         Program Version 4.2.0 -  RELEASE  -
|  1> # ORCA input file
|  2> # SCF done       -196.320061355541          0.000470318715
|  3> ! CAM-B3LYP def2-SVP def2/J RIJCOSX Grid4 TightSCF
|  4> %maxcore 5000
|  5> %tddft
|  6>     Mode sTDDFT
|  7>     Ethresh 5.0
|  8>     maxcore 5000
|  9> end
| 10>
| 11> %pal
| 12>   nprocs 6
| 13>   end
| 14> * xyz 0 1
| 15>    C        3.56017        -2.43686        -3.16962
| 16>    O        3.19941        -3.37484        -3.84546
| 17>    C        4.45243        -1.34946        -3.62158
| 18>    C        4.63829        -0.42158        -2.58407
| 19>    C        5.44667         0.68401        -2.79600
| 20>    C        6.05199         0.83902        -4.03787
| 21>    C        5.85897        -0.09098        -5.06275
| 22>    C        5.04924        -1.19984        -4.85601
| 23>   Br        6.69463         0.14513        -6.74031
| 24>   Br        7.15485         2.34789        -4.32167
| 25>    C        3.88092        -0.86419        -1.41476
| 26>    C        3.85256        -0.20685        -0.21293
| 27>    C        4.54358         0.99843         0.04408
| 28>    N        5.07567         1.97631         0.32153
| 29>    C        3.15680        -0.60431         0.94960
| 30>    N        2.63271        -0.84734         1.94237
| 31>    C        3.21065        -2.10744        -1.76847
| 32>    C        2.38744        -2.79484        -0.91586
| 33>    C        1.70594        -4.01863        -1.04956
| 34>    C        1.65894        -4.98081        -2.05388
| 35>    C        0.86510        -6.06273        -1.70624
| 36>    C        0.28420        -5.93695        -0.42158
| 37>    S        0.72362        -4.49040         0.34965
| 38>    C       -0.49228        -7.08984        -0.16638
| 39>    C       -0.40393        -7.95151        -1.27661
| 40>    C        0.44485        -7.33076        -2.28371
| 41>    C        0.76889        -7.83549        -3.50659
| 42>    C        0.27956        -9.08135        -3.95956
| 43>    N       -0.11488       -10.08711        -4.34165
| 44>    C        1.61207        -7.16478        -4.42108
| 45>    N        2.29613        -6.65244        -5.18413
| 46>    C       -1.12298        -9.13174        -1.10472
| 47>    C       -1.76439        -9.17277         0.12213
| 48>    S       -1.47155        -7.72774         1.07713
| 49>    C       -2.57841       -10.22798         0.63325
| 50>    C       -3.25451       -10.15893         1.84218
| 51>    C       -4.04709       -11.19426         2.34014
| 52>    C       -4.22882       -12.40153         1.68221
| 53>    C       -3.54920       -12.52181         0.43748
| 54>    C       -2.74163       -11.44670        -0.08370
| 55>    N       -2.25703       -11.85463        -1.24022
| 56>    O       -2.72175       -13.08148        -1.43021
| 57>    N       -3.49731       -13.50365        -0.44123
| 58>    C       -5.03288       -13.46517         2.19135
| 59>    C       -5.18999       -14.72879         1.64592
| 60>    C       -6.04483       -15.52092         2.40786
| 61>    C       -6.55159       -14.85088         3.53804
| 62>    S       -5.96274       -13.25524         3.66692
| 63>    C       -7.40447       -15.73122         4.24186
| 64>    C       -7.44022       -16.96593         3.55932
| 65>    C       -6.58392       -16.87294         2.38699
| 66>    C       -6.33634       -17.84799         1.46812
| 67>    C       -6.93002       -19.12628         1.55592
| 68>    N       -7.41808       -20.16108         1.62278
| 69>    C       -5.47554       -17.65135         0.36571
| 70>    N       -4.77919       -17.50592        -0.53251
| 71>    C       -8.26746       -17.89491         4.17575
| 72>    C       -8.84224       -17.40216         5.34121
| 73>    S       -8.37696       -15.72666         5.63679
| 74>    C       -9.77379       -18.09594         6.14171
| 75>    C      -10.24584       -17.81492         7.38866
| 76>    C      -11.55139       -18.39028         7.81370
| 77>    O      -12.16207       -19.28421         7.28041
| 78>    C      -11.95780       -17.58126         8.98524
| 79>    C      -10.92318       -16.68891         9.32336
| 80>    C       -9.78462       -16.93506         8.44039
| 81>    C       -8.48107       -16.63368         8.73385
| 82>    C       -7.38875       -17.16539         8.01689
| 83>    N       -6.48189       -17.61864         7.47899
| 84>    C       -8.08779       -15.84383         9.83366
| 85>    N       -7.72691       -15.18777        10.70282
| 86>    C      -11.09083       -15.80070        10.37102
| 87>    C      -12.29165       -15.82110        11.07198
| 88>    C      -13.30796       -16.72119        10.74201
| 89>    C      -13.14436       -17.61145         9.68777
| 90>   Br      -14.92352       -16.73637        11.72182
| 91>   Br      -12.53402       -14.59651        12.49057
| 92>    H        5.62145         1.42541        -2.03381
| 93>    H        4.88907        -1.92850        -5.63561
| 94>    H        2.22334        -2.33338         0.05062
| 95>    H        2.18773        -4.86800        -2.98368
| 96>    H       -1.19357        -9.93721        -1.81289
| 97>    H       -3.16740        -9.25749         2.43128
| 98>    H       -4.53868       -11.04582         3.29067
| 99>    H       -4.69278       -15.02592         0.74044
|100>    H       -8.44163       -18.89732         3.82831
|101>    H      -10.25497       -18.93936         5.65412
|102>    H      -10.32711       -15.09180        10.64850
|103>    H      -13.92414       -18.30907         9.42433
|104> *
|105>
|106>                          ****END OF INPUT****

CARTESIAN COORDINATES (ANGSTROEM)
---------------------------------
  C      3.560170   -2.436860   -3.169620
  O      3.199410   -3.374840   -3.845460
  C      4.452430   -1.349460   -3.621580
  C      4.638290   -0.421580   -2.584070
  C      5.446670    0.684010   -2.796000
  C      6.051990    0.839020   -4.037870
  C      5.858970   -0.090980   -5.062750
  C      5.049240   -1.199840   -4.856010
  Br     6.694630    0.145130   -6.740310
  Br     7.154850    2.347890   -4.321670
  C      3.880920   -0.864190   -1.414760
  C      3.852560   -0.206850   -0.212930
  C      4.543580    0.998430    0.044080
  N      5.075670    1.976310    0.321530
  C      3.156800   -0.604310    0.949600
  N      2.632710   -0.847340    1.942370
  C      3.210650   -2.107440   -1.768470
  C      2.387440   -2.794840   -0.915860
  C      1.705940   -4.018630   -1.049560
  C      1.658940   -4.980810   -2.053880
  C      0.865100   -6.062730   -1.706240
  C      0.284200   -5.936950   -0.421580
  S      0.723620   -4.490400    0.349650
  C     -0.492280   -7.089840   -0.166380
  C     -0.403930   -7.951510   -1.276610
  C      0.444850   -7.330760   -2.283710
  C      0.768890   -7.835490   -3.506590
  C      0.279560   -9.081350   -3.959560
  N     -0.114880  -10.087110   -4.341650
  C      1.612070   -7.164780   -4.421080
  N      2.296130   -6.652440   -5.184130
  C     -1.122980   -9.131740   -1.104720
  C     -1.764390   -9.172770    0.122130
  S     -1.471550   -7.727740    1.077130
  C     -2.578410  -10.227980    0.633250
  C     -3.254510  -10.158930    1.842180
  C     -4.047090  -11.194260    2.340140
  C     -4.228820  -12.401530    1.682210
  C     -3.549200  -12.521810    0.437480
  C     -2.741630  -11.446700   -0.083700
  N     -2.257030  -11.854630   -1.240220
  O     -2.721750  -13.081480   -1.430210
  N     -3.497310  -13.503650   -0.441230
  C     -5.032880  -13.465170    2.191350
  C     -5.189990  -14.728790    1.645920
  C     -6.044830  -15.520920    2.407860
  C     -6.551590  -14.850880    3.538040
  S     -5.962740  -13.255240    3.666920
  C     -7.404470  -15.731220    4.241860
  C     -7.440220  -16.965930    3.559320
  C     -6.583920  -16.872940    2.386990
  C     -6.336340  -17.847990    1.468120
  C     -6.930020  -19.126280    1.555920
  N     -7.418080  -20.161080    1.622780
  C     -5.475540  -17.651350    0.365710
  N     -4.779190  -17.505920   -0.532510
  C     -8.267460  -17.894910    4.175750
  C     -8.842240  -17.402160    5.341210
  S     -8.376960  -15.726660    5.636790
  C     -9.773790  -18.095940    6.141710
  C    -10.245840  -17.814920    7.388660
  C    -11.551390  -18.390280    7.813700
  O    -12.162070  -19.284210    7.280410
  C    -11.957800  -17.581260    8.985240
  C    -10.923180  -16.688910    9.323360
  C     -9.784620  -16.935060    8.440390
  C     -8.481070  -16.633680    8.733850
  C     -7.388750  -17.165390    8.016890
  N     -6.481890  -17.618640    7.478990
  C     -8.087790  -15.843830    9.833660
  N     -7.726910  -15.187770   10.702820
  C    -11.090830  -15.800700   10.371020
  C    -12.291650  -15.821100   11.071980
  C    -13.307960  -16.721190   10.742010
  C    -13.144360  -17.611450    9.687770
  Br   -14.923520  -16.736370   11.721820
  Br   -12.534020  -14.596510   12.490570
  H      5.621450    1.425410   -2.033810
  H      4.889070   -1.928500   -5.635610
  H      2.223340   -2.333380    0.050620
  H      2.187730   -4.868000   -2.983680
  H     -1.193570   -9.937210   -1.812890
  H     -3.167400   -9.257490    2.431280
  H     -4.538680  -11.045820    3.290670
  H     -4.692780  -15.025920    0.740440
  H     -8.441630  -18.897320    3.828310
  H    -10.254970  -18.939360    5.654120
  H    -10.327110  -15.091800   10.648500
  H    -13.924140  -18.309070    9.424330

 Total Charge           Charge          ....    0
 Multiplicity           Mult            ....    1
 Number of Electrons    NEL             ....  646
 Basis Dimension        Dim             .... 1226

ORBITAL ENERGIES
----------------

  NO   OCC          E(Eh)            E(eV)
   0   2.0000    -482.883141    -13139.9183
   1   2.0000    -482.882802    -13139.9091
   2   2.0000    -482.879506    -13139.8194
   3   2.0000    -482.878138    -13139.7821
   4   2.0000     -89.008203     -2422.0363
   5   2.0000     -89.007525     -2422.0179
   6   2.0000     -89.007140     -2422.0074
   7   2.0000     -89.006085     -2421.9787
   8   2.0000     -62.560761     -1702.3649
   9   2.0000     -62.560407     -1702.3552
  10   2.0000     -62.557118     -1702.2657
  11   2.0000     -62.555756     -1702.2287
  12   2.0000     -56.394717     -1534.5783
  13   2.0000     -56.394372     -1534.5689
  14   2.0000     -56.392053     -1534.5058
  15   2.0000     -56.391957     -1534.5032
  16   2.0000     -56.391696     -1534.4961
  17   2.0000     -56.391602     -1534.4935
  18   2.0000     -56.391073     -1534.4791
  19   2.0000     -56.389721     -1534.4423
  20   2.0000     -56.388415     -1534.4068
  21   2.0000     -56.388310     -1534.4039
  22   2.0000     -56.387044     -1534.3695
  23   2.0000     -56.386947     -1534.3668
  24   2.0000     -19.377966      -527.3013
  25   2.0000     -19.232106      -523.3322
  26   2.0000     -19.230072      -523.2769
  27   2.0000     -14.502806      -394.6414
  28   2.0000     -14.502683      -394.6381
  29   2.0000     -14.441151      -392.9637
  30   2.0000     -14.438379      -392.8883
  31   2.0000     -14.437200      -392.8562
  32   2.0000     -14.436239      -392.8300
  33   2.0000     -14.429833      -392.6557
  34   2.0000     -14.429738      -392.6531
  35   2.0000     -14.429069      -392.6349
  36   2.0000     -14.423689      -392.4885
  37   2.0000     -10.382957      -282.5346
  38   2.0000     -10.381930      -282.5067
  39   2.0000     -10.378559      -282.4149
  40   2.0000     -10.377164      -282.3770
  41   2.0000     -10.364491      -282.0321
  42   2.0000     -10.362247      -281.9711
  43   2.0000     -10.361912      -281.9619
  44   2.0000     -10.360913      -281.9348
  45   2.0000     -10.360339      -281.9192
  46   2.0000     -10.358660      -281.8735
  47   2.0000     -10.357375      -281.8385
  48   2.0000     -10.357009      -281.8286
  49   2.0000     -10.356909      -281.8258
  50   2.0000     -10.356675      -281.8195
  51   2.0000     -10.355316      -281.7825
  52   2.0000     -10.354541      -281.7614
  53   2.0000     -10.350325      -281.6467
  54   2.0000     -10.350081      -281.6400
  55   2.0000     -10.349875      -281.6344
  56   2.0000     -10.349374      -281.6208
  57   2.0000     -10.345179      -281.5066
  58   2.0000     -10.344941      -281.5001
  59   2.0000     -10.340937      -281.3912
  60   2.0000     -10.340645      -281.3832
  61   2.0000     -10.339746      -281.3588
  62   2.0000     -10.339306      -281.3468
  63   2.0000     -10.339103      -281.3413
  64   2.0000     -10.338687      -281.3300
  65   2.0000     -10.337908      -281.3088
  66   2.0000     -10.337364      -281.2940
  67   2.0000     -10.336154      -281.2610
  68   2.0000     -10.334786      -281.2238
  69   2.0000     -10.332343      -281.1573
  70   2.0000     -10.331533      -281.1353
  71   2.0000     -10.330482      -281.1067
  72   2.0000     -10.327326      -281.0208
  73   2.0000     -10.326353      -280.9943
  74   2.0000     -10.325917      -280.9825
  75   2.0000     -10.324505      -280.9441
  76   2.0000     -10.324090      -280.9328
  77   2.0000     -10.322547      -280.8908
  78   2.0000     -10.322467      -280.8886
  79   2.0000     -10.322317      -280.8845
  80   2.0000     -10.320556      -280.8366
  81   2.0000     -10.320144      -280.8254
  82   2.0000     -10.319601      -280.8106
  83   2.0000     -10.319272      -280.8017
  84   2.0000     -10.315863      -280.7089
  85   2.0000     -10.315271      -280.6928
  86   2.0000     -10.314983      -280.6850
  87   2.0000     -10.314287      -280.6660
  88   2.0000     -10.313926      -280.6562
  89   2.0000     -10.313651      -280.6487
  90   2.0000     -10.312572      -280.6194
  91   2.0000     -10.312230      -280.6100
  92   2.0000     -10.307477      -280.4807
  93   2.0000      -8.790092      -239.1906
  94   2.0000      -8.789722      -239.1805
  95   2.0000      -8.786445      -239.0913
  96   2.0000      -8.785082      -239.0542
  97   2.0000      -8.102366      -220.4766
  98   2.0000      -8.102091      -220.4691
  99   2.0000      -8.101701      -220.4585
 100   2.0000      -8.100841      -220.4351
 101   2.0000      -6.626251      -180.3095
 102   2.0000      -6.625892      -180.2997
 103   2.0000      -6.622599      -180.2101
 104   2.0000      -6.621263      -180.1737
 105   2.0000      -6.612201      -179.9271
 106   2.0000      -6.611834      -179.9171
 107   2.0000      -6.611413      -179.9057
 108   2.0000      -6.611027      -179.8952
 109   2.0000      -6.608565      -179.8282
 110   2.0000      -6.607763      -179.8064
 111   2.0000      -6.607164      -179.7901
 112   2.0000      -6.606402      -179.7693
 113   2.0000      -6.071611      -165.2169
 114   2.0000      -6.071330      -165.2093
 115   2.0000      -6.070960      -165.1992
 116   2.0000      -6.069940      -165.1715
 117   2.0000      -6.067384      -165.1019
 118   2.0000      -6.067172      -165.0961
 119   2.0000      -6.066781      -165.0855
 120   2.0000      -6.065785      -165.0584
 121   2.0000      -6.064786      -165.0312
 122   2.0000      -6.064463      -165.0224
 123   2.0000      -6.064052      -165.0112
 124   2.0000      -6.063402      -164.9935
 125   2.0000      -2.742135       -74.6173
 126   2.0000      -2.741816       -74.6086
 127   2.0000      -2.738493       -74.5182
 128   2.0000      -2.738377       -74.5150
 129   2.0000      -2.737990       -74.5045
 130   2.0000      -2.737776       -74.4987
 131   2.0000      -2.737401       -74.4885
 132   2.0000      -2.737148       -74.4816
 133   2.0000      -2.734764       -74.4167
 134   2.0000      -2.734081       -74.3981
 135   2.0000      -2.733398       -74.3795
 136   2.0000      -2.732751       -74.3619
 137   2.0000      -2.726598       -74.1945
 138   2.0000      -2.726575       -74.1939
 139   2.0000      -2.726201       -74.1837
 140   2.0000      -2.726191       -74.1834
 141   2.0000      -2.722955       -74.0954
 142   2.0000      -2.722939       -74.0949
 143   2.0000      -2.721562       -74.0575
 144   2.0000      -2.721544       -74.0570
 145   2.0000      -1.334355       -36.3096
 146   2.0000      -1.148188       -31.2438
 147   2.0000      -1.146287       -31.1920
 148   2.0000      -1.062301       -28.9067
 149   2.0000      -1.060856       -28.8674
 150   2.0000      -1.037635       -28.2355
 151   2.0000      -1.036502       -28.2047
 152   2.0000      -1.033906       -28.1340
 153   2.0000      -1.032624       -28.0991
 154   2.0000      -1.031129       -28.0584
 155   2.0000      -1.028945       -27.9990
 156   2.0000      -1.018551       -27.7162
 157   2.0000      -1.017172       -27.6787
 158   2.0000      -1.016337       -27.6559
 159   2.0000      -1.015206       -27.6252
 160   2.0000      -1.013262       -27.5723
 161   2.0000      -1.009693       -27.4751
 162   2.0000      -1.006587       -27.3906
 163   2.0000      -1.004691       -27.3390
 164   2.0000      -0.987367       -26.8676
 165   2.0000      -0.983769       -26.7697
 166   2.0000      -0.974440       -26.5158
 167   2.0000      -0.971768       -26.4432
 168   2.0000      -0.946090       -25.7444
 169   2.0000      -0.939385       -25.5620
 170   2.0000      -0.932952       -25.3869
 171   2.0000      -0.929442       -25.2914
 172   2.0000      -0.926028       -25.1985
 173   2.0000      -0.920506       -25.0483
 174   2.0000      -0.917531       -24.9673
 175   2.0000      -0.914494       -24.8846
 176   2.0000      -0.906105       -24.6564
 177   2.0000      -0.898157       -24.4401
 178   2.0000      -0.887239       -24.1430
 179   2.0000      -0.883394       -24.0384
 180   2.0000      -0.873133       -23.7592
 181   2.0000      -0.872069       -23.7302
 182   2.0000      -0.870291       -23.6818
 183   2.0000      -0.863437       -23.4953
 184   2.0000      -0.861201       -23.4345
 185   2.0000      -0.856949       -23.3188
 186   2.0000      -0.831719       -22.6322
 187   2.0000      -0.812411       -22.1068
 188   2.0000      -0.802821       -21.8459
 189   2.0000      -0.795152       -21.6372
 190   2.0000      -0.793297       -21.5867
 191   2.0000      -0.782969       -21.3057
 192   2.0000      -0.778709       -21.1898
 193   2.0000      -0.774172       -21.0663
 194   2.0000      -0.771982       -21.0067
 195   2.0000      -0.770499       -20.9663
 196   2.0000      -0.748156       -20.3584
 197   2.0000      -0.735104       -20.0032
 198   2.0000      -0.723219       -19.6798
 199   2.0000      -0.716106       -19.4862
 200   2.0000      -0.712389       -19.3851
 201   2.0000      -0.704932       -19.1822
 202   2.0000      -0.704040       -19.1579
 203   2.0000      -0.701496       -19.0887
 204   2.0000      -0.696983       -18.9659
 205   2.0000      -0.696356       -18.9488
 206   2.0000      -0.690000       -18.7758
 207   2.0000      -0.683536       -18.6000
 208   2.0000      -0.667226       -18.1561
 209   2.0000      -0.664358       -18.0781
 210   2.0000      -0.663435       -18.0530
 211   2.0000      -0.656770       -17.8716
 212   2.0000      -0.645429       -17.5630
 213   2.0000      -0.639835       -17.4108
 214   2.0000      -0.635771       -17.3002
 215   2.0000      -0.630761       -17.1639
 216   2.0000      -0.629896       -17.1403
 217   2.0000      -0.629401       -17.1269
 218   2.0000      -0.627401       -17.0724
 219   2.0000      -0.622970       -16.9519
 220   2.0000      -0.619614       -16.8606
 221   2.0000      -0.612236       -16.6598
 222   2.0000      -0.603193       -16.4137
 223   2.0000      -0.598479       -16.2854
 224   2.0000      -0.591927       -16.1072
 225   2.0000      -0.586269       -15.9532
 226   2.0000      -0.584154       -15.8956
 227   2.0000      -0.573199       -15.5975
 228   2.0000      -0.564168       -15.3518
 229   2.0000      -0.563066       -15.3218
 230   2.0000      -0.562619       -15.3096
 231   2.0000      -0.561063       -15.2673
 232   2.0000      -0.557368       -15.1667
 233   2.0000      -0.555536       -15.1169
 234   2.0000      -0.553031       -15.0487
 235   2.0000      -0.552591       -15.0368
 236   2.0000      -0.551002       -14.9935
 237   2.0000      -0.544191       -14.8082
 238   2.0000      -0.541747       -14.7417
 239   2.0000      -0.538382       -14.6501
 240   2.0000      -0.535330       -14.5671
 241   2.0000      -0.526699       -14.3322
 242   2.0000      -0.524972       -14.2852
 243   2.0000      -0.523746       -14.2518
 244   2.0000      -0.522026       -14.2051
 245   2.0000      -0.517849       -14.0914
 246   2.0000      -0.515843       -14.0368
 247   2.0000      -0.513872       -13.9832
 248   2.0000      -0.512810       -13.9543
 249   2.0000      -0.512346       -13.9417
 250   2.0000      -0.511861       -13.9285
 251   2.0000      -0.509393       -13.8613
 252   2.0000      -0.508486       -13.8366
 253   2.0000      -0.504929       -13.7398
 254   2.0000      -0.502164       -13.6646
 255   2.0000      -0.500474       -13.6186
 256   2.0000      -0.498348       -13.5607
 257   2.0000      -0.496674       -13.5152
 258   2.0000      -0.494934       -13.4678
 259   2.0000      -0.487435       -13.2638
 260   2.0000      -0.483763       -13.1639
 261   2.0000      -0.481663       -13.1067
 262   2.0000      -0.471257       -12.8236
 263   2.0000      -0.470737       -12.8094
 264   2.0000      -0.469928       -12.7874
 265   2.0000      -0.467918       -12.7327
 266   2.0000      -0.466238       -12.6870
 267   2.0000      -0.465826       -12.6758
 268   2.0000      -0.464937       -12.6516
 269   2.0000      -0.463778       -12.6200
 270   2.0000      -0.462296       -12.5797
 271   2.0000      -0.461641       -12.5619
 272   2.0000      -0.460807       -12.5392
 273   2.0000      -0.460437       -12.5291
 274   2.0000      -0.459940       -12.5156
 275   2.0000      -0.456041       -12.4095
 276   2.0000      -0.454309       -12.3624
 277   2.0000      -0.453271       -12.3341
 278   2.0000      -0.451820       -12.2947
 279   2.0000      -0.449096       -12.2205
 280   2.0000      -0.448725       -12.2104
 281   2.0000      -0.445768       -12.1300
 282   2.0000      -0.445501       -12.1227
 283   2.0000      -0.442492       -12.0408
 284   2.0000      -0.441900       -12.0247
 285   2.0000      -0.439585       -11.9617
 286   2.0000      -0.438074       -11.9206
 287   2.0000      -0.436856       -11.8875
 288   2.0000      -0.435655       -11.8548
 289   2.0000      -0.435473       -11.8498
 290   2.0000      -0.431726       -11.7478
 291   2.0000      -0.430388       -11.7115
 292   2.0000      -0.426673       -11.6104
 293   2.0000      -0.424707       -11.5569
 294   2.0000      -0.419581       -11.4174
 295   2.0000      -0.417843       -11.3701
 296   2.0000      -0.412913       -11.2359
 297   2.0000      -0.411251       -11.1907
 298   2.0000      -0.409086       -11.1318
 299   2.0000      -0.406402       -11.0588
 300   2.0000      -0.402940       -10.9646
 301   2.0000      -0.396819       -10.7980
 302   2.0000      -0.392353       -10.6765
 303   2.0000      -0.391910       -10.6644
 304   2.0000      -0.389658       -10.6031
 305   2.0000      -0.383897       -10.4464
 306   2.0000      -0.368707       -10.0330
 307   2.0000      -0.365104        -9.9350
 308   2.0000      -0.363646        -9.8953
 309   2.0000      -0.356973        -9.7137
 310   2.0000      -0.354845        -9.6558
 311   2.0000      -0.353423        -9.6171
 312   2.0000      -0.349193        -9.5020
 313   2.0000      -0.348212        -9.4753
 314   2.0000      -0.343369        -9.3435
 315   2.0000      -0.338699        -9.2165
 316   2.0000      -0.335727        -9.1356
 317   2.0000      -0.333954        -9.0873
 318   2.0000      -0.321894        -8.7592
 319   2.0000      -0.318936        -8.6787
 320   2.0000      -0.315183        -8.5766
 321   2.0000      -0.289208        -7.8698
 322   2.0000      -0.263991        -7.1836
 323   0.0000      -0.132472        -3.6047
 324   0.0000      -0.121142        -3.2965
 325   0.0000      -0.099970        -2.7203
 326   0.0000      -0.098436        -2.6786
 327   0.0000      -0.089662        -2.4398

MULLIKEN ATOMIC CHARGES
-----------------------
   0 C :    0.158140
   1 O :   -0.138089
   2 C :   -0.013167
   3 C :    0.033343
   4 C :   -0.009729
   5 C :   -0.025099
   6 C :   -0.013752
   7 C :   -0.022354
   8 Br:    0.019246
   9 Br:    0.024086
  10 C :    0.320238
  11 C :   -0.356360
  12 C :   -0.189051
  13 N :    0.161355
  14 C :   -0.178247
  15 N :    0.150494
  16 C :   -0.088962
  17 C :    0.044475
  18 C :   -0.114371
  19 C :   -0.013489
  20 C :   -0.000763
  21 C :   -0.079788
  22 S :    0.207743
  23 C :   -0.094581
  24 C :    0.037829
  25 C :    0.316394
  26 C :   -0.295474
  27 C :   -0.197567
  28 N :    0.196429
  29 C :   -0.193709
  30 N :    0.198040
  31 C :   -0.064638
  32 C :   -0.108883
  33 S :    0.179322
  34 C :    0.150133
  35 C :   -0.064556
  36 C :   -0.066402
  37 C :    0.152021
  38 C :   -0.046285
  39 C :   -0.041026
  40 N :    0.050416
  41 O :   -0.069123
  42 N :    0.052268
  43 C :   -0.112014
  44 C :   -0.056947
  45 C :    0.034490
  46 C :   -0.089210
  47 S :    0.180506
  48 C :   -0.078629
  49 C :    0.025863
  50 C :    0.303156
  51 C :   -0.288587
  52 C :   -0.189525
  53 N :    0.181654
  54 C :   -0.190431
  55 N :    0.192624
  56 C :    0.000906
  57 C :   -0.083261
  58 S :    0.208227
  59 C :    0.040897
  60 C :   -0.134872
  61 C :    0.141594
  62 O :   -0.132183
  63 C :    0.004702
  64 C :    0.018089
  65 C :    0.242198
  66 C :   -0.313679
  67 C :   -0.213072
  68 N :    0.180296
  69 C :   -0.174817
  70 N :    0.161046
  71 C :   -0.006545
  72 C :   -0.024514
  73 C :   -0.017329
  74 C :   -0.021167
  75 Br:    0.018926
  76 Br:    0.024056
  77 H :    0.008516
  78 H :    0.012567
  79 H :   -0.002177
  80 H :    0.040496
  81 H :    0.032984
  82 H :   -0.001095
  83 H :   -0.001661
  84 H :    0.031446
  85 H :    0.021539
  86 H :    0.036779
  87 H :    0.011406
  88 H :    0.010248
Sum of atomic charges:   -0.0000000

LOEWDIN ATOMIC CHARGES
----------------------
   0 C :    0.087580
   1 O :   -0.127384
   2 C :   -0.041338
   3 C :   -0.013416
   4 C :   -0.006750
   5 C :   -0.118351
   6 C :   -0.121608
   7 C :    0.008387
   8 Br:    0.141628
   9 Br:    0.143095
  10 C :    0.076132
  11 C :   -0.135858
  12 C :   -0.019721
  13 N :   -0.043498
  14 C :   -0.022430
  15 N :   -0.048065
  16 C :   -0.098306
  17 C :    0.043125
  18 C :   -0.175087
  19 C :    0.017606
  20 C :   -0.070186
  21 C :   -0.160246
  22 S :    0.499106
  23 C :   -0.183991
  24 C :   -0.051716
  25 C :    0.070483
  26 C :   -0.084828
  27 C :   -0.020598
  28 N :   -0.014842
  29 C :   -0.023280
  30 N :   -0.009897
  31 C :   -0.016934
  32 C :   -0.154120
  33 S :    0.480033
  34 C :   -0.038288
  35 C :   -0.013330
  36 C :   -0.013904
  37 C :   -0.037444
  38 C :   -0.042856
  39 C :   -0.042643
  40 N :   -0.011950
  41 O :    0.095853
  42 N :   -0.011951
  43 C :   -0.155272
  44 C :   -0.015156
  45 C :   -0.053232
  46 C :   -0.181021
  47 S :    0.482709
  48 C :   -0.152577
  49 C :   -0.069302
  50 C :    0.075029
  51 C :   -0.088030
  52 C :   -0.016692
  53 N :   -0.022896
  54 C :   -0.021385
  55 N :   -0.013503
  56 C :    0.017067
  57 C :   -0.177937
  58 S :    0.513383
  59 C :    0.054247
  60 C :   -0.103904
  61 C :    0.084015
  62 O :   -0.132041
  63 C :   -0.043161
  64 C :   -0.010016
  65 C :    0.059467
  66 C :   -0.139583
  67 C :   -0.039356
  68 N :   -0.041426
  69 C :   -0.022690
  70 N :   -0.041004
  71 C :   -0.009746
  72 C :   -0.117940
  73 C :   -0.123059
  74 C :    0.008282
  75 Br:    0.140830
  76 Br:    0.143966
  77 H :    0.044761
  78 H :    0.048516
  79 H :    0.042000
  80 H :    0.043453
  81 H :    0.043477
  82 H :    0.030006
  83 H :    0.029987
  84 H :    0.043504
  85 H :    0.048405
  86 H :    0.057118
  87 H :    0.044741
  88 H :    0.047751

  Mayer bond orders larger than 0.100000
B(  0-C ,  1-O ) :   2.1730 B(  0-C ,  2-C ) :   0.9527 B(  0-C , 16-C ) :   0.9388
B(  2-C ,  3-C ) :   1.3296 B(  2-C ,  7-C ) :   1.3714 B(  3-C ,  4-C ) :   1.3637
B(  3-C , 10-C ) :   0.9856 B(  4-C ,  5-C ) :   1.3732 B(  4-C , 77-H ) :   0.9773
B(  5-C ,  6-C ) :   1.4181 B(  5-C ,  9-Br) :   1.0597 B(  6-C ,  7-C ) :   1.3491
B(  6-C ,  8-Br) :   1.0365 B(  7-C , 78-H ) :   1.0084 B( 10-C , 11-C ) :   1.6244
B( 10-C , 16-C ) :   1.0885 B( 11-C , 12-C ) :   1.1466 B( 11-C , 14-C ) :   1.1411
B( 12-C , 13-N ) :   2.9683 B( 14-C , 15-N ) :   2.9525 B( 16-C , 17-C ) :   1.5911
B( 17-C , 18-C ) :   1.2273 B( 17-C , 79-H ) :   0.9015 B( 18-C , 19-C ) :   1.3898
B( 18-C , 22-S ) :   1.0769 B( 19-C , 20-C ) :   1.3147 B( 19-C , 80-H ) :   0.9692
B( 20-C , 21-C ) :   1.3771 B( 20-C , 25-C ) :   0.9922 B( 21-C , 22-S ) :   1.1652
B( 21-C , 23-C ) :   1.2044 B( 23-C , 24-C ) :   1.4301 B( 23-C , 33-S ) :   1.1169
B( 24-C , 25-C ) :   0.9916 B( 24-C , 31-C ) :   1.2585 B( 25-C , 26-C ) :   1.7207
B( 26-C , 27-C ) :   1.1404 B( 26-C , 29-C ) :   1.1354 B( 27-C , 28-N ) :   2.9910
B( 29-C , 30-N ) :   2.9966 B( 31-C , 32-C ) :   1.4726 B( 31-C , 81-H ) :   0.9811
B( 32-C , 33-S ) :   1.0989 B( 32-C , 34-C ) :   1.1299 B( 34-C , 35-C ) :   1.4588
B( 34-C , 37-C ) :   0.1139 B( 34-C , 39-C ) :   1.1469 B( 35-C , 36-C ) :   1.2527
B( 35-C , 82-H ) :   0.9848 B( 36-C , 37-C ) :   1.4569 B( 36-C , 83-H ) :   0.9850
B( 37-C , 38-C ) :   1.1483 B( 37-C , 43-C ) :   1.1322 B( 38-C , 39-C ) :   1.1503
B( 38-C , 42-N ) :   1.5946 B( 39-C , 40-N ) :   1.5928 B( 40-N , 41-O ) :   1.0750
B( 40-N , 42-N ) :   0.1802 B( 41-O , 42-N ) :   1.0735 B( 43-C , 44-C ) :   1.4699
B( 43-C , 47-S ) :   1.0990 B( 44-C , 45-C ) :   1.2597 B( 44-C , 84-H ) :   0.9822
B( 45-C , 46-C ) :   1.4288 B( 45-C , 50-C ) :   0.9953 B( 46-C , 47-S ) :   1.1196
B( 46-C , 48-C ) :   1.2109 B( 48-C , 49-C ) :   1.3922 B( 48-C , 58-S ) :   1.1605
B( 49-C , 50-C ) :   0.9880 B( 49-C , 56-C ) :   1.3116 B( 50-C , 51-C ) :   1.7239
B( 51-C , 52-C ) :   1.1325 B( 51-C , 54-C ) :   1.1354 B( 52-C , 53-N ) :   2.9915
B( 54-C , 55-N ) :   2.9906 B( 56-C , 57-C ) :   1.3853 B( 56-C , 85-H ) :   1.0016
B( 57-C , 58-S ) :   1.0811 B( 57-C , 59-C ) :   1.1650 B( 59-C , 60-C ) :   1.6202
B( 59-C , 86-H ) :   0.9455 B( 60-C , 61-C ) :   0.9449 B( 60-C , 65-C ) :   1.0392
B( 61-C , 62-O ) :   2.2739 B( 61-C , 63-C ) :   0.9207 B( 63-C , 64-C ) :   1.3303
B( 63-C , 74-C ) :   1.3762 B( 64-C , 65-C ) :   1.0067 B( 64-C , 71-C ) :   1.3707
B( 65-C , 66-C ) :   1.6589 B( 66-C , 67-C ) :   1.1523 B( 66-C , 69-C ) :   1.1280
B( 67-C , 68-N ) :   3.0246 B( 69-C , 70-N ) :   2.9928 B( 71-C , 72-C ) :   1.3676
B( 71-C , 87-H ) :   0.9831 B( 72-C , 73-C ) :   1.4234 B( 72-C , 76-Br) :   1.0532
B( 73-C , 74-C ) :   1.3533 B( 73-C , 75-Br) :   1.0368 B( 74-C , 88-H ) :   1.0083

-----------------------------------------------------------------------------
         ABSORPTION SPECTRUM VIA TRANSITION ELECTRIC DIPOLE MOMENTS
-----------------------------------------------------------------------------
State   Energy  Wavelength   fosc         T2         TX        TY        TZ
        (cm-1)    (nm)                  (au**2)     (au)      (au)      (au)
-----------------------------------------------------------------------------
   0   13036.5    767.1   1.058984158  26.74260  -3.01454  -3.52697   2.28377
   1   14688.8    680.8   0.105496272   2.36443  -0.71537  -1.34433  -0.21322
   2   19235.8    519.9   1.348087315  23.07193  -2.78628  -3.22615   2.21372
   3   21263.9    470.3   0.408411377   6.32309  -0.74699  -1.92565  -1.43422
   4   21650.2    461.9   0.080201828   1.21954   0.28540   0.89075   0.58708
   5   23401.8    427.3   0.052701160   0.74139   0.33693   0.77392   0.17004
   6   23991.9    416.8   0.019699108   0.27031  -0.21168  -0.41150   0.23700
   7   26740.9    374.0   0.017441038   0.21472  -0.41110   0.01338  -0.21339
   8   26953.1    371.0   0.014644419   0.17887  -0.02231   0.42198   0.01754
   9   27714.8    360.8   0.106077295   1.26005  -0.97770  -0.43791   0.33525
  10   27947.5    357.8   0.200141001   2.35759   0.92057   0.46884  -1.13593
  11   28535.4    350.4   0.067474180   0.77845   0.48670  -0.57305  -0.46173
  12   29075.5    343.9   0.096686327   1.09475  -0.74968   0.26595   0.67971
  13   29188.0    342.6   0.075839481   0.85540   0.56751   0.54546  -0.48559
  14   29294.5    341.4   0.062812496   0.70589  -0.56247   0.01088   0.62402
  15   29733.8    336.3   0.371234298   4.11030   0.58411  -0.98547  -1.67271
  16   29909.8    334.3   0.103675213   1.14114   0.40408  -0.04138  -0.98800
  17   30498.9    327.9   0.095006723   1.02552   0.35668  -0.32740  -0.88945
  18   30585.4    327.0   0.012377961   0.13323  -0.16478  -0.30410   0.11662
  19   31271.4    319.8   0.308682895   3.24968  -0.06686  -1.15109  -1.38571
  20   31920.6    313.3   0.263927954   2.72202   1.06578   0.86558  -0.91482
  21   32459.0    308.1   0.013124332   0.13311  -0.33594   0.14071  -0.02140
  22   32534.3    307.4   0.073676214   0.74552   0.74096   0.22162  -0.38391
  23   32904.4    303.9   0.003921840   0.03924  -0.13092  -0.06397   0.13419
  24   32945.8    303.5   0.170960343   1.70832   0.85993   0.55001  -0.81629
  25   33151.2    301.6   0.126783927   1.25904  -0.12797  -0.89016  -0.67103
  26   33306.9    300.2   0.233366425   2.30664   0.82866   0.74692  -1.03056
  27   33644.2    297.2   0.156509952   1.53147   1.20548   0.00633  -0.27973
  28   34091.5    293.3   0.030578423   0.29529  -0.32911   0.42670  -0.06999
  29   34502.2    289.8   0.191621190   1.82841   0.28323  -0.91900  -0.95059
  30   34888.4    286.6   0.018191985   0.17166   0.08552  -0.12331  -0.38619
  31   35014.8    285.6   0.280908301   2.64112   0.64184  -0.81898  -1.24837
  32   35179.9    284.3   0.020559012   0.19239  -0.25071   0.10971   0.34278
  33   35296.1    283.3   0.481253070   4.48872  -0.59074   0.38935   1.99704
  34   35558.0    281.2   0.072741707   0.67347   0.63560   0.50687  -0.11210
  35   35724.1    279.9   0.287069498   2.64546  -0.58664   0.49180   1.43508
  36   35857.6    278.9   0.004891824   0.04491  -0.03105  -0.11327  -0.17641
  37   35944.7    278.2   0.305839154   2.80114  -1.44321  -0.75803  -0.37905
  38   36035.0    277.5   0.111083059   1.01484   0.95547   0.04101  -0.31659
  39   36407.7    274.7   0.026292508   0.23775   0.23699   0.41832   0.08119
  40   36525.8    273.8   0.018780040   0.16927   0.00616   0.41106   0.01597
  41   36729.4    272.3   0.015008703   0.13453   0.00451  -0.08800   0.35604
  42   36874.0    271.2   0.003938968   0.03517   0.17456   0.02913  -0.06203
  43   36964.1    270.5   0.000166741   0.00149  -0.03043  -0.02364   0.00072
  44   37367.0    267.6   0.080870561   0.71249   0.25634   0.74288   0.30806
  45   37666.0    265.5   0.083662280   0.73123  -0.42600  -0.73296  -0.11193
  46   38052.1    262.8   0.333645203   2.88657   1.14402   1.11962  -0.56943
  47   38511.0    259.7   0.069596521   0.59495   0.33950   0.53138  -0.44420
  48   38796.1    257.8   0.023771755   0.20172   0.21591   0.00832  -0.39374
  49   39053.7    256.1   0.014611216   0.12317  -0.09398   0.15396   0.30106
  50   39145.1    255.5   0.228886409   1.92495  -0.06960  -1.03760  -0.91842
  51   39261.2    254.7   0.090405001   0.75806  -0.41395  -0.70365  -0.30264
  52   39574.7    252.7   0.079350898   0.66010  -0.63085  -0.33249   0.38933
  53   40013.4    249.9   0.009241823   0.07604   0.19397   0.04382   0.19104
  54   40032.3    249.8   0.000836105   0.00688  -0.07921  -0.01655  -0.01812
  55   40056.8    249.6   0.014467079   0.11890   0.19247   0.20212  -0.20249
  56   40158.6    249.0   0.007788274   0.06385  -0.07787  -0.23560   0.04771
  57   40251.8    248.4   0.006665872   0.05452   0.22638  -0.00664  -0.05680

FINAL SINGLE POINT ENERGY    -14798.545512992454

DIPOLE MOMENT
-------------
                                X             Y             Z
Electronic contribution:     -6.18691     102.40424      45.25369
Nuclear contribution   :      3.96331    -101.26069     -44.16462
                        -----------------------------------------
Total Dipole Moment    :     -2.22360       1.14354       1.08907
                        -----------------------------------------
Magnitude (a.u.)       :      2.72730
Magnitude (Debye)      :      6.93224

Rotational constants in cm-1:     0.001240     0.000104     0.000096
Rotational constants in MHz :    37.185757     3.104202     2.892104

                             ****ORCA TERMINATED NORMALLY****
TOTAL RUN TIME: 0 days 0 hours 9 minutes 43 seconds 576 msec
