                         Program Version 4.2.0 -  RELEASE  -
|  1> # ORCA input file
|  2> # SCF done       -211.653927441932          0.000999013545
|  3> ! CAM-B3LYP def2-SVP def2/J RIJCOSX Grid4 TightSCF
|  4> %maxcore 5000
|  5> %tddft
|  6>     Mode sTDDFT
|  7>     Ethresh 5.0
|  8>     maxcore 5000
|  9> end
| 10>
| 11> %pal
| 12>   nprocs 6
| 13>   end
| 14> * xyz 0 1
| 15>    C        4.10313        -1.73251        -0.31352
| 16>    O        3.40119        -2.54452        -0.87153
| 17>    C        5.35948        -1.15424        -0.84129
| 18>    C        5.94926        -0.32567         0.12914
| 19>    C        7.14623         0.31376        -0.15174
| 20>    C        7.72928         0.11943        -1.39849
| 21>    C        7.13367        -0.70347        -2.35688
| 22>    C        5.93870        -1.35304        -2.07737
| 23>   Br        7.94405        -0.94383        -4.04737
| 24>   Br        9.36037         0.99457        -1.78372
| 25>    C        5.09940        -0.30930         1.31679
| 26>    C        5.29726         0.46253         2.42828
| 27>    C        6.40809         1.31534         2.60864
| 28>    N        7.28761         2.02587         2.80365
| 29>    C        4.41653         0.54307         3.53020
| 30>    N        3.75463         0.68733         4.45637
| 31>    C        3.97022        -1.18743         1.06010
| 32>    C        3.04690        -1.59229         1.97093
| 33>    C        1.86662        -2.37122         1.72606
| 34>    C        1.00830        -2.18370         0.63759
| 35>    O        1.30669        -1.13863        -0.14565
| 36>    C        0.83675        -1.00443        -1.47396
| 37>    C       -0.17689        -2.98792         0.48817
| 38>    O       -1.00968        -2.59126        -0.51018
| 39>    C       -2.39894        -2.81082        -0.42045
| 40>    C       -0.45586        -4.02685         1.36111
| 41>    C        0.37519        -4.18890         2.49751
| 42>    C        1.50666        -3.33701         2.69871
| 43>    N        2.16826        -3.63415         3.81230
| 44>    S        1.42923        -4.86819         4.53760
| 45>    N        0.25172        -5.09602         3.46314
| 46>    C       -1.50955        -5.02209         1.17410
| 47>    C       -2.41226        -5.33913         2.20095
| 48>    C       -3.34878        -6.43108         2.08027
| 49>    N       -4.21223        -6.68382         3.08369
| 50>    C       -4.15471        -5.95692         4.16531
| 51>    C       -3.24366        -4.84578         4.26967
| 52>    N       -2.42981        -4.55313         3.29416
| 53>    C       -3.25616        -4.03338         5.43194
| 54>    N       -3.28775        -3.40691         6.38995
| 55>    C       -5.03487        -6.25297         5.23741
| 56>    N       -5.72637        -6.48638         6.12011
| 57>    C       -3.41296        -7.21537         0.92084
| 58>    C       -2.52606        -6.88993        -0.11025
| 59>    C       -1.57579        -5.80538         0.01736
| 60>    N       -0.79590        -5.70306        -1.06835
| 61>    S       -1.21300        -6.83898        -2.11167
| 62>    N       -2.38710        -7.52650        -1.28063
| 63>    C       -4.36940        -8.30365         0.74033
| 64>    C       -4.48531        -9.37305         1.61702
| 65>    O       -3.65363        -9.39598         2.69279
| 66>    C       -4.22298        -9.67280         3.96773
| 67>    C       -5.36239       -10.45860         1.31853
| 68>    O       -5.35283       -11.58700         2.09193
| 69>    C       -4.16751       -12.36831         1.97291
| 70>    C       -6.20773       -10.45386         0.21003
| 71>    C       -6.14761        -9.32601        -0.64632
| 72>    C       -5.20372        -8.27596        -0.39574
| 73>    N       -5.28776        -7.30003        -1.29972
| 74>    S       -6.43080        -7.67447        -2.36151
| 75>    N       -6.88651        -9.08312        -1.72701
| 76>    C       -7.11729       -11.54339        -0.01605
| 77>    C       -7.60962       -11.98939        -1.19562
| 78>    C       -8.85498       -12.80875        -1.22936
| 79>    O       -9.38196       -13.37968        -0.30772
| 80>    C       -9.32689       -12.71250        -2.63077
| 81>    C       -8.37264       -12.02587        -3.40562
| 82>    C       -7.22631       -11.70386        -2.56440
| 83>    C       -5.96301       -11.41551        -3.00093
| 84>    C       -4.84801       -11.39644        -2.13797
| 85>    N       -3.91335       -11.42641        -1.47270
| 86>    C       -5.62979       -11.16572        -4.34739
| 87>    N       -5.31972       -10.91963        -5.42431
| 88>    C       -8.61321       -11.78749        -4.74799
| 89>    C       -9.80569       -12.24186        -5.29876
| 90>    C      -10.74278       -12.93420        -4.52742
| 91>    C      -10.50559       -13.17369        -3.17944
| 92>   Br      -12.34897       -13.55085        -5.30744
| 93>   Br      -10.14868       -11.90338        -7.12554
| 94>    H        7.63794         0.95180         0.56453
| 95>    H        5.47154        -1.99492        -2.80813
| 96>    H        3.22601        -1.39279         3.02086
| 97>    H        0.84858        -1.95908        -1.99823
| 98>    H        1.53678        -0.31746        -1.95108
| 99>    H       -0.16652        -0.57570        -1.50220
|100>    H       -2.69424        -3.75181        -0.89046
|101>    H       -2.86170        -1.98697        -0.96651
|102>    H       -2.74235        -2.79659         0.61632
|103>    H       -4.96803        -8.91408         4.22030
|104>    H       -3.39270        -9.61622         4.66913
|105>    H       -4.68351       -10.65918         4.02144
|106>    H       -4.31471       -13.22554         2.62616
|107>    H       -3.27941       -11.81194         2.28072
|108>    H       -4.03928       -12.70230         0.93961
|109>    H       -7.50617       -12.02205         0.87666
|110>    H       -7.91104       -11.25272        -5.36752
|111>    H      -11.22477       -13.70578        -2.57612
|112> *
|113>
|114>                          ****END OF INPUT****

CARTESIAN COORDINATES (ANGSTROEM)
---------------------------------
  C      4.103130   -1.732510   -0.313520
  O      3.401190   -2.544520   -0.871530
  C      5.359480   -1.154240   -0.841290
  C      5.949260   -0.325670    0.129140
  C      7.146230    0.313760   -0.151740
  C      7.729280    0.119430   -1.398490
  C      7.133670   -0.703470   -2.356880
  C      5.938700   -1.353040   -2.077370
  Br     7.944050   -0.943830   -4.047370
  Br     9.360370    0.994570   -1.783720
  C      5.099400   -0.309300    1.316790
  C      5.297260    0.462530    2.428280
  C      6.408090    1.315340    2.608640
  N      7.287610    2.025870    2.803650
  C      4.416530    0.543070    3.530200
  N      3.754630    0.687330    4.456370
  C      3.970220   -1.187430    1.060100
  C      3.046900   -1.592290    1.970930
  C      1.866620   -2.371220    1.726060
  C      1.008300   -2.183700    0.637590
  O      1.306690   -1.138630   -0.145650
  C      0.836750   -1.004430   -1.473960
  C     -0.176890   -2.987920    0.488170
  O     -1.009680   -2.591260   -0.510180
  C     -2.398940   -2.810820   -0.420450
  C     -0.455860   -4.026850    1.361110
  C      0.375190   -4.188900    2.497510
  C      1.506660   -3.337010    2.698710
  N      2.168260   -3.634150    3.812300
  S      1.429230   -4.868190    4.537600
  N      0.251720   -5.096020    3.463140
  C     -1.509550   -5.022090    1.174100
  C     -2.412260   -5.339130    2.200950
  C     -3.348780   -6.431080    2.080270
  N     -4.212230   -6.683820    3.083690
  C     -4.154710   -5.956920    4.165310
  C     -3.243660   -4.845780    4.269670
  N     -2.429810   -4.553130    3.294160
  C     -3.256160   -4.033380    5.431940
  N     -3.287750   -3.406910    6.389950
  C     -5.034870   -6.252970    5.237410
  N     -5.726370   -6.486380    6.120110
  C     -3.412960   -7.215370    0.920840
  C     -2.526060   -6.889930   -0.110250
  C     -1.575790   -5.805380    0.017360
  N     -0.795900   -5.703060   -1.068350
  S     -1.213000   -6.838980   -2.111670
  N     -2.387100   -7.526500   -1.280630
  C     -4.369400   -8.303650    0.740330
  C     -4.485310   -9.373050    1.617020
  O     -3.653630   -9.395980    2.692790
  C     -4.222980   -9.672800    3.967730
  C     -5.362390  -10.458600    1.318530
  O     -5.352830  -11.587000    2.091930
  C     -4.167510  -12.368310    1.972910
  C     -6.207730  -10.453860    0.210030
  C     -6.147610   -9.326010   -0.646320
  C     -5.203720   -8.275960   -0.395740
  N     -5.287760   -7.300030   -1.299720
  S     -6.430800   -7.674470   -2.361510
  N     -6.886510   -9.083120   -1.727010
  C     -7.117290  -11.543390   -0.016050
  C     -7.609620  -11.989390   -1.195620
  C     -8.854980  -12.808750   -1.229360
  O     -9.381960  -13.379680   -0.307720
  C     -9.326890  -12.712500   -2.630770
  C     -8.372640  -12.025870   -3.405620
  C     -7.226310  -11.703860   -2.564400
  C     -5.963010  -11.415510   -3.000930
  C     -4.848010  -11.396440   -2.137970
  N     -3.913350  -11.426410   -1.472700
  C     -5.629790  -11.165720   -4.347390
  N     -5.319720  -10.919630   -5.424310
  C     -8.613210  -11.787490   -4.747990
  C     -9.805690  -12.241860   -5.298760
  C    -10.742780  -12.934200   -4.527420
  C    -10.505590  -13.173690   -3.179440
  Br   -12.348970  -13.550850   -5.307440
  Br   -10.148680  -11.903380   -7.125540
  H      7.637940    0.951800    0.564530
  H      5.471540   -1.994920   -2.808130
  H      3.226010   -1.392790    3.020860
  H      0.848580   -1.959080   -1.998230
  H      1.536780   -0.317460   -1.951080
  H     -0.166520   -0.575700   -1.502200
  H     -2.694240   -3.751810   -0.890460
  H     -2.861700   -1.986970   -0.966510
  H     -2.742350   -2.796590    0.616320
  H     -4.968030   -8.914080    4.220300
  H     -3.392700   -9.616220    4.669130
  H     -4.683510  -10.659180    4.021440
  H     -4.314710  -13.225540    2.626160
  H     -3.279410  -11.811940    2.280720
  H     -4.039280  -12.702300    0.939610
  H     -7.506170  -12.022050    0.876660
  H     -7.911040  -11.252720   -5.367520
  H    -11.224770  -13.705780   -2.576120

 Total Charge           Charge          ....    0
 Multiplicity           Mult            ....    1
 Number of Electrons    NEL             ....  664
 Basis Dimension        Dim             .... 1280

ORBITAL ENERGIES
----------------

  NO   OCC          E(Eh)            E(eV)
   0   2.0000    -482.881666    -13139.8781
   1   2.0000    -482.881244    -13139.8667
   2   2.0000    -482.878500    -13139.7920
   3   2.0000    -482.876115    -13139.7271
   4   2.0000     -89.058064     -2423.3931
   5   2.0000     -89.037364     -2422.8299
   6   2.0000     -89.021523     -2422.3988
   7   2.0000     -62.559265     -1702.3241
   8   2.0000     -62.558866     -1702.3133
   9   2.0000     -62.556119     -1702.2385
  10   2.0000     -62.553711     -1702.1730
  11   2.0000     -56.393216     -1534.5374
  12   2.0000     -56.392825     -1534.5268
  13   2.0000     -56.390561     -1534.4652
  14   2.0000     -56.390467     -1534.4626
  15   2.0000     -56.390164     -1534.4544
  16   2.0000     -56.390064     -1534.4516
  17   2.0000     -56.390061     -1534.4516
  18   2.0000     -56.387676     -1534.3867
  19   2.0000     -56.387421     -1534.3797
  20   2.0000     -56.387320     -1534.3770
  21   2.0000     -56.385005     -1534.3140
  22   2.0000     -56.384907     -1534.3113
  23   2.0000     -19.274371      -524.4823
  24   2.0000     -19.266404      -524.2655
  25   2.0000     -19.263869      -524.1965
  26   2.0000     -19.263724      -524.1926
  27   2.0000     -19.229070      -523.2496
  28   2.0000     -19.223148      -523.0884
  29   2.0000     -14.471294      -393.7839
  30   2.0000     -14.468797      -393.7160
  31   2.0000     -14.460388      -393.4872
  32   2.0000     -14.460239      -393.4831
  33   2.0000     -14.451919      -393.2567
  34   2.0000     -14.451206      -393.2373
  35   2.0000     -14.440599      -392.9487
  36   2.0000     -14.439907      -392.9299
  37   2.0000     -14.437336      -392.8599
  38   2.0000     -14.435686      -392.8150
  39   2.0000     -14.428572      -392.6214
  40   2.0000     -14.426951      -392.5773
  41   2.0000     -14.418937      -392.3592
  42   2.0000     -14.417311      -392.3150
  43   2.0000     -10.391218      -282.7594
  44   2.0000     -10.388886      -282.6960
  45   2.0000     -10.379967      -282.4533
  46   2.0000     -10.373695      -282.2826
  47   2.0000     -10.373433      -282.2755
  48   2.0000     -10.373258      -282.2707
  49   2.0000     -10.371570      -282.2248
  50   2.0000     -10.369208      -282.1605
  51   2.0000     -10.359835      -281.9054
  52   2.0000     -10.358923      -281.8806
  53   2.0000     -10.356948      -281.8269
  54   2.0000     -10.355653      -281.7916
  55   2.0000     -10.354947      -281.7724
  56   2.0000     -10.354396      -281.7574
  57   2.0000     -10.353304      -281.7277
  58   2.0000     -10.351706      -281.6842
  59   2.0000     -10.351666      -281.6831
  60   2.0000     -10.351036      -281.6660
  61   2.0000     -10.348959      -281.6095
  62   2.0000     -10.345261      -281.5089
  63   2.0000     -10.343090      -281.4498
  64   2.0000     -10.339489      -281.3518
  65   2.0000     -10.339035      -281.3395
  66   2.0000     -10.333423      -281.1867
  67   2.0000     -10.331157      -281.1251
  68   2.0000     -10.330482      -281.1067
  69   2.0000     -10.330431      -281.1053
  70   2.0000     -10.330019      -281.0941
  71   2.0000     -10.329180      -281.0713
  72   2.0000     -10.329041      -281.0675
  73   2.0000     -10.328595      -281.0553
  74   2.0000     -10.327421      -281.0234
  75   2.0000     -10.326546      -280.9996
  76   2.0000     -10.326071      -280.9867
  77   2.0000     -10.325429      -280.9692
  78   2.0000     -10.323924      -280.9283
  79   2.0000     -10.321017      -280.8491
  80   2.0000     -10.319171      -280.7989
  81   2.0000     -10.319039      -280.7953
  82   2.0000     -10.318908      -280.7918
  83   2.0000     -10.318116      -280.7702
  84   2.0000     -10.317620      -280.7567
  85   2.0000     -10.317480      -280.7529
  86   2.0000     -10.316609      -280.7292
  87   2.0000     -10.315751      -280.7059
  88   2.0000     -10.312686      -280.6225
  89   2.0000     -10.311931      -280.6019
  90   2.0000     -10.310021      -280.5499
  91   2.0000     -10.309031      -280.5230
  92   2.0000     -10.303932      -280.3842
  93   2.0000     -10.301106      -280.3074
  94   2.0000     -10.300843      -280.3002
  95   2.0000      -8.788585      -239.1495
  96   2.0000      -8.788186      -239.1387
  97   2.0000      -8.785437      -239.0639
  98   2.0000      -8.783013      -238.9979
  99   2.0000      -8.149099      -221.7483
 100   2.0000      -8.128850      -221.1972
 101   2.0000      -8.113306      -220.7743
 102   2.0000      -6.624707      -180.2674
 103   2.0000      -6.624342      -180.2575
 104   2.0000      -6.621548      -180.1815
 105   2.0000      -6.619180      -180.1170
 106   2.0000      -6.610713      -179.8866
 107   2.0000      -6.610283      -179.8749
 108   2.0000      -6.609926      -179.8652
 109   2.0000      -6.609518      -179.8541
 110   2.0000      -6.607582      -179.8015
 111   2.0000      -6.606784      -179.7797
 112   2.0000      -6.605111      -179.7342
 113   2.0000      -6.604342      -179.7133
 114   2.0000      -6.119878      -166.5303
 115   2.0000      -6.112540      -166.3307
 116   2.0000      -6.112083      -166.3182
 117   2.0000      -6.100090      -165.9919
 118   2.0000      -6.092403      -165.7827
 119   2.0000      -6.091185      -165.7496
 120   2.0000      -6.084647      -165.5717
 121   2.0000      -6.077005      -165.3637
 122   2.0000      -6.075333      -165.3182
 123   2.0000      -2.740637       -74.5765
 124   2.0000      -2.740273       -74.5666
 125   2.0000      -2.737449       -74.4898
 126   2.0000      -2.736844       -74.4733
 127   2.0000      -2.736475       -74.4633
 128   2.0000      -2.736241       -74.4569
 129   2.0000      -2.735834       -74.4458
 130   2.0000      -2.735073       -74.4251
 131   2.0000      -2.733678       -74.3872
 132   2.0000      -2.733122       -74.3720
 133   2.0000      -2.731286       -74.3221
 134   2.0000      -2.730706       -74.3063
 135   2.0000      -2.725108       -74.1540
 136   2.0000      -2.725088       -74.1534
 137   2.0000      -2.724676       -74.1422
 138   2.0000      -2.724675       -74.1422
 139   2.0000      -2.721986       -74.0690
 140   2.0000      -2.721971       -74.0686
 141   2.0000      -2.719507       -74.0015
 142   2.0000      -2.719491       -74.0011
 143   2.0000      -1.187959       -32.3260
 144   2.0000      -1.179952       -32.1081
 145   2.0000      -1.163993       -31.6739
 146   2.0000      -1.154730       -31.4218
 147   2.0000      -1.151993       -31.3473
 148   2.0000      -1.145054       -31.1585
 149   2.0000      -1.138264       -30.9737
 150   2.0000      -1.137056       -30.9409
 151   2.0000      -1.129271       -30.7290
 152   2.0000      -1.124386       -30.5961
 153   2.0000      -1.056322       -28.7440
 154   2.0000      -1.033186       -28.1144
 155   2.0000      -1.025064       -27.8934
 156   2.0000      -1.023246       -27.8439
 157   2.0000      -1.016570       -27.6623
 158   2.0000      -1.012589       -27.5539
 159   2.0000      -1.009145       -27.4602
 160   2.0000      -1.007257       -27.4089
 161   2.0000      -1.006809       -27.3967
 162   2.0000      -0.998466       -27.1696
 163   2.0000      -0.996417       -27.1139
 164   2.0000      -0.992400       -27.0046
 165   2.0000      -0.983280       -26.7564
 166   2.0000      -0.981575       -26.7100
 167   2.0000      -0.977445       -26.5976
 168   2.0000      -0.973546       -26.4915
 169   2.0000      -0.965471       -26.2718
 170   2.0000      -0.927605       -25.2414
 171   2.0000      -0.923463       -25.1287
 172   2.0000      -0.921288       -25.0695
 173   2.0000      -0.917555       -24.9680
 174   2.0000      -0.916392       -24.9363
 175   2.0000      -0.913974       -24.8705
 176   2.0000      -0.908777       -24.7291
 177   2.0000      -0.898412       -24.4470
 178   2.0000      -0.882716       -24.0199
 179   2.0000      -0.876099       -23.8399
 180   2.0000      -0.875652       -23.8277
 181   2.0000      -0.869270       -23.6540
 182   2.0000      -0.859075       -23.3766
 183   2.0000      -0.853980       -23.2380
 184   2.0000      -0.849593       -23.1186
 185   2.0000      -0.839513       -22.8443
 186   2.0000      -0.838900       -22.8276
 187   2.0000      -0.822700       -22.3868
 188   2.0000      -0.811230       -22.0747
 189   2.0000      -0.802791       -21.8451
 190   2.0000      -0.800275       -21.7766
 191   2.0000      -0.794943       -21.6315
 192   2.0000      -0.786406       -21.3992
 193   2.0000      -0.777346       -21.1527
 194   2.0000      -0.770798       -20.9745
 195   2.0000      -0.765506       -20.8305
 196   2.0000      -0.752959       -20.4891
 197   2.0000      -0.742683       -20.2094
 198   2.0000      -0.734857       -19.9965
 199   2.0000      -0.720463       -19.6048
 200   2.0000      -0.718594       -19.5539
 201   2.0000      -0.714469       -19.4417
 202   2.0000      -0.713020       -19.4023
 203   2.0000      -0.707586       -19.2544
 204   2.0000      -0.702517       -19.1165
 205   2.0000      -0.701515       -19.0892
 206   2.0000      -0.694868       -18.9083
 207   2.0000      -0.691189       -18.8082
 208   2.0000      -0.688544       -18.7362
 209   2.0000      -0.681290       -18.5388
 210   2.0000      -0.671157       -18.2631
 211   2.0000      -0.663679       -18.0596
 212   2.0000      -0.656548       -17.8656
 213   2.0000      -0.648001       -17.6330
 214   2.0000      -0.646611       -17.5952
 215   2.0000      -0.638080       -17.3630
 216   2.0000      -0.633289       -17.2327
 217   2.0000      -0.632066       -17.1994
 218   2.0000      -0.626491       -17.0477
 219   2.0000      -0.621138       -16.9020
 220   2.0000      -0.619959       -16.8700
 221   2.0000      -0.618628       -16.8337
 222   2.0000      -0.616248       -16.7690
 223   2.0000      -0.610962       -16.6251
 224   2.0000      -0.606967       -16.5164
 225   2.0000      -0.598061       -16.2741
 226   2.0000      -0.589304       -16.0358
 227   2.0000      -0.586785       -15.9672
 228   2.0000      -0.583220       -15.8702
 229   2.0000      -0.581620       -15.8267
 230   2.0000      -0.575776       -15.6677
 231   2.0000      -0.574707       -15.6386
 232   2.0000      -0.568862       -15.4795
 233   2.0000      -0.565225       -15.3806
 234   2.0000      -0.562500       -15.3064
 235   2.0000      -0.561067       -15.2674
 236   2.0000      -0.559993       -15.2382
 237   2.0000      -0.557204       -15.1623
 238   2.0000      -0.556309       -15.1379
 239   2.0000      -0.555587       -15.1183
 240   2.0000      -0.552677       -15.0391
 241   2.0000      -0.549255       -14.9460
 242   2.0000      -0.546580       -14.8732
 243   2.0000      -0.546066       -14.8592
 244   2.0000      -0.545189       -14.8353
 245   2.0000      -0.542508       -14.7624
 246   2.0000      -0.537721       -14.6321
 247   2.0000      -0.535708       -14.5774
 248   2.0000      -0.533172       -14.5084
 249   2.0000      -0.531652       -14.4670
 250   2.0000      -0.524440       -14.2707
 251   2.0000      -0.523584       -14.2474
 252   2.0000      -0.520310       -14.1584
 253   2.0000      -0.518738       -14.1156
 254   2.0000      -0.513775       -13.9805
 255   2.0000      -0.507364       -13.8061
 256   2.0000      -0.503275       -13.6948
 257   2.0000      -0.501565       -13.6483
 258   2.0000      -0.500016       -13.6061
 259   2.0000      -0.496311       -13.5053
 260   2.0000      -0.495357       -13.4794
 261   2.0000      -0.493515       -13.4292
 262   2.0000      -0.491111       -13.3638
 263   2.0000      -0.489427       -13.3180
 264   2.0000      -0.486686       -13.2434
 265   2.0000      -0.481097       -13.0913
 266   2.0000      -0.475428       -12.9371
 267   2.0000      -0.471184       -12.8216
 268   2.0000      -0.468065       -12.7367
 269   2.0000      -0.467595       -12.7239
 270   2.0000      -0.467208       -12.7134
 271   2.0000      -0.465285       -12.6611
 272   2.0000      -0.464190       -12.6312
 273   2.0000      -0.463371       -12.6090
 274   2.0000      -0.461559       -12.5597
 275   2.0000      -0.460002       -12.5173
 276   2.0000      -0.457366       -12.4456
 277   2.0000      -0.454162       -12.3584
 278   2.0000      -0.453873       -12.3505
 279   2.0000      -0.451641       -12.2898
 280   2.0000      -0.450244       -12.2518
 281   2.0000      -0.449491       -12.2313
 282   2.0000      -0.447686       -12.1822
 283   2.0000      -0.444910       -12.1066
 284   2.0000      -0.443766       -12.0755
 285   2.0000      -0.440359       -11.9828
 286   2.0000      -0.437743       -11.9116
 287   2.0000      -0.434793       -11.8313
 288   2.0000      -0.432384       -11.7658
 289   2.0000      -0.431037       -11.7291
 290   2.0000      -0.429999       -11.7009
 291   2.0000      -0.429400       -11.6846
 292   2.0000      -0.428281       -11.6541
 293   2.0000      -0.427314       -11.6278
 294   2.0000      -0.424058       -11.5392
 295   2.0000      -0.422188       -11.4883
 296   2.0000      -0.420659       -11.4467
 297   2.0000      -0.417617       -11.3639
 298   2.0000      -0.415264       -11.2999
 299   2.0000      -0.412262       -11.2182
 300   2.0000      -0.409526       -11.1438
 301   2.0000      -0.408044       -11.1034
 302   2.0000      -0.406073       -11.0498
 303   2.0000      -0.404735       -11.0134
 304   2.0000      -0.401052       -10.9132
 305   2.0000      -0.399106       -10.8602
 306   2.0000      -0.395465       -10.7611
 307   2.0000      -0.394950       -10.7471
 308   2.0000      -0.392196       -10.6722
 309   2.0000      -0.391113       -10.6427
 310   2.0000      -0.387233       -10.5371
 311   2.0000      -0.382472       -10.4076
 312   2.0000      -0.378285       -10.2937
 313   2.0000      -0.374806       -10.1990
 314   2.0000      -0.370117       -10.0714
 315   2.0000      -0.364213        -9.9107
 316   2.0000      -0.357838        -9.7373
 317   2.0000      -0.353085        -9.6079
 318   2.0000      -0.352488        -9.5917
 319   2.0000      -0.350025        -9.5247
 320   2.0000      -0.348286        -9.4774
 321   2.0000      -0.346859        -9.4385
 322   2.0000      -0.342837        -9.3291
 323   2.0000      -0.337635        -9.1875
 324   2.0000      -0.334636        -9.1059
 325   2.0000      -0.326096        -8.8735
 326   2.0000      -0.322763        -8.7828
 327   2.0000      -0.313827        -8.5397
 328   2.0000      -0.312422        -8.5014
 329   2.0000      -0.305642        -8.3169
 330   2.0000      -0.294210        -8.0059
 331   2.0000      -0.280730        -7.6391
 332   0.0000      -0.127774        -3.4769
 333   0.0000      -0.101080        -2.7505
 334   0.0000      -0.093391        -2.5413
 335   0.0000      -0.075770        -2.0618
 336   0.0000      -0.071004        -1.9321

MULLIKEN ATOMIC CHARGES
-----------------------
   0 C :    0.151153
   1 O :   -0.146562
   2 C :   -0.019743
   3 C :    0.039981
   4 C :   -0.013245
   5 C :   -0.023798
   6 C :   -0.014753
   7 C :   -0.025333
   8 Br:    0.012341
   9 Br:    0.021655
  10 C :    0.296984
  11 C :   -0.333358
  12 C :   -0.188286
  13 N :    0.158848
  14 C :   -0.198540
  15 N :    0.174634
  16 C :   -0.058373
  17 C :   -0.048114
  18 C :   -0.008363
  19 C :    0.154205
  20 O :   -0.293680
  21 C :    0.212085
  22 C :    0.145184
  23 O :   -0.328207
  24 C :    0.212831
  25 C :   -0.069745
  26 C :    0.034361
  27 C :    0.005241
  28 N :   -0.267663
  29 S :    0.501953
  30 N :   -0.285116
  31 C :   -0.013079
  32 C :   -0.052173
  33 C :   -0.020044
  34 N :    0.067458
  35 C :   -0.137203
  36 C :   -0.134488
  37 N :    0.074837
  38 C :   -0.208873
  39 N :    0.243000
  40 C :   -0.215841
  41 N :    0.241185
  42 C :    0.044932
  43 C :    0.032574
  44 C :   -0.014355
  45 N :   -0.265677
  46 S :    0.569930
  47 N :   -0.257355
  48 C :   -0.066323
  49 C :    0.141493
  50 O :   -0.318653
  51 C :    0.171976
  52 C :    0.080698
  53 O :   -0.332436
  54 C :    0.180957
  55 C :    0.020421
  56 C :   -0.010216
  57 C :    0.060808
  58 N :   -0.271561
  59 S :    0.514319
  60 N :   -0.285056
  61 C :   -0.006911
  62 C :   -0.108787
  63 C :    0.137683
  64 O :   -0.124257
  65 C :    0.002102
  66 C :    0.020593
  67 C :    0.320258
  68 C :   -0.334819
  69 C :   -0.174083
  70 N :    0.155373
  71 C :   -0.195832
  72 N :    0.166241
  73 C :   -0.014761
  74 C :   -0.020716
  75 C :   -0.017051
  76 C :   -0.024169
  77 Br:    0.017105
  78 Br:    0.021541
  79 H :    0.008133
  80 H :    0.002296
  81 H :    0.052058
  82 H :    0.036648
  83 H :    0.028697
  84 H :    0.024796
  85 H :    0.029638
  86 H :    0.038446
  87 H :    0.033530
  88 H :    0.034537
  89 H :    0.037174
  90 H :    0.041155
  91 H :    0.041833
  92 H :    0.038215
  93 H :    0.038434
  94 H :    0.035758
  95 H :    0.009197
  96 H :    0.010110
Sum of atomic charges:   -0.0000000

LOEWDIN ATOMIC CHARGES
----------------------
   0 C :    0.084135
   1 O :   -0.135585
   2 C :   -0.041498
   3 C :   -0.011896
   4 C :   -0.006708
   5 C :   -0.119382
   6 C :   -0.123181
   7 C :    0.003059
   8 Br:    0.135876
   9 Br:    0.140912
  10 C :    0.072830
  11 C :   -0.126161
  12 C :   -0.018679
  13 N :   -0.044034
  14 C :   -0.024362
  15 N :   -0.036913
  16 C :   -0.085334
  17 C :    0.098423
  18 C :   -0.074348
  19 C :    0.088787
  20 O :   -0.066954
  21 C :    0.082203
  22 C :    0.058755
  23 O :   -0.084463
  24 C :    0.083490
  25 C :   -0.055752
  26 C :   -0.043345
  27 C :   -0.042050
  28 N :   -0.289234
  29 S :    0.633673
  30 N :   -0.292382
  31 C :   -0.007863
  32 C :   -0.001660
  33 C :   -0.001583
  34 N :    0.008367
  35 C :   -0.026850
  36 C :   -0.026639
  37 N :    0.016077
  38 C :   -0.037406
  39 N :   -0.000371
  40 C :   -0.038522
  41 N :   -0.003649
  42 C :    0.007147
  43 C :   -0.035045
  44 C :   -0.045902
  45 N :   -0.289641
  46 S :    0.711208
  47 N :   -0.270657
  48 C :   -0.028053
  49 C :    0.057617
  50 O :   -0.105819
  51 C :    0.077984
  52 C :    0.067551
  53 O :   -0.116130
  54 C :    0.085417
  55 C :   -0.059954
  56 C :   -0.047380
  57 C :   -0.035803
  58 N :   -0.284642
  59 S :    0.644541
  60 N :   -0.285164
  61 C :    0.079932
  62 C :   -0.076092
  63 C :    0.086434
  64 O :   -0.125740
  65 C :   -0.043136
  66 C :   -0.005500
  67 C :    0.081261
  68 C :   -0.133610
  69 C :   -0.011058
  70 N :   -0.052742
  71 C :   -0.022913
  72 N :   -0.047063
  73 C :   -0.009231
  74 C :   -0.117829
  75 C :   -0.123649
  76 C :    0.007959
  77 Br:    0.139736
  78 Br:    0.142380
  79 H :    0.044776
  80 H :    0.044420
  81 H :    0.051141
  82 H :    0.023051
  83 H :    0.022272
  84 H :    0.015961
  85 H :    0.017051
  86 H :    0.028281
  87 H :    0.023775
  88 H :    0.017454
  89 H :    0.028068
  90 H :    0.015552
  91 H :    0.028621
  92 H :    0.017562
  93 H :    0.022516
  94 H :    0.051613
  95 H :    0.044330
  96 H :    0.047357

  Mayer bond orders larger than 0.100000
B(  0-C ,  1-O ) :   2.2136 B(  0-C ,  2-C ) :   0.9440 B(  0-C , 16-C ) :   0.9450
B(  2-C ,  3-C ) :   1.3276 B(  2-C ,  7-C ) :   1.3696 B(  3-C ,  4-C ) :   1.3613
B(  3-C , 10-C ) :   0.9942 B(  4-C ,  5-C ) :   1.3715 B(  4-C , 79-H ) :   0.9798
B(  5-C ,  6-C ) :   1.4205 B(  5-C ,  9-Br) :   1.0576 B(  6-C ,  7-C ) :   1.3520
B(  6-C ,  8-Br) :   1.0328 B(  7-C , 80-H ) :   1.0084 B( 10-C , 11-C ) :   1.6655
B( 10-C , 16-C ) :   1.0533 B( 11-C , 12-C ) :   1.1379 B( 11-C , 14-C ) :   1.1381
B( 12-C , 13-N ) :   2.9731 B( 14-C , 15-N ) :   2.9921 B( 16-C , 17-C ) :   1.6385
B( 17-C , 18-C ) :   1.1210 B( 17-C , 81-H ) :   0.9351 B( 18-C , 19-C ) :   1.4349
B( 18-C , 25-C ) :   0.1090 B( 18-C , 27-C ) :   1.1683 B( 19-C , 20-O ) :   1.2506
B( 19-C , 22-C ) :   1.0768 B( 20-O , 21-C ) :   0.9055 B( 21-C , 82-H ) :   0.9744
B( 21-C , 83-H ) :   0.9759 B( 21-C , 84-H ) :   0.9767 B( 22-C , 23-O ) :   1.1849
B( 22-C , 25-C ) :   1.4593 B( 23-O , 24-C ) :   0.9374 B( 24-C , 85-H ) :   0.9672
B( 24-C , 86-H ) :   0.9742 B( 24-C , 87-H ) :   0.9572 B( 25-C , 26-C ) :   1.2347
B( 25-C , 31-C ) :   0.9176 B( 26-C , 27-C ) :   1.1607 B( 26-C , 30-N ) :   1.5397
B( 27-C , 28-N ) :   1.5823 B( 28-N , 29-S ) :   1.2441 B( 28-N , 30-N ) :   0.1418
B( 29-S , 30-N ) :   1.2495 B( 31-C , 32-C ) :   1.3333 B( 31-C , 42-C ) :   0.1540
B( 31-C , 44-C ) :   1.2917 B( 32-C , 33-C ) :   1.0945 B( 32-C , 37-N ) :   1.4054
B( 33-C , 34-N ) :   1.4242 B( 33-C , 42-C ) :   1.3667 B( 34-N , 35-C ) :   1.7565
B( 35-C , 36-C ) :   1.1741 B( 35-C , 40-C ) :   1.1478 B( 36-C , 37-N ) :   1.7620
B( 36-C , 38-C ) :   1.1470 B( 38-C , 39-N ) :   3.0510 B( 40-C , 41-N ) :   3.0375
B( 42-C , 43-C ) :   1.3198 B( 42-C , 48-C ) :   0.9040 B( 43-C , 44-C ) :   1.0993
B( 43-C , 47-N ) :   1.4746 B( 44-C , 45-N ) :   1.4812 B( 45-N , 46-S ) :   1.3042
B( 45-N , 47-N ) :   0.1625 B( 46-S , 47-N ) :   1.3237 B( 48-C , 49-C ) :   1.5179
B( 48-C , 55-C ) :   0.1260 B( 48-C , 57-C ) :   1.2692 B( 49-C , 50-O ) :   1.2039
B( 49-C , 52-C ) :   1.0940 B( 50-O , 51-C ) :   0.9065 B( 51-C , 88-H ) :   0.9637
B( 51-C , 89-H ) :   0.9826 B( 51-C , 90-H ) :   0.9629 B( 52-C , 53-O ) :   1.1906
B( 52-C , 55-C ) :   1.4323 B( 53-O , 54-C ) :   0.8995 B( 54-C , 91-H ) :   0.9809
B( 54-C , 92-H ) :   0.9678 B( 54-C , 93-H ) :   0.9652 B( 55-C , 56-C ) :   1.1591
B( 55-C , 61-C ) :   1.0591 B( 56-C , 57-C ) :   1.1624 B( 56-C , 60-N ) :   1.5347
B( 57-C , 58-N ) :   1.5304 B( 58-N , 59-S ) :   1.2665 B( 58-N , 60-N ) :   0.1432
B( 59-S , 60-N ) :   1.2489 B( 61-C , 62-C ) :   1.6947 B( 61-C , 94-H ) :   0.9492
B( 62-C , 63-C ) :   0.9342 B( 62-C , 67-C ) :   1.0239 B( 63-C , 64-O ) :   2.2911
B( 63-C , 65-C ) :   0.9174 B( 65-C , 66-C ) :   1.3253 B( 65-C , 76-C ) :   1.3702
B( 66-C , 67-C ) :   1.0161 B( 66-C , 73-C ) :   1.3697 B( 67-C , 68-C ) :   1.6592
B( 68-C , 69-C ) :   1.1686 B( 68-C , 71-C ) :   1.1390 B( 69-C , 70-N ) :   2.9620
B( 71-C , 72-N ) :   2.9937 B( 73-C , 74-C ) :   1.3679 B( 73-C , 95-H ) :   0.9841
B( 74-C , 75-C ) :   1.4184 B( 74-C , 78-Br) :   1.0527 B( 75-C , 76-C ) :   1.3584
B( 75-C , 77-Br) :   1.0362 B( 76-C , 96-H ) :   1.0073

-----------------------------------------------------------------------------
         ABSORPTION SPECTRUM VIA TRANSITION ELECTRIC DIPOLE MOMENTS
-----------------------------------------------------------------------------
State   Energy  Wavelength   fosc         T2         TX        TY        TZ
        (cm-1)    (nm)                  (au**2)     (au)      (au)      (au)
-----------------------------------------------------------------------------
   0   16142.4    619.5   0.387803450   7.90895  -2.04480  -1.88848  -0.40172
   1   19193.2    521.0   0.011491441   0.19711  -0.36574   0.22694   0.10882
   2   20004.8    499.9   0.040137879   0.66054   0.36448   0.43405   0.58249
   3   22839.4    437.8   0.667356463   9.61941  -2.49060  -1.76596  -0.54563
   4   23379.0    427.7   0.137440604   1.93537   0.05978   0.81570   1.12536
   5   24919.9    401.3   0.017664427   0.23336   0.31778   0.01266   0.36362
   6   25725.9    388.7   0.016447965   0.21048   0.23680   0.19186  -0.34292
   7   26510.3    377.2   0.036721179   0.45601   0.61211   0.09280   0.26967
   8   26573.4    376.3   0.032015383   0.39663   0.59635  -0.02230  -0.20125
   9   26771.6    373.5   0.009886961   0.12158   0.17206   0.05514   0.29822
  10   27548.2    363.0   0.117783983   1.40757  -0.35831  -1.03625   0.45316
  11   28074.6    356.2   0.013438528   0.15758   0.15248  -0.09314  -0.35449
  12   28897.4    346.1   0.007867405   0.08963  -0.19550  -0.06546  -0.21708
  13   29209.6    342.4   0.213063096   2.40136   0.71621  -0.28186  -1.34498
  14   29431.4    339.8   0.022109799   0.24731  -0.40423   0.01437  -0.28932
  15   29607.9    337.7   0.023965255   0.26647  -0.35535   0.27780   0.25105
  16   29830.0    335.2   0.083386702   0.92028   0.35069   0.67467  -0.58491
  17   30278.0    330.3   0.014521728   0.15789   0.28571   0.15158  -0.23083
  18   30446.7    328.4   0.168451857   1.82142  -0.94074  -0.30057  -0.91983
  19   30780.7    324.9   0.021702023   0.23211  -0.05047   0.47208   0.08186
  20   30949.6    323.1   0.006844503   0.07281  -0.17032  -0.16239   0.13201
  21   31408.0    318.4   0.090476322   0.94835   0.41969   0.01717  -0.87859
  22   31701.3    315.4   0.018139940   0.18838  -0.01652   0.06849   0.42827
  23   31987.0    312.6   0.027894693   0.28709   0.50621   0.11704   0.13094
  24   32263.1    310.0   0.054105346   0.55209  -0.58595  -0.37038  -0.26752
  25   32408.5    308.6   0.013444502   0.13657   0.13682  -0.05697  -0.33853
  26   32523.2    307.5   0.017087780   0.17297  -0.39105   0.09081   0.10865
  27   32851.2    304.4   0.079286612   0.79456   0.57526   0.62153   0.27808
  28   33144.8    301.7   0.007985169   0.07931  -0.01003  -0.12257  -0.25336
  29   33299.8    300.3   0.085714145   0.84740   0.44951   0.00001  -0.80333
  30   33534.5    298.2   0.102455122   1.00581  -0.13587   0.66508   0.73826
  31   33674.1    297.0   0.038965313   0.38094   0.07055   0.26846   0.55127
  32   33868.1    295.3   0.072292736   0.70272  -0.02647   0.18398  -0.81742
  33   34119.6    293.1   0.079726722   0.76927   0.84272   0.23467  -0.06333
  34   34316.8    291.4   0.112953821   1.08360   0.63961   0.00877  -0.82123
  35   34400.6    290.7   0.060240859   0.57650  -0.61003  -0.20740  -0.40169
  36   34522.3    289.7   0.425933882   4.06180   1.76027   0.78607   0.58765
  37   34929.3    286.3   0.527619792   4.97287   1.05366  -0.53111  -1.89225
  38   35089.8    285.0   0.029316567   0.27505   0.49781   0.08187   0.14328
  39   35294.7    283.3   0.131904100   1.23034  -0.98601  -0.47064   0.19136
  40   35402.8    282.5   0.307441381   2.85891  -0.09332  -0.85561  -1.45538
  41   35795.2    279.4   0.069299734   0.63736  -0.00902   0.04817   0.79684
  42   35956.1    278.1   0.061385960   0.56205   0.54601  -0.34157  -0.38373
  43   36217.7    276.1   0.002384178   0.02167  -0.02540   0.05411   0.13453
  44   36472.1    274.2   0.050935081   0.45976   0.16461  -0.28632   0.59219
  45   36638.4    272.9   0.045073382   0.40500  -0.17758  -0.08244   0.60553
  46   36724.3    272.3   0.107096542   0.96006  -0.33245   0.31433  -0.86645
  47   36954.3    270.6   0.046521589   0.41444   0.23027   0.16235  -0.57884
  48   37163.3    269.1   0.032442063   0.28739   0.11420   0.42129  -0.31122
  49   37314.9    268.0   0.014158484   0.12491   0.34305   0.05134  -0.06780
  50   37401.5    267.4   0.027074113   0.23831   0.05885   0.35659   0.32816
  51   37553.5    266.3   0.023525718   0.20624  -0.05344   0.07243   0.44512
  52   37666.0    265.5   0.018519091   0.16186   0.14307  -0.10892  -0.35990
  53   37976.4    263.3   0.013891519   0.12042  -0.05769   0.30378   0.15753
  54   37998.2    263.2   0.020578293   0.17829   0.21732  -0.33244   0.14334
  55   38085.3    262.6   0.067875142   0.58672  -0.37889   0.33793  -0.57355
  56   38251.4    261.4   0.035494159   0.30548   0.00572  -0.13102  -0.53692
  57   38289.4    261.2   0.027247349   0.23427  -0.07045   0.12722   0.46165
  58   38471.7    259.9   0.071266013   0.60984   0.07220  -0.18340   0.75564
  59   38832.5    257.5   0.014894808   0.12627   0.22852  -0.10660   0.25038
  60   38901.2    257.1   0.006480326   0.05484  -0.00652   0.06278  -0.22552
  61   39188.1    255.2   0.008868775   0.07450   0.10021   0.11442  -0.22665
  62   39315.5    254.4   0.006601239   0.05528  -0.13232  -0.19016   0.04011
  63   39400.6    253.8   0.147470972   1.23219   0.48496   0.56405  -0.82393
  64   39806.7    251.2   0.175536322   1.45173   0.02765  -0.28443   1.17050
  65   40001.3    250.0   0.021601006   0.17778  -0.25209   0.04554  -0.33489
  66   40088.1    249.5   0.108963081   0.89483  -0.78323  -0.32778   0.41707
  67   40135.1    249.2   0.093613922   0.76788  -0.64348  -0.46500   0.37093
  68   40276.1    248.3   0.015000723   0.12261  -0.07170  -0.16256  -0.30174
  69   40279.2    248.3   0.000329544   0.00269  -0.01971   0.02437   0.04136
  70   40313.7    248.1   0.007311765   0.05971  -0.14589   0.18193   0.07300

FINAL SINGLE POINT ENERGY    -14696.081758651002

DIPOLE MOMENT
-------------
                                X             Y             Z
Electronic contribution:     26.03793      -1.33000    -163.23540
Nuclear contribution   :    -27.53524      -0.36243     160.27914
                        -----------------------------------------
Total Dipole Moment    :     -1.49731      -1.69244      -2.95626
                        -----------------------------------------
Magnitude (a.u.)       :      3.72099
Magnitude (Debye)      :      9.45800

Rotational constants in cm-1:     0.001082     0.000188     0.000167
Rotational constants in MHz :    32.423928     5.649424     5.018562

                             ****ORCA TERMINATED NORMALLY****
TOTAL RUN TIME: 0 days 0 hours 11 minutes 38 seconds 434 msec
