                         Program Version 4.2.0 -  RELEASE  -
|  1> # ORCA input file
|  2> # SCF done       -202.605100666146          0.000708389512
|  3> ! CAM-B3LYP def2-SVP def2/J RIJCOSX Grid4 TightSCF
|  4> %maxcore 5000
|  5> %tddft
|  6>     Mode sTDDFT
|  7>     Ethresh 5.0
|  8>     maxcore 5000
|  9> end
| 10>
| 11> %pal
| 12>   nprocs 6
| 13>   end
| 14> * xyz 0 1
| 15>    C      -10.52873        -4.66554         9.64979
| 16>    O      -10.91723        -5.55221         8.91675
| 17>    C      -11.35892        -3.98417        10.66700
| 18>    C      -10.58803        -3.02953        11.34887
| 19>    C      -11.17428        -2.26237        12.34211
| 20>    C      -12.51787        -2.46703        12.63651
| 21>    C      -13.27305        -3.42338        11.95571
| 22>    C      -12.69055        -4.19314        10.95755
| 23>   Br      -15.09697        -3.68337        12.37921
| 24>   Br      -13.31757        -1.41544        13.98994
| 25>    C       -9.22642        -3.06205        10.81586
| 26>    C       -8.18402        -2.31950        11.30845
| 27>    C       -8.30617        -1.39948        12.37241
| 28>    N       -8.33631        -0.63355        13.22658
| 29>    C       -6.84159        -2.35924        10.87398
| 30>    N       -5.72561        -2.32831        10.60345
| 31>    C       -9.19782        -4.03399         9.73640
| 32>    C       -8.09906        -4.23353         8.93277
| 33>    C       -7.86487        -5.10804         7.86424
| 34>    C       -8.62808        -6.11937         7.27428
| 35>    C       -7.97707        -6.72879         6.22598
| 36>    C       -6.69409        -6.19829         5.98756
| 37>    S       -6.29023        -4.94406         7.07046
| 38>    C       -6.12043        -6.87108         4.89462
| 39>    C       -7.02340        -7.83669         4.42219
| 40>    C       -8.28973        -7.83186         5.24312
| 41>    C       -9.50900        -7.48679         4.38329
| 42>    C       -8.49605        -9.17249         5.95445
| 43>    C       -6.54659        -8.53706         3.33263
| 44>    C       -5.27140        -8.11208         2.95795
| 45>    S       -4.66397        -6.82717         3.98849
| 46>    C       -4.52370        -8.60346         1.87615
| 47>    C       -4.91596        -9.59899         0.96690
| 48>    C       -3.93034        -9.84491        -0.04834
| 49>    N       -4.11841       -10.75162        -1.00452
| 50>    C       -5.25369       -11.41765        -0.98126
| 51>    C       -5.46881       -12.43450        -2.03927
| 52>    O       -4.64722       -12.66880        -2.90045
| 53>    C       -6.75838       -13.14368        -1.96537
| 54>    C       -7.68168       -12.91350        -1.02550
| 55>    C       -7.52026       -11.92197         0.04996
| 56>    O       -8.37135       -11.72967         0.89447
| 57>    C       -6.23966       -11.17323         0.02621
| 58>    N       -6.06327       -10.27949         0.97666
| 59>    C       -2.78545        -9.04699         0.07785
| 60>    S       -2.94160        -8.00690         1.45939
| 61>    C       -1.68628        -9.05837        -0.79170
| 62>    C       -0.51838        -8.29921        -0.70623
| 63>    C        0.33399        -8.55018        -1.76088
| 64>    C       -0.18216        -9.50028        -2.65832
| 65>    S       -1.72129       -10.10387        -2.19642
| 66>    C        0.72992        -9.66012        -3.71896
| 67>    C        1.83738        -8.82144        -3.50441
| 68>    C        1.68287        -8.04795        -2.21749
| 69>    C        2.77838        -8.40093        -1.20715
| 70>    C        1.65553        -6.54128        -2.49105
| 71>    C        2.74317        -8.85538        -4.54085
| 72>    C        2.35088        -9.72071        -5.56606
| 73>    S        0.83691       -10.52961        -5.18330
| 74>    C        2.99482       -10.03110        -6.77330
| 75>    C        3.99403        -9.35986        -7.42775
| 76>    C        4.80370       -10.09457        -8.43158
| 77>    O        4.57833       -11.18894        -8.89260
| 78>    C        5.96742        -9.21979        -8.70395
| 79>    C        5.81227        -8.00744        -8.00792
| 80>    C        4.51972        -8.02134        -7.31937
| 81>    C        3.85316        -6.89766        -6.89799
| 82>    C        2.50232        -6.87892        -6.49901
| 83>    N        1.39803        -6.79271        -6.19707
| 84>    C        4.41724        -5.60580        -6.88740
| 85>    N        4.84189        -4.54137        -6.82207
| 86>    C        6.79890        -7.04007        -8.08145
| 87>    C        7.92459        -7.29670        -8.85706
| 88>    C        8.06306        -8.49554        -9.55833
| 89>    C        7.07668        -9.47156        -9.48292
| 90>   Br        9.59732        -8.81177       -10.61650
| 91>   Br        9.28220        -5.98337        -8.94419
| 92>    H      -10.62750        -1.51280        12.89012
| 93>    H      -13.26173        -4.93498        10.42132
| 94>    H       -7.25044        -3.59295         9.14146
| 95>    H       -9.61410        -6.36283         7.62427
| 96>    H       -9.35930        -6.53729         3.87421
| 97>    H      -10.39348        -7.41083         5.01006
| 98>    H       -9.66755        -8.26215         3.63857
| 99>    H       -7.62936        -9.41739         6.56441
|100>    H       -8.64237        -9.96103         5.22116
|101>    H       -9.37115        -9.11901         6.59656
|102>    H       -7.05724        -9.31804         2.79908
|103>    H       -6.91669       -13.88322        -2.73870
|104>    H       -8.61553       -13.45915        -1.00913
|105>    H       -0.34296        -7.60795         0.09866
|106>    H        2.78700        -9.47137        -1.01464
|107>    H        2.60226        -7.87887        -0.27034
|108>    H        3.75108        -8.10768        -1.59356
|109>    H        0.91940        -6.31053        -3.25708
|110>    H        2.62964        -6.20761        -2.83932
|111>    H        1.40363        -6.00044        -1.58267
|112>    H        3.67413        -8.31785        -4.56043
|113>    H        2.71041       -10.97058        -7.23809
|114>    H        6.72663        -6.10398        -7.55143
|115>    H        7.17444       -10.40242       -10.01952
|116> *
|117>
|118>                          ****END OF INPUT****

CARTESIAN COORDINATES (ANGSTROEM)
---------------------------------
  C    -10.528730   -4.665540    9.649790
  O    -10.917230   -5.552210    8.916750
  C    -11.358920   -3.984170   10.667000
  C    -10.588030   -3.029530   11.348870
  C    -11.174280   -2.262370   12.342110
  C    -12.517870   -2.467030   12.636510
  C    -13.273050   -3.423380   11.955710
  C    -12.690550   -4.193140   10.957550
  Br   -15.096970   -3.683370   12.379210
  Br   -13.317570   -1.415440   13.989940
  C     -9.226420   -3.062050   10.815860
  C     -8.184020   -2.319500   11.308450
  C     -8.306170   -1.399480   12.372410
  N     -8.336310   -0.633550   13.226580
  C     -6.841590   -2.359240   10.873980
  N     -5.725610   -2.328310   10.603450
  C     -9.197820   -4.033990    9.736400
  C     -8.099060   -4.233530    8.932770
  C     -7.864870   -5.108040    7.864240
  C     -8.628080   -6.119370    7.274280
  C     -7.977070   -6.728790    6.225980
  C     -6.694090   -6.198290    5.987560
  S     -6.290230   -4.944060    7.070460
  C     -6.120430   -6.871080    4.894620
  C     -7.023400   -7.836690    4.422190
  C     -8.289730   -7.831860    5.243120
  C     -9.509000   -7.486790    4.383290
  C     -8.496050   -9.172490    5.954450
  C     -6.546590   -8.537060    3.332630
  C     -5.271400   -8.112080    2.957950
  S     -4.663970   -6.827170    3.988490
  C     -4.523700   -8.603460    1.876150
  C     -4.915960   -9.598990    0.966900
  C     -3.930340   -9.844910   -0.048340
  N     -4.118410  -10.751620   -1.004520
  C     -5.253690  -11.417650   -0.981260
  C     -5.468810  -12.434500   -2.039270
  O     -4.647220  -12.668800   -2.900450
  C     -6.758380  -13.143680   -1.965370
  C     -7.681680  -12.913500   -1.025500
  C     -7.520260  -11.921970    0.049960
  O     -8.371350  -11.729670    0.894470
  C     -6.239660  -11.173230    0.026210
  N     -6.063270  -10.279490    0.976660
  C     -2.785450   -9.046990    0.077850
  S     -2.941600   -8.006900    1.459390
  C     -1.686280   -9.058370   -0.791700
  C     -0.518380   -8.299210   -0.706230
  C      0.333990   -8.550180   -1.760880
  C     -0.182160   -9.500280   -2.658320
  S     -1.721290  -10.103870   -2.196420
  C      0.729920   -9.660120   -3.718960
  C      1.837380   -8.821440   -3.504410
  C      1.682870   -8.047950   -2.217490
  C      2.778380   -8.400930   -1.207150
  C      1.655530   -6.541280   -2.491050
  C      2.743170   -8.855380   -4.540850
  C      2.350880   -9.720710   -5.566060
  S      0.836910  -10.529610   -5.183300
  C      2.994820  -10.031100   -6.773300
  C      3.994030   -9.359860   -7.427750
  C      4.803700  -10.094570   -8.431580
  O      4.578330  -11.188940   -8.892600
  C      5.967420   -9.219790   -8.703950
  C      5.812270   -8.007440   -8.007920
  C      4.519720   -8.021340   -7.319370
  C      3.853160   -6.897660   -6.897990
  C      2.502320   -6.878920   -6.499010
  N      1.398030   -6.792710   -6.197070
  C      4.417240   -5.605800   -6.887400
  N      4.841890   -4.541370   -6.822070
  C      6.798900   -7.040070   -8.081450
  C      7.924590   -7.296700   -8.857060
  C      8.063060   -8.495540   -9.558330
  C      7.076680   -9.471560   -9.482920
  Br     9.597320   -8.811770  -10.616500
  Br     9.282200   -5.983370   -8.944190
  H    -10.627500   -1.512800   12.890120
  H    -13.261730   -4.934980   10.421320
  H     -7.250440   -3.592950    9.141460
  H     -9.614100   -6.362830    7.624270
  H     -9.359300   -6.537290    3.874210
  H    -10.393480   -7.410830    5.010060
  H     -9.667550   -8.262150    3.638570
  H     -7.629360   -9.417390    6.564410
  H     -8.642370   -9.961030    5.221160
  H     -9.371150   -9.119010    6.596560
  H     -7.057240   -9.318040    2.799080
  H     -6.916690  -13.883220   -2.738700
  H     -8.615530  -13.459150   -1.009130
  H     -0.342960   -7.607950    0.098660
  H      2.787000   -9.471370   -1.014640
  H      2.602260   -7.878870   -0.270340
  H      3.751080   -8.107680   -1.593560
  H      0.919400   -6.310530   -3.257080
  H      2.629640   -6.207610   -2.839320
  H      1.403630   -6.000440   -1.582670
  H      3.674130   -8.317850   -4.560430
  H      2.710410  -10.970580   -7.238090
  H      6.726630   -6.103980   -7.551430
  H      7.174440  -10.402420  -10.019520

 Total Charge           Charge          ....    0
 Multiplicity           Mult            ....    1
 Number of Electrons    NEL             ....  666
 Basis Dimension        Dim             .... 1290

ORBITAL ENERGIES
----------------

  NO   OCC          E(Eh)            E(eV)
   0   2.0000    -482.875429    -13139.7084
   1   2.0000    -482.874685    -13139.6882
   2   2.0000    -482.874621    -13139.6865
   3   2.0000    -482.872215    -13139.6210
   4   2.0000     -89.006366     -2421.9864
   5   2.0000     -88.985123     -2421.4083
   6   2.0000     -88.980335     -2421.2780
   7   2.0000     -88.980288     -2421.2767
   8   2.0000     -88.977325     -2421.1961
   9   2.0000     -62.553055     -1702.1552
  10   2.0000     -62.552284     -1702.1342
  11   2.0000     -62.552206     -1702.1320
  12   2.0000     -62.549826     -1702.0673
  13   2.0000     -56.387000     -1534.3683
  14   2.0000     -56.386240     -1534.3476
  15   2.0000     -56.386150     -1534.3451
  16   2.0000     -56.384350     -1534.2962
  17   2.0000     -56.384263     -1534.2938
  18   2.0000     -56.383785     -1534.2808
  19   2.0000     -56.383577     -1534.2751
  20   2.0000     -56.383508     -1534.2733
  21   2.0000     -56.383487     -1534.2727
  22   2.0000     -56.383414     -1534.2707
  23   2.0000     -56.381120     -1534.2083
  24   2.0000     -56.381025     -1534.2057
  25   2.0000     -19.236247      -523.4449
  26   2.0000     -19.234504      -523.3975
  27   2.0000     -19.221718      -523.0495
  28   2.0000     -19.217552      -522.9362
  29   2.0000     -14.460014      -393.4770
  30   2.0000     -14.458096      -393.4248
  31   2.0000     -14.419776      -392.3820
  32   2.0000     -14.418096      -392.3363
  33   2.0000     -14.417516      -392.3206
  34   2.0000     -14.413011      -392.1980
  35   2.0000     -10.385047      -282.5915
  36   2.0000     -10.384245      -282.5697
  37   2.0000     -10.372963      -282.2627
  38   2.0000     -10.368997      -282.1548
  39   2.0000     -10.352382      -281.7026
  40   2.0000     -10.351613      -281.6817
  41   2.0000     -10.350403      -281.6488
  42   2.0000     -10.350382      -281.6482
  43   2.0000     -10.349922      -281.6357
  44   2.0000     -10.349750      -281.6310
  45   2.0000     -10.346732      -281.5489
  46   2.0000     -10.345604      -281.5182
  47   2.0000     -10.343302      -281.4555
  48   2.0000     -10.342977      -281.4467
  49   2.0000     -10.342797      -281.4418
  50   2.0000     -10.342725      -281.4399
  51   2.0000     -10.342098      -281.4228
  52   2.0000     -10.340997      -281.3928
  53   2.0000     -10.334202      -281.2079
  54   2.0000     -10.332012      -281.1483
  55   2.0000     -10.331217      -281.1267
  56   2.0000     -10.328021      -281.0397
  57   2.0000     -10.324323      -280.9391
  58   2.0000     -10.324126      -280.9337
  59   2.0000     -10.323866      -280.9267
  60   2.0000     -10.321297      -280.8568
  61   2.0000     -10.321047      -280.8500
  62   2.0000     -10.320473      -280.8344
  63   2.0000     -10.320447      -280.8336
  64   2.0000     -10.320277      -280.8290
  65   2.0000     -10.317514      -280.7538
  66   2.0000     -10.316771      -280.7336
  67   2.0000     -10.316383      -280.7231
  68   2.0000     -10.316285      -280.7204
  69   2.0000     -10.316157      -280.7169
  70   2.0000     -10.313388      -280.6416
  71   2.0000     -10.310017      -280.5498
  72   2.0000     -10.309879      -280.5461
  73   2.0000     -10.308036      -280.4959
  74   2.0000     -10.307968      -280.4941
  75   2.0000     -10.307228      -280.4739
  76   2.0000     -10.307149      -280.4718
  77   2.0000     -10.303681      -280.3774
  78   2.0000     -10.301559      -280.3197
  79   2.0000     -10.300007      -280.2774
  80   2.0000     -10.299031      -280.2509
  81   2.0000     -10.298129      -280.2263
  82   2.0000     -10.296717      -280.1879
  83   2.0000     -10.296584      -280.1843
  84   2.0000     -10.294570      -280.1295
  85   2.0000     -10.293315      -280.0953
  86   2.0000     -10.291765      -280.0532
  87   2.0000     -10.291707      -280.0516
  88   2.0000     -10.291098      -280.0350
  89   2.0000     -10.277336      -279.6605
  90   2.0000     -10.273129      -279.5460
  91   2.0000     -10.272808      -279.5373
  92   2.0000     -10.271329      -279.4971
  93   2.0000      -8.782386      -238.9809
  94   2.0000      -8.781599      -238.9595
  95   2.0000      -8.781502      -238.9568
  96   2.0000      -8.779138      -238.8925
  97   2.0000      -8.100752      -220.4327
  98   2.0000      -8.080202      -219.8735
  99   2.0000      -8.075395      -219.7427
 100   2.0000      -8.075390      -219.7425
 101   2.0000      -8.071001      -219.6231
 102   2.0000      -6.618501      -180.0986
 103   2.0000      -6.617711      -180.0771
 104   2.0000      -6.617591      -180.0738
 105   2.0000      -6.615287      -180.0111
 106   2.0000      -6.604492      -179.7174
 107   2.0000      -6.603760      -179.6974
 108   2.0000      -6.603715      -179.6962
 109   2.0000      -6.603624      -179.6938
 110   2.0000      -6.602954      -179.6755
 111   2.0000      -6.602884      -179.6736
 112   2.0000      -6.601233      -179.6287
 113   2.0000      -6.600487      -179.6084
 114   2.0000      -6.069842      -165.1688
 115   2.0000      -6.065745      -165.0573
 116   2.0000      -6.063411      -164.9938
 117   2.0000      -6.049622      -164.6186
 118   2.0000      -6.045541      -164.5075
 119   2.0000      -6.044631      -164.4828
 120   2.0000      -6.044597      -164.4818
 121   2.0000      -6.042067      -164.4130
 122   2.0000      -6.040587      -164.3727
 123   2.0000      -6.040578      -164.3725
 124   2.0000      -6.040506      -164.3705
 125   2.0000      -6.037570      -164.2906
 126   2.0000      -6.037534      -164.2896
 127   2.0000      -6.036126      -164.2513
 128   2.0000      -6.032959      -164.1652
 129   2.0000      -2.734393       -74.4066
 130   2.0000      -2.733668       -74.3869
 131   2.0000      -2.733518       -74.3828
 132   2.0000      -2.731181       -74.3192
 133   2.0000      -2.730677       -74.3055
 134   2.0000      -2.730034       -74.2880
 135   2.0000      -2.729832       -74.2825
 136   2.0000      -2.729759       -74.2805
 137   2.0000      -2.729247       -74.2666
 138   2.0000      -2.729144       -74.2638
 139   2.0000      -2.727420       -74.2169
 140   2.0000      -2.726816       -74.2004
 141   2.0000      -2.718928       -73.9858
 142   2.0000      -2.718909       -73.9853
 143   2.0000      -2.718103       -73.9634
 144   2.0000      -2.718102       -73.9633
 145   2.0000      -2.718054       -73.9620
 146   2.0000      -2.718046       -73.9618
 147   2.0000      -2.715649       -73.8966
 148   2.0000      -2.715634       -73.8962
 149   2.0000      -1.152381       -31.3579
 150   2.0000      -1.147625       -31.2285
 151   2.0000      -1.136629       -30.9293
 152   2.0000      -1.133402       -30.8414
 153   2.0000      -1.110204       -30.2102
 154   2.0000      -1.039063       -28.2743
 155   2.0000      -1.033534       -28.1239
 156   2.0000      -1.030317       -28.0364
 157   2.0000      -1.024228       -27.8707
 158   2.0000      -1.021997       -27.8100
 159   2.0000      -1.016021       -27.6473
 160   2.0000      -1.008493       -27.4425
 161   2.0000      -1.006580       -27.3904
 162   2.0000      -0.998069       -27.1588
 163   2.0000      -0.994256       -27.0551
 164   2.0000      -0.993463       -27.0335
 165   2.0000      -0.986828       -26.8529
 166   2.0000      -0.975448       -26.5433
 167   2.0000      -0.973637       -26.4940
 168   2.0000      -0.948549       -25.8113
 169   2.0000      -0.946171       -25.7466
 170   2.0000      -0.939174       -25.5562
 171   2.0000      -0.919624       -25.0242
 172   2.0000      -0.917639       -24.9702
 173   2.0000      -0.911827       -24.8121
 174   2.0000      -0.910306       -24.7707
 175   2.0000      -0.904246       -24.6058
 176   2.0000      -0.902474       -24.5576
 177   2.0000      -0.896753       -24.4019
 178   2.0000      -0.884171       -24.0595
 179   2.0000      -0.880477       -23.9590
 180   2.0000      -0.871478       -23.7141
 181   2.0000      -0.857081       -23.3224
 182   2.0000      -0.851841       -23.1798
 183   2.0000      -0.850128       -23.1332
 184   2.0000      -0.849481       -23.1156
 185   2.0000      -0.848137       -23.0790
 186   2.0000      -0.845040       -22.9947
 187   2.0000      -0.838805       -22.8251
 188   2.0000      -0.837847       -22.7990
 189   2.0000      -0.809497       -22.0275
 190   2.0000      -0.809152       -22.0181
 191   2.0000      -0.798933       -21.7401
 192   2.0000      -0.792820       -21.5737
 193   2.0000      -0.786501       -21.4018
 194   2.0000      -0.784909       -21.3585
 195   2.0000      -0.780926       -21.2501
 196   2.0000      -0.768836       -20.9211
 197   2.0000      -0.765192       -20.8219
 198   2.0000      -0.762723       -20.7548
 199   2.0000      -0.741312       -20.1721
 200   2.0000      -0.735269       -20.0077
 201   2.0000      -0.719552       -19.5800
 202   2.0000      -0.717632       -19.5278
 203   2.0000      -0.712345       -19.3839
 204   2.0000      -0.705067       -19.1858
 205   2.0000      -0.694264       -18.8919
 206   2.0000      -0.691906       -18.8277
 207   2.0000      -0.688838       -18.7442
 208   2.0000      -0.683843       -18.6083
 209   2.0000      -0.681449       -18.5432
 210   2.0000      -0.674323       -18.3493
 211   2.0000      -0.667421       -18.1615
 212   2.0000      -0.654096       -17.7989
 213   2.0000      -0.652038       -17.7429
 214   2.0000      -0.645385       -17.5618
 215   2.0000      -0.644093       -17.5267
 216   2.0000      -0.642773       -17.4907
 217   2.0000      -0.640214       -17.4211
 218   2.0000      -0.629234       -17.1223
 219   2.0000      -0.624730       -16.9998
 220   2.0000      -0.617467       -16.8021
 221   2.0000      -0.614672       -16.7261
 222   2.0000      -0.608425       -16.5561
 223   2.0000      -0.604300       -16.4438
 224   2.0000      -0.600940       -16.3524
 225   2.0000      -0.590842       -16.0776
 226   2.0000      -0.583748       -15.8846
 227   2.0000      -0.580126       -15.7860
 228   2.0000      -0.577449       -15.7132
 229   2.0000      -0.576442       -15.6858
 230   2.0000      -0.568804       -15.4779
 231   2.0000      -0.568535       -15.4706
 232   2.0000      -0.566743       -15.4219
 233   2.0000      -0.560807       -15.2603
 234   2.0000      -0.556753       -15.1500
 235   2.0000      -0.551287       -15.0013
 236   2.0000      -0.548120       -14.9151
 237   2.0000      -0.545289       -14.8381
 238   2.0000      -0.544736       -14.8230
 239   2.0000      -0.543464       -14.7884
 240   2.0000      -0.541906       -14.7460
 241   2.0000      -0.541433       -14.7331
 242   2.0000      -0.540955       -14.7201
 243   2.0000      -0.539604       -14.6834
 244   2.0000      -0.535057       -14.5596
 245   2.0000      -0.530735       -14.4420
 246   2.0000      -0.529722       -14.4145
 247   2.0000      -0.529091       -14.3973
 248   2.0000      -0.526762       -14.3339
 249   2.0000      -0.523359       -14.2413
 250   2.0000      -0.518412       -14.1067
 251   2.0000      -0.515574       -14.0295
 252   2.0000      -0.513828       -13.9820
 253   2.0000      -0.509776       -13.8717
 254   2.0000      -0.508059       -13.8250
 255   2.0000      -0.506728       -13.7888
 256   2.0000      -0.503805       -13.7092
 257   2.0000      -0.501701       -13.6520
 258   2.0000      -0.499445       -13.5906
 259   2.0000      -0.498628       -13.5684
 260   2.0000      -0.496167       -13.5014
 261   2.0000      -0.494790       -13.4639
 262   2.0000      -0.493658       -13.4331
 263   2.0000      -0.491489       -13.3741
 264   2.0000      -0.489536       -13.3210
 265   2.0000      -0.488240       -13.2857
 266   2.0000      -0.487781       -13.2732
 267   2.0000      -0.483868       -13.1667
 268   2.0000      -0.480907       -13.0862
 269   2.0000      -0.480108       -13.0644
 270   2.0000      -0.475357       -12.9351
 271   2.0000      -0.473526       -12.8853
 272   2.0000      -0.468954       -12.7609
 273   2.0000      -0.466420       -12.6919
 274   2.0000      -0.461964       -12.5707
 275   2.0000      -0.460498       -12.5308
 276   2.0000      -0.460222       -12.5233
 277   2.0000      -0.458209       -12.4685
 278   2.0000      -0.455410       -12.3923
 279   2.0000      -0.453561       -12.3420
 280   2.0000      -0.452520       -12.3137
 281   2.0000      -0.449350       -12.2274
 282   2.0000      -0.449019       -12.2184
 283   2.0000      -0.448585       -12.2066
 284   2.0000      -0.446237       -12.1427
 285   2.0000      -0.444124       -12.0852
 286   2.0000      -0.443608       -12.0712
 287   2.0000      -0.441213       -12.0060
 288   2.0000      -0.434764       -11.8305
 289   2.0000      -0.434204       -11.8153
 290   2.0000      -0.431149       -11.7322
 291   2.0000      -0.429495       -11.6871
 292   2.0000      -0.429398       -11.6845
 293   2.0000      -0.428070       -11.6484
 294   2.0000      -0.426675       -11.6104
 295   2.0000      -0.426344       -11.6014
 296   2.0000      -0.423663       -11.5285
 297   2.0000      -0.419217       -11.4075
 298   2.0000      -0.418197       -11.3797
 299   2.0000      -0.416992       -11.3469
 300   2.0000      -0.416853       -11.3432
 301   2.0000      -0.408848       -11.1253
 302   2.0000      -0.406524       -11.0621
 303   2.0000      -0.401814       -10.9339
 304   2.0000      -0.401034       -10.9127
 305   2.0000      -0.397903       -10.8275
 306   2.0000      -0.396704       -10.7949
 307   2.0000      -0.388949       -10.5838
 308   2.0000      -0.387203       -10.5363
 309   2.0000      -0.382500       -10.4084
 310   2.0000      -0.381396       -10.3783
 311   2.0000      -0.372169       -10.1272
 312   2.0000      -0.370802       -10.0900
 313   2.0000      -0.359187        -9.7740
 314   2.0000      -0.355872        -9.6838
 315   2.0000      -0.355784        -9.6814
 316   2.0000      -0.347463        -9.4549
 317   2.0000      -0.347031        -9.4432
 318   2.0000      -0.344833        -9.3834
 319   2.0000      -0.343856        -9.3568
 320   2.0000      -0.342041        -9.3074
 321   2.0000      -0.340788        -9.2733
 322   2.0000      -0.340118        -9.2551
 323   2.0000      -0.339043        -9.2258
 324   2.0000      -0.336833        -9.1657
 325   2.0000      -0.335411        -9.1270
 326   2.0000      -0.333052        -9.0628
 327   2.0000      -0.326807        -8.8929
 328   2.0000      -0.311449        -8.4750
 329   2.0000      -0.309544        -8.4231
 330   2.0000      -0.298653        -8.1268
 331   2.0000      -0.268491        -7.3060
 332   2.0000      -0.233820        -6.3626
 333   0.0000      -0.121297        -3.3007
 334   0.0000      -0.102027        -2.7763
 335   0.0000      -0.088877        -2.4185
 336   0.0000      -0.086350        -2.3497
 337   0.0000      -0.067255        -1.8301

MULLIKEN ATOMIC CHARGES
-----------------------
   0 C :    0.157436
   1 O :   -0.160238
   2 C :   -0.008168
   3 C :    0.031961
   4 C :   -0.009382
   5 C :   -0.026284
   6 C :   -0.013289
   7 C :   -0.027159
   8 Br:    0.009838
   9 Br:    0.017869
  10 C :    0.311961
  11 C :   -0.357173
  12 C :   -0.189968
  13 N :    0.153149
  14 C :   -0.186029
  15 N :    0.148860
  16 C :   -0.101190
  17 C :    0.045521
  18 C :   -0.117461
  19 C :   -0.012788
  20 C :    0.002622
  21 C :   -0.060554
  22 S :    0.172638
  23 C :   -0.087105
  24 C :    0.039559
  25 C :   -0.107246
  26 C :    0.098393
  27 C :    0.101710
  28 C :   -0.068838
  29 C :   -0.089657
  30 S :    0.156119
  31 C :   -0.119173
  32 C :    0.037437
  33 C :    0.007310
  34 N :    0.043581
  35 C :   -0.114461
  36 C :    0.139914
  37 O :   -0.104477
  38 C :   -0.018957
  39 C :   -0.014814
  40 C :    0.144573
  41 O :   -0.112943
  42 C :   -0.118896
  43 N :    0.062830
  44 C :   -0.111101
  45 S :    0.210060
  46 C :   -0.074699
  47 C :   -0.088840
  48 C :    0.039245
  49 C :   -0.077049
  50 S :    0.217115
  51 C :   -0.056655
  52 C :   -0.001302
  53 C :   -0.110062
  54 C :    0.109253
  55 C :    0.100650
  56 C :    0.003530
  57 C :   -0.120970
  58 S :    0.189407
  59 C :    0.086438
  60 C :   -0.152873
  61 C :    0.136682
  62 O :   -0.140418
  63 C :    0.005713
  64 C :    0.013691
  65 C :    0.274935
  66 C :   -0.347934
  67 C :   -0.195620
  68 N :    0.168264
  69 C :   -0.178504
  70 N :    0.152552
  71 C :   -0.011048
  72 C :   -0.024282
  73 C :   -0.016207
  74 C :   -0.023367
  75 Br:    0.010931
  76 Br:    0.017503
  77 H :    0.007586
  78 H :    0.002894
  79 H :    0.001306
  80 H :    0.009914
  81 H :    0.020662
  82 H :    0.022835
  83 H :    0.025225
  84 H :    0.020162
  85 H :    0.024226
  86 H :    0.022501
  87 H :    0.008166
  88 H :    0.020940
  89 H :    0.018559
  90 H :   -0.015030
  91 H :    0.021641
  92 H :    0.012320
  93 H :    0.015043
  94 H :    0.040398
  95 H :    0.015225
  96 H :    0.009222
  97 H :   -0.002392
  98 H :    0.022432
  99 H :    0.007998
 100 H :    0.006101
Sum of atomic charges:   -0.0000000

LOEWDIN ATOMIC CHARGES
----------------------
   0 C :    0.087362
   1 O :   -0.147544
   2 C :   -0.040612
   3 C :   -0.011953
   4 C :   -0.007640
   5 C :   -0.120127
   6 C :   -0.123966
   7 C :    0.003499
   8 Br:    0.134030
   9 Br:    0.138146
  10 C :    0.075896
  11 C :   -0.143194
  12 C :   -0.019704
  13 N :   -0.051801
  14 C :   -0.024069
  15 N :   -0.052204
  16 C :   -0.113352
  17 C :    0.044805
  18 C :   -0.176728
  19 C :   -0.002090
  20 C :   -0.038876
  21 C :   -0.165285
  22 S :    0.462094
  23 C :   -0.197958
  24 C :   -0.015570
  25 C :   -0.035587
  26 C :   -0.022321
  27 C :   -0.022014
  28 C :   -0.033315
  29 C :   -0.173703
  30 S :    0.433518
  31 C :   -0.191005
  32 C :   -0.041829
  33 C :   -0.053693
  34 N :   -0.005558
  35 C :   -0.040964
  36 C :    0.055086
  37 O :   -0.100952
  38 C :   -0.009851
  39 C :   -0.013096
  40 C :    0.056860
  41 O :   -0.107651
  42 C :   -0.041570
  43 N :    0.009034
  44 C :   -0.186933
  45 S :    0.499400
  46 C :   -0.175051
  47 C :   -0.052502
  48 C :   -0.020180
  49 C :   -0.197736
  50 S :    0.502043
  51 C :   -0.164048
  52 C :   -0.030986
  53 C :   -0.035691
  54 C :   -0.023386
  55 C :   -0.022685
  56 C :   -0.007032
  57 C :   -0.183394
  58 S :    0.473053
  59 C :    0.050283
  60 C :   -0.112037
  61 C :    0.081204
  62 O :   -0.141514
  63 C :   -0.042547
  64 C :   -0.009888
  65 C :    0.066055
  66 C :   -0.147468
  67 C :   -0.015247
  68 N :   -0.045507
  69 C :   -0.023570
  70 N :   -0.051892
  71 C :   -0.011424
  72 C :   -0.119526
  73 C :   -0.124724
  74 C :    0.005732
  75 Br:    0.134865
  76 Br:    0.138597
  77 H :    0.044414
  78 H :    0.044581
  79 H :    0.042232
  80 H :    0.035474
  81 H :    0.029759
  82 H :    0.028970
  83 H :    0.029419
  84 H :    0.029652
  85 H :    0.029194
  86 H :    0.028712
  87 H :    0.037320
  88 H :    0.046833
  89 H :    0.046334
  90 H :    0.028382
  91 H :    0.030028
  92 H :    0.025049
  93 H :    0.025760
  94 H :    0.035997
  95 H :    0.025953
  96 H :    0.023461
  97 H :    0.035451
  98 H :    0.046197
  99 H :    0.043816
 100 H :    0.046202

  Mayer bond orders larger than 0.100000
B(  0-C ,  1-O ) :   2.1541 B(  0-C ,  2-C ) :   0.9549 B(  0-C , 16-C ) :   0.9561
B(  2-C ,  3-C ) :   1.3340 B(  2-C ,  7-C ) :   1.3690 B(  3-C ,  4-C ) :   1.3670
B(  3-C , 10-C ) :   0.9786 B(  4-C ,  5-C ) :   1.3658 B(  4-C , 77-H ) :   0.9794
B(  5-C ,  6-C ) :   1.4267 B(  5-C ,  9-Br) :   1.0560 B(  6-C ,  7-C ) :   1.3467
B(  6-C ,  8-Br) :   1.0302 B(  7-C , 78-H ) :   1.0093 B( 10-C , 11-C ) :   1.6116
B( 10-C , 16-C ) :   1.1065 B( 11-C , 12-C ) :   1.1476 B( 11-C , 14-C ) :   1.1409
B( 12-C , 13-N ) :   2.9676 B( 14-C , 15-N ) :   2.9632 B( 16-C , 17-C ) :   1.5290
B( 17-C , 18-C ) :   1.2764 B( 17-C , 79-H ) :   0.9054 B( 18-C , 19-C ) :   1.3540
B( 18-C , 22-S ) :   1.0678 B( 19-C , 20-C ) :   1.3671 B( 19-C , 80-H ) :   0.9811
B( 20-C , 21-C ) :   1.4303 B( 20-C , 25-C ) :   0.9317 B( 21-C , 22-S ) :   1.1306
B( 21-C , 23-C ) :   1.2102 B( 23-C , 24-C ) :   1.4816 B( 23-C , 30-S ) :   1.0769
B( 24-C , 25-C ) :   0.9394 B( 24-C , 28-C ) :   1.3034 B( 25-C , 26-C ) :   1.0344
B( 25-C , 27-C ) :   1.0350 B( 26-C , 81-H ) :   0.9642 B( 26-C , 82-H ) :   0.9651
B( 26-C , 83-H ) :   0.9652 B( 27-C , 84-H ) :   0.9635 B( 27-C , 85-H ) :   0.9650
B( 27-C , 86-H ) :   0.9650 B( 28-C , 29-C ) :   1.4331 B( 28-C , 87-H ) :   0.9963
B( 29-C , 30-S ) :   1.0911 B( 29-C , 31-C ) :   1.2138 B( 31-C , 32-C ) :   1.3581
B( 31-C , 44-C ) :   0.1279 B( 31-C , 45-S ) :   1.1439 B( 32-C , 33-C ) :   1.1854
B( 32-C , 43-N ) :   1.4393 B( 33-C , 34-N ) :   1.4320 B( 33-C , 44-C ) :   1.3083
B( 34-N , 35-C ) :   1.6937 B( 35-C , 36-C ) :   0.8970 B( 35-C , 42-C ) :   1.0988
B( 36-C , 37-O ) :   2.2477 B( 36-C , 38-C ) :   1.0211 B( 38-C , 39-C ) :   1.6793
B( 38-C , 88-H ) :   0.9986 B( 39-C , 40-C ) :   1.0294 B( 39-C , 89-H ) :   0.9990
B( 40-C , 41-O ) :   2.2219 B( 40-C , 42-C ) :   0.8981 B( 42-C , 43-N ) :   1.7110
B( 44-C , 45-S ) :   1.1524 B( 44-C , 46-C ) :   1.2538 B( 46-C , 47-C ) :   1.3658
B( 46-C , 50-S ) :   1.1299 B( 47-C , 48-C ) :   1.3601 B( 47-C , 90-H ) :   1.0035
B( 48-C , 49-C ) :   1.4744 B( 48-C , 53-C ) :   0.9366 B( 49-C , 50-S ) :   1.0564
B( 49-C , 51-C ) :   1.2054 B( 51-C , 52-C ) :   1.4568 B( 51-C , 58-S ) :   1.1250
B( 52-C , 53-C ) :   0.9347 B( 52-C , 56-C ) :   1.4207 B( 53-C , 54-C ) :   1.0334
B( 53-C , 55-C ) :   1.0394 B( 54-C , 91-H ) :   0.9635 B( 54-C , 92-H ) :   0.9646
B( 54-C , 93-H ) :   0.9652 B( 55-C , 94-H ) :   0.9617 B( 55-C , 95-H ) :   0.9635
B( 55-C , 96-H ) :   0.9630 B( 56-C , 57-C ) :   1.3458 B( 56-C , 97-H ) :   0.9893
B( 57-C , 58-S ) :   1.0833 B( 57-C , 59-C ) :   1.1934 B( 59-C , 60-C ) :   1.5916
B( 59-C , 98-H ) :   0.9290 B( 60-C , 61-C ) :   0.9600 B( 60-C , 65-C ) :   1.0709
B( 61-C , 62-O ) :   2.2663 B( 61-C , 63-C ) :   0.9150 B( 63-C , 64-C ) :   1.3335
B( 63-C , 74-C ) :   1.3794 B( 64-C , 65-C ) :   0.9973 B( 64-C , 71-C ) :   1.3738
B( 65-C , 66-C ) :   1.6234 B( 66-C , 67-C ) :   1.1745 B( 66-C , 69-C ) :   1.1278
B( 67-C , 68-N ) :   2.9734 B( 69-C , 70-N ) :   2.9845 B( 71-C , 72-C ) :   1.3642
B( 71-C , 99-H ) :   0.9814 B( 72-C , 73-C ) :   1.4302 B( 72-C , 76-Br) :   1.0510
B( 73-C , 74-C ) :   1.3495 B( 73-C , 75-Br) :   1.0301 B( 74-C ,100-H ) :   1.0076

-----------------------------------------------------------------------------
         ABSORPTION SPECTRUM VIA TRANSITION ELECTRIC DIPOLE MOMENTS
-----------------------------------------------------------------------------
State   Energy  Wavelength   fosc         T2         TX        TY        TZ
        (cm-1)    (nm)                  (au**2)     (au)      (au)      (au)
-----------------------------------------------------------------------------
   0    9887.4   1011.4   1.380983942  45.98117   4.18422  -1.34145  -5.16469
   1   14682.0    681.1   0.277108230   6.21354   1.22873   2.03337   0.75443
   2   17353.7    576.2   0.675406556  12.81293   2.07117  -0.07151  -2.91857
   3   18620.9    537.0   0.607181912  10.73479   0.68607  -2.33640  -2.19211
   4   19197.0    520.9   0.039856551   0.68350  -0.71848  -0.04850   0.40612
   5   23148.6    432.0   0.228973202   3.25638  -1.46126   0.22716   1.03416
   6   23739.8    421.2   0.017552507   0.24341  -0.36035   0.13778   0.30753
   7   23878.9    418.8   0.203707711   2.80846   0.91838  -0.21780  -1.38477
   8   24900.5    401.6   0.001484390   0.01963   0.05432  -0.09574   0.08665
   9   25740.4    388.5   0.000648325   0.00829   0.00717  -0.04888   0.07649
  10   25841.9    387.0   0.021774524   0.27740  -0.15301  -0.10124   0.49369
  11   26495.3    377.4   0.001212234   0.01506   0.04625  -0.07808   0.08263
  12   27080.3    369.3   0.030929339   0.37600  -0.23651   0.56517  -0.02557
  13   27560.8    362.8   0.006848598   0.08181  -0.07396  -0.15584  -0.22815
  14   28643.0    349.1   0.160839225   1.84863  -1.04215   0.39287   0.77988
  15   29017.4    344.6   0.115694386   1.31259  -0.98475   0.11233   0.57467
  16   29538.7    338.5   0.081905715   0.91285   0.91220  -0.01157  -0.28390
  17   30022.0    333.1   0.003010271   0.03301   0.15491  -0.05892  -0.07444
  18   30560.2    327.2   0.005027955   0.05416   0.22285   0.06390   0.02046
  19   30689.5    325.8   0.013769705   0.14771   0.32137  -0.05904  -0.20235
  20   30717.4    325.5   0.001204686   0.01291  -0.08781   0.00361   0.07203
  21   30913.5    323.5   0.016112529   0.17159   0.39979  -0.07323  -0.07996
  22   31166.5    320.9   0.000380602   0.00402   0.00601   0.01777   0.06057
  23   31274.6    319.7   0.011601617   0.12212   0.30415   0.06524  -0.15926
  24   32130.2    311.2   0.082350997   0.84378  -0.76417   0.36416   0.35667
  25   32280.8    309.8   0.062936278   0.64185  -0.72630  -0.33161  -0.06609
  26   32631.0    306.5   0.076433767   0.77114  -0.76314   0.16221   0.40304
  27   32800.1    304.9   0.074559445   0.74835   0.05492  -0.46147  -0.72964
  28   33087.1    302.2   0.060009403   0.59708   0.73819   0.12515  -0.19105
  29   33309.5    300.2   0.007114524   0.07032  -0.15250   0.11277   0.18532
  30   33557.8    298.0   0.037539870   0.36828  -0.52317  -0.28787  -0.10820
  31   33760.5    296.2   0.000294431   0.00287   0.00078   0.03626   0.03944
  32   33819.3    295.7   0.021263917   0.20699   0.18337  -0.29021  -0.29858
  33   34306.0    291.5   0.081475816   0.78187  -0.73011   0.44676   0.22183
  34   34377.5    290.9   0.170238349   1.63027   0.76662   0.87850   0.52038
  35   34750.5    287.8   0.002678561   0.02538  -0.11285  -0.11243  -0.00039
  36   34805.1    287.3   0.035692717   0.33761   0.51704   0.24619  -0.09834
  37   34873.8    286.7   0.687518449   6.49024  -2.49268  -0.39534   0.34714
  38   35050.5    285.3   0.127628457   1.19875  -0.75350   0.46700   0.64256
  39   35118.1    284.8   0.001798100   0.01686   0.06312  -0.07522  -0.08493
  40   35570.6    281.1   0.395651385   3.66182   0.18225   1.53458   1.12856
  41   35740.1    279.8   0.148177074   1.36490  -0.56207  -0.92619  -0.43720
  42   36178.6    276.4   0.017337803   0.15777  -0.07950   0.37959   0.08577
  43   36275.9    275.7   0.015080233   0.13686   0.20968  -0.19879  -0.23102
  44   36679.7    272.6   0.000981916   0.00881  -0.08413  -0.01138   0.04008
  45   36897.5    271.0   0.014607437   0.13033  -0.15236   0.23328   0.22956
  46   37221.6    268.7   0.017337175   0.15334   0.25559   0.01614   0.29623
  47   37510.5    266.6   0.021370182   0.18756   0.16063   0.29622   0.27205
  48   37714.7    265.1   0.077658313   0.67788   0.37315   0.55630   0.47872
  49   38063.2    262.7   0.080976351   0.70037  -0.78648  -0.28011  -0.05801
  50   38139.1    262.2   0.062599231   0.54035   0.73014   0.08225  -0.02176
  51   38323.7    260.9   0.003156191   0.02711   0.13008   0.01389   0.10000
  52   38503.0    259.7   0.015907120   0.13601  -0.34118  -0.10121   0.09678
  53   38539.1    259.5   0.042386131   0.36207   0.53338   0.23452  -0.15026
  54   38584.8    259.2   0.060051111   0.51237  -0.59827   0.05014   0.38978
  55   38626.5    258.9   0.030310569   0.25834   0.30999  -0.23703  -0.32566
  56   38932.7    256.9   0.015680052   0.13259   0.11590   0.29999   0.17077
  57   39127.3    255.6   0.093612635   0.78764   0.76879  -0.08706  -0.43478
  58   39174.5    255.3   0.069801931   0.58660   0.37948   0.59025   0.30691
  59   39753.3    251.6   0.016832310   0.13939  -0.36053  -0.09400  -0.02409
  60   39886.7    250.7   0.003726772   0.03076   0.09932   0.13299  -0.05665
  61   39926.2    250.5   0.005482476   0.04521   0.05750  -0.20010  -0.04310
  62   40022.1    249.9   0.013193949   0.10853  -0.12391   0.09215   0.29100
  63   40188.9    248.8   0.068301558   0.55950   0.03148   0.57784   0.47393

FINAL SINGLE POINT ENERGY    -15136.525777084869

DIPOLE MOMENT
-------------
                                X             Y             Z
Electronic contribution:     35.23663      94.01237      16.08216
Nuclear contribution   :    -35.77045     -96.93242     -16.90143
                        -----------------------------------------
Total Dipole Moment    :     -0.53382      -2.92005      -0.81927
                        -----------------------------------------
Magnitude (a.u.)       :      3.07943
Magnitude (Debye)      :      7.82728

Rotational constants in cm-1:     0.001319     0.000101     0.000095
Rotational constants in MHz :    39.530679     3.041280     2.852850

                             ****ORCA TERMINATED NORMALLY****
TOTAL RUN TIME: 0 days 0 hours 11 minutes 34 seconds 390 msec
