                         Program Version 4.2.0 -  RELEASE  -
|  1> # ORCA input file
|  2> # SCF done       -183.596950418990          0.000849944181
|  3> ! CAM-B3LYP def2-SVP def2/J RIJCOSX Grid4 TightSCF
|  4> %maxcore 5000
|  5> %tddft
|  6>     Mode sTDDFT
|  7>     Ethresh 5.0
|  8>     maxcore 5000
|  9> end
| 10>
| 11> %pal
| 12>   nprocs 6
| 13>   end
| 14> * xyz 0 1
| 15>    C       -8.25255        -1.69458         1.84708
| 16>    O       -7.74806        -2.79950         1.83741
| 17>    C       -9.63774        -1.36110         1.46013
| 18>    C       -9.85903         0.01372         1.65503
| 19>    C      -11.10085         0.55224         1.36276
| 20>    C      -12.09567        -0.29173         0.88007
| 21>    C      -11.86188        -1.65398         0.68470
| 22>    C      -10.61877        -2.20049         0.97711
| 23>   Br      -13.23250        -2.77338         0.02367
| 24>   Br      -13.79288         0.44300         0.48872
| 25>    C       -8.62768         0.62336         2.16022
| 26>    C       -8.45519         1.95930         2.41574
| 27>    C       -9.46915         2.92834         2.25925
| 28>    N      -10.25318         3.76040         2.15818
| 29>    C       -7.25861         2.56655         2.85298
| 30>    N       -6.32704         3.14313         3.19738
| 31>    C       -7.64739        -0.43356         2.29201
| 32>    C       -6.38930        -0.30752         2.82923
| 33>    C       -5.36320        -1.25394         2.92428
| 34>    C       -4.14199        -0.96811         3.57174
| 35>    C       -3.22012        -2.01322         3.49289
| 36>    S       -1.61733        -2.09883         4.19606
| 37>    C       -1.61589        -0.63226         5.28366
| 38>    C       -2.11201         0.59760         4.56021
| 39>    S       -3.92392         0.56855         4.37772
| 40>    C       -3.71045        -3.08282         2.73136
| 41>    S       -5.34796        -2.84172         2.20027
| 42>    C       -3.07509        -4.28904         2.40480
| 43>    C       -3.60787        -5.24024         1.51882
| 44>    C       -2.79106        -6.40708         1.40632
| 45>    N       -3.12169        -7.41698         0.60976
| 46>    C       -4.22619        -7.28843        -0.09693
| 47>    C       -4.57854        -8.41193        -0.99820
| 48>    O       -3.90918        -9.42419        -1.06639
| 49>    C       -5.79414        -8.20992        -1.79804
| 50>    C       -6.53883        -7.10092        -1.73532
| 51>    C       -6.23198        -5.94579        -0.86964
| 52>    O       -6.90240        -4.93765        -0.88014
| 53>    C       -5.02877        -6.10800        -0.00985
| 54>    N       -4.71777        -5.11181         0.79372
| 55>    C       -1.61497        -6.34672         2.16880
| 56>    S       -1.54450        -4.84485         3.03046
| 57>    C       -0.64750        -7.35748         2.10849
| 58>    C        0.66645        -7.38323         2.57626
| 59>    C        1.35381        -8.54738         2.18451
| 60>    S        3.01884        -8.96457         2.50250
| 61>    C        3.45765        -7.72419         3.76735
| 62>    C        3.07928        -6.32843         3.32771
| 63>    S        1.28535        -6.04014         3.50619
| 64>    C        0.57719        -9.38600         1.38760
| 65>    S       -1.04677        -8.78020         1.19984
| 66>    C        0.96464       -10.60927         0.79887
| 67>    C        0.34971       -11.20582        -0.26156
| 68>    C        0.47088       -12.66866        -0.49584
| 69>    O        1.28816       -13.42282        -0.02522
| 70>    C       -0.67812       -13.00109        -1.37243
| 71>    C       -1.33845       -11.81782        -1.75302
| 72>    C       -0.60485       -10.67745        -1.21880
| 73>    C       -0.62773        -9.41192        -1.73816
| 74>    C        0.28697        -8.40606        -1.35936
| 75>    N        1.04117        -7.57836        -1.10563
| 76>    C       -1.52652        -8.98035        -2.73422
| 77>    N       -2.23586        -8.56484        -3.53528
| 78>    C       -2.49057       -11.87291        -2.51560
| 79>    C       -2.96368       -13.12045        -2.90169
| 80>    C       -2.28955       -14.29179        -2.54991
| 81>    C       -1.13785       -14.23864        -1.77406
| 82>   Br       -2.94639       -15.97361        -3.11088
| 83>   Br       -4.55527       -13.21090        -3.91246
| 84>    H      -11.32167         1.59842         1.49899
| 85>    H      -10.41911        -3.25022         0.82778
| 86>    H       -6.13047         0.65892         3.24757
| 87>    H       -0.57407        -0.51944         5.58367
| 88>    H       -2.22503        -0.84963         6.16126
| 89>    H       -1.66248         0.69029         3.57144
| 90>    H       -1.90861         1.49930         5.13748
| 91>    H       -6.05320        -9.02512        -2.46005
| 92>    H       -7.42364        -6.98664        -2.34704
| 93>    H        4.53777        -7.81826         3.87930
| 94>    H        2.97199        -7.99144         4.70633
| 95>    H        3.35505        -6.14763         2.28852
| 96>    H        3.54445        -5.57757         3.96598
| 97>    H        1.77092       -11.15813         1.27538
| 98>    H       -3.03791       -10.98094        -2.77317
| 99>    H       -0.62054       -15.14146        -1.48844
|100> *
|101>
|102>                          ****END OF INPUT****

CARTESIAN COORDINATES (ANGSTROEM)
---------------------------------
  C     -8.252550   -1.694580    1.847080
  O     -7.748060   -2.799500    1.837410
  C     -9.637740   -1.361100    1.460130
  C     -9.859030    0.013720    1.655030
  C    -11.100850    0.552240    1.362760
  C    -12.095670   -0.291730    0.880070
  C    -11.861880   -1.653980    0.684700
  C    -10.618770   -2.200490    0.977110
  Br   -13.232500   -2.773380    0.023670
  Br   -13.792880    0.443000    0.488720
  C     -8.627680    0.623360    2.160220
  C     -8.455190    1.959300    2.415740
  C     -9.469150    2.928340    2.259250
  N    -10.253180    3.760400    2.158180
  C     -7.258610    2.566550    2.852980
  N     -6.327040    3.143130    3.197380
  C     -7.647390   -0.433560    2.292010
  C     -6.389300   -0.307520    2.829230
  C     -5.363200   -1.253940    2.924280
  C     -4.141990   -0.968110    3.571740
  C     -3.220120   -2.013220    3.492890
  S     -1.617330   -2.098830    4.196060
  C     -1.615890   -0.632260    5.283660
  C     -2.112010    0.597600    4.560210
  S     -3.923920    0.568550    4.377720
  C     -3.710450   -3.082820    2.731360
  S     -5.347960   -2.841720    2.200270
  C     -3.075090   -4.289040    2.404800
  C     -3.607870   -5.240240    1.518820
  C     -2.791060   -6.407080    1.406320
  N     -3.121690   -7.416980    0.609760
  C     -4.226190   -7.288430   -0.096930
  C     -4.578540   -8.411930   -0.998200
  O     -3.909180   -9.424190   -1.066390
  C     -5.794140   -8.209920   -1.798040
  C     -6.538830   -7.100920   -1.735320
  C     -6.231980   -5.945790   -0.869640
  O     -6.902400   -4.937650   -0.880140
  C     -5.028770   -6.108000   -0.009850
  N     -4.717770   -5.111810    0.793720
  C     -1.614970   -6.346720    2.168800
  S     -1.544500   -4.844850    3.030460
  C     -0.647500   -7.357480    2.108490
  C      0.666450   -7.383230    2.576260
  C      1.353810   -8.547380    2.184510
  S      3.018840   -8.964570    2.502500
  C      3.457650   -7.724190    3.767350
  C      3.079280   -6.328430    3.327710
  S      1.285350   -6.040140    3.506190
  C      0.577190   -9.386000    1.387600
  S     -1.046770   -8.780200    1.199840
  C      0.964640  -10.609270    0.798870
  C      0.349710  -11.205820   -0.261560
  C      0.470880  -12.668660   -0.495840
  O      1.288160  -13.422820   -0.025220
  C     -0.678120  -13.001090   -1.372430
  C     -1.338450  -11.817820   -1.753020
  C     -0.604850  -10.677450   -1.218800
  C     -0.627730   -9.411920   -1.738160
  C      0.286970   -8.406060   -1.359360
  N      1.041170   -7.578360   -1.105630
  C     -1.526520   -8.980350   -2.734220
  N     -2.235860   -8.564840   -3.535280
  C     -2.490570  -11.872910   -2.515600
  C     -2.963680  -13.120450   -2.901690
  C     -2.289550  -14.291790   -2.549910
  C     -1.137850  -14.238640   -1.774060
  Br    -2.946390  -15.973610   -3.110880
  Br    -4.555270  -13.210900   -3.912460
  H    -11.321670    1.598420    1.498990
  H    -10.419110   -3.250220    0.827780
  H     -6.130470    0.658920    3.247570
  H     -0.574070   -0.519440    5.583670
  H     -2.225030   -0.849630    6.161260
  H     -1.662480    0.690290    3.571440
  H     -1.908610    1.499300    5.137480
  H     -6.053200   -9.025120   -2.460050
  H     -7.423640   -6.986640   -2.347040
  H      4.537770   -7.818260    3.879300
  H      2.971990   -7.991440    4.706330
  H      3.355050   -6.147630    2.288520
  H      3.544450   -5.577570    3.965980
  H      1.770920  -11.158130    1.275380
  H     -3.037910  -10.980940   -2.773170
  H     -0.620540  -15.141460   -1.488440

 Total Charge           Charge          ....    0
 Multiplicity           Mult            ....    1
 Number of Electrons    NEL             ....  630
 Basis Dimension        Dim             .... 1146

ORBITAL ENERGIES
----------------

  NO   OCC          E(Eh)            E(eV)
   0   2.0000    -482.872918    -13139.6401
   1   2.0000    -482.871874    -13139.6117
   2   2.0000    -482.871232    -13139.5942
   3   2.0000    -482.871144    -13139.5918
   4   2.0000     -89.007900     -2422.0281
   5   2.0000     -88.965735     -2420.8807
   6   2.0000     -88.964661     -2420.8515
   7   2.0000     -88.956517     -2420.6299
   8   2.0000     -88.954848     -2420.5845
   9   2.0000     -88.951914     -2420.5046
  10   2.0000     -88.950180     -2420.4575
  11   2.0000     -62.550529     -1702.0864
  12   2.0000     -62.549451     -1702.0571
  13   2.0000     -62.548888     -1702.0418
  14   2.0000     -62.548737     -1702.0377
  15   2.0000     -56.384467     -1534.2994
  16   2.0000     -56.383391     -1534.2701
  17   2.0000     -56.382822     -1534.2546
  18   2.0000     -56.382690     -1534.2510
  19   2.0000     -56.381835     -1534.2277
  20   2.0000     -56.381735     -1534.2250
  21   2.0000     -56.380758     -1534.1984
  22   2.0000     -56.380664     -1534.1959
  23   2.0000     -56.380188     -1534.1829
  24   2.0000     -56.380101     -1534.1806
  25   2.0000     -56.380032     -1534.1787
  26   2.0000     -56.379942     -1534.1762
  27   2.0000     -19.237037      -523.4664
  28   2.0000     -19.230701      -523.2940
  29   2.0000     -19.220988      -523.0297
  30   2.0000     -19.215533      -522.8812
  31   2.0000     -14.458069      -393.4241
  32   2.0000     -14.454996      -393.3404
  33   2.0000     -14.415710      -392.2714
  34   2.0000     -14.412819      -392.1927
  35   2.0000     -14.412369      -392.1805
  36   2.0000     -14.411672      -392.1615
  37   2.0000     -10.384946      -282.5887
  38   2.0000     -10.379763      -282.4477
  39   2.0000     -10.369248      -282.1616
  40   2.0000     -10.367938      -282.1259
  41   2.0000     -10.349834      -281.6333
  42   2.0000     -10.348815      -281.6056
  43   2.0000     -10.348659      -281.6013
  44   2.0000     -10.348442      -281.5954
  45   2.0000     -10.347305      -281.5645
  46   2.0000     -10.346861      -281.5524
  47   2.0000     -10.342009      -281.4204
  48   2.0000     -10.341315      -281.4015
  49   2.0000     -10.340838      -281.3885
  50   2.0000     -10.340351      -281.3753
  51   2.0000     -10.339658      -281.3564
  52   2.0000     -10.339105      -281.3414
  53   2.0000     -10.338480      -281.3243
  54   2.0000     -10.337642      -281.3015
  55   2.0000     -10.333149      -281.1793
  56   2.0000     -10.330371      -281.1037
  57   2.0000     -10.330110      -281.0966
  58   2.0000     -10.328583      -281.0550
  59   2.0000     -10.328540      -281.0539
  60   2.0000     -10.328174      -281.0439
  61   2.0000     -10.328031      -281.0400
  62   2.0000     -10.326864      -281.0082
  63   2.0000     -10.325352      -280.9671
  64   2.0000     -10.325120      -280.9608
  65   2.0000     -10.320944      -280.8472
  66   2.0000     -10.319089      -280.7967
  67   2.0000     -10.317946      -280.7656
  68   2.0000     -10.315785      -280.7068
  69   2.0000     -10.315753      -280.7059
  70   2.0000     -10.315362      -280.6953
  71   2.0000     -10.314333      -280.6673
  72   2.0000     -10.312702      -280.6229
  73   2.0000     -10.312460      -280.6163
  74   2.0000     -10.312430      -280.6155
  75   2.0000     -10.311559      -280.5918
  76   2.0000     -10.309669      -280.5403
  77   2.0000     -10.306367      -280.4505
  78   2.0000     -10.306087      -280.4429
  79   2.0000     -10.305340      -280.4226
  80   2.0000     -10.301586      -280.3204
  81   2.0000     -10.297905      -280.2203
  82   2.0000     -10.297438      -280.2075
  83   2.0000     -10.297064      -280.1974
  84   2.0000     -10.295579      -280.1570
  85   2.0000      -8.779854      -238.9120
  86   2.0000      -8.778749      -238.8819
  87   2.0000      -8.778239      -238.8680
  88   2.0000      -8.778043      -238.8627
  89   2.0000      -8.100572      -220.4278
  90   2.0000      -8.059393      -219.3072
  91   2.0000      -8.057295      -219.2502
  92   2.0000      -8.051978      -219.1055
  93   2.0000      -8.050405      -219.0627
  94   2.0000      -8.047510      -218.9839
  95   2.0000      -8.045575      -218.9312
  96   2.0000      -6.615953      -180.0292
  97   2.0000      -6.614793      -179.9977
  98   2.0000      -6.614304      -179.9844
  99   2.0000      -6.614163      -179.9805
 100   2.0000      -6.601986      -179.6492
 101   2.0000      -6.601227      -179.6285
 102   2.0000      -6.600891      -179.6194
 103   2.0000      -6.600373      -179.6053
 104   2.0000      -6.600163      -179.5996
 105   2.0000      -6.600160      -179.5995
 106   2.0000      -6.599654      -179.5857
 107   2.0000      -6.599403      -179.5789
 108   2.0000      -6.069720      -165.1655
 109   2.0000      -6.065341      -165.0463
 110   2.0000      -6.063480      -164.9957
 111   2.0000      -6.029060      -164.0591
 112   2.0000      -6.026973      -164.0023
 113   2.0000      -6.024659      -163.9393
 114   2.0000      -6.022348      -163.8764
 115   2.0000      -6.022346      -163.8764
 116   2.0000      -6.020804      -163.8344
 117   2.0000      -6.020795      -163.8342
 118   2.0000      -6.018838      -163.7809
 119   2.0000      -6.018194      -163.7634
 120   2.0000      -6.017872      -163.7546
 121   2.0000      -6.016610      -163.7203
 122   2.0000      -6.015945      -163.7022
 123   2.0000      -6.013716      -163.6415
 124   2.0000      -6.011792      -163.5892
 125   2.0000      -6.011787      -163.5891
 126   2.0000      -6.010162      -163.5448
 127   2.0000      -6.007272      -163.4662
 128   2.0000      -6.005298      -163.4125
 129   2.0000      -2.731831       -74.3369
 130   2.0000      -2.730755       -74.3076
 131   2.0000      -2.730226       -74.2932
 132   2.0000      -2.730087       -74.2895
 133   2.0000      -2.728138       -74.2364
 134   2.0000      -2.727519       -74.2196
 135   2.0000      -2.726941       -74.2038
 136   2.0000      -2.726484       -74.1914
 137   2.0000      -2.726390       -74.1889
 138   2.0000      -2.726284       -74.1860
 139   2.0000      -2.725902       -74.1756
 140   2.0000      -2.725720       -74.1706
 141   2.0000      -2.716418       -73.9175
 142   2.0000      -2.716401       -73.9170
 143   2.0000      -2.715325       -73.8877
 144   2.0000      -2.715312       -73.8874
 145   2.0000      -2.714832       -73.8743
 146   2.0000      -2.714816       -73.8739
 147   2.0000      -2.714564       -73.8671
 148   2.0000      -2.714557       -73.8668
 149   2.0000      -1.151574       -31.3359
 150   2.0000      -1.145077       -31.1591
 151   2.0000      -1.137997       -30.9665
 152   2.0000      -1.131230       -30.7823
 153   2.0000      -1.110243       -30.2113
 154   2.0000      -1.039575       -28.2883
 155   2.0000      -1.027325       -27.9549
 156   2.0000      -1.020972       -27.7820
 157   2.0000      -1.019743       -27.7486
 158   2.0000      -1.013447       -27.5773
 159   2.0000      -1.005001       -27.3475
 160   2.0000      -1.002427       -27.2774
 161   2.0000      -0.999220       -27.1902
 162   2.0000      -0.992717       -27.0132
 163   2.0000      -0.990106       -26.9421
 164   2.0000      -0.973136       -26.4804
 165   2.0000      -0.972277       -26.4570
 166   2.0000      -0.952521       -25.9194
 167   2.0000      -0.950352       -25.8604
 168   2.0000      -0.944470       -25.7003
 169   2.0000      -0.930398       -25.3174
 170   2.0000      -0.918897       -25.0045
 171   2.0000      -0.914947       -24.8970
 172   2.0000      -0.913100       -24.8467
 173   2.0000      -0.907592       -24.6968
 174   2.0000      -0.906026       -24.6542
 175   2.0000      -0.891715       -24.2648
 176   2.0000      -0.891242       -24.2519
 177   2.0000      -0.881711       -23.9926
 178   2.0000      -0.880138       -23.9498
 179   2.0000      -0.864511       -23.5245
 180   2.0000      -0.863905       -23.5080
 181   2.0000      -0.860300       -23.4100
 182   2.0000      -0.849497       -23.1160
 183   2.0000      -0.847256       -23.0550
 184   2.0000      -0.846643       -23.0383
 185   2.0000      -0.819356       -22.2958
 186   2.0000      -0.811454       -22.0808
 187   2.0000      -0.797569       -21.7029
 188   2.0000      -0.794497       -21.6194
 189   2.0000      -0.778508       -21.1843
 190   2.0000      -0.769300       -20.9337
 191   2.0000      -0.764451       -20.8018
 192   2.0000      -0.761144       -20.7118
 193   2.0000      -0.759378       -20.6637
 194   2.0000      -0.758547       -20.6411
 195   2.0000      -0.744047       -20.2466
 196   2.0000      -0.740311       -20.1449
 197   2.0000      -0.719507       -19.5788
 198   2.0000      -0.717101       -19.5133
 199   2.0000      -0.699752       -19.0412
 200   2.0000      -0.692152       -18.8344
 201   2.0000      -0.690790       -18.7974
 202   2.0000      -0.689791       -18.7702
 203   2.0000      -0.683482       -18.5985
 204   2.0000      -0.679325       -18.4854
 205   2.0000      -0.676776       -18.4160
 206   2.0000      -0.661886       -18.0108
 207   2.0000      -0.660703       -17.9786
 208   2.0000      -0.644384       -17.5346
 209   2.0000      -0.636893       -17.3307
 210   2.0000      -0.624295       -16.9879
 211   2.0000      -0.619514       -16.8578
 212   2.0000      -0.616995       -16.7893
 213   2.0000      -0.614162       -16.7122
 214   2.0000      -0.611535       -16.6407
 215   2.0000      -0.606598       -16.5064
 216   2.0000      -0.603912       -16.4333
 217   2.0000      -0.588157       -16.0046
 218   2.0000      -0.584704       -15.9106
 219   2.0000      -0.578815       -15.7504
 220   2.0000      -0.577687       -15.7197
 221   2.0000      -0.576424       -15.6853
 222   2.0000      -0.567819       -15.4511
 223   2.0000      -0.566468       -15.4144
 224   2.0000      -0.565417       -15.3858
 225   2.0000      -0.563695       -15.3389
 226   2.0000      -0.555349       -15.1118
 227   2.0000      -0.553725       -15.0676
 228   2.0000      -0.551372       -15.0036
 229   2.0000      -0.547588       -14.9006
 230   2.0000      -0.545371       -14.8403
 231   2.0000      -0.544777       -14.8241
 232   2.0000      -0.542572       -14.7641
 233   2.0000      -0.539167       -14.6715
 234   2.0000      -0.536193       -14.5906
 235   2.0000      -0.533510       -14.5176
 236   2.0000      -0.531555       -14.4643
 237   2.0000      -0.529894       -14.4192
 238   2.0000      -0.528353       -14.3772
 239   2.0000      -0.527077       -14.3425
 240   2.0000      -0.522990       -14.2313
 241   2.0000      -0.521259       -14.1842
 242   2.0000      -0.517049       -14.0696
 243   2.0000      -0.513305       -13.9677
 244   2.0000      -0.508244       -13.8300
 245   2.0000      -0.504800       -13.7363
 246   2.0000      -0.503737       -13.7074
 247   2.0000      -0.501373       -13.6431
 248   2.0000      -0.499518       -13.5926
 249   2.0000      -0.497998       -13.5512
 250   2.0000      -0.495807       -13.4916
 251   2.0000      -0.495263       -13.4768
 252   2.0000      -0.493078       -13.4173
 253   2.0000      -0.490614       -13.3503
 254   2.0000      -0.487853       -13.2752
 255   2.0000      -0.484591       -13.1864
 256   2.0000      -0.478493       -13.0204
 257   2.0000      -0.473897       -12.8954
 258   2.0000      -0.463816       -12.6211
 259   2.0000      -0.459547       -12.5049
 260   2.0000      -0.458161       -12.4672
 261   2.0000      -0.457887       -12.4597
 262   2.0000      -0.457421       -12.4471
 263   2.0000      -0.454537       -12.3686
 264   2.0000      -0.451376       -12.2826
 265   2.0000      -0.449251       -12.2247
 266   2.0000      -0.447817       -12.1857
 267   2.0000      -0.447079       -12.1656
 268   2.0000      -0.444880       -12.1058
 269   2.0000      -0.441706       -12.0194
 270   2.0000      -0.440685       -11.9916
 271   2.0000      -0.436081       -11.8664
 272   2.0000      -0.431108       -11.7311
 273   2.0000      -0.426900       -11.6165
 274   2.0000      -0.425917       -11.5898
 275   2.0000      -0.424629       -11.5548
 276   2.0000      -0.423883       -11.5344
 277   2.0000      -0.422325       -11.4920
 278   2.0000      -0.421016       -11.4564
 279   2.0000      -0.417249       -11.3539
 280   2.0000      -0.415388       -11.3033
 281   2.0000      -0.409365       -11.1394
 282   2.0000      -0.408506       -11.1160
 283   2.0000      -0.405873       -11.0444
 284   2.0000      -0.399366       -10.8673
 285   2.0000      -0.395454       -10.7608
 286   2.0000      -0.394900       -10.7458
 287   2.0000      -0.392251       -10.6737
 288   2.0000      -0.387704       -10.5500
 289   2.0000      -0.385886       -10.5005
 290   2.0000      -0.385537       -10.4910
 291   2.0000      -0.381635       -10.3848
 292   2.0000      -0.379024       -10.3138
 293   2.0000      -0.376208       -10.2371
 294   2.0000      -0.372087       -10.1250
 295   2.0000      -0.371253       -10.1023
 296   2.0000      -0.367665       -10.0047
 297   2.0000      -0.355920        -9.6851
 298   2.0000      -0.353278        -9.6132
 299   2.0000      -0.346534        -9.4297
 300   2.0000      -0.345384        -9.3984
 301   2.0000      -0.343381        -9.3439
 302   2.0000      -0.342844        -9.3292
 303   2.0000      -0.338976        -9.2240
 304   2.0000      -0.335548        -9.1307
 305   2.0000      -0.333608        -9.0779
 306   2.0000      -0.327877        -8.9220
 307   2.0000      -0.327707        -8.9173
 308   2.0000      -0.319973        -8.7069
 309   2.0000      -0.308004        -8.3812
 310   2.0000      -0.304293        -8.2802
 311   2.0000      -0.287910        -7.8344
 312   2.0000      -0.282222        -7.6797
 313   2.0000      -0.278910        -7.5895
 314   2.0000      -0.242868        -6.6088
 315   0.0000      -0.120879        -3.2893
 316   0.0000      -0.099436        -2.7058
 317   0.0000      -0.080151        -2.1810
 318   0.0000      -0.077791        -2.1168
 319   0.0000      -0.062366        -1.6971

MULLIKEN ATOMIC CHARGES
-----------------------
   0 C :    0.165832
   1 O :   -0.162114
   2 C :   -0.015135
   3 C :    0.035332
   4 C :   -0.014545
   5 C :   -0.024338
   6 C :   -0.011915
   7 C :   -0.020584
   8 Br:    0.009074
   9 Br:    0.017348
  10 C :    0.317106
  11 C :   -0.346337
  12 C :   -0.190641
  13 N :    0.154580
  14 C :   -0.199536
  15 N :    0.155101
  16 C :   -0.100061
  17 C :   -0.055594
  18 C :   -0.072190
  19 C :   -0.023895
  20 C :   -0.034116
  21 S :   -0.013042
  22 C :   -0.033231
  23 C :   -0.055630
  24 S :    0.030657
  25 C :   -0.078038
  26 S :    0.245146
  27 C :   -0.161743
  28 C :    0.038537
  29 C :    0.027206
  30 N :    0.023114
  31 C :   -0.102012
  32 C :    0.173844
  33 O :   -0.129614
  34 C :   -0.011211
  35 C :   -0.014727
  36 C :    0.138740
  37 O :   -0.091947
  38 C :   -0.116073
  39 N :    0.058277
  40 C :   -0.109751
  41 S :    0.226105
  42 C :   -0.082170
  43 C :   -0.049601
  44 C :    0.044189
  45 S :    0.029575
  46 C :   -0.057584
  47 C :   -0.054175
  48 S :    0.003439
  49 C :   -0.157663
  50 S :    0.187986
  51 C :    0.048904
  52 C :   -0.136678
  53 C :    0.139289
  54 O :   -0.136202
  55 C :    0.003785
  56 C :    0.010310
  57 C :    0.245643
  58 C :   -0.300628
  59 C :   -0.197066
  60 N :    0.161382
  61 C :   -0.174628
  62 N :    0.148919
  63 C :    0.012783
  64 C :   -0.019155
  65 C :   -0.018818
  66 C :   -0.026138
  67 Br:    0.006189
  68 Br:    0.008284
  69 H :    0.006461
  70 H :    0.007405
  71 H :    0.031915
  72 H :    0.065300
  73 H :    0.078770
  74 H :    0.081622
  75 H :    0.071851
  76 H :    0.020548
  77 H :    0.021198
  78 H :    0.070529
  79 H :    0.077114
  80 H :    0.091692
  81 H :    0.066667
  82 H :    0.029462
  83 H :    0.006442
  84 H :    0.004874
Sum of atomic charges:   -0.0000000

LOEWDIN ATOMIC CHARGES
----------------------
   0 C :    0.082666
   1 O :   -0.148790
   2 C :   -0.039448
   3 C :   -0.010700
   4 C :   -0.008140
   5 C :   -0.120117
   6 C :   -0.124143
   7 C :    0.007116
   8 Br:    0.134207
   9 Br:    0.138157
  10 C :    0.074095
  11 C :   -0.139397
  12 C :   -0.019769
  13 N :   -0.050970
  14 C :   -0.024550
  15 N :   -0.049165
  16 C :   -0.111216
  17 C :    0.046267
  18 C :   -0.210591
  19 C :   -0.178437
  20 C :   -0.222304
  21 S :    0.297770
  22 C :   -0.137682
  23 C :   -0.139241
  24 S :    0.340021
  25 C :   -0.187772
  26 S :    0.555183
  27 C :   -0.204070
  28 C :   -0.040703
  29 C :   -0.045620
  30 N :   -0.013101
  31 C :   -0.034007
  32 C :    0.071030
  33 O :   -0.108265
  34 C :   -0.009714
  35 C :   -0.005659
  36 C :    0.056861
  37 O :   -0.088602
  38 C :   -0.033231
  39 N :   -0.001296
  40 C :   -0.200433
  41 S :    0.532693
  42 C :   -0.181726
  43 C :   -0.211036
  44 C :   -0.176984
  45 S :    0.327685
  46 C :   -0.141493
  47 C :   -0.135493
  48 S :    0.307489
  49 C :   -0.210535
  50 S :    0.531691
  51 C :    0.042842
  52 C :   -0.094308
  53 C :    0.082827
  54 O :   -0.137644
  55 C :   -0.044072
  56 C :   -0.004383
  57 C :    0.060236
  58 C :   -0.135721
  59 C :   -0.031864
  60 N :   -0.055507
  61 C :   -0.015740
  62 N :   -0.061424
  63 C :   -0.000355
  64 C :   -0.120582
  65 C :   -0.124978
  66 C :    0.003244
  67 Br:    0.131233
  68 Br:    0.133691
  69 H :    0.044238
  70 H :    0.047004
  71 H :    0.038112
  72 H :    0.036261
  73 H :    0.030411
  74 H :    0.032321
  75 H :    0.039608
  76 H :    0.048068
  77 H :    0.047318
  78 H :    0.038133
  79 H :    0.029380
  80 H :    0.035980
  81 H :    0.036517
  82 H :    0.044947
  83 H :    0.040443
  84 H :    0.045231

  Mayer bond orders larger than 0.100000
B(  0-C ,  1-O ) :   2.1434 B(  0-C ,  2-C ) :   0.9522 B(  0-C , 16-C ) :   0.9756
B(  2-C ,  3-C ) :   1.3324 B(  2-C ,  7-C ) :   1.3777 B(  3-C ,  4-C ) :   1.3692
B(  3-C , 10-C ) :   0.9839 B(  4-C ,  5-C ) :   1.3651 B(  4-C , 69-H ) :   0.9795
B(  5-C ,  6-C ) :   1.4273 B(  5-C ,  9-Br) :   1.0550 B(  6-C ,  7-C ) :   1.3431
B(  6-C ,  8-Br) :   1.0292 B(  7-C , 70-H ) :   1.0085 B( 10-C , 11-C ) :   1.6225
B( 10-C , 16-C ) :   1.0957 B( 11-C , 12-C ) :   1.1453 B( 11-C , 14-C ) :   1.1460
B( 12-C , 13-N ) :   2.9693 B( 14-C , 15-N ) :   2.9744 B( 16-C , 17-C ) :   1.5094
B( 17-C , 18-C ) :   1.2868 B( 17-C , 71-H ) :   0.9286 B( 18-C , 19-C ) :   1.4050
B( 18-C , 25-C ) :   0.1031 B( 18-C , 26-S ) :   1.0632 B( 19-C , 20-C ) :   1.3724
B( 19-C , 24-S ) :   1.0506 B( 20-C , 21-S ) :   1.0044 B( 20-C , 25-C ) :   1.4179
B( 21-S , 22-C ) :   1.0080 B( 22-C , 23-C ) :   1.0180 B( 22-C , 72-H ) :   0.9456
B( 22-C , 73-H ) :   0.9492 B( 23-C , 24-S ) :   1.0172 B( 23-C , 74-H ) :   0.9491
B( 23-C , 75-H ) :   0.9470 B( 25-C , 26-S ) :   1.1344 B( 25-C , 27-C ) :   1.2572
B( 27-C , 28-C ) :   1.2942 B( 27-C , 40-C ) :   0.1139 B( 27-C , 41-S ) :   1.1458
B( 28-C , 29-C ) :   1.2196 B( 28-C , 39-N ) :   1.4372 B( 29-C , 30-N ) :   1.4141
B( 29-C , 40-C ) :   1.2892 B( 30-N , 31-C ) :   1.6824 B( 31-C , 32-C ) :   0.9124
B( 31-C , 38-C ) :   1.1265 B( 32-C , 33-O ) :   2.1516 B( 32-C , 34-C ) :   1.0308
B( 34-C , 35-C ) :   1.6752 B( 34-C , 76-H ) :   1.0002 B( 35-C , 36-C ) :   1.0198
B( 35-C , 77-H ) :   0.9968 B( 36-C , 37-O ) :   2.2554 B( 36-C , 38-C ) :   0.8918
B( 38-C , 39-N ) :   1.6907 B( 40-C , 41-S ) :   1.1537 B( 40-C , 42-C ) :   1.2326
B( 42-C , 43-C ) :   1.4783 B( 42-C , 49-C ) :   0.1039 B( 42-C , 50-S ) :   1.1467
B( 43-C , 44-C ) :   1.3127 B( 43-C , 48-S ) :   1.0138 B( 44-C , 45-S ) :   1.0393
B( 44-C , 49-C ) :   1.4812 B( 45-S , 46-C ) :   1.0122 B( 46-C , 47-C ) :   1.0173
B( 46-C , 78-H ) :   0.9464 B( 46-C , 79-H ) :   0.9486 B( 47-C , 48-S ) :   1.0108
B( 47-C , 80-H ) :   0.9481 B( 47-C , 81-H ) :   0.9475 B( 49-C , 50-S ) :   1.0729
B( 49-C , 51-C ) :   1.1508 B( 51-C , 52-C ) :   1.6390 B( 51-C , 82-H ) :   0.9440
B( 52-C , 53-C ) :   0.9467 B( 52-C , 57-C ) :   1.0350 B( 53-C , 54-O ) :   2.2816
B( 53-C , 55-C ) :   0.9153 B( 55-C , 56-C ) :   1.3266 B( 55-C , 66-C ) :   1.3710
B( 56-C , 57-C ) :   1.0094 B( 56-C , 63-C ) :   1.3866 B( 57-C , 58-C ) :   1.6692
B( 58-C , 59-C ) :   1.1490 B( 58-C , 61-C ) :   1.1458 B( 59-C , 60-N ) :   3.0132
B( 61-C , 62-N ) :   2.9733 B( 63-C , 64-C ) :   1.3625 B( 63-C , 83-H ) :   0.9754
B( 64-C , 65-C ) :   1.4228 B( 64-C , 68-Br) :   1.0428 B( 65-C , 66-C ) :   1.3593
B( 65-C , 67-Br) :   1.0290 B( 66-C , 84-H ) :   1.0079

-----------------------------------------------------------------------------
         ABSORPTION SPECTRUM VIA TRANSITION ELECTRIC DIPOLE MOMENTS
-----------------------------------------------------------------------------
State   Energy  Wavelength   fosc         T2         TX        TY        TZ
        (cm-1)    (nm)                  (au**2)     (au)      (au)      (au)
-----------------------------------------------------------------------------
   0   10721.9    932.7   0.735052298  22.56953   2.85619  -3.67770  -0.94139
   1   15404.6    649.2   0.068295377   1.45955  -0.59345   1.04412   0.13110
   2   18437.4    542.4   0.035181451   0.62819  -0.71430   0.32918   0.09799
   3   18652.2    536.1   0.120377951   2.12468   0.98786   0.69109   0.81927
   4   19209.3    520.6   0.210078719   3.60036   0.44518  -1.46733  -1.11764
   5   20066.7    498.3   0.111837661   1.83480  -0.88070   0.92552  -0.45007
   6   20615.1    485.1   0.317938679   5.07731   1.93341  -0.72925   0.89857
   7   23164.2    431.7   0.017708438   0.25167   0.03214   0.29375   0.40541
   8   23573.5    424.2   0.104848572   1.46424   1.14874  -0.21549   0.31340
   9   23865.9    419.0   0.007829982   0.10801   0.05836  -0.12403   0.29869
  10   24550.7    407.3   0.002658573   0.03565   0.11962   0.14573  -0.01021
  11   24900.0    401.6   0.041696596   0.55129  -0.06065  -0.66484  -0.32495
  12   25353.8    394.4   0.017246219   0.22394  -0.35386   0.26592  -0.16736
  13   25689.2    389.3   0.054487244   0.69826   0.39429   0.50178   0.53946
  14   25795.8    387.7   0.072066556   0.91973   0.10174   0.90871   0.28919
  15   26172.5    382.1   0.023225277   0.29214  -0.10908  -0.36644  -0.38205
  16   26650.3    375.2   0.011009143   0.13600  -0.16626  -0.30045  -0.13447
  17   26869.6    372.2   0.003985945   0.04884  -0.10348   0.09834   0.16870
  18   27224.7    367.3   0.001213032   0.01467   0.10665   0.04917  -0.02960
  19   27834.1    359.3   0.120989634   1.43102   0.73941   0.81992   0.46046
  20   28443.9    351.6   0.034508553   0.39940  -0.29469  -0.30476  -0.46871
  21   28915.5    345.8   0.006277049   0.07147   0.21744   0.13536   0.07659
  22   29341.9    340.8   0.081380204   0.91308   0.44896  -0.73636   0.41145
  23   29835.4    335.2   0.081320871   0.89732  -0.70885   0.21560  -0.59023
  24   30086.4    332.4   0.021959096   0.24028   0.09003  -0.45372  -0.16221
  25   30275.5    330.3   0.013281989   0.14443  -0.17462  -0.12776  -0.31243
  26   30722.6    325.5   0.057393169   0.61500   0.53705   0.27910   0.49869
  27   30827.4    324.4   0.078223593   0.83536  -0.77243   0.03562  -0.48728
  28   31547.9    317.0   0.094913648   0.99045  -0.63055   0.76338  -0.10058
  29   31728.3    315.2   0.057793121   0.59966   0.50491   0.40963   0.42063
  30   31776.4    314.7   0.003591728   0.03721   0.16759   0.01110   0.09488
  31   32061.0    311.9   0.065772544   0.67537  -0.15454  -0.68143  -0.43260
  32   32499.9    307.7   0.014126907   0.14310  -0.02992  -0.26251  -0.27073
  33   32621.9    306.5   0.013722531   0.13848   0.26820   0.20453   0.15723
  34   32755.5    305.3   0.121733772   1.22350  -0.66264  -0.71733  -0.51946
  35   32931.1    303.7   0.037691578   0.37680  -0.37838  -0.46242   0.14072
  36   33024.1    302.8   0.079647326   0.79399  -0.52168   0.72087  -0.04672
  37   33146.0    301.7   0.007616800   0.07565   0.27447   0.01443   0.01045
  38   33278.2    300.5   0.034857349   0.34483   0.09100   0.52665   0.24329
  39   33664.9    297.0   0.056469819   0.55222   0.50691   0.52071   0.15533
  40   33714.6    296.6   0.090100299   0.87980   0.81994  -0.06906   0.45026
  41   34010.3    294.0   0.015743743   0.15240  -0.23618   0.28947   0.11325
  42   34368.5    291.0   0.293555095   2.81193   1.20628   1.04747   0.50953
  43   34425.5    290.5   0.016647046   0.15920   0.21175   0.10110   0.32271
  44   34700.5    288.2   0.349902357   3.31961   0.19848   1.79856   0.21307
  45   34799.7    287.4   0.056214000   0.53180  -0.27066   0.67165  -0.08617
  46   34906.5    286.5   0.580016234   5.47027  -0.54150  -2.24200  -0.38796
  47   35107.1    284.8   0.063176568   0.59243   0.71321   0.24497   0.15412
  48   35476.3    281.9   0.240201802   2.22902  -0.79083  -0.93057  -0.85886
  49   35523.1    281.5   0.060935515   0.56472  -0.39497   0.61120  -0.18752
  50   35761.9    279.6   0.065794523   0.60568   0.67863   0.19332   0.32829
  51   35972.6    278.0   0.189409323   1.73342   0.75456   0.68377   0.83458
  52   36074.6    277.2   0.033340273   0.30426   0.22697   0.50190  -0.02906
  53   36211.9    276.2   0.000523955   0.00476  -0.04237   0.01530   0.05229
  54   36302.9    275.5   0.036162234   0.32794  -0.16835   0.53257  -0.12635
  55   36606.9    273.2   0.018440636   0.16584   0.31380  -0.18191   0.18515
  56   36922.8    270.8   0.000486081   0.00433   0.06446   0.00637  -0.01176
  57   37104.8    269.5   0.021468659   0.19048   0.42903   0.07707   0.02183
  58   37286.6    268.2   0.009664792   0.08533   0.27511  -0.08001   0.05697
  59   37616.9    265.8   0.096416914   0.84381  -0.80048   0.29534  -0.34031
  60   37888.4    263.9   0.014999015   0.13033  -0.23249  -0.25928  -0.09512
  61   38159.2    262.1   0.079855259   0.68894  -0.70582   0.01218  -0.43659
  62   38386.8    260.5   0.000244791   0.00210  -0.01650   0.02909   0.03132
  63   38510.4    259.7   0.007387371   0.06315   0.12290   0.21729   0.02885
  64   38556.1    259.4   0.018750394   0.16010   0.34791  -0.06977   0.18490
  65   38649.0    258.7   0.017908313   0.15254   0.35912  -0.08515   0.12777
  66   38726.9    258.2   0.033938867   0.28851   0.18283   0.27902   0.42098
  67   39043.2    256.1   0.017428816   0.14696  -0.37096   0.08559  -0.04500
  68   39210.6    255.0   0.103118052   0.86578   0.66712  -0.34760   0.54764
  69   39337.0    254.2   0.068513588   0.57339   0.72245  -0.15952   0.16130
  70   39423.6    253.7   0.034556152   0.28857  -0.48726   0.00157  -0.22614
  71   40025.2    249.8   0.006845219   0.05630   0.14799  -0.17948  -0.04676
  72   40198.1    248.8   0.047213355   0.38666   0.61305  -0.10264   0.01725

FINAL SINGLE POINT ENERGY    -15547.286964848725

DIPOLE MOMENT
-------------
                                X             Y             Z
Electronic contribution:   -181.60342     -84.97407    -101.13619
Nuclear contribution   :    183.88098      84.00254     103.68342
                        -----------------------------------------
Total Dipole Moment    :      2.27756      -0.97153       2.54723
                        -----------------------------------------
Magnitude (a.u.)       :      3.55240
Magnitude (Debye)      :      9.02948

Rotational constants in cm-1:     0.000859     0.000309     0.000232
Rotational constants in MHz :    25.748141     9.260553     6.958285

                             ****ORCA TERMINATED NORMALLY****
TOTAL RUN TIME: 0 days 0 hours 11 minutes 7 seconds 992 msec
