                         Program Version 4.2.0 -  RELEASE  -
|  1> # ORCA input file
|  2> # SCF done       -126.805131437430          0.000828097400
|  3> ! CAM-B3LYP def2-SVP def2/J RIJCOSX Grid4 TightSCF
|  4> %maxcore 5000
|  5> %tddft
|  6>     Mode sTDDFT
|  7>     Ethresh 5.0
|  8>     maxcore 5000
|  9> end
| 10>
| 11> %pal
| 12>   nprocs 6
| 13>   end
| 14> * xyz 0 1
| 15>    C        0.38541        -0.94997        -0.78605
| 16>    C        1.05113         0.13127        -1.17637
| 17>    C        2.17476         0.18172        -2.10098
| 18>    C        2.65570        -0.95257        -2.76740
| 19>    C        3.72168        -0.83527        -3.62559
| 20>    C        4.33628         0.40893        -3.84409
| 21>    C        3.86912         1.53944        -3.19277
| 22>    C        2.79561         1.41339        -2.33185
| 23>    C        5.42090         0.22786        -4.78677
| 24>    C        5.47714        -1.12814        -5.14994
| 25>    C        4.39644        -1.91323        -4.44283
| 26>    C        3.41792        -2.55044        -5.44657
| 27>    C        2.77512        -1.52752        -6.37523
| 28>    C        4.99706        -3.00886        -3.54333
| 29>    C        5.98046        -2.45728        -2.51831
| 30>    C        6.42172        -1.57900        -6.03760
| 31>    C        7.34473        -0.67759        -6.59021
| 32>    C        7.27640         0.67085        -6.21707
| 33>    C        6.32654         1.12835        -5.32459
| 34>    C        8.34506        -1.14969        -7.52005
| 35>    N        9.02573        -0.29649        -8.36431
| 36>    C        9.89472        -1.02727        -9.11384
| 37>    C       10.86297        -0.94890       -10.11653
| 38>    C       11.32157        -2.25104       -10.31318
| 39>    N       10.65237        -3.10213        -9.45386
| 40>    C        9.77414        -2.37439        -8.71549
| 41>    C        8.79710        -2.45004        -7.71870
| 42>    C       12.30163        -2.76523       -11.21093
| 43>    C       12.99192        -2.03713       -12.11129
| 44>    C       13.98008        -2.52608       -13.04261
| 45>    C       14.53528        -1.62165       -13.96356
| 46>    C       15.46887        -2.05142       -14.87309
| 47>    C       15.88336        -3.39338       -14.89167
| 48>    C       15.35073        -4.29751       -13.98487
| 49>    C       14.41013        -3.85979       -13.07495
| 50>    C       16.86194        -3.56009       -15.94575
| 51>    C       17.05276        -2.32054       -16.57910
| 52>    C       16.18081        -1.26006       -15.94630
| 53>    C       17.02642        -0.12525       -15.34010
| 54>    C       18.04342        -0.62664       -14.32199
| 55>    C       15.18475        -0.67327       -16.96337
| 56>    C       14.30942        -1.73782       -17.61356
| 57>    C       17.93285        -2.19328       -17.62588
| 58>    C       18.64911        -3.31262       -18.06892
| 59>    C       18.44689        -4.53945       -17.42856
| 60>    C       17.56452        -4.67542       -16.37398
| 61>    C       19.59590        -3.25227       -19.17330
| 62>    C       19.94744        -2.17546       -19.86720
| 63>    H       -0.43564        -0.88082        -0.09321
| 64>    H        0.62406        -1.94129        -1.13208
| 65>    H        0.75496         1.09490        -0.77833
| 66>    H        2.18778        -1.91196        -2.60865
| 67>    H        4.33262         2.50175        -3.35344
| 68>    H        2.42286         2.28885        -1.81809
| 69>    H        2.63779        -3.07479        -4.89018
| 70>    H        3.95881        -3.28989        -6.04129
| 71>    H        2.21779        -0.78836        -5.80390
| 72>    H        2.09034        -2.02160        -7.06099
| 73>    H        3.53378        -1.00982        -6.95807
| 74>    H        5.50483        -3.74074        -4.17547
| 75>    H        4.18375        -3.52217        -3.02550
| 76>    H        6.81074        -1.95909        -3.01398
| 77>    H        6.37741        -3.26455        -1.90670
| 78>    H        5.49002        -1.73876        -1.86526
| 79>    H        6.45544        -2.61777        -6.32726
| 80>    H        7.99619         1.37320        -6.61284
| 81>    H        6.29718         2.17221        -5.04835
| 82>    H        8.84160         0.68668        -8.45407
| 83>    H       11.20020        -0.07655       -10.63859
| 84>    H       10.80381        -4.09445        -9.40505
| 85>    H        8.47416        -3.32178        -7.18611
| 86>    H       12.46909        -3.83173       -11.13862
| 87>    H       12.79192        -0.97560       -12.16908
| 88>    H       14.21429        -0.58919       -13.94749
| 89>    H       15.66587        -5.33088       -13.98897
| 90>    H       14.00130        -4.56735       -12.37003
| 91>    H       16.35674         0.59207       -14.86030
| 92>    H       17.54787         0.39352       -16.14775
| 93>    H       17.54345        -1.13116       -13.49809
| 94>    H       18.61508         0.20726       -13.92046
| 95>    H       18.73457        -1.32794       -14.78446
| 96>    H       15.74488        -0.14290       -17.73683
| 97>    H       14.55052         0.05448       -16.45214
| 98>    H       14.92057        -2.46344       -18.14582
| 99>    H       13.62356        -1.27852       -18.32207
|100>    H       13.72689        -2.26604       -16.86193
|101>    H       18.07044        -1.23766       -18.10811
|102>    H       18.99987        -5.40321       -17.77148
|103>    H       17.42598        -5.63374       -15.89528
|104>    H       20.04672        -4.20422       -19.42907
|105>    H       19.54759        -1.19559       -19.66992
|106>    H       20.66165        -2.23689       -20.67046
|107> *
|108>
|109>                          ****END OF INPUT****

CARTESIAN COORDINATES (ANGSTROEM)
---------------------------------
  C      0.385410   -0.949970   -0.786050
  C      1.051130    0.131270   -1.176370
  C      2.174760    0.181720   -2.100980
  C      2.655700   -0.952570   -2.767400
  C      3.721680   -0.835270   -3.625590
  C      4.336280    0.408930   -3.844090
  C      3.869120    1.539440   -3.192770
  C      2.795610    1.413390   -2.331850
  C      5.420900    0.227860   -4.786770
  C      5.477140   -1.128140   -5.149940
  C      4.396440   -1.913230   -4.442830
  C      3.417920   -2.550440   -5.446570
  C      2.775120   -1.527520   -6.375230
  C      4.997060   -3.008860   -3.543330
  C      5.980460   -2.457280   -2.518310
  C      6.421720   -1.579000   -6.037600
  C      7.344730   -0.677590   -6.590210
  C      7.276400    0.670850   -6.217070
  C      6.326540    1.128350   -5.324590
  C      8.345060   -1.149690   -7.520050
  N      9.025730   -0.296490   -8.364310
  C      9.894720   -1.027270   -9.113840
  C     10.862970   -0.948900  -10.116530
  C     11.321570   -2.251040  -10.313180
  N     10.652370   -3.102130   -9.453860
  C      9.774140   -2.374390   -8.715490
  C      8.797100   -2.450040   -7.718700
  C     12.301630   -2.765230  -11.210930
  C     12.991920   -2.037130  -12.111290
  C     13.980080   -2.526080  -13.042610
  C     14.535280   -1.621650  -13.963560
  C     15.468870   -2.051420  -14.873090
  C     15.883360   -3.393380  -14.891670
  C     15.350730   -4.297510  -13.984870
  C     14.410130   -3.859790  -13.074950
  C     16.861940   -3.560090  -15.945750
  C     17.052760   -2.320540  -16.579100
  C     16.180810   -1.260060  -15.946300
  C     17.026420   -0.125250  -15.340100
  C     18.043420   -0.626640  -14.321990
  C     15.184750   -0.673270  -16.963370
  C     14.309420   -1.737820  -17.613560
  C     17.932850   -2.193280  -17.625880
  C     18.649110   -3.312620  -18.068920
  C     18.446890   -4.539450  -17.428560
  C     17.564520   -4.675420  -16.373980
  C     19.595900   -3.252270  -19.173300
  C     19.947440   -2.175460  -19.867200
  H     -0.435640   -0.880820   -0.093210
  H      0.624060   -1.941290   -1.132080
  H      0.754960    1.094900   -0.778330
  H      2.187780   -1.911960   -2.608650
  H      4.332620    2.501750   -3.353440
  H      2.422860    2.288850   -1.818090
  H      2.637790   -3.074790   -4.890180
  H      3.958810   -3.289890   -6.041290
  H      2.217790   -0.788360   -5.803900
  H      2.090340   -2.021600   -7.060990
  H      3.533780   -1.009820   -6.958070
  H      5.504830   -3.740740   -4.175470
  H      4.183750   -3.522170   -3.025500
  H      6.810740   -1.959090   -3.013980
  H      6.377410   -3.264550   -1.906700
  H      5.490020   -1.738760   -1.865260
  H      6.455440   -2.617770   -6.327260
  H      7.996190    1.373200   -6.612840
  H      6.297180    2.172210   -5.048350
  H      8.841600    0.686680   -8.454070
  H     11.200200   -0.076550  -10.638590
  H     10.803810   -4.094450   -9.405050
  H      8.474160   -3.321780   -7.186110
  H     12.469090   -3.831730  -11.138620
  H     12.791920   -0.975600  -12.169080
  H     14.214290   -0.589190  -13.947490
  H     15.665870   -5.330880  -13.988970
  H     14.001300   -4.567350  -12.370030
  H     16.356740    0.592070  -14.860300
  H     17.547870    0.393520  -16.147750
  H     17.543450   -1.131160  -13.498090
  H     18.615080    0.207260  -13.920460
  H     18.734570   -1.327940  -14.784460
  H     15.744880   -0.142900  -17.736830
  H     14.550520    0.054480  -16.452140
  H     14.920570   -2.463440  -18.145820
  H     13.623560   -1.278520  -18.322070
  H     13.726890   -2.266040  -16.861930
  H     18.070440   -1.237660  -18.108110
  H     18.999870   -5.403210  -17.771480
  H     17.425980   -5.633740  -15.895280
  H     20.046720   -4.204220  -19.429070
  H     19.547590   -1.195590  -19.669920
  H     20.661650   -2.236890  -20.670460

 Total Charge           Charge          ....    0
 Multiplicity           Mult            ....    1
 Number of Electrons    NEL             ....  334
 Basis Dimension        Dim             ....  892

ORBITAL ENERGIES
----------------

  NO   OCC          E(Eh)            E(eV)
   0   2.0000     -14.441979      -392.9862
   1   2.0000     -14.441336      -392.9687
   2   2.0000     -10.288462      -279.9633
   3   2.0000     -10.287103      -279.9263
   4   2.0000     -10.274366      -279.5797
   5   2.0000     -10.273482      -279.5557
   6   2.0000     -10.272966      -279.5416
   7   2.0000     -10.269069      -279.4356
   8   2.0000     -10.267209      -279.3850
   9   2.0000     -10.266759      -279.3727
  10   2.0000     -10.266301      -279.3603
  11   2.0000     -10.266166      -279.3566
  12   2.0000     -10.264917      -279.3226
  13   2.0000     -10.264509      -279.3115
  14   2.0000     -10.263597      -279.2867
  15   2.0000     -10.263173      -279.2751
  16   2.0000     -10.262126      -279.2466
  17   2.0000     -10.261337      -279.2252
  18   2.0000     -10.260945      -279.2145
  19   2.0000     -10.260642      -279.2063
  20   2.0000     -10.259886      -279.1857
  21   2.0000     -10.259780      -279.1828
  22   2.0000     -10.259732      -279.1815
  23   2.0000     -10.259339      -279.1708
  24   2.0000     -10.259273      -279.1690
  25   2.0000     -10.259082      -279.1638
  26   2.0000     -10.258946      -279.1601
  27   2.0000     -10.258405      -279.1454
  28   2.0000     -10.258118      -279.1376
  29   2.0000     -10.257965      -279.1334
  30   2.0000     -10.257716      -279.1266
  31   2.0000     -10.257224      -279.1132
  32   2.0000     -10.257177      -279.1120
  33   2.0000     -10.256794      -279.1015
  34   2.0000     -10.256617      -279.0967
  35   2.0000     -10.255938      -279.0782
  36   2.0000     -10.255819      -279.0750
  37   2.0000     -10.255606      -279.0692
  38   2.0000     -10.254134      -279.0292
  39   2.0000     -10.254099      -279.0282
  40   2.0000     -10.253871      -279.0220
  41   2.0000     -10.252798      -278.9928
  42   2.0000     -10.247387      -278.8456
  43   2.0000     -10.246517      -278.8219
  44   2.0000     -10.238903      -278.6147
  45   2.0000     -10.238875      -278.6140
  46   2.0000     -10.237451      -278.5752
  47   2.0000     -10.237319      -278.5716
  48   2.0000      -1.072716       -29.1901
  49   2.0000      -1.036807       -28.2130
  50   2.0000      -0.978001       -26.6128
  51   2.0000      -0.976048       -26.5596
  52   2.0000      -0.935065       -25.4444
  53   2.0000      -0.934293       -25.4234
  54   2.0000      -0.909291       -24.7431
  55   2.0000      -0.908533       -24.7224
  56   2.0000      -0.882313       -24.0090
  57   2.0000      -0.877421       -23.8758
  58   2.0000      -0.869591       -23.6628
  59   2.0000      -0.856283       -23.3006
  60   2.0000      -0.848929       -23.1005
  61   2.0000      -0.841144       -22.8887
  62   2.0000      -0.830383       -22.5959
  63   2.0000      -0.829654       -22.5760
  64   2.0000      -0.828049       -22.5324
  65   2.0000      -0.822405       -22.3788
  66   2.0000      -0.820886       -22.3374
  67   2.0000      -0.820260       -22.3204
  68   2.0000      -0.817124       -22.2351
  69   2.0000      -0.798135       -21.7184
  70   2.0000      -0.785002       -21.3610
  71   2.0000      -0.755016       -20.5450
  72   2.0000      -0.752702       -20.4821
  73   2.0000      -0.750540       -20.4232
  74   2.0000      -0.733026       -19.9466
  75   2.0000      -0.716664       -19.5014
  76   2.0000      -0.707425       -19.2500
  77   2.0000      -0.692939       -18.8558
  78   2.0000      -0.683906       -18.6100
  79   2.0000      -0.677815       -18.4443
  80   2.0000      -0.670181       -18.2365
  81   2.0000      -0.666752       -18.1432
  82   2.0000      -0.666149       -18.1268
  83   2.0000      -0.665208       -18.1012
  84   2.0000      -0.658666       -17.9232
  85   2.0000      -0.658151       -17.9092
  86   2.0000      -0.648151       -17.6371
  87   2.0000      -0.637003       -17.3337
  88   2.0000      -0.634570       -17.2675
  89   2.0000      -0.627590       -17.0776
  90   2.0000      -0.625254       -17.0140
  91   2.0000      -0.598076       -16.2745
  92   2.0000      -0.597478       -16.2582
  93   2.0000      -0.584330       -15.9004
  94   2.0000      -0.581372       -15.8199
  95   2.0000      -0.569138       -15.4870
  96   2.0000      -0.562212       -15.2986
  97   2.0000      -0.552827       -15.0432
  98   2.0000      -0.550348       -14.9757
  99   2.0000      -0.538804       -14.6616
 100   2.0000      -0.534977       -14.5575
 101   2.0000      -0.533203       -14.5092
 102   2.0000      -0.532390       -14.4871
 103   2.0000      -0.529221       -14.4008
 104   2.0000      -0.526646       -14.3308
 105   2.0000      -0.521557       -14.1923
 106   2.0000      -0.517113       -14.0714
 107   2.0000      -0.515442       -14.0259
 108   2.0000      -0.513666       -13.9776
 109   2.0000      -0.510429       -13.8895
 110   2.0000      -0.509708       -13.8699
 111   2.0000      -0.509050       -13.8520
 112   2.0000      -0.508222       -13.8294
 113   2.0000      -0.505118       -13.7450
 114   2.0000      -0.502773       -13.6811
 115   2.0000      -0.496552       -13.5119
 116   2.0000      -0.488001       -13.2792
 117   2.0000      -0.484655       -13.1881
 118   2.0000      -0.478883       -13.0311
 119   2.0000      -0.474547       -12.9131
 120   2.0000      -0.469202       -12.7676
 121   2.0000      -0.467444       -12.7198
 122   2.0000      -0.465094       -12.6559
 123   2.0000      -0.463377       -12.6091
 124   2.0000      -0.462899       -12.5961
 125   2.0000      -0.461425       -12.5560
 126   2.0000      -0.460132       -12.5208
 127   2.0000      -0.455800       -12.4029
 128   2.0000      -0.452106       -12.3024
 129   2.0000      -0.447065       -12.1653
 130   2.0000      -0.443315       -12.0632
 131   2.0000      -0.439417       -11.9571
 132   2.0000      -0.436884       -11.8882
 133   2.0000      -0.432675       -11.7737
 134   2.0000      -0.431547       -11.7430
 135   2.0000      -0.427967       -11.6456
 136   2.0000      -0.423884       -11.5345
 137   2.0000      -0.418514       -11.3883
 138   2.0000      -0.417264       -11.3543
 139   2.0000      -0.416369       -11.3300
 140   2.0000      -0.415726       -11.3125
 141   2.0000      -0.411354       -11.1935
 142   2.0000      -0.409310       -11.1379
 143   2.0000      -0.408177       -11.1071
 144   2.0000      -0.405747       -11.0409
 145   2.0000      -0.399600       -10.8737
 146   2.0000      -0.398103       -10.8329
 147   2.0000      -0.394228       -10.7275
 148   2.0000      -0.388723       -10.5777
 149   2.0000      -0.379541       -10.3278
 150   2.0000      -0.378699       -10.3049
 151   2.0000      -0.375955       -10.2302
 152   2.0000      -0.375486       -10.2175
 153   2.0000      -0.373725       -10.1696
 154   2.0000      -0.371853       -10.1186
 155   2.0000      -0.361221        -9.8293
 156   2.0000      -0.341821        -9.3014
 157   2.0000      -0.323975        -8.8158
 158   2.0000      -0.311466        -8.4754
 159   2.0000      -0.308943        -8.4068
 160   2.0000      -0.305700        -8.3185
 161   2.0000      -0.303574        -8.2607
 162   2.0000      -0.299417        -8.1476
 163   2.0000      -0.273999        -7.4559
 164   2.0000      -0.266515        -7.2522
 165   2.0000      -0.250129        -6.8064
 166   2.0000      -0.205172        -5.5830
 167   0.0000      -0.030836        -0.8391
 168   0.0000      -0.012183        -0.3315
 169   0.0000       0.014950         0.4068
 170   0.0000       0.029422         0.8006
 171   0.0000       0.033575         0.9136

MULLIKEN ATOMIC CHARGES
-----------------------
   0 C :   -0.020444
   1 C :   -0.001291
   2 C :    0.106436
   3 C :   -0.080968
   4 C :   -0.000365
   5 C :    0.115693
   6 C :   -0.053386
   7 C :   -0.019377
   8 C :    0.101382
   9 C :    0.026725
  10 C :   -0.138759
  11 C :    0.069295
  12 C :    0.024351
  13 C :    0.069584
  14 C :    0.026885
  15 C :   -0.117219
  16 C :    0.149033
  17 C :   -0.054797
  18 C :   -0.054377
  19 C :    0.064417
  20 N :   -0.036250
  21 C :    0.100006
  22 C :   -0.176488
  23 C :    0.096391
  24 N :   -0.035655
  25 C :    0.108093
  26 C :   -0.181669
  27 C :    0.036710
  28 C :   -0.029536
  29 C :    0.141770
  30 C :   -0.117779
  31 C :    0.022013
  32 C :    0.101024
  33 C :   -0.043110
  34 C :   -0.023151
  35 C :    0.113067
  36 C :    0.000549
  37 C :   -0.139004
  38 C :    0.070291
  39 C :    0.026691
  40 C :    0.068266
  41 C :    0.024570
  42 C :   -0.081792
  43 C :    0.107205
  44 C :   -0.019893
  45 C :   -0.052171
  46 C :   -0.001561
  47 C :   -0.019966
  48 H :    0.019515
  49 H :    0.009883
  50 H :   -0.021138
  51 H :   -0.052163
  52 H :   -0.040386
  53 H :   -0.032607
  54 H :   -0.004346
  55 H :   -0.003886
  56 H :    0.022604
  57 H :    0.006214
  58 H :    0.021965
  59 H :   -0.006297
  60 H :   -0.004612
  61 H :    0.022083
  62 H :    0.005241
  63 H :    0.021965
  64 H :   -0.044371
  65 H :   -0.050678
  66 H :   -0.040051
  67 H :    0.118851
  68 H :   -0.044285
  69 H :    0.115325
  70 H :   -0.044316
  71 H :   -0.042642
  72 H :   -0.033302
  73 H :   -0.047390
  74 H :   -0.042647
  75 H :   -0.040444
  76 H :   -0.005400
  77 H :   -0.005032
  78 H :    0.022070
  79 H :    0.004755
  80 H :    0.021704
  81 H :   -0.004687
  82 H :   -0.004921
  83 H :    0.022434
  84 H :    0.005419
  85 H :    0.022681
  86 H :   -0.052542
  87 H :   -0.032972
  88 H :   -0.040204
  89 H :   -0.021522
  90 H :    0.009550
  91 H :    0.019139
Sum of atomic charges:   -0.0000000

LOEWDIN ATOMIC CHARGES
----------------------
   0 C :   -0.051006
   1 C :   -0.018684
   2 C :   -0.028306
   3 C :   -0.016338
   4 C :    0.002732
   5 C :   -0.016972
   6 C :   -0.023312
   7 C :   -0.020214
   8 C :   -0.026458
   9 C :    0.006229
  10 C :   -0.035411
  11 C :   -0.011878
  12 C :   -0.057852
  13 C :   -0.012094
  14 C :   -0.057723
  15 C :   -0.021624
  16 C :   -0.020727
  17 C :   -0.037711
  18 C :   -0.016479
  19 C :   -0.000217
  20 N :    0.067156
  21 C :   -0.027131
  22 C :   -0.098053
  23 C :   -0.008479
  24 N :    0.068239
  25 C :   -0.029945
  26 C :   -0.102691
  27 C :   -0.031764
  28 C :   -0.030747
  29 C :   -0.019887
  30 C :   -0.026915
  31 C :    0.002666
  32 C :   -0.024478
  33 C :   -0.018163
  34 C :   -0.022049
  35 C :   -0.016779
  36 C :    0.003178
  37 C :   -0.035358
  38 C :   -0.012100
  39 C :   -0.057706
  40 C :   -0.012104
  41 C :   -0.057967
  42 C :   -0.016531
  43 C :   -0.028485
  44 C :   -0.020585
  45 C :   -0.023324
  46 C :   -0.018656
  47 C :   -0.051420
  48 H :    0.024535
  49 H :    0.017953
  50 H :    0.026792
  51 H :    0.021832
  52 H :    0.024812
  53 H :    0.024433
  54 H :    0.018924
  55 H :    0.019065
  56 H :    0.025858
  57 H :    0.022777
  58 H :    0.025680
  59 H :    0.018433
  60 H :    0.018905
  61 H :    0.025767
  62 H :    0.022476
  63 H :    0.025870
  64 H :    0.023342
  65 H :    0.017298
  66 H :    0.025487
  67 H :    0.083558
  68 H :    0.019867
  69 H :    0.085043
  70 H :    0.019765
  71 H :    0.021299
  72 H :    0.024313
  73 H :    0.021386
  74 H :    0.024754
  75 H :    0.021315
  76 H :    0.018690
  77 H :    0.018672
  78 H :    0.025836
  79 H :    0.022269
  80 H :    0.025700
  81 H :    0.018684
  82 H :    0.018721
  83 H :    0.025816
  84 H :    0.022415
  85 H :    0.025958
  86 H :    0.021734
  87 H :    0.024286
  88 H :    0.024831
  89 H :    0.026712
  90 H :    0.017868
  91 H :    0.024389

  Mayer bond orders larger than 0.100000
B(  0-C ,  1-C ) :   1.9496 B(  0-C , 48-H ) :   0.9499 B(  0-C , 49-H ) :   0.9475
B(  1-C ,  2-C ) :   1.0621 B(  1-C , 50-H ) :   0.9680 B(  2-C ,  3-C ) :   1.3051
B(  2-C ,  7-C ) :   1.3582 B(  3-C ,  4-C ) :   1.4198 B(  3-C , 51-H ) :   0.9989
B(  4-C ,  5-C ) :   1.3569 B(  4-C , 10-C ) :   0.9151 B(  5-C ,  6-C ) :   1.3510
B(  5-C ,  8-C ) :   0.9905 B(  6-C ,  7-C ) :   1.3670 B(  6-C , 52-H ) :   0.9911
B(  7-C , 53-H ) :   0.9908 B(  8-C ,  9-C ) :   1.3595 B(  8-C , 18-C ) :   1.3501
B(  9-C , 10-C ) :   0.9138 B(  9-C , 15-C ) :   1.3901 B( 10-C , 11-C ) :   1.0382
B( 10-C , 13-C ) :   1.0379 B( 11-C , 12-C ) :   1.1005 B( 11-C , 54-H ) :   0.9392
B( 11-C , 55-H ) :   0.9392 B( 12-C , 56-H ) :   0.9646 B( 12-C , 57-H ) :   0.9640
B( 12-C , 58-H ) :   0.9647 B( 13-C , 14-C ) :   1.1016 B( 13-C , 59-H ) :   0.9388
B( 13-C , 60-H ) :   0.9390 B( 14-C , 61-H ) :   0.9642 B( 14-C , 62-H ) :   0.9639
B( 14-C , 63-H ) :   0.9642 B( 15-C , 16-C ) :   1.3143 B( 15-C , 64-H ) :   1.0066
B( 16-C , 17-C ) :   1.3310 B( 16-C , 19-C ) :   1.0008 B( 17-C , 18-C ) :   1.3848
B( 17-C , 65-H ) :   0.9872 B( 18-C , 66-H ) :   0.9895 B( 19-C , 20-N ) :   1.2085
B( 19-C , 26-C ) :   1.4499 B( 20-N , 21-C ) :   1.1550 B( 20-N , 67-H ) :   0.9332
B( 21-C , 22-C ) :   1.2470 B( 21-C , 25-C ) :   1.3433 B( 22-C , 23-C ) :   1.4253
B( 22-C , 68-H ) :   1.0319 B( 23-C , 24-N ) :   1.1725 B( 23-C , 27-C ) :   1.0932
B( 24-N , 25-C ) :   1.1650 B( 24-N , 69-H ) :   0.9370 B( 25-C , 26-C ) :   1.2226
B( 26-C , 70-H ) :   1.0291 B( 27-C , 28-C ) :   1.6939 B( 27-C , 71-H ) :   0.9534
B( 28-C , 29-C ) :   1.0736 B( 28-C , 72-H ) :   0.9867 B( 29-C , 30-C ) :   1.2828
B( 29-C , 34-C ) :   1.3394 B( 30-C , 31-C ) :   1.3761 B( 30-C , 73-H ) :   1.0134
B( 31-C , 32-C ) :   1.3719 B( 31-C , 37-C ) :   0.9157 B( 32-C , 33-C ) :   1.3319
B( 32-C , 35-C ) :   0.9944 B( 33-C , 34-C ) :   1.4017 B( 33-C , 74-H ) :   0.9885
B( 34-C , 75-H ) :   0.9831 B( 35-C , 36-C ) :   1.3553 B( 35-C , 45-C ) :   1.3514
B( 36-C , 37-C ) :   0.9169 B( 36-C , 42-C ) :   1.4199 B( 37-C , 38-C ) :   1.0374
B( 37-C , 40-C ) :   1.0368 B( 38-C , 39-C ) :   1.1011 B( 38-C , 76-H ) :   0.9391
B( 38-C , 77-H ) :   0.9389 B( 39-C , 78-H ) :   0.9645 B( 39-C , 79-H ) :   0.9640
B( 39-C , 80-H ) :   0.9643 B( 40-C , 41-C ) :   1.1007 B( 40-C , 81-H ) :   0.9394
B( 40-C , 82-H ) :   0.9392 B( 41-C , 83-H ) :   0.9645 B( 41-C , 84-H ) :   0.9640
B( 41-C , 85-H ) :   0.9647 B( 42-C , 43-C ) :   1.3049 B( 42-C , 86-H ) :   0.9986
B( 43-C , 44-C ) :   1.3580 B( 43-C , 46-C ) :   1.0623 B( 44-C , 45-C ) :   1.3665
B( 44-C , 87-H ) :   0.9906 B( 45-C , 88-H ) :   0.9907 B( 46-C , 47-C ) :   1.9502
B( 46-C , 89-H ) :   0.9677 B( 47-C , 90-H ) :   0.9470 B( 47-C , 91-H ) :   0.9497

-----------------------------------------------------------------------------
         ABSORPTION SPECTRUM VIA TRANSITION ELECTRIC DIPOLE MOMENTS
-----------------------------------------------------------------------------
State   Energy  Wavelength   fosc         T2         TX        TY        TZ
        (cm-1)    (nm)                  (au**2)     (au)      (au)      (au)
-----------------------------------------------------------------------------
   0   23347.7    428.3   2.854771297  40.25342   4.49139  -1.05457  -4.35531
   1   29155.2    343.0   0.018869218   0.21307   0.40764  -0.18275  -0.11617
   2   34214.0    292.3   0.037141970   0.35739   0.13295   0.52043  -0.26242
   3   34409.6    290.6   0.075871268   0.72589   0.46910  -0.07841  -0.70689
   4   35184.5    284.2   0.031656676   0.29620  -0.32314  -0.11491   0.42259
   5   36584.8    273.3   0.186455937   1.67784  -0.77933  -0.54918   0.87686
   6   37389.9    267.5   0.131442371   1.15733   0.77798  -0.32290  -0.66919
   7   38563.8    259.3   0.611459734   5.21991  -1.66793   0.05300   1.56048

FINAL SINGLE POINT ENERGY     -1886.450313319118

DIPOLE MOMENT
-------------
                                X             Y             Z
Electronic contribution:      0.87084      -0.28602       7.18457
Nuclear contribution   :     -1.09278       0.22249      -7.03172
                        -----------------------------------------
Total Dipole Moment    :     -0.22194      -0.06353       0.15285
                        -----------------------------------------
Magnitude (a.u.)       :      0.27687
Magnitude (Debye)      :      0.70374

Rotational constants in cm-1:     0.010404     0.000404     0.000399
Rotational constants in MHz :   311.911728    12.117021    11.964751

                             ****ORCA TERMINATED NORMALLY****
TOTAL RUN TIME: 0 days 0 hours 7 minutes 39 seconds 785 msec
