                         Program Version 4.2.0 -  RELEASE  -
|  1> # ORCA input file
|  2> # SCF done       -131.626740614170          0.000980335326
|  3> ! CAM-B3LYP def2-SVP def2/J RIJCOSX Grid4 TightSCF
|  4> %maxcore 5000
|  5> %tddft
|  6>     Mode sTDDFT
|  7>     Ethresh 5.0
|  8>     maxcore 5000
|  9> end
| 10>
| 11> %pal
| 12>   nprocs 6
| 13>   end
| 14> * xyz 0 1
| 15>    C        1.48897         1.91860        -0.98289
| 16>    C        2.40995         1.97961        -1.94408
| 17>    C        3.16726         0.86257        -2.43406
| 18>    C        3.12614        -0.46124        -2.04435
| 19>    C        4.01952        -1.25064        -2.77073
| 20>    C        4.74952        -0.51665        -3.72453
| 21>    S        4.33159         1.13702        -3.71798
| 22>    C        5.61613        -1.39580        -4.41783
| 23>    C        5.43080        -2.69423        -3.89695
| 24>    C        4.42826        -2.64313        -2.84421
| 25>    C        3.97258        -3.68249        -2.08686
| 26>    C        4.45005        -5.00024        -2.24834
| 27>    N        4.82962        -6.07551        -2.37010
| 28>    C        2.99243        -3.50796        -1.08770
| 29>    N        2.19522        -3.36869        -0.27529
| 30>    C        6.22804        -3.64245        -4.52008
| 31>    C        7.02474        -3.08108        -5.51219
| 32>    S        6.78291        -1.34679        -5.66708
| 33>    C        7.93833        -3.76280        -6.35266
| 34>    C        8.70733        -3.06822        -7.31604
| 35>    C        9.63868        -3.71663        -8.20885
| 36>    N       10.28499        -2.97761        -9.12153
| 37>    C       10.08620        -1.68366        -9.17866
| 38>    C        9.19551        -1.03460        -8.26390
| 39>    N        8.53848        -1.74301        -7.37853
| 40>    C        9.00643         0.36808        -8.30577
| 41>    N        8.86768         1.50368        -8.36140
| 42>    C       10.74632        -0.91707       -10.17282
| 43>    N       11.24195        -0.25251       -10.96271
| 44>    C        9.85211        -5.11695        -8.15405
| 45>    C        9.07424        -5.80907        -7.19742
| 46>    C        8.14133        -5.16072        -6.31058
| 47>    N        7.54049        -6.03924        -5.50768
| 48>    S        8.08030        -7.51408        -5.82371
| 49>    N        9.10746        -7.12674        -6.99773
| 50>    C       10.75779        -5.82417        -8.98824
| 51>    C       11.67999        -5.31669        -9.89615
| 52>    C       12.38621        -6.32250       -10.54099
| 53>    C       11.99703        -7.61512       -10.13232
| 54>    S       10.78479        -7.58461        -8.93227
| 55>    C       12.75753        -8.55898       -10.86412
| 56>    C       13.62525        -7.87133       -11.73168
| 57>    C       13.43185        -6.44264       -11.54614
| 58>    C       14.10545        -5.42891       -12.16139
| 59>    C       15.10682        -5.67302       -13.12436
| 60>    N       15.92152        -5.87522       -13.90580
| 61>    C       13.86172        -4.07202       -11.85728
| 62>    N       13.68213        -2.96929       -11.60051
| 63>    C       14.41340        -8.72763       -12.50373
| 64>    C       14.15460       -10.05631       -12.23568
| 65>    S       12.91844       -10.25166       -11.00505
| 66>    C       14.74045       -11.23380       -12.81171
| 67>    C       15.68429       -11.23841       -13.75228
| 68>    H        0.95765         2.79825        -0.66645
| 69>    H        1.23680         0.99862        -0.48517
| 70>    H        2.63194         2.92638        -2.41899
| 71>    H        2.47711        -0.82899        -1.27157
| 72>    H        6.25420        -4.69282        -4.29545
| 73>    H       11.80458        -4.26251       -10.05850
| 74>    H       15.13820        -8.40227       -13.22647
| 75>    H       14.35884       -12.17021       -12.42584
| 76>    H       16.09180       -10.33118       -14.16258
| 77>    H       16.07809       -12.16121       -14.13906
| 78> *
| 79>
| 80>                          ****END OF INPUT****

CARTESIAN COORDINATES (ANGSTROEM)
---------------------------------
  C      1.488970    1.918600   -0.982890
  C      2.409950    1.979610   -1.944080
  C      3.167260    0.862570   -2.434060
  C      3.126140   -0.461240   -2.044350
  C      4.019520   -1.250640   -2.770730
  C      4.749520   -0.516650   -3.724530
  S      4.331590    1.137020   -3.717980
  C      5.616130   -1.395800   -4.417830
  C      5.430800   -2.694230   -3.896950
  C      4.428260   -2.643130   -2.844210
  C      3.972580   -3.682490   -2.086860
  C      4.450050   -5.000240   -2.248340
  N      4.829620   -6.075510   -2.370100
  C      2.992430   -3.507960   -1.087700
  N      2.195220   -3.368690   -0.275290
  C      6.228040   -3.642450   -4.520080
  C      7.024740   -3.081080   -5.512190
  S      6.782910   -1.346790   -5.667080
  C      7.938330   -3.762800   -6.352660
  C      8.707330   -3.068220   -7.316040
  C      9.638680   -3.716630   -8.208850
  N     10.284990   -2.977610   -9.121530
  C     10.086200   -1.683660   -9.178660
  C      9.195510   -1.034600   -8.263900
  N      8.538480   -1.743010   -7.378530
  C      9.006430    0.368080   -8.305770
  N      8.867680    1.503680   -8.361400
  C     10.746320   -0.917070  -10.172820
  N     11.241950   -0.252510  -10.962710
  C      9.852110   -5.116950   -8.154050
  C      9.074240   -5.809070   -7.197420
  C      8.141330   -5.160720   -6.310580
  N      7.540490   -6.039240   -5.507680
  S      8.080300   -7.514080   -5.823710
  N      9.107460   -7.126740   -6.997730
  C     10.757790   -5.824170   -8.988240
  C     11.679990   -5.316690   -9.896150
  C     12.386210   -6.322500  -10.540990
  C     11.997030   -7.615120  -10.132320
  S     10.784790   -7.584610   -8.932270
  C     12.757530   -8.558980  -10.864120
  C     13.625250   -7.871330  -11.731680
  C     13.431850   -6.442640  -11.546140
  C     14.105450   -5.428910  -12.161390
  C     15.106820   -5.673020  -13.124360
  N     15.921520   -5.875220  -13.905800
  C     13.861720   -4.072020  -11.857280
  N     13.682130   -2.969290  -11.600510
  C     14.413400   -8.727630  -12.503730
  C     14.154600  -10.056310  -12.235680
  S     12.918440  -10.251660  -11.005050
  C     14.740450  -11.233800  -12.811710
  C     15.684290  -11.238410  -13.752280
  H      0.957650    2.798250   -0.666450
  H      1.236800    0.998620   -0.485170
  H      2.631940    2.926380   -2.418990
  H      2.477110   -0.828990   -1.271570
  H      6.254200   -4.692820   -4.295450
  H     11.804580   -4.262510  -10.058500
  H     15.138200   -8.402270  -13.226470
  H     14.358840  -12.170210  -12.425840
  H     16.091800  -10.331180  -14.162580
  H     16.078090  -12.161210  -14.139060

 Total Charge           Charge          ....    0
 Multiplicity           Mult            ....    1
 Number of Electrons    NEL             ....  388
 Basis Dimension        Dim             ....  812

ORBITAL ENERGIES
----------------

  NO   OCC          E(Eh)            E(eV)
   0   2.0000     -89.056327     -2423.3459
   1   2.0000     -88.987227     -2421.4656
   2   2.0000     -88.987141     -2421.4632
   3   2.0000     -88.984711     -2421.3971
   4   2.0000     -88.984601     -2421.3941
   5   2.0000     -14.473939      -393.8559
   6   2.0000     -14.468196      -393.6996
   7   2.0000     -14.465196      -393.6180
   8   2.0000     -14.465005      -393.6128
   9   2.0000     -14.436288      -392.8314
  10   2.0000     -14.429017      -392.6335
  11   2.0000     -14.428834      -392.6285
  12   2.0000     -14.428772      -392.6268
  13   2.0000     -14.427210      -392.5844
  14   2.0000     -14.424771      -392.5180
  15   2.0000     -10.390341      -282.7355
  16   2.0000     -10.387905      -282.6693
  17   2.0000     -10.362082      -281.9666
  18   2.0000     -10.360734      -281.9299
  19   2.0000     -10.356998      -281.8282
  20   2.0000     -10.355250      -281.7807
  21   2.0000     -10.353799      -281.7412
  22   2.0000     -10.352859      -281.7156
  23   2.0000     -10.350178      -281.6427
  24   2.0000     -10.348201      -281.5889
  25   2.0000     -10.329726      -281.0861
  26   2.0000     -10.329462      -281.0790
  27   2.0000     -10.329414      -281.0776
  28   2.0000     -10.328844      -281.0621
  29   2.0000     -10.328193      -281.0444
  30   2.0000     -10.328079      -281.0413
  31   2.0000     -10.328038      -281.0402
  32   2.0000     -10.327697      -281.0309
  33   2.0000     -10.327410      -281.0231
  34   2.0000     -10.325909      -280.9823
  35   2.0000     -10.324585      -280.9462
  36   2.0000     -10.324358      -280.9401
  37   2.0000     -10.323401      -280.9140
  38   2.0000     -10.321421      -280.8601
  39   2.0000     -10.321214      -280.8545
  40   2.0000     -10.320894      -280.8458
  41   2.0000     -10.303652      -280.3766
  42   2.0000     -10.302832      -280.3543
  43   2.0000     -10.298595      -280.2390
  44   2.0000     -10.297690      -280.2144
  45   2.0000     -10.297426      -280.2072
  46   2.0000     -10.297195      -280.2009
  47   2.0000     -10.296516      -280.1825
  48   2.0000     -10.296327      -280.1773
  49   2.0000     -10.293623      -280.1037
  50   2.0000     -10.293450      -280.0990
  51   2.0000     -10.278914      -279.7035
  52   2.0000     -10.278755      -279.6992
  53   2.0000      -8.147272      -221.6985
  54   2.0000      -8.082004      -219.9225
  55   2.0000      -8.081954      -219.9211
  56   2.0000      -8.077763      -219.8071
  57   2.0000      -8.077069      -219.7882
  58   2.0000      -6.118387      -166.4898
  59   2.0000      -6.110547      -166.2764
  60   2.0000      -6.110055      -166.2630
  61   2.0000      -6.051119      -164.6593
  62   2.0000      -6.051044      -164.6573
  63   2.0000      -6.047196      -164.5526
  64   2.0000      -6.047023      -164.5479
  65   2.0000      -6.046923      -164.5452
  66   2.0000      -6.046661      -164.5380
  67   2.0000      -6.044580      -164.4814
  68   2.0000      -6.044555      -164.4807
  69   2.0000      -6.042610      -164.4278
  70   2.0000      -6.041812      -164.4061
  71   2.0000      -6.040211      -164.3625
  72   2.0000      -6.039539      -164.3442
  73   2.0000      -1.153862       -31.3982
  74   2.0000      -1.130456       -30.7613
  75   2.0000      -1.057992       -28.7894
  76   2.0000      -1.041337       -28.3362
  77   2.0000      -1.040895       -28.3242
  78   2.0000      -1.020801       -27.7774
  79   2.0000      -1.019067       -27.7302
  80   2.0000      -1.017947       -27.6997
  81   2.0000      -1.012358       -27.5477
  82   2.0000      -1.006466       -27.3873
  83   2.0000      -1.005228       -27.3537
  84   2.0000      -1.003472       -27.3059
  85   2.0000      -0.999495       -27.1977
  86   2.0000      -0.990614       -26.9560
  87   2.0000      -0.980129       -26.6707
  88   2.0000      -0.956897       -26.0385
  89   2.0000      -0.952826       -25.9277
  90   2.0000      -0.921309       -25.0701
  91   2.0000      -0.917913       -24.9777
  92   2.0000      -0.912509       -24.8306
  93   2.0000      -0.895960       -24.3803
  94   2.0000      -0.879053       -23.9202
  95   2.0000      -0.876319       -23.8458
  96   2.0000      -0.861848       -23.4521
  97   2.0000      -0.853745       -23.2316
  98   2.0000      -0.851429       -23.1686
  99   2.0000      -0.851021       -23.1575
 100   2.0000      -0.842535       -22.9265
 101   2.0000      -0.813728       -22.1427
 102   2.0000      -0.807552       -21.9746
 103   2.0000      -0.779081       -21.1999
 104   2.0000      -0.777592       -21.1594
 105   2.0000      -0.771813       -21.0021
 106   2.0000      -0.753563       -20.5055
 107   2.0000      -0.740038       -20.1375
 108   2.0000      -0.723727       -19.6936
 109   2.0000      -0.715966       -19.4824
 110   2.0000      -0.707028       -19.2392
 111   2.0000      -0.703464       -19.1422
 112   2.0000      -0.697108       -18.9693
 113   2.0000      -0.686418       -18.6784
 114   2.0000      -0.677253       -18.4290
 115   2.0000      -0.673153       -18.3174
 116   2.0000      -0.668438       -18.1891
 117   2.0000      -0.661048       -17.9880
 118   2.0000      -0.640125       -17.4187
 119   2.0000      -0.636800       -17.3282
 120   2.0000      -0.630606       -17.1597
 121   2.0000      -0.627603       -17.0779
 122   2.0000      -0.620606       -16.8875
 123   2.0000      -0.613382       -16.6910
 124   2.0000      -0.610907       -16.6236
 125   2.0000      -0.607416       -16.5286
 126   2.0000      -0.594026       -16.1643
 127   2.0000      -0.589790       -16.0490
 128   2.0000      -0.583685       -15.8829
 129   2.0000      -0.575021       -15.6471
 130   2.0000      -0.567531       -15.4433
 131   2.0000      -0.555232       -15.1086
 132   2.0000      -0.546923       -14.8825
 133   2.0000      -0.544748       -14.8233
 134   2.0000      -0.543446       -14.7879
 135   2.0000      -0.543336       -14.7849
 136   2.0000      -0.540038       -14.6952
 137   2.0000      -0.532174       -14.4812
 138   2.0000      -0.510978       -13.9044
 139   2.0000      -0.508109       -13.8264
 140   2.0000      -0.507079       -13.7983
 141   2.0000      -0.502861       -13.6835
 142   2.0000      -0.500558       -13.6209
 143   2.0000      -0.499263       -13.5856
 144   2.0000      -0.498112       -13.5543
 145   2.0000      -0.495162       -13.4740
 146   2.0000      -0.492575       -13.4036
 147   2.0000      -0.492184       -13.3930
 148   2.0000      -0.490971       -13.3600
 149   2.0000      -0.480118       -13.0647
 150   2.0000      -0.472872       -12.8675
 151   2.0000      -0.472263       -12.8509
 152   2.0000      -0.470326       -12.7982
 153   2.0000      -0.467195       -12.7130
 154   2.0000      -0.460767       -12.5381
 155   2.0000      -0.460083       -12.5195
 156   2.0000      -0.458631       -12.4800
 157   2.0000      -0.457198       -12.4410
 158   2.0000      -0.455657       -12.3991
 159   2.0000      -0.453157       -12.3310
 160   2.0000      -0.451831       -12.2950
 161   2.0000      -0.451366       -12.2823
 162   2.0000      -0.449666       -12.2360
 163   2.0000      -0.449623       -12.2349
 164   2.0000      -0.446178       -12.1411
 165   2.0000      -0.442838       -12.0502
 166   2.0000      -0.441692       -12.0190
 167   2.0000      -0.439363       -11.9557
 168   2.0000      -0.437028       -11.8921
 169   2.0000      -0.436231       -11.8704
 170   2.0000      -0.434380       -11.8201
 171   2.0000      -0.431586       -11.7440
 172   2.0000      -0.429258       -11.6807
 173   2.0000      -0.425663       -11.5829
 174   2.0000      -0.424619       -11.5545
 175   2.0000      -0.423338       -11.5196
 176   2.0000      -0.414400       -11.2764
 177   2.0000      -0.413376       -11.2485
 178   2.0000      -0.409454       -11.1418
 179   2.0000      -0.401264       -10.9189
 180   2.0000      -0.393126       -10.6975
 181   2.0000      -0.391996       -10.6668
 182   2.0000      -0.381112       -10.3706
 183   2.0000      -0.364855        -9.9282
 184   2.0000      -0.359272        -9.7763
 185   2.0000      -0.357639        -9.7318
 186   2.0000      -0.345912        -9.4127
 187   2.0000      -0.344393        -9.3714
 188   2.0000      -0.343010        -9.3338
 189   2.0000      -0.320335        -8.7168
 190   2.0000      -0.318296        -8.6613
 191   2.0000      -0.307114        -8.3570
 192   2.0000      -0.273662        -7.4467
 193   2.0000      -0.237439        -6.4610
 194   0.0000      -0.134699        -3.6653
 195   0.0000      -0.100285        -2.7289
 196   0.0000      -0.097120        -2.6428
 197   0.0000      -0.059567        -1.6209
 198   0.0000      -0.046830        -1.2743

MULLIKEN ATOMIC CHARGES
-----------------------
   0 C :   -0.015368
   1 C :    0.035705
   2 C :   -0.090719
   3 C :   -0.014028
   4 C :   -0.008790
   5 C :   -0.113752
   6 S :    0.198074
   7 C :   -0.055615
   8 C :    0.030248
   9 C :    0.307146
  10 C :   -0.303375
  11 C :   -0.185710
  12 N :    0.169708
  13 C :   -0.190194
  14 N :    0.168654
  15 C :   -0.064470
  16 C :   -0.176284
  17 S :    0.205735
  18 C :    0.186161
  19 C :   -0.058090
  20 C :   -0.077020
  21 N :    0.054272
  22 C :   -0.121128
  23 C :   -0.097721
  24 N :   -0.015691
  25 C :   -0.237656
  26 N :    0.246869
  27 C :   -0.219118
  28 N :    0.252673
  29 C :    0.207655
  30 C :   -0.027070
  31 C :   -0.007134
  32 N :   -0.276199
  33 S :    0.573866
  34 N :   -0.336665
  35 C :   -0.185517
  36 C :   -0.057784
  37 C :    0.035052
  38 C :   -0.065690
  39 S :    0.201788
  40 C :   -0.110613
  41 C :   -0.008314
  42 C :    0.303581
  43 C :   -0.297182
  44 C :   -0.186553
  45 N :    0.166358
  46 C :   -0.192537
  47 N :    0.185682
  48 C :   -0.013416
  49 C :   -0.090180
  50 S :    0.186979
  51 C :    0.035457
  52 C :   -0.014829
  53 H :    0.034203
  54 H :    0.030170
  55 H :   -0.005424
  56 H :    0.002411
  57 H :    0.020515
  58 H :    0.021643
  59 H :    0.003315
  60 H :   -0.007417
  61 H :    0.030472
  62 H :    0.032863
Sum of atomic charges:   -0.0000000

LOEWDIN ATOMIC CHARGES
----------------------
   0 C :   -0.024460
   1 C :   -0.046966
   2 C :   -0.158852
   3 C :   -0.028676
   4 C :   -0.060709
   5 C :   -0.189455
   6 S :    0.485533
   7 C :   -0.170409
   8 C :   -0.079508
   9 C :    0.082818
  10 C :   -0.105971
  11 C :   -0.015911
  12 N :   -0.036707
  13 C :   -0.016497
  14 N :   -0.036635
  15 C :   -0.006417
  16 C :   -0.171841
  17 S :    0.509648
  18 C :   -0.037935
  19 C :   -0.015542
  20 C :   -0.006954
  21 N :    0.010246
  22 C :   -0.021611
  23 C :   -0.022776
  24 N :   -0.019538
  25 C :   -0.038713
  26 N :   -0.000694
  27 C :   -0.040574
  28 N :    0.010082
  29 C :   -0.043482
  30 C :   -0.045613
  31 C :   -0.038299
  32 N :   -0.267100
  33 S :    0.691411
  34 N :   -0.303394
  35 C :   -0.168738
  36 C :   -0.007497
  37 C :   -0.076629
  38 C :   -0.174217
  39 S :    0.508085
  40 C :   -0.189524
  41 C :   -0.060683
  42 C :    0.080171
  43 C :   -0.101701
  44 C :   -0.015422
  45 N :   -0.035764
  46 C :   -0.019513
  47 N :   -0.024476
  48 C :   -0.028437
  49 C :   -0.159966
  50 S :    0.476832
  51 C :   -0.047509
  52 C :   -0.024948
  53 H :    0.030987
  54 H :    0.027202
  55 H :    0.030624
  56 H :    0.039703
  57 H :    0.037803
  58 H :    0.037447
  59 H :    0.040006
  60 H :    0.029691
  61 H :    0.027437
  62 H :    0.030541

  Mayer bond orders larger than 0.100000
B(  0-C ,  1-C ) :   1.9435 B(  0-C , 53-H ) :   0.9497 B(  0-C , 54-H ) :   0.9555
B(  1-C ,  2-C ) :   1.0926 B(  1-C , 55-H ) :   0.9547 B(  2-C ,  3-C ) :   1.4747
B(  2-C ,  6-S ) :   1.1196 B(  3-C ,  4-C ) :   1.3069 B(  3-C , 56-H ) :   0.9915
B(  4-C ,  5-C ) :   1.4262 B(  4-C ,  9-C ) :   0.9991 B(  5-C ,  6-S ) :   1.1203
B(  5-C ,  7-C ) :   1.2045 B(  7-C ,  8-C ) :   1.3976 B(  7-C , 17-S ) :   1.0937
B(  8-C ,  9-C ) :   0.9927 B(  8-C , 15-C ) :   1.2870 B(  9-C , 10-C ) :   1.7054
B( 10-C , 11-C ) :   1.1389 B( 10-C , 13-C ) :   1.1327 B( 11-C , 12-N ) :   2.9864
B( 13-C , 14-N ) :   2.9924 B( 15-C , 16-C ) :   1.4071 B( 15-C , 57-H ) :   0.9821
B( 16-C , 17-S ) :   1.0758 B( 16-C , 18-C ) :   1.2204 B( 18-C , 19-C ) :   1.2475
B( 18-C , 29-C ) :   0.1176 B( 18-C , 31-C ) :   1.1977 B( 19-C , 20-C ) :   1.0993
B( 19-C , 24-N ) :   1.4004 B( 20-C , 21-N ) :   1.4556 B( 20-C , 29-C ) :   1.2555
B( 21-N , 22-C ) :   1.7270 B( 22-C , 23-C ) :   1.2133 B( 22-C , 27-C ) :   1.1574
B( 23-C , 24-N ) :   1.6905 B( 23-C , 25-C ) :   1.1615 B( 25-C , 26-N ) :   3.0403
B( 27-C , 28-N ) :   3.0302 B( 29-C , 30-C ) :   1.1884 B( 29-C , 35-C ) :   1.2001
B( 30-C , 31-C ) :   1.1093 B( 30-C , 34-N ) :   1.4742 B( 31-C , 32-N ) :   1.5185
B( 32-N , 33-S ) :   1.2871 B( 32-N , 34-N ) :   0.1488 B( 33-S , 34-N ) :   1.2686
B( 35-C , 36-C ) :   1.4039 B( 35-C , 39-S ) :   1.0873 B( 36-C , 37-C ) :   1.2802
B( 36-C , 58-H ) :   0.9853 B( 37-C , 38-C ) :   1.3975 B( 37-C , 42-C ) :   0.9951
B( 38-C , 39-S ) :   1.1088 B( 38-C , 40-C ) :   1.1996 B( 40-C , 41-C ) :   1.4307
B( 40-C , 50-S ) :   1.1172 B( 41-C , 42-C ) :   1.0011 B( 41-C , 48-C ) :   1.3044
B( 42-C , 43-C ) :   1.7098 B( 43-C , 44-C ) :   1.1329 B( 43-C , 46-C ) :   1.1350
B( 44-C , 45-N ) :   2.9898 B( 46-C , 47-N ) :   2.9937 B( 48-C , 49-C ) :   1.4805
B( 48-C , 59-H ) :   0.9909 B( 49-C , 50-S ) :   1.1158 B( 49-C , 51-C ) :   1.0910
B( 51-C , 52-C ) :   1.9436 B( 51-C , 60-H ) :   0.9549 B( 52-C , 61-H ) :   0.9560
B( 52-C , 62-H ) :   0.9502

-----------------------------------------------------------------------------
         ABSORPTION SPECTRUM VIA TRANSITION ELECTRIC DIPOLE MOMENTS
-----------------------------------------------------------------------------
State   Energy  Wavelength   fosc         T2         TX        TY        TZ
        (cm-1)    (nm)                  (au**2)     (au)      (au)      (au)
-----------------------------------------------------------------------------
   0    7252.4   1378.9   0.486741559  22.09498  -3.02823   2.27133   2.78673
   1   12780.8    782.4   0.000804271   0.02072   0.00970   0.14224   0.01976
   2   13199.2    757.6   0.024134135   0.60195  -0.39653   0.56635   0.35208
   3   16312.2    613.0   0.005823446   0.11753  -0.15679  -0.25728   0.16355
   4   22200.3    450.4   0.134841183   1.99958   0.61255  -1.20505  -0.41500
   5   22701.6    440.5   0.017179658   0.24913  -0.11020   0.48681  -0.00326
   6   23230.0    430.5   0.232928542   3.30103  -1.23804   0.49270   1.23513
   7   23764.9    420.8   0.007642238   0.10587  -0.16964   0.19198   0.20059
   8   23972.3    417.1   0.019400271   0.26642  -0.38381   0.06386   0.33917
   9   24577.5    406.9   0.017471371   0.23403   0.31243  -0.32563  -0.17429
  10   25053.0    399.2   0.090723455   1.19216   0.44277  -0.93133  -0.35880
  11   25518.2    391.9   0.001506086   0.01943  -0.11915   0.03421  -0.06374
  12   28788.6    347.4   1.403349486  16.04800  -2.64104   1.72878   2.46663
  13   29908.1    334.4   0.186509051   2.05299  -0.76458   1.08172   0.54616
  14   30088.5    332.4   0.254584394   2.78553  -0.37926   1.62269   0.09249
  15   30326.7    329.7   0.029930994   0.32492  -0.28630   0.07933   0.48647
  16   30859.6    324.0   0.045182854   0.48201  -0.16078   0.67301   0.05674
  17   31166.5    320.9   0.077363193   0.81719  -0.42266  -0.50001   0.62333
  18   31540.1    317.1   0.001116688   0.01166  -0.06169  -0.04304   0.07744
  19   31963.3    312.9   0.081948712   0.84405  -0.30371  -0.61950   0.60665
  20   32169.9    310.8   0.219256879   2.24377   0.90335   0.99478  -0.66192
  21   32499.2    307.7   0.004328236   0.04384  -0.17619   0.11155   0.01891
  22   32648.5    306.3   1.134827003  11.44306   1.41342   2.42968  -1.88201
  23   33537.8    298.2   0.043533744   0.42733   0.48639   0.02706  -0.43592
  24   33803.5    295.8   0.224337953   2.18482   0.03217  -1.47518   0.08744
  25   34217.6    292.2   0.189047622   1.81885   0.14725   1.31921  -0.23847
  26   34400.6    290.7   0.089462583   0.85615  -0.23581  -0.70175   0.55507
  27   34659.0    288.5   0.293525640   2.78809  -0.54283   1.55450   0.27742
  28   35169.3    284.3   0.017375443   0.16265   0.19362  -0.13492  -0.32704
  29   37381.3    267.5   0.228903649   2.01592  -0.63098   1.18966   0.45000
  30   37875.9    264.0   0.005724150   0.04975   0.12248   0.00817  -0.18624
  31   38241.1    261.5   0.012297406   0.10587  -0.13672  -0.15172   0.25329
  32   38358.7    260.7   0.015598721   0.13388  -0.08596  -0.33486   0.11983
  33   38887.1    257.2   0.010102537   0.08553   0.02143   0.27780  -0.08886
  34   38963.0    256.7   0.018342036   0.15498   0.01720  -0.34723   0.18470
  35   39198.6    255.1   0.007972730   0.06696   0.06379   0.24476   0.05463
  36   39275.4    254.6   0.013370411   0.11207  -0.08927  -0.12365   0.29802
  37   40306.9    248.1   0.028611469   0.23369  -0.24983  -0.36370   0.19748

FINAL SINGLE POINT ENERGY     -3989.173335965928

DIPOLE MOMENT
-------------
                                X             Y             Z
Electronic contribution:      1.09868       1.21193       0.26939
Nuclear contribution   :     -1.97333      -3.39938       0.55473
                        -----------------------------------------
Total Dipole Moment    :     -0.87465      -2.18745       0.82413
                        -----------------------------------------
Magnitude (a.u.)       :      2.49582
Magnitude (Debye)      :      6.34388

Rotational constants in cm-1:     0.003415     0.000620     0.000526
Rotational constants in MHz :   102.388318    18.590911    15.763811

                             ****ORCA TERMINATED NORMALLY****
TOTAL RUN TIME: 0 days 0 hours 4 minutes 58 seconds 361 msec
