                         Program Version 4.2.0 -  RELEASE  -
|  1> # ORCA input file
|  2> # SCF done       -153.047867825325          0.000967949993
|  3> ! CAM-B3LYP def2-SVP def2/J RIJCOSX Grid4 TightSCF
|  4> %maxcore 5000
|  5> %tddft
|  6>     Mode sTDDFT
|  7>     Ethresh 5.0
|  8>     maxcore 5000
|  9> end
| 10>
| 11> %pal
| 12>   nprocs 6
| 13>   end
| 14> * xyz 0 1
| 15>    C        5.15892         2.90280        -2.59799
| 16>    C        4.23658         2.02808        -2.22029
| 17>    C        4.41345         0.58226        -2.23125
| 18>    C        3.40986        -0.23809        -2.75969
| 19>    C        2.08442         0.14136        -3.29596
| 20>    O        1.56417         1.21948        -3.38167
| 21>    N        1.48215        -1.06338        -3.71547
| 22>    C        2.30725        -2.17517        -3.48791
| 23>    O        2.04523        -3.31698        -3.74149
| 24>    C        3.54060        -1.62304        -2.87018
| 25>    C        4.67581        -2.28564        -2.44487
| 26>    C        5.66011        -1.49162        -1.86740
| 27>    C        5.54414        -0.10580        -1.74856
| 28>    C        6.65593         0.51468        -0.99080
| 29>    O        6.78295         1.64439        -0.63378
| 30>    S        7.87106        -0.75457        -0.58014
| 31>    C        6.90701        -2.06951        -1.31621
| 32>    O        7.24217        -3.21343        -1.33691
| 33>    C        0.21261        -1.05625        -4.25827
| 34>    C       -0.42206        -2.12886        -4.76543
| 35>    C       -1.74632        -2.07827        -5.29791
| 36>    C       -2.30021        -3.22819        -5.90943
| 37>    C       -3.57296        -3.19388        -6.58806
| 38>    N       -4.17002        -4.35541        -6.86973
| 39>    C       -3.52180        -5.48297        -6.73605
| 40>    C       -2.13844        -5.47121        -6.35031
| 41>    N       -1.60656        -4.37298        -5.88720
| 42>    C       -1.37308        -6.66149        -6.41923
| 43>    N       -0.79258        -7.64383        -6.51090
| 44>    C       -4.20516        -6.69953        -6.97401
| 45>    N       -4.73329        -7.68998        -7.20186
| 46>    C       -4.23489        -1.96796        -6.86641
| 47>    C       -3.84455        -0.91516        -6.00819
| 48>    C       -2.60484        -0.96033        -5.25720
| 49>    N       -2.43667         0.14755        -4.52999
| 50>    S       -3.70729         1.10127        -4.71137
| 51>    N       -4.53360         0.19066        -5.73400
| 52>    C       -5.30821        -1.91863        -7.81147
| 53>    C       -5.64921        -3.03388        -8.60634
| 54>    C       -4.79285        -4.08379        -9.21512
| 55>    O       -3.59183        -4.09088        -9.34363
| 56>    N       -5.67251        -5.00332        -9.78326
| 57>    C       -6.99218        -4.53876        -9.77396
| 58>    O       -7.93384        -5.11549       -10.24430
| 59>    C       -6.94445        -3.22269        -9.08906
| 60>    C       -7.93839        -2.27569        -8.92233
| 61>    C       -7.50524        -1.04331        -8.43933
| 62>    C       -6.20806        -0.83046        -7.97343
| 63>    C       -5.85742         0.59716        -7.92780
| 64>    O       -4.78220         1.10118        -8.05607
| 65>    S       -7.38035         1.56937        -7.94102
| 66>    C       -8.37575         0.15067        -8.39713
| 67>    O       -9.54611         0.20251        -8.62015
| 68>    C       -5.34756        -6.22495       -10.37162
| 69>    C       -4.12913        -6.77187       -10.42044
| 70>    C       -3.88919        -8.06683       -11.00207
| 71>    C       -2.68930        -8.64228       -11.02287
| 72>    H        4.95004         3.95783        -2.60910
| 73>    H        6.14087         2.60511        -2.92407
| 74>    H        3.23816         2.35991        -1.96972
| 75>    H        4.79418        -3.35371        -2.53341
| 76>    H       -0.24680        -0.07548        -4.24128
| 77>    H        0.05611        -3.09629        -4.80476
| 78>    H       -8.95721        -2.43636        -9.23466
| 79>    H       -6.22041        -6.72164       -10.77396
| 80>    H       -3.27304        -6.25248       -10.01727
| 81>    H       -4.74758        -8.57136       -11.42431
| 82>    H       -1.82459        -8.15804       -10.59995
| 83>    H       -2.53224        -9.61433       -11.45592
| 84> *
| 85>
| 86>                          ****END OF INPUT****

CARTESIAN COORDINATES (ANGSTROEM)
---------------------------------
  C      5.158920    2.902800   -2.597990
  C      4.236580    2.028080   -2.220290
  C      4.413450    0.582260   -2.231250
  C      3.409860   -0.238090   -2.759690
  C      2.084420    0.141360   -3.295960
  O      1.564170    1.219480   -3.381670
  N      1.482150   -1.063380   -3.715470
  C      2.307250   -2.175170   -3.487910
  O      2.045230   -3.316980   -3.741490
  C      3.540600   -1.623040   -2.870180
  C      4.675810   -2.285640   -2.444870
  C      5.660110   -1.491620   -1.867400
  C      5.544140   -0.105800   -1.748560
  C      6.655930    0.514680   -0.990800
  O      6.782950    1.644390   -0.633780
  S      7.871060   -0.754570   -0.580140
  C      6.907010   -2.069510   -1.316210
  O      7.242170   -3.213430   -1.336910
  C      0.212610   -1.056250   -4.258270
  C     -0.422060   -2.128860   -4.765430
  C     -1.746320   -2.078270   -5.297910
  C     -2.300210   -3.228190   -5.909430
  C     -3.572960   -3.193880   -6.588060
  N     -4.170020   -4.355410   -6.869730
  C     -3.521800   -5.482970   -6.736050
  C     -2.138440   -5.471210   -6.350310
  N     -1.606560   -4.372980   -5.887200
  C     -1.373080   -6.661490   -6.419230
  N     -0.792580   -7.643830   -6.510900
  C     -4.205160   -6.699530   -6.974010
  N     -4.733290   -7.689980   -7.201860
  C     -4.234890   -1.967960   -6.866410
  C     -3.844550   -0.915160   -6.008190
  C     -2.604840   -0.960330   -5.257200
  N     -2.436670    0.147550   -4.529990
  S     -3.707290    1.101270   -4.711370
  N     -4.533600    0.190660   -5.734000
  C     -5.308210   -1.918630   -7.811470
  C     -5.649210   -3.033880   -8.606340
  C     -4.792850   -4.083790   -9.215120
  O     -3.591830   -4.090880   -9.343630
  N     -5.672510   -5.003320   -9.783260
  C     -6.992180   -4.538760   -9.773960
  O     -7.933840   -5.115490  -10.244300
  C     -6.944450   -3.222690   -9.089060
  C     -7.938390   -2.275690   -8.922330
  C     -7.505240   -1.043310   -8.439330
  C     -6.208060   -0.830460   -7.973430
  C     -5.857420    0.597160   -7.927800
  O     -4.782200    1.101180   -8.056070
  S     -7.380350    1.569370   -7.941020
  C     -8.375750    0.150670   -8.397130
  O     -9.546110    0.202510   -8.620150
  C     -5.347560   -6.224950  -10.371620
  C     -4.129130   -6.771870  -10.420440
  C     -3.889190   -8.066830  -11.002070
  C     -2.689300   -8.642280  -11.022870
  H      4.950040    3.957830   -2.609100
  H      6.140870    2.605110   -2.924070
  H      3.238160    2.359910   -1.969720
  H      4.794180   -3.353710   -2.533410
  H     -0.246800   -0.075480   -4.241280
  H      0.056110   -3.096290   -4.804760
  H     -8.957210   -2.436360   -9.234660
  H     -6.220410   -6.721640  -10.773960
  H     -3.273040   -6.252480  -10.017270
  H     -4.747580   -8.571360  -11.424310
  H     -1.824590   -8.158040  -10.599950
  H     -2.532240   -9.614330  -11.455920

 Total Charge           Charge          ....    0
 Multiplicity           Mult            ....    1
 Number of Electrons    NEL             ....  408
 Basis Dimension        Dim             ....  870

ORBITAL ENERGIES
----------------

  NO   OCC          E(Eh)            E(eV)
   0   2.0000     -89.058635     -2423.4087
   1   2.0000     -88.961674     -2420.7702
   2   2.0000     -88.946880     -2420.3677
   3   2.0000     -19.255408      -523.9663
   4   2.0000     -19.254208      -523.9336
   5   2.0000     -19.253696      -523.9197
   6   2.0000     -19.253514      -523.9147
   7   2.0000     -19.240318      -523.5557
   8   2.0000     -19.237054      -523.4668
   9   2.0000     -19.230483      -523.2880
  10   2.0000     -19.228591      -523.2366
  11   2.0000     -14.506656      -394.7462
  12   2.0000     -14.480806      -394.0428
  13   2.0000     -14.474122      -393.8609
  14   2.0000     -14.472688      -393.8219
  15   2.0000     -14.468749      -393.7147
  16   2.0000     -14.462795      -393.5527
  17   2.0000     -14.438958      -392.9040
  18   2.0000     -14.434350      -392.7786
  19   2.0000     -10.433641      -283.9138
  20   2.0000     -10.432771      -283.8901
  21   2.0000     -10.418216      -283.4941
  22   2.0000     -10.415545      -283.4214
  23   2.0000     -10.414779      -283.4005
  24   2.0000     -10.409656      -283.2611
  25   2.0000     -10.404450      -283.1195
  26   2.0000     -10.402655      -283.0706
  27   2.0000     -10.392285      -282.7885
  28   2.0000     -10.388597      -282.6881
  29   2.0000     -10.366290      -282.0811
  30   2.0000     -10.358713      -281.8749
  31   2.0000     -10.358236      -281.8619
  32   2.0000     -10.356187      -281.8062
  33   2.0000     -10.349961      -281.6368
  34   2.0000     -10.349484      -281.6238
  35   2.0000     -10.343418      -281.4587
  36   2.0000     -10.340976      -281.3923
  37   2.0000     -10.340717      -281.3852
  38   2.0000     -10.340550      -281.3807
  39   2.0000     -10.339598      -281.3548
  40   2.0000     -10.336985      -281.2837
  41   2.0000     -10.335177      -281.2345
  42   2.0000     -10.330826      -281.1161
  43   2.0000     -10.330018      -281.0941
  44   2.0000     -10.329300      -281.0745
  45   2.0000     -10.327557      -281.0271
  46   2.0000     -10.326569      -281.0002
  47   2.0000     -10.323619      -280.9200
  48   2.0000     -10.320588      -280.8375
  49   2.0000     -10.319788      -280.8157
  50   2.0000     -10.310117      -280.5526
  51   2.0000     -10.299294      -280.2580
  52   2.0000     -10.296970      -280.1948
  53   2.0000     -10.293740      -280.1069
  54   2.0000     -10.267600      -279.3956
  55   2.0000     -10.264467      -279.3103
  56   2.0000     -10.254898      -279.0500
  57   2.0000      -8.149705      -221.7648
  58   2.0000      -8.060911      -219.3485
  59   2.0000      -8.046167      -218.9473
  60   2.0000      -6.120751      -166.5541
  61   2.0000      -6.112876      -166.3398
  62   2.0000      -6.112679      -166.3345
  63   2.0000      -6.029739      -164.0775
  64   2.0000      -6.026505      -163.9896
  65   2.0000      -6.021992      -163.8667
  66   2.0000      -6.014983      -163.6760
  67   2.0000      -6.011947      -163.5934
  68   2.0000      -6.007089      -163.4612
  69   2.0000      -1.201525       -32.6952
  70   2.0000      -1.179942       -32.1078
  71   2.0000      -1.178693       -32.0739
  72   2.0000      -1.178323       -32.0638
  73   2.0000      -1.175814       -31.9955
  74   2.0000      -1.165561       -31.7165
  75   2.0000      -1.161813       -31.6145
  76   2.0000      -1.155328       -31.4381
  77   2.0000      -1.154226       -31.4081
  78   2.0000      -1.133054       -30.8320
  79   2.0000      -1.094591       -29.7853
  80   2.0000      -1.070820       -29.1385
  81   2.0000      -1.059350       -28.8264
  82   2.0000      -1.027502       -27.9598
  83   2.0000      -1.023479       -27.8503
  84   2.0000      -1.016040       -27.6479
  85   2.0000      -1.010564       -27.4989
  86   2.0000      -1.007597       -27.4181
  87   2.0000      -0.990453       -26.9516
  88   2.0000      -0.969236       -26.3742
  89   2.0000      -0.952156       -25.9095
  90   2.0000      -0.936289       -25.4777
  91   2.0000      -0.928921       -25.2772
  92   2.0000      -0.919846       -25.0303
  93   2.0000      -0.909986       -24.7620
  94   2.0000      -0.900460       -24.5028
  95   2.0000      -0.886170       -24.1139
  96   2.0000      -0.872289       -23.7362
  97   2.0000      -0.860159       -23.4061
  98   2.0000      -0.855392       -23.2764
  99   2.0000      -0.844601       -22.9828
 100   2.0000      -0.822721       -22.3874
 101   2.0000      -0.815312       -22.1858
 102   2.0000      -0.809006       -22.0142
 103   2.0000      -0.799129       -21.7454
 104   2.0000      -0.790264       -21.5042
 105   2.0000      -0.773021       -21.0350
 106   2.0000      -0.769094       -20.9281
 107   2.0000      -0.755403       -20.5556
 108   2.0000      -0.746949       -20.3255
 109   2.0000      -0.740874       -20.1602
 110   2.0000      -0.722697       -19.6656
 111   2.0000      -0.720078       -19.5943
 112   2.0000      -0.708980       -19.2923
 113   2.0000      -0.705925       -19.2092
 114   2.0000      -0.697328       -18.9752
 115   2.0000      -0.686558       -18.6822
 116   2.0000      -0.684176       -18.6174
 117   2.0000      -0.668624       -18.1942
 118   2.0000      -0.659227       -17.9385
 119   2.0000      -0.653830       -17.7916
 120   2.0000      -0.644161       -17.5285
 121   2.0000      -0.642077       -17.4718
 122   2.0000      -0.635654       -17.2970
 123   2.0000      -0.631933       -17.1958
 124   2.0000      -0.627606       -17.0780
 125   2.0000      -0.623482       -16.9658
 126   2.0000      -0.616834       -16.7849
 127   2.0000      -0.613154       -16.6848
 128   2.0000      -0.608765       -16.5654
 129   2.0000      -0.601471       -16.3669
 130   2.0000      -0.594635       -16.1808
 131   2.0000      -0.589376       -16.0377
 132   2.0000      -0.584553       -15.9065
 133   2.0000      -0.581346       -15.8192
 134   2.0000      -0.580113       -15.7857
 135   2.0000      -0.577208       -15.7066
 136   2.0000      -0.572138       -15.5687
 137   2.0000      -0.566558       -15.4168
 138   2.0000      -0.564238       -15.3537
 139   2.0000      -0.563140       -15.3238
 140   2.0000      -0.560740       -15.2585
 141   2.0000      -0.558588       -15.2000
 142   2.0000      -0.555306       -15.1106
 143   2.0000      -0.550511       -14.9802
 144   2.0000      -0.548814       -14.9340
 145   2.0000      -0.543898       -14.8002
 146   2.0000      -0.541545       -14.7362
 147   2.0000      -0.541483       -14.7345
 148   2.0000      -0.538821       -14.6621
 149   2.0000      -0.534270       -14.5382
 150   2.0000      -0.532303       -14.4847
 151   2.0000      -0.526079       -14.3153
 152   2.0000      -0.521335       -14.1862
 153   2.0000      -0.519100       -14.1254
 154   2.0000      -0.518721       -14.1151
 155   2.0000      -0.515456       -14.0263
 156   2.0000      -0.508047       -13.8247
 157   2.0000      -0.506304       -13.7772
 158   2.0000      -0.505822       -13.7641
 159   2.0000      -0.503013       -13.6877
 160   2.0000      -0.496113       -13.4999
 161   2.0000      -0.492876       -13.4118
 162   2.0000      -0.488955       -13.3051
 163   2.0000      -0.486972       -13.2512
 164   2.0000      -0.486481       -13.2378
 165   2.0000      -0.485390       -13.2081
 166   2.0000      -0.472698       -12.8628
 167   2.0000      -0.469443       -12.7742
 168   2.0000      -0.467657       -12.7256
 169   2.0000      -0.463096       -12.6015
 170   2.0000      -0.460556       -12.5324
 171   2.0000      -0.459198       -12.4954
 172   2.0000      -0.458563       -12.4781
 173   2.0000      -0.449751       -12.2383
 174   2.0000      -0.444635       -12.0991
 175   2.0000      -0.442456       -12.0398
 176   2.0000      -0.432526       -11.7696
 177   2.0000      -0.431697       -11.7471
 178   2.0000      -0.426063       -11.5938
 179   2.0000      -0.423229       -11.5167
 180   2.0000      -0.421088       -11.4584
 181   2.0000      -0.410859       -11.1801
 182   2.0000      -0.409548       -11.1444
 183   2.0000      -0.398377       -10.8404
 184   2.0000      -0.391491       -10.6530
 185   2.0000      -0.388500       -10.5716
 186   2.0000      -0.382287       -10.4025
 187   2.0000      -0.381552       -10.3825
 188   2.0000      -0.379963       -10.3393
 189   2.0000      -0.378701       -10.3050
 190   2.0000      -0.376268       -10.2388
 191   2.0000      -0.370252       -10.0751
 192   2.0000      -0.367544       -10.0014
 193   2.0000      -0.362940        -9.8761
 194   2.0000      -0.361614        -9.8400
 195   2.0000      -0.360436        -9.8080
 196   2.0000      -0.358434        -9.7535
 197   2.0000      -0.353725        -9.6253
 198   2.0000      -0.348255        -9.4765
 199   2.0000      -0.343063        -9.3352
 200   2.0000      -0.339661        -9.2426
 201   2.0000      -0.334632        -9.1058
 202   2.0000      -0.283380        -7.7112
 203   2.0000      -0.274347        -7.4654
 204   0.0000      -0.138538        -3.7698
 205   0.0000      -0.107112        -2.9147
 206   0.0000      -0.083025        -2.2592
 207   0.0000      -0.070549        -1.9197
 208   0.0000      -0.069600        -1.8939

MULLIKEN ATOMIC CHARGES
-----------------------
   0 C :    0.040091
   1 C :   -0.050116
   2 C :    0.019710
   3 C :   -0.023953
   4 C :    0.199161
   5 O :   -0.132730
   6 N :   -0.237507
   7 C :    0.217371
   8 O :   -0.117974
   9 C :    0.012472
  10 C :   -0.070457
  11 C :    0.051734
  12 C :    0.024944
  13 C :    0.028861
  14 O :   -0.108084
  15 S :    0.016574
  16 C :    0.051252
  17 O :   -0.114341
  18 C :    0.129619
  19 C :   -0.069686
  20 C :    0.098288
  21 C :   -0.036957
  22 C :   -0.060091
  23 N :   -0.013579
  24 C :   -0.106070
  25 C :   -0.127429
  26 N :    0.059817
  27 C :   -0.194433
  28 N :    0.229664
  29 C :   -0.203895
  30 N :    0.246445
  31 C :    0.151074
  32 C :    0.011670
  33 C :    0.031104
  34 N :   -0.297223
  35 S :    0.574045
  36 N :   -0.305626
  37 C :    0.039235
  38 C :   -0.057564
  39 C :    0.208906
  40 O :   -0.174160
  41 N :   -0.221081
  42 C :    0.198426
  43 O :   -0.132969
  44 C :    0.003243
  45 C :   -0.058173
  46 C :    0.041481
  47 C :   -0.027817
  48 C :    0.070721
  49 O :   -0.135629
  50 S :    0.002090
  51 C :    0.055441
  52 O :   -0.122126
  53 C :    0.077945
  54 C :    0.010700
  55 C :    0.003055
  56 C :   -0.011282
  57 H :    0.042992
  58 H :    0.029513
  59 H :    0.033623
  60 H :    0.025419
  61 H :    0.052604
  62 H :    0.030991
  63 H :    0.021122
  64 H :    0.028318
  65 H :    0.010265
  66 H :   -0.007582
  67 H :    0.016522
  68 H :    0.022025
Sum of atomic charges:   -0.0000000

LOEWDIN ATOMIC CHARGES
----------------------
   0 C :    0.019927
   1 C :   -0.038806
   2 C :    0.041005
   3 C :   -0.040707
   4 C :    0.106201
   5 O :   -0.119604
   6 N :   -0.013105
   7 C :    0.103212
   8 O :   -0.110048
   9 C :   -0.028827
  10 C :    0.039707
  11 C :   -0.046792
  12 C :   -0.058509
  13 C :   -0.043701
  14 O :   -0.099282
  15 S :    0.304741
  16 C :   -0.050020
  17 O :   -0.106494
  18 C :    0.078681
  19 C :   -0.049263
  20 C :    0.020848
  21 C :   -0.011937
  22 C :    0.025321
  23 N :    0.008083
  24 C :   -0.013037
  25 C :   -0.025363
  26 N :    0.014574
  27 C :   -0.035856
  28 N :   -0.000903
  29 C :   -0.039044
  30 N :    0.009638
  31 C :   -0.035457
  32 C :   -0.025572
  33 C :   -0.044384
  34 N :   -0.275619
  35 S :    0.700783
  36 N :   -0.269268
  37 C :    0.032691
  38 C :   -0.017398
  39 C :    0.095286
  40 O :   -0.161228
  41 N :   -0.006508
  42 C :    0.099681
  43 O :   -0.129777
  44 C :   -0.040000
  45 C :    0.040745
  46 C :   -0.059883
  47 C :   -0.047101
  48 C :   -0.044842
  49 O :   -0.125119
  50 S :    0.286810
  51 C :   -0.046152
  52 O :   -0.114354
  53 C :    0.021035
  54 C :   -0.034781
  55 C :   -0.021402
  56 C :   -0.039268
  57 H :    0.035251
  58 H :    0.025279
  59 H :    0.040302
  60 H :    0.054051
  61 H :    0.035108
  62 H :    0.039635
  63 H :    0.051589
  64 H :    0.034902
  65 H :    0.027771
  66 H :    0.028225
  67 H :    0.023212
  68 H :    0.025120

  Mayer bond orders larger than 0.100000
B(  0-C ,  1-C ) :   1.9632 B(  0-C , 57-H ) :   0.9511 B(  0-C , 58-H ) :   0.9637
B(  1-C ,  2-C ) :   1.0773 B(  1-C , 59-H ) :   0.9394 B(  2-C ,  3-C ) :   1.3879
B(  2-C , 12-C ) :   1.3563 B(  3-C ,  4-C ) :   0.9001 B(  3-C ,  9-C ) :   1.3755
B(  4-C ,  5-O ) :   2.1837 B(  4-C ,  6-N ) :   1.0137 B(  6-N ,  7-C ) :   1.0042
B(  6-N , 18-C ) :   1.0520 B(  7-C ,  8-O ) :   2.2285 B(  7-C ,  9-C ) :   0.8786
B(  9-C , 10-C ) :   1.3354 B( 10-C , 11-C ) :   1.3404 B( 10-C , 60-H ) :   1.0291
B( 11-C , 12-C ) :   1.3459 B( 11-C , 16-C ) :   0.8359 B( 12-C , 13-C ) :   0.8422
B( 13-C , 14-O ) :   2.2088 B( 13-C , 15-S ) :   1.0190 B( 14-O , 15-S ) :   0.1071
B( 15-S , 16-C ) :   1.0308 B( 15-S , 17-O ) :   0.1100 B( 16-C , 17-O ) :   2.2239
B( 18-C , 19-C ) :   1.5913 B( 18-C , 61-H ) :   0.9474 B( 19-C , 20-C ) :   1.1939
B( 19-C , 62-H ) :   0.9534 B( 20-C , 21-C ) :   1.2492 B( 20-C , 31-C ) :   0.1232
B( 20-C , 33-C ) :   1.1806 B( 21-C , 22-C ) :   1.1060 B( 21-C , 26-N ) :   1.4310
B( 22-C , 23-N ) :   1.3920 B( 22-C , 31-C ) :   1.2625 B( 23-N , 24-C ) :   1.6846
B( 24-C , 25-C ) :   1.1810 B( 24-C , 29-C ) :   1.1609 B( 25-C , 26-N ) :   1.7504
B( 25-C , 27-C ) :   1.1462 B( 27-C , 28-N ) :   3.0477 B( 29-C , 30-N ) :   3.0220
B( 31-C , 32-C ) :   1.2066 B( 31-C , 37-C ) :   1.1754 B( 32-C , 33-C ) :   1.1126
B( 32-C , 36-N ) :   1.4792 B( 33-C , 34-N ) :   1.4760 B( 34-N , 35-S ) :   1.2977
B( 34-N , 36-N ) :   0.1481 B( 35-S , 36-N ) :   1.2820 B( 37-C , 38-C ) :   1.3083
B( 37-C , 47-C ) :   1.2841 B( 38-C , 39-C ) :   0.8953 B( 38-C , 44-C ) :   1.4168
B( 39-C , 40-O ) :   2.1347 B( 39-C , 41-N ) :   1.0482 B( 41-N , 42-C ) :   1.0274
B( 41-N , 53-C ) :   0.9951 B( 42-C , 43-O ) :   2.2386 B( 42-C , 44-C ) :   0.8703
B( 44-C , 45-C ) :   1.3473 B( 45-C , 46-C ) :   1.3292 B( 45-C , 63-H ) :   1.0194
B( 46-C , 47-C ) :   1.3908 B( 46-C , 51-C ) :   0.8461 B( 47-C , 48-C ) :   0.8745
B( 48-C , 49-O ) :   2.1952 B( 48-C , 50-S ) :   1.0008 B( 49-O , 50-S ) :   0.1009
B( 50-S , 51-C ) :   1.0265 B( 50-S , 52-O ) :   0.1088 B( 51-C , 52-O ) :   2.2170
B( 53-C , 54-C ) :   1.7460 B( 53-C , 56-C ) :   0.1009 B( 53-C , 64-H ) :   0.9717
B( 54-C , 55-C ) :   1.0916 B( 54-C , 65-H ) :   0.9629 B( 55-C , 56-C ) :   1.9242
B( 55-C , 66-H ) :   0.9759 B( 56-C , 67-H ) :   0.9565 B( 56-C , 68-H ) :   0.9528

-----------------------------------------------------------------------------
         ABSORPTION SPECTRUM VIA TRANSITION ELECTRIC DIPOLE MOMENTS
-----------------------------------------------------------------------------
State   Energy  Wavelength   fosc         T2         TX        TY        TZ
        (cm-1)    (nm)                  (au**2)     (au)      (au)      (au)
-----------------------------------------------------------------------------
   0   13817.4    723.7   0.241140681   5.74540   1.80295   0.57306   1.47186
   1   15233.7    656.4   0.254411301   5.49804  -2.13200   0.26082  -0.94053
   2   23105.7    432.8   0.001105775   0.01576   0.00195  -0.12548  -0.00232
   3   23416.7    427.0   0.054078299   0.76028  -0.44858  -0.64927  -0.37082
   4   24549.7    407.3   0.003634773   0.04874   0.15385  -0.07984  -0.13674
   5   24999.9    400.0   0.023152492   0.30488   0.18182   0.51031   0.10679
   6   25319.5    395.0   0.029504806   0.38363   0.12339  -0.56290  -0.22705
   7   25959.8    385.2   0.230590633   2.92427  -1.21571  -0.36318  -1.14648
   8   26017.5    384.4   0.021770633   0.27547   0.18693   0.27470   0.40629
   9   27131.6    368.6   0.087367066   1.06010   0.15812  -1.01500   0.06988
  10   27443.0    364.4   0.019867863   0.23834   0.43842   0.03745   0.21149
  11   28068.9    356.3   0.180402483   2.11589   1.32687  -0.48674   0.34408
  12   28686.7    348.6   0.039538038   0.45374  -0.20708  -0.63792   0.06261
  13   28816.6    347.0   0.001547595   0.01768  -0.03029   0.12935   0.00559
  14   29139.5    343.2   0.041714746   0.47129   0.01917  -0.53351  -0.43161
  15   30034.8    332.9   0.018876183   0.20690  -0.31703   0.31996   0.06343
  16   30207.4    331.0   0.179472996   1.95597   0.68897  -1.21434   0.08166
  17   30716.2    325.6   0.010092309   0.10817   0.10260   0.30858  -0.04919
  18   30855.6    324.1   0.023794952   0.25388  -0.37925   0.28502  -0.16973
  19   30955.2    323.0   0.004128182   0.04390  -0.16937  -0.07824  -0.09536
  20   31235.7    320.1   0.017969019   0.18939  -0.08111  -0.42755  -0.00267
  21   31766.6    314.8   0.242845480   2.51672   0.52580   1.41677   0.48271
  22   32027.7    312.2   0.200376301   2.05967  -0.84353  -0.98008  -0.62255
  23   32423.5    308.4   0.056574573   0.57443  -0.58054  -0.33803  -0.35091
  24   33098.0    302.1   0.007752601   0.07711   0.12308  -0.23459  -0.08324
  25   33519.7    298.3   0.086939168   0.85387  -0.10913  -0.88072  -0.25747
  26   33705.0    296.7   0.107985729   1.05475   0.57622  -0.82168  -0.21810
  27   33955.1    294.5   0.100235606   0.97183  -0.84339  -0.22053  -0.46033
  28   34386.9    290.8   0.193382569   1.85140  -0.42658   1.28884   0.09128
  29   34565.4    289.3   0.045211856   0.43061  -0.17403  -0.44887  -0.44592
  30   34656.5    288.5   0.071035410   0.67479   0.11806   0.71908   0.37917
  31   35038.5    285.4   0.090081251   0.84638  -0.00118   0.83955   0.37620
  32   35456.0    282.0   0.008838998   0.08207   0.17805  -0.17200   0.14417
  33   35652.8    280.5   0.075463762   0.69682   0.01092   0.80273   0.22875
  34   35945.0    278.2   0.050357537   0.46121  -0.48196   0.47606   0.04795
  35   36144.0    276.7   0.080607890   0.73420  -0.70845   0.45962  -0.14512
  36   36744.6    272.1   0.034282496   0.30715   0.21187   0.50687   0.07309
  37   37347.4    267.8   0.002505484   0.02209   0.10153   0.09959   0.04313
  38   37447.0    267.0   0.014794101   0.13006  -0.23716  -0.00851  -0.27155
  39   37642.6    265.7   0.007311670   0.06395   0.14986   0.04854   0.19782
  40   37822.5    264.4   0.049279057   0.42893   0.55418  -0.19834   0.28719
  41   37948.3    263.5   0.017959434   0.15580   0.29403  -0.17239   0.19907
  42   38277.1    261.3   0.021022182   0.18081   0.16071  -0.39212  -0.03498
  43   38279.7    261.2   0.011492495   0.09884  -0.11741   0.24991   0.15033
  44   38407.5    260.4   0.047791805   0.40965   0.09503  -0.62975  -0.06348
  45   38559.7    259.3   0.007366130   0.06289   0.03964  -0.03590   0.24501
  46   39043.8    256.1   0.026133931   0.22036   0.21074   0.41941  -0.00662
  47   39227.1    254.9   0.017930986   0.15049   0.07234  -0.38111  -0.00299
  48   39407.3    253.8   0.042283066   0.35324   0.19521  -0.55932   0.04790
  49   40064.9    249.6   0.011743554   0.09650  -0.03646   0.20217   0.23301

FINAL SINGLE POINT ENERGY     -3686.198772014178

DIPOLE MOMENT
-------------
                                X             Y             Z
Electronic contribution:     -7.95368      15.61021      13.68406
Nuclear contribution   :      9.22202     -13.30919     -12.16256
                        -----------------------------------------
Total Dipole Moment    :      1.26833       2.30102       1.52150
                        -----------------------------------------
Magnitude (a.u.)       :      3.03617
Magnitude (Debye)      :      7.71732

Rotational constants in cm-1:     0.002457     0.000626     0.000514
Rotational constants in MHz :    73.671728    18.763343    15.402506

                             ****ORCA TERMINATED NORMALLY****
TOTAL RUN TIME: 0 days 0 hours 8 minutes 32 seconds 413 msec
