                         Program Version 4.2.0 -  RELEASE  -
|  1> # ORCA input file
|  2> # SCF done       -231.276448075224          0.000598402053
|  3> ! CAM-B3LYP def2-SVP def2/J RIJCOSX Grid4 TightSCF
|  4> %maxcore 5000
|  5> %tddft
|  6>     Mode sTDDFT
|  7>     Ethresh 5.0
|  8>     maxcore 5000
|  9> end
| 10>
| 11> %pal
| 12>   nprocs 6
| 13>   end
| 14> * xyz 0 1
| 15>    C        2.29107        -0.27858        -4.65021
| 16>    F        3.11441         0.78068        -4.53641
| 17>    C        1.17953        -0.20475        -5.49048
| 18>    C        0.85757         0.97126        -6.38391
| 19>    O        0.26359         0.83357        -7.41097
| 20>    O        1.26506         2.17089        -5.96999
| 21>    C        0.36665        -1.34205        -5.53019
| 22>    F       -0.73319        -1.35834        -6.27308
| 23>    C        0.65828        -2.46924        -4.77711
| 24>    F       -0.17960        -3.51193        -4.86807
| 25>    C        1.79097        -2.56331        -3.95102
| 26>    C        2.59342        -1.40948        -3.91176
| 27>    F        3.67324        -1.36074        -3.12212
| 28>    C        2.10453        -3.75043        -3.20052
| 29>    C        3.32303        -4.10405        -2.64480
| 30>    C        3.26402        -5.33286        -1.99284
| 31>    C        1.98134        -5.91574        -2.03927
| 32>    S        0.86724        -4.96910        -2.90274
| 33>    C        2.01806        -7.15905        -1.36168
| 34>    C        3.33070        -7.36404        -0.89195
| 35>    C        4.15424        -6.22497        -1.26951
| 36>    C        5.48013        -6.04547        -1.00530
| 37>    C        6.23910        -6.99599        -0.28953
| 38>    N        6.86565        -7.76038         0.29171
| 39>    C        6.18889        -4.90272        -1.43367
| 40>    N        6.77572        -3.98170        -1.78234
| 41>    C        3.48020        -8.57561        -0.23034
| 42>    C        2.29129        -9.29452        -0.18789
| 43>    S        0.96868        -8.45088        -0.96899
| 44>    C        2.10335       -10.58479         0.37887
| 45>    C        0.83893       -11.21327         0.39279
| 46>    C        0.61427       -12.53146         0.91678
| 47>    N       -0.63248       -13.04434         0.87396
| 48>    C       -1.59885       -12.34821         0.36988
| 49>    C       -1.37824       -11.04383        -0.14521
| 50>    N       -0.19690       -10.51967        -0.12426
| 51>    F       -2.36968       -10.32610        -0.66017
| 52>    F       -2.80919       -12.89200         0.34651
| 53>    C        1.67432       -13.30255         1.45520
| 54>    C        2.93762       -12.66677         1.45581
| 55>    C        3.15823       -11.33915         0.94030
| 56>    N        4.43703       -10.97794         1.05948
| 57>    S        5.27082       -12.16302         1.74023
| 58>    N        4.06376       -13.20662         1.92327
| 59>    C        1.54052       -14.62845         1.94627
| 60>    C        0.38871       -15.39617         2.08105
| 61>    C        0.66128       -16.66701         2.56671
| 62>    C        2.03674       -16.88056         2.80174
| 63>    S        2.98275       -15.50668         2.44758
| 64>    C        2.20646       -18.20726         3.26364
| 65>    C        0.94937       -18.83228         3.32723
| 66>    C       -0.06555       -17.88261         2.90052
| 67>    C       -1.41162       -18.09181         2.83815
| 68>    C       -1.98848       -19.32635         3.20368
| 69>    N       -2.45252       -20.33093         3.50499
| 70>    C       -2.32002       -17.09544         2.42019
| 71>    N       -3.07375       -16.29725         2.09112
| 72>    C        1.02367       -20.15886         3.75580
| 73>    C        2.32068       -20.55487         4.01299
| 74>    S        3.46993       -19.25627         3.72615
| 75>    C        2.78793       -21.84757         4.44436
| 76>    C        1.88824       -22.83808         4.87257
| 77>    C        2.31262       -24.08712         5.26670
| 78>    C        3.67279       -24.38893         5.23819
| 79>    C        4.57195       -23.39147         4.83136
| 80>    C        4.15490       -22.14169         4.43732
| 81>    S        6.21350       -23.98829         4.87425
| 82>    C        5.65371       -25.54227         5.45190
| 83>    C        6.47793       -26.56548         5.86295
| 84>    C        7.85843       -26.68654         5.68647
| 85>    C        8.74262       -26.10001         4.80639
| 86>    C        8.60622       -25.41642         3.55692
| 87>    C        7.53609       -25.47270         2.68744
| 88>    C        7.44569       -24.75277         1.48200
| 89>    N        7.28238       -24.16718         0.50726
| 90>    C        6.43378       -26.32007         2.87471
| 91>    N        5.51894       -27.00452         3.00721
| 92>    C        9.89436       -24.78951         3.24821
| 93>    C       10.84664       -25.23234         4.18235
| 94>    C       10.18581       -26.12274         5.16023
| 95>    O       10.69781       -26.72510         6.07872
| 96>    C       12.16576       -24.83363         4.11453
| 97>    C       12.53703       -23.96436         3.09647
| 98>    C       11.59998       -23.51334         2.18000
| 99>    C       10.27221       -23.92051         2.23964
|100>    N        4.29305       -25.56449         5.56823
|101>    C        3.59870       -26.80558         5.80192
|102>    H        1.80644         2.17107        -5.16902
|103>    H        4.21432        -3.51080        -2.72677
|104>    H        4.38871        -8.94954         0.20407
|105>    H       -0.58278       -15.01828         1.82440
|106>    H        0.17278       -20.80659         3.85474
|107>    H        0.83393       -22.61778         4.90411
|108>    H        1.58877       -24.81386         5.59835
|109>    H        4.87670       -21.40719         4.11647
|110>    H        6.01533       -27.33840         6.46001
|111>    H        8.35213       -27.34024         6.40079
|112>    H       12.88000       -25.19592         4.83787
|113>    H       13.56263       -23.63612         3.01805
|114>    H       11.90432       -22.83223         1.39920
|115>    H        9.56290       -23.55283         1.51583
|116>    H        4.02589       -27.57789         5.15986
|117>    H        2.54911       -26.68516         5.55041
|118>    H        3.68289       -27.10944         6.84765
|119> *
|120>
|121>                          ****END OF INPUT****

CARTESIAN COORDINATES (ANGSTROEM)
---------------------------------
  C      2.291070   -0.278580   -4.650210
  F      3.114410    0.780680   -4.536410
  C      1.179530   -0.204750   -5.490480
  C      0.857570    0.971260   -6.383910
  O      0.263590    0.833570   -7.410970
  O      1.265060    2.170890   -5.969990
  C      0.366650   -1.342050   -5.530190
  F     -0.733190   -1.358340   -6.273080
  C      0.658280   -2.469240   -4.777110
  F     -0.179600   -3.511930   -4.868070
  C      1.790970   -2.563310   -3.951020
  C      2.593420   -1.409480   -3.911760
  F      3.673240   -1.360740   -3.122120
  C      2.104530   -3.750430   -3.200520
  C      3.323030   -4.104050   -2.644800
  C      3.264020   -5.332860   -1.992840
  C      1.981340   -5.915740   -2.039270
  S      0.867240   -4.969100   -2.902740
  C      2.018060   -7.159050   -1.361680
  C      3.330700   -7.364040   -0.891950
  C      4.154240   -6.224970   -1.269510
  C      5.480130   -6.045470   -1.005300
  C      6.239100   -6.995990   -0.289530
  N      6.865650   -7.760380    0.291710
  C      6.188890   -4.902720   -1.433670
  N      6.775720   -3.981700   -1.782340
  C      3.480200   -8.575610   -0.230340
  C      2.291290   -9.294520   -0.187890
  S      0.968680   -8.450880   -0.968990
  C      2.103350  -10.584790    0.378870
  C      0.838930  -11.213270    0.392790
  C      0.614270  -12.531460    0.916780
  N     -0.632480  -13.044340    0.873960
  C     -1.598850  -12.348210    0.369880
  C     -1.378240  -11.043830   -0.145210
  N     -0.196900  -10.519670   -0.124260
  F     -2.369680  -10.326100   -0.660170
  F     -2.809190  -12.892000    0.346510
  C      1.674320  -13.302550    1.455200
  C      2.937620  -12.666770    1.455810
  C      3.158230  -11.339150    0.940300
  N      4.437030  -10.977940    1.059480
  S      5.270820  -12.163020    1.740230
  N      4.063760  -13.206620    1.923270
  C      1.540520  -14.628450    1.946270
  C      0.388710  -15.396170    2.081050
  C      0.661280  -16.667010    2.566710
  C      2.036740  -16.880560    2.801740
  S      2.982750  -15.506680    2.447580
  C      2.206460  -18.207260    3.263640
  C      0.949370  -18.832280    3.327230
  C     -0.065550  -17.882610    2.900520
  C     -1.411620  -18.091810    2.838150
  C     -1.988480  -19.326350    3.203680
  N     -2.452520  -20.330930    3.504990
  C     -2.320020  -17.095440    2.420190
  N     -3.073750  -16.297250    2.091120
  C      1.023670  -20.158860    3.755800
  C      2.320680  -20.554870    4.012990
  S      3.469930  -19.256270    3.726150
  C      2.787930  -21.847570    4.444360
  C      1.888240  -22.838080    4.872570
  C      2.312620  -24.087120    5.266700
  C      3.672790  -24.388930    5.238190
  C      4.571950  -23.391470    4.831360
  C      4.154900  -22.141690    4.437320
  S      6.213500  -23.988290    4.874250
  C      5.653710  -25.542270    5.451900
  C      6.477930  -26.565480    5.862950
  C      7.858430  -26.686540    5.686470
  C      8.742620  -26.100010    4.806390
  C      8.606220  -25.416420    3.556920
  C      7.536090  -25.472700    2.687440
  C      7.445690  -24.752770    1.482000
  N      7.282380  -24.167180    0.507260
  C      6.433780  -26.320070    2.874710
  N      5.518940  -27.004520    3.007210
  C      9.894360  -24.789510    3.248210
  C     10.846640  -25.232340    4.182350
  C     10.185810  -26.122740    5.160230
  O     10.697810  -26.725100    6.078720
  C     12.165760  -24.833630    4.114530
  C     12.537030  -23.964360    3.096470
  C     11.599980  -23.513340    2.180000
  C     10.272210  -23.920510    2.239640
  N      4.293050  -25.564490    5.568230
  C      3.598700  -26.805580    5.801920
  H      1.806440    2.171070   -5.169020
  H      4.214320   -3.510800   -2.726770
  H      4.388710   -8.949540    0.204070
  H     -0.582780  -15.018280    1.824400
  H      0.172780  -20.806590    3.854740
  H      0.833930  -22.617780    4.904110
  H      1.588770  -24.813860    5.598350
  H      4.876700  -21.407190    4.116470
  H      6.015330  -27.338400    6.460010
  H      8.352130  -27.340240    6.400790
  H     12.880000  -25.195920    4.837870
  H     13.562630  -23.636120    3.018050
  H     11.904320  -22.832230    1.399200
  H      9.562900  -23.552830    1.515830
  H      4.025890  -27.577890    5.159860
  H      2.549110  -26.685160    5.550410
  H      3.682890  -27.109440    6.847650

 Total Charge           Charge          ....    0
 Multiplicity           Mult            ....    1
 Number of Electrons    NEL             ....  634
 Basis Dimension        Dim             .... 1327

ORBITAL ENERGIES
----------------

  NO   OCC          E(Eh)            E(eV)
   0   2.0000     -89.054241     -2423.2891
   1   2.0000     -88.995383     -2421.6875
   2   2.0000     -88.991849     -2421.5913
   3   2.0000     -88.986535     -2421.4467
   4   2.0000     -88.986438     -2421.4441
   5   2.0000     -88.985388     -2421.4155
   6   2.0000     -24.831365      -675.6958
   7   2.0000     -24.828816      -675.6264
   8   2.0000     -24.821661      -675.4317
   9   2.0000     -24.820489      -675.3998
  10   2.0000     -24.818309      -675.3405
  11   2.0000     -24.806807      -675.0275
  12   2.0000     -19.266826      -524.2770
  13   2.0000     -19.207337      -522.6582
  14   2.0000     -19.202372      -522.5231
  15   2.0000     -14.498190      -394.5158
  16   2.0000     -14.469208      -393.7272
  17   2.0000     -14.464404      -393.5964
  18   2.0000     -14.463738      -393.5783
  19   2.0000     -14.462179      -393.5359
  20   2.0000     -14.432011      -392.7150
  21   2.0000     -14.430614      -392.6770
  22   2.0000     -14.430267      -392.6675
  23   2.0000     -14.429369      -392.6431
  24   2.0000     -14.410708      -392.1353
  25   2.0000     -14.404267      -391.9600
  26   2.0000     -10.445158      -284.2272
  27   2.0000     -10.440643      -284.1043
  28   2.0000     -10.421197      -283.5752
  29   2.0000     -10.403994      -283.1071
  30   2.0000     -10.399302      -282.9794
  31   2.0000     -10.398170      -282.9486
  32   2.0000     -10.395592      -282.8784
  33   2.0000     -10.377569      -282.3880
  34   2.0000     -10.364709      -282.0381
  35   2.0000     -10.364542      -282.0335
  36   2.0000     -10.357118      -281.8315
  37   2.0000     -10.356118      -281.8043
  38   2.0000     -10.352558      -281.7074
  39   2.0000     -10.352301      -281.7004
  40   2.0000     -10.351540      -281.6797
  41   2.0000     -10.351342      -281.6743
  42   2.0000     -10.350355      -281.6475
  43   2.0000     -10.347677      -281.5746
  44   2.0000     -10.345173      -281.5065
  45   2.0000     -10.336663      -281.2749
  46   2.0000     -10.336563      -281.2722
  47   2.0000     -10.332824      -281.1704
  48   2.0000     -10.332714      -281.1674
  49   2.0000     -10.330895      -281.1180
  50   2.0000     -10.330745      -281.1139
  51   2.0000     -10.330525      -281.1079
  52   2.0000     -10.329523      -281.0806
  53   2.0000     -10.329349      -281.0759
  54   2.0000     -10.328940      -281.0647
  55   2.0000     -10.328516      -281.0532
  56   2.0000     -10.328369      -281.0492
  57   2.0000     -10.328120      -281.0424
  58   2.0000     -10.327842      -281.0349
  59   2.0000     -10.326796      -281.0064
  60   2.0000     -10.326193      -280.9900
  61   2.0000     -10.325590      -280.9736
  62   2.0000     -10.325539      -280.9722
  63   2.0000     -10.324882      -280.9543
  64   2.0000     -10.314194      -280.6635
  65   2.0000     -10.311435      -280.5884
  66   2.0000     -10.309197      -280.5275
  67   2.0000     -10.308950      -280.5208
  68   2.0000     -10.307174      -280.4725
  69   2.0000     -10.305880      -280.4373
  70   2.0000     -10.305425      -280.4249
  71   2.0000     -10.303688      -280.3776
  72   2.0000     -10.303637      -280.3762
  73   2.0000     -10.302454      -280.3440
  74   2.0000     -10.301588      -280.3205
  75   2.0000     -10.300553      -280.2923
  76   2.0000     -10.300087      -280.2796
  77   2.0000     -10.298132      -280.2264
  78   2.0000     -10.297089      -280.1980
  79   2.0000     -10.293590      -280.1028
  80   2.0000     -10.284366      -279.8518
  81   2.0000     -10.284283      -279.8496
  82   2.0000     -10.283680      -279.8332
  83   2.0000     -10.283548      -279.8296
  84   2.0000     -10.283131      -279.8182
  85   2.0000     -10.278485      -279.6918
  86   2.0000     -10.276863      -279.6477
  87   2.0000      -8.145163      -221.6412
  88   2.0000      -8.089583      -220.1288
  89   2.0000      -8.086469      -220.0440
  90   2.0000      -8.080230      -219.8742
  91   2.0000      -8.079653      -219.8585
  92   2.0000      -8.079246      -219.8475
  93   2.0000      -6.116279      -166.4324
  94   2.0000      -6.108479      -166.2202
  95   2.0000      -6.107930      -166.2052
  96   2.0000      -6.058845      -164.8695
  97   2.0000      -6.055656      -164.7828
  98   2.0000      -6.054445      -164.7498
  99   2.0000      -6.052092      -164.6858
 100   2.0000      -6.051522      -164.6703
 101   2.0000      -6.049878      -164.6256
 102   2.0000      -6.049061      -164.6033
 103   2.0000      -6.048913      -164.5993
 104   2.0000      -6.048727      -164.5942
 105   2.0000      -6.045862      -164.5163
 106   2.0000      -6.044466      -164.4783
 107   2.0000      -6.043992      -164.4654
 108   2.0000      -6.042103      -164.4140
 109   2.0000      -6.041756      -164.4045
 110   2.0000      -6.041352      -164.3935
 111   2.0000      -1.355082       -36.8736
 112   2.0000      -1.350069       -36.7373
 113   2.0000      -1.341827       -36.5130
 114   2.0000      -1.339506       -36.4498
 115   2.0000      -1.329779       -36.1851
 116   2.0000      -1.322027       -35.9742
 117   2.0000      -1.193481       -32.4763
 118   2.0000      -1.151922       -31.3454
 119   2.0000      -1.126158       -30.6443
 120   2.0000      -1.123675       -30.5767
 121   2.0000      -1.116292       -30.3758
 122   2.0000      -1.108193       -30.1555
 123   2.0000      -1.052866       -28.6499
 124   2.0000      -1.045255       -28.4428
 125   2.0000      -1.044240       -28.4152
 126   2.0000      -1.022796       -27.8317
 127   2.0000      -1.022774       -27.8311
 128   2.0000      -1.012703       -27.5571
 129   2.0000      -1.010657       -27.5014
 130   2.0000      -1.009614       -27.4730
 131   2.0000      -1.008181       -27.4340
 132   2.0000      -1.007891       -27.4261
 133   2.0000      -1.001671       -27.2568
 134   2.0000      -0.995236       -27.0818
 135   2.0000      -0.988034       -26.8858
 136   2.0000      -0.985391       -26.8139
 137   2.0000      -0.983818       -26.7711
 138   2.0000      -0.977648       -26.6032
 139   2.0000      -0.959476       -26.1087
 140   2.0000      -0.955244       -25.9935
 141   2.0000      -0.950869       -25.8745
 142   2.0000      -0.934985       -25.4422
 143   2.0000      -0.925447       -25.1827
 144   2.0000      -0.919624       -25.0242
 145   2.0000      -0.908090       -24.7104
 146   2.0000      -0.900329       -24.4992
 147   2.0000      -0.897130       -24.4121
 148   2.0000      -0.889089       -24.1933
 149   2.0000      -0.884915       -24.0798
 150   2.0000      -0.875757       -23.8306
 151   2.0000      -0.871427       -23.7127
 152   2.0000      -0.869651       -23.6644
 153   2.0000      -0.865115       -23.5410
 154   2.0000      -0.855366       -23.2757
 155   2.0000      -0.854354       -23.2482
 156   2.0000      -0.850235       -23.1361
 157   2.0000      -0.848473       -23.0881
 158   2.0000      -0.832970       -22.6663
 159   2.0000      -0.825521       -22.4636
 160   2.0000      -0.820196       -22.3187
 161   2.0000      -0.816332       -22.2135
 162   2.0000      -0.803175       -21.8555
 163   2.0000      -0.786351       -21.3977
 164   2.0000      -0.785119       -21.3642
 165   2.0000      -0.778706       -21.1897
 166   2.0000      -0.772562       -21.0225
 167   2.0000      -0.761812       -20.7300
 168   2.0000      -0.759457       -20.6659
 169   2.0000      -0.751991       -20.4627
 170   2.0000      -0.750327       -20.4174
 171   2.0000      -0.739764       -20.1300
 172   2.0000      -0.728357       -19.8196
 173   2.0000      -0.724598       -19.7173
 174   2.0000      -0.719525       -19.5793
 175   2.0000      -0.706866       -19.2348
 176   2.0000      -0.705682       -19.2026
 177   2.0000      -0.699605       -19.0372
 178   2.0000      -0.697165       -18.9708
 179   2.0000      -0.694694       -18.9036
 180   2.0000      -0.693700       -18.8765
 181   2.0000      -0.690309       -18.7843
 182   2.0000      -0.688693       -18.7403
 183   2.0000      -0.684830       -18.6352
 184   2.0000      -0.681854       -18.5542
 185   2.0000      -0.676345       -18.4043
 186   2.0000      -0.670722       -18.2513
 187   2.0000      -0.668944       -18.2029
 188   2.0000      -0.667318       -18.1586
 189   2.0000      -0.658051       -17.9065
 190   2.0000      -0.651773       -17.7356
 191   2.0000      -0.650342       -17.6967
 192   2.0000      -0.639877       -17.4119
 193   2.0000      -0.636210       -17.3121
 194   2.0000      -0.635478       -17.2922
 195   2.0000      -0.634663       -17.2701
 196   2.0000      -0.630369       -17.1532
 197   2.0000      -0.629655       -17.1338
 198   2.0000      -0.626443       -17.0464
 199   2.0000      -0.624143       -16.9838
 200   2.0000      -0.620007       -16.8713
 201   2.0000      -0.619095       -16.8464
 202   2.0000      -0.615704       -16.7542
 203   2.0000      -0.614806       -16.7297
 204   2.0000      -0.608882       -16.5685
 205   2.0000      -0.600965       -16.3531
 206   2.0000      -0.600465       -16.3395
 207   2.0000      -0.597127       -16.2487
 208   2.0000      -0.595818       -16.2130
 209   2.0000      -0.588899       -16.0248
 210   2.0000      -0.584171       -15.8961
 211   2.0000      -0.580789       -15.8041
 212   2.0000      -0.578296       -15.7362
 213   2.0000      -0.577870       -15.7246
 214   2.0000      -0.573495       -15.6056
 215   2.0000      -0.568386       -15.4666
 216   2.0000      -0.563736       -15.3400
 217   2.0000      -0.561661       -15.2836
 218   2.0000      -0.559637       -15.2285
 219   2.0000      -0.557368       -15.1668
 220   2.0000      -0.555322       -15.1111
 221   2.0000      -0.553730       -15.0678
 222   2.0000      -0.547788       -14.9061
 223   2.0000      -0.547119       -14.8879
 224   2.0000      -0.545435       -14.8420
 225   2.0000      -0.542170       -14.7532
 226   2.0000      -0.538041       -14.6408
 227   2.0000      -0.534836       -14.5536
 228   2.0000      -0.533326       -14.5125
 229   2.0000      -0.531763       -14.4700
 230   2.0000      -0.529786       -14.4162
 231   2.0000      -0.528379       -14.3779
 232   2.0000      -0.526275       -14.3207
 233   2.0000      -0.522622       -14.2213
 234   2.0000      -0.522024       -14.2050
 235   2.0000      -0.519153       -14.1269
 236   2.0000      -0.516164       -14.0455
 237   2.0000      -0.514661       -14.0046
 238   2.0000      -0.513631       -13.9766
 239   2.0000      -0.510867       -13.9014
 240   2.0000      -0.509035       -13.8516
 241   2.0000      -0.507398       -13.8070
 242   2.0000      -0.506594       -13.7851
 243   2.0000      -0.504656       -13.7324
 244   2.0000      -0.500262       -13.6128
 245   2.0000      -0.499270       -13.5858
 246   2.0000      -0.498008       -13.5515
 247   2.0000      -0.495166       -13.4742
 248   2.0000      -0.493910       -13.4400
 249   2.0000      -0.492962       -13.4142
 250   2.0000      -0.491761       -13.3815
 251   2.0000      -0.490525       -13.3479
 252   2.0000      -0.485627       -13.2146
 253   2.0000      -0.483997       -13.1702
 254   2.0000      -0.483894       -13.1674
 255   2.0000      -0.476038       -12.9536
 256   2.0000      -0.474195       -12.9035
 257   2.0000      -0.470957       -12.8154
 258   2.0000      -0.470031       -12.7902
 259   2.0000      -0.468383       -12.7454
 260   2.0000      -0.463749       -12.6192
 261   2.0000      -0.462883       -12.5957
 262   2.0000      -0.461925       -12.5696
 263   2.0000      -0.460570       -12.5328
 264   2.0000      -0.459455       -12.5024
 265   2.0000      -0.458368       -12.4728
 266   2.0000      -0.456703       -12.4275
 267   2.0000      -0.454419       -12.3654
 268   2.0000      -0.453366       -12.3367
 269   2.0000      -0.450792       -12.2667
 270   2.0000      -0.448750       -12.2111
 271   2.0000      -0.447251       -12.1703
 272   2.0000      -0.444037       -12.0829
 273   2.0000      -0.443042       -12.0558
 274   2.0000      -0.442581       -12.0432
 275   2.0000      -0.441344       -12.0096
 276   2.0000      -0.440728       -11.9928
 277   2.0000      -0.439911       -11.9706
 278   2.0000      -0.439334       -11.9549
 279   2.0000      -0.438777       -11.9397
 280   2.0000      -0.435631       -11.8541
 281   2.0000      -0.433700       -11.8016
 282   2.0000      -0.432638       -11.7727
 283   2.0000      -0.427721       -11.6389
 284   2.0000      -0.427330       -11.6282
 285   2.0000      -0.422142       -11.4871
 286   2.0000      -0.420625       -11.4458
 287   2.0000      -0.413650       -11.2560
 288   2.0000      -0.412548       -11.2260
 289   2.0000      -0.408696       -11.1212
 290   2.0000      -0.405318       -11.0293
 291   2.0000      -0.404970       -11.0198
 292   2.0000      -0.402608       -10.9555
 293   2.0000      -0.401351       -10.9213
 294   2.0000      -0.398914       -10.8550
 295   2.0000      -0.390447       -10.6246
 296   2.0000      -0.385544       -10.4912
 297   2.0000      -0.379836       -10.3359
 298   2.0000      -0.373771       -10.1708
 299   2.0000      -0.370187       -10.0733
 300   2.0000      -0.363545        -9.8926
 301   2.0000      -0.356717        -9.7068
 302   2.0000      -0.354093        -9.6354
 303   2.0000      -0.348594        -9.4857
 304   2.0000      -0.348160        -9.4739
 305   2.0000      -0.339993        -9.2517
 306   2.0000      -0.335863        -9.1393
 307   2.0000      -0.333189        -9.0665
 308   2.0000      -0.331300        -9.0151
 309   2.0000      -0.325715        -8.8632
 310   2.0000      -0.323043        -8.7905
 311   2.0000      -0.321580        -8.7506
 312   2.0000      -0.311181        -8.4677
 313   2.0000      -0.298119        -8.1122
 314   2.0000      -0.282615        -7.6904
 315   2.0000      -0.260034        -7.0759
 316   2.0000      -0.239921        -6.5286
 317   0.0000      -0.128228        -3.4893
 318   0.0000      -0.103562        -2.8181
 319   0.0000      -0.098371        -2.6768
 320   0.0000      -0.069592        -1.8937
 321   0.0000      -0.057927        -1.5763

MULLIKEN ATOMIC CHARGES
-----------------------
   0 C :    0.211108
   1 F :   -0.182869
   2 C :   -0.218523
   3 C :    0.181015
   4 O :   -0.144426
   5 O :   -0.144728
   6 C :    0.207857
   7 F :   -0.135542
   8 C :    0.147357
   9 F :   -0.169416
  10 C :    0.026416
  11 C :    0.168320
  12 F :   -0.160854
  13 C :   -0.105174
  14 C :   -0.039410
  15 C :    0.005981
  16 C :   -0.099511
  17 S :    0.217220
  18 C :   -0.072265
  19 C :    0.040899
  20 C :    0.312109
  21 C :   -0.305866
  22 C :   -0.185818
  23 N :    0.169880
  24 C :   -0.193260
  25 N :    0.177034
  26 C :   -0.067949
  27 C :   -0.172838
  28 S :    0.208573
  29 C :    0.173514
  30 C :   -0.059679
  31 C :   -0.074501
  32 N :    0.005068
  33 C :    0.146839
  34 C :    0.155911
  35 N :   -0.055909
  36 F :   -0.131881
  37 F :   -0.128783
  38 C :    0.209020
  39 C :   -0.031689
  40 C :    0.000217
  41 N :   -0.284051
  42 S :    0.570861
  43 N :   -0.338845
  44 C :   -0.185229
  45 C :   -0.067563
  46 C :    0.042995
  47 C :   -0.066662
  48 S :    0.205489
  49 C :   -0.099655
  50 C :    0.009475
  51 C :    0.310973
  52 C :   -0.305278
  53 C :   -0.184047
  54 N :    0.164525
  55 C :   -0.190127
  56 N :    0.178522
  57 C :   -0.047893
  58 C :   -0.062452
  59 S :    0.168563
  60 C :    0.144526
  61 C :   -0.032737
  62 C :   -0.060706
  63 C :    0.208297
  64 C :   -0.033548
  65 C :   -0.105585
  66 S :    0.176018
  67 C :    0.032160
  68 C :   -0.043827
  69 C :    0.024225
  70 C :   -0.158851
  71 C :    0.281838
  72 C :   -0.362611
  73 C :   -0.176943
  74 N :    0.139404
  75 C :   -0.186233
  76 N :    0.133830
  77 C :    0.014746
  78 C :    0.004477
  79 C :    0.131056
  80 O :   -0.153312
  81 C :   -0.034157
  82 C :    0.039976
  83 C :    0.040736
  84 C :   -0.043567
  85 N :   -0.176270
  86 C :    0.116503
  87 H :    0.185318
  88 H :    0.018919
  89 H :    0.018802
  90 H :    0.022537
  91 H :    0.005469
  92 H :   -0.007205
  93 H :   -0.019942
  94 H :   -0.009686
  95 H :   -0.003542
  96 H :    0.022490
  97 H :   -0.007689
  98 H :   -0.005560
  99 H :   -0.005074
 100 H :   -0.003038
 101 H :    0.072209
 102 H :    0.047433
 103 H :    0.046068
Sum of atomic charges:   -0.0000000

LOEWDIN ATOMIC CHARGES
----------------------
   0 C :    0.061708
   1 F :   -0.046679
   2 C :   -0.128779
   3 C :    0.079910
   4 O :   -0.131001
   5 O :   -0.018415
   6 C :    0.080558
   7 F :   -0.018488
   8 C :    0.048402
   9 F :   -0.045862
  10 C :   -0.062293
  11 C :    0.057975
  12 F :   -0.034698
  13 C :   -0.179840
  14 C :   -0.012020
  15 C :   -0.074555
  16 C :   -0.172643
  17 S :    0.501555
  18 C :   -0.189543
  19 C :   -0.069514
  20 C :    0.081640
  21 C :   -0.104075
  22 C :   -0.015756
  23 N :   -0.034969
  24 C :   -0.018785
  25 N :   -0.031812
  26 C :   -0.015372
  27 C :   -0.164072
  28 S :    0.512733
  29 C :   -0.047839
  30 C :   -0.014297
  31 C :   -0.010088
  32 N :   -0.026998
  33 C :    0.060800
  34 C :    0.066437
  35 N :   -0.060527
  36 F :   -0.021662
  37 F :   -0.017663
  38 C :   -0.041169
  39 C :   -0.048800
  40 C :   -0.037488
  41 N :   -0.271103
  42 S :    0.688356
  43 N :   -0.305458
  44 C :   -0.167936
  45 C :   -0.009434
  46 C :   -0.076655
  47 C :   -0.178147
  48 S :    0.512442
  49 C :   -0.182549
  50 C :   -0.063534
  51 C :    0.082254
  52 C :   -0.103564
  53 C :   -0.014258
  54 N :   -0.038921
  55 C :   -0.019194
  56 N :   -0.028559
  57 C :   -0.033053
  58 C :   -0.151790
  59 S :    0.477072
  60 C :   -0.044114
  61 C :    0.000608
  62 C :   -0.038071
  63 C :    0.011610
  64 C :   -0.165044
  65 C :   -0.034614
  66 S :    0.474292
  67 C :   -0.056673
  68 C :   -0.135167
  69 C :    0.054082
  70 C :   -0.137300
  71 C :    0.048346
  72 C :   -0.177671
  73 C :   -0.023042
  74 N :   -0.069985
  75 C :   -0.010778
  76 N :   -0.077269
  77 C :   -0.010511
  78 C :   -0.047213
  79 C :    0.083843
  80 O :   -0.150989
  81 C :    0.010436
  82 C :   -0.010996
  83 C :   -0.003997
  84 C :   -0.009468
  85 N :    0.032608
  86 C :    0.042625
  87 H :    0.084762
  88 H :    0.039893
  89 H :    0.037044
  90 H :    0.037656
  91 H :    0.038431
  92 H :    0.036375
  93 H :    0.034693
  94 H :    0.025876
  95 H :    0.038577
  96 H :    0.045797
  97 H :    0.037723
  98 H :    0.031867
  99 H :    0.033317
 100 H :    0.037100
 101 H :    0.043926
 102 H :    0.037340
 103 H :    0.032088

  Mayer bond orders larger than 0.100000
B(  0-C ,  1-F ) :   1.1126 B(  0-C ,  2-C ) :   1.3232 B(  0-C , 11-C ) :   1.3324
B(  2-C ,  3-C ) :   0.8527 B(  2-C ,  6-C ) :   1.3432 B(  2-C , 10-C ) :   0.1163
B(  3-C ,  4-O ) :   2.2180 B(  3-C ,  5-O ) :   1.2659 B(  5-O , 87-H ) :   0.9379
B(  6-C ,  7-F ) :   1.2090 B(  6-C ,  8-C ) :   1.3137 B(  8-C ,  9-F ) :   1.1386
B(  8-C , 10-C ) :   1.2806 B( 10-C , 11-C ) :   1.2884 B( 10-C , 13-C ) :   1.0963
B( 11-C , 12-F ) :   1.1507 B( 13-C , 14-C ) :   1.4639 B( 13-C , 17-S ) :   1.0970
B( 14-C , 15-C ) :   1.2976 B( 14-C , 88-H ) :   0.9924 B( 15-C , 16-C ) :   1.4166
B( 15-C , 20-C ) :   0.9938 B( 16-C , 17-S ) :   1.1342 B( 16-C , 18-C ) :   1.1940
B( 18-C , 19-C ) :   1.4155 B( 18-C , 28-S ) :   1.0863 B( 19-C , 20-C ) :   0.9886
B( 19-C , 26-C ) :   1.2713 B( 20-C , 21-C ) :   1.7104 B( 21-C , 22-C ) :   1.1402
B( 21-C , 24-C ) :   1.1316 B( 22-C , 23-N ) :   2.9851 B( 24-C , 25-N ) :   2.9946
B( 26-C , 27-C ) :   1.4258 B( 26-C , 89-H ) :   0.9823 B( 27-C , 28-S ) :   1.0954
B( 27-C , 29-C ) :   1.1803 B( 29-C , 30-C ) :   1.3003 B( 29-C , 38-C ) :   0.1276
B( 29-C , 40-C ) :   1.2017 B( 30-C , 31-C ) :   1.1145 B( 30-C , 35-N ) :   1.3721
B( 31-C , 32-N ) :   1.4394 B( 31-C , 38-C ) :   1.2911 B( 32-N , 33-C ) :   1.6597
B( 33-C , 34-C ) :   1.1043 B( 33-C , 37-F ) :   1.1846 B( 34-C , 35-N ) :   1.6525
B( 34-C , 36-F ) :   1.1923 B( 38-C , 39-C ) :   1.1873 B( 38-C , 44-C ) :   1.1906
B( 39-C , 40-C ) :   1.1129 B( 39-C , 43-N ) :   1.4689 B( 40-C , 41-N ) :   1.5070
B( 41-N , 42-S ) :   1.2864 B( 41-N , 43-N ) :   0.1514 B( 42-S , 43-N ) :   1.2705
B( 44-C , 45-C ) :   1.4064 B( 44-C , 48-S ) :   1.0915 B( 45-C , 46-C ) :   1.2733
B( 45-C , 90-H ) :   0.9882 B( 46-C , 47-C ) :   1.3974 B( 46-C , 51-C ) :   0.9882
B( 47-C , 48-S ) :   1.1083 B( 47-C , 49-C ) :   1.1900 B( 49-C , 50-C ) :   1.4450
B( 49-C , 59-S ) :   1.1166 B( 50-C , 51-C ) :   0.9976 B( 50-C , 57-C ) :   1.2777
B( 51-C , 52-C ) :   1.7096 B( 52-C , 53-C ) :   1.1318 B( 52-C , 55-C ) :   1.1383
B( 53-C , 54-N ) :   2.9863 B( 55-C , 56-N ) :   2.9908 B( 57-C , 58-C ) :   1.4912
B( 57-C , 91-H ) :   0.9887 B( 58-C , 59-S ) :   1.1108 B( 58-C , 60-C ) :   1.0714
B( 60-C , 61-C ) :   1.3295 B( 60-C , 65-C ) :   1.3272 B( 61-C , 62-C ) :   1.4187
B( 61-C , 92-H ) :   0.9898 B( 62-C , 63-C ) :   1.3168 B( 62-C , 93-H ) :   0.9985
B( 63-C , 64-C ) :   1.3435 B( 63-C , 85-N ) :   1.1092 B( 64-C , 65-C ) :   1.4108
B( 64-C , 66-S ) :   1.0208 B( 65-C , 94-H ) :   0.9872 B( 66-S , 67-C ) :   1.1201
B( 67-C , 68-C ) :   1.4027 B( 67-C , 85-N ) :   1.2047 B( 68-C , 69-C ) :   1.3509
B( 68-C , 95-H ) :   0.9466 B( 69-C , 70-C ) :   1.4701 B( 69-C , 96-H ) :   0.9288
B( 70-C , 71-C ) :   1.1373 B( 70-C , 79-C ) :   0.9619 B( 71-C , 72-C ) :   1.5451
B( 71-C , 77-C ) :   0.9957 B( 72-C , 73-C ) :   1.1325 B( 72-C , 75-C ) :   1.1859
B( 73-C , 74-N ) :   2.9842 B( 75-C , 76-N ) :   2.9654 B( 77-C , 78-C ) :   1.3354
B( 77-C , 84-C ) :   1.3948 B( 78-C , 79-C ) :   0.9205 B( 78-C , 81-C ) :   1.4037
B( 79-C , 80-O ) :   2.2502 B( 81-C , 82-C ) :   1.3366 B( 81-C , 97-H ) :   1.0053
B( 82-C , 83-C ) :   1.3951 B( 82-C , 98-H ) :   0.9897 B( 83-C , 84-C ) :   1.3586
B( 83-C , 99-H ) :   0.9852 B( 84-C ,100-H ) :   0.9852 B( 85-N , 86-C ) :   0.9670
B( 86-C ,101-H ) :   0.9549 B( 86-C ,102-H ) :   0.9639 B( 86-C ,103-H ) :   0.9663

-----------------------------------------------------------------------------
         ABSORPTION SPECTRUM VIA TRANSITION ELECTRIC DIPOLE MOMENTS
-----------------------------------------------------------------------------
State   Energy  Wavelength   fosc         T2         TX        TY        TZ
        (cm-1)    (nm)                  (au**2)     (au)      (au)      (au)
-----------------------------------------------------------------------------
   0    9563.4   1045.7   0.876053674  30.15744   0.00697   5.11723  -1.99284
   1   12861.2    777.5   0.016446364   0.42098   0.42768   0.36003  -0.32933
   2   14110.6    708.7   0.003671062   0.08565  -0.12511  -0.26455  -0.00310
   3   17546.4    569.9   0.049837993   0.93508   0.85435  -0.36314  -0.27074
   4   20838.4    479.9   0.188233788   2.97378  -1.40568   0.91476   0.40131
   5   21886.8    456.9   0.321961563   4.84282  -1.74766   0.96433   0.92659
   6   22833.4    438.0   0.066232455   0.95494  -0.11333  -0.83874   0.48848
   7   23629.8    423.2   0.043083089   0.60024  -0.16870  -0.65252   0.38209
   8   25623.0    390.3   0.061825003   0.79435  -0.50908   0.68304  -0.26200
   9   25917.2    385.8   0.509358717   6.47011   0.40348  -2.26453   1.08592
  10   26489.7    377.5   0.636778146   7.91384   1.37862  -2.26024   0.95109
  11   26601.4    375.9   0.064747397   0.80130  -0.87865  -0.16625  -0.04044
  12   26709.4    374.4   0.070527737   0.86930   0.36890   0.60123  -0.60971
  13   27219.7    367.4   0.553141225   6.69004  -0.44741  -2.16257   1.34653
  14   27524.3    363.3   0.005916031   0.07076  -0.06414   0.24853  -0.06984
  15   28597.9    349.7   0.028391626   0.32684  -0.48748  -0.26875   0.13029
  16   28781.7    347.4   0.122531337   1.40154  -0.52909  -0.70958   0.78619
  17   29003.3    344.8   0.015359255   0.17434   0.19166  -0.31336   0.19852
  18   29927.6    334.1   0.181199279   1.99324   0.98362   1.00908  -0.08660
  19   30710.9    325.6   0.248591019   2.66482   0.47062  -1.44808   0.58856
  20   30865.3    324.0   0.101874019   1.08660  -0.44786  -0.86711   0.36626
  21   31034.8    322.2   0.020353049   0.21590  -0.16898   0.40314  -0.15756
  22   31628.1    316.2   0.119184553   1.24057   0.91864  -0.53597   0.33079
  23   31849.3    314.0   0.034137048   0.35286  -0.24873  -0.51337   0.16565
  24   31975.7    312.7   0.686049478   7.06335  -2.54067  -0.12897  -0.76924
  25   32135.2    311.2   0.010906320   0.11173  -0.09077  -0.09753  -0.30656
  26   32141.4    311.1   0.466502990   4.77822  -2.08441   0.41205  -0.51350
  27   32363.0    309.0   0.223561134   2.27417   0.32745   1.34536  -0.59747
  28   32844.7    304.5   0.213941909   2.14440   1.20878   0.82081  -0.09755
  29   32989.1    303.1   0.001645688   0.01642  -0.10693   0.02253  -0.06694
  30   33354.9    299.8   0.074832296   0.73859  -0.71147   0.26656  -0.40169
  31   33529.7    298.2   0.056398442   0.55375  -0.26622   0.65126  -0.24235
  32   33724.1    296.5   0.010309779   0.10064   0.11544   0.18377  -0.23140
  33   33879.4    295.2   0.044790605   0.43524   0.58762   0.29989   0.00189
  34   34326.9    291.3   0.054153983   0.51936  -0.49796   0.44297  -0.27419
  35   34620.6    288.8   0.014440620   0.13732  -0.10731  -0.28348   0.21317
  36   34670.8    288.4   0.100856425   0.95767  -0.91236   0.11449  -0.33490
  37   34928.6    286.3   0.156164164   1.47189   0.67001  -0.79650   0.62335
  38   35464.8    282.0   0.493222819   4.57848   1.28994  -1.40746   0.96622
  39   35552.1    281.3   0.421613767   3.90414   1.92304   0.38094   0.24689
  40   35718.2    280.0   0.104980428   0.96760   0.80595   0.46725  -0.31579
  41   36091.8    277.1   0.230894148   2.10611  -1.39414  -0.19580  -0.35232
  42   36181.0    276.4   0.087036622   0.79195   0.73603   0.44120  -0.23570
  43   36396.4    274.8   0.019458047   0.17600  -0.27389  -0.29331   0.12228
  44   36491.8    274.0   0.008647207   0.07801   0.20477  -0.16375   0.09625
  45   36896.2    271.0   0.090008475   0.80311  -0.77192   0.41377  -0.18987
  46   37019.4    270.1   0.047094827   0.41881  -0.35016   0.43923  -0.32137
  47   37132.5    269.3   0.150443226   1.33381   1.00269   0.56906   0.06771
  48   37189.6    268.9   0.086928474   0.76951  -0.80393   0.00992  -0.35087
  49   37407.2    267.3   0.000684580   0.00602   0.01292   0.07390  -0.01994
  50   38039.4    262.9   0.009061830   0.07843  -0.08916   0.25787  -0.06310
  51   38130.6    262.3   0.063079695   0.54462   0.63056  -0.17861   0.33927
  52   38218.0    261.7   0.004920410   0.04238  -0.20532  -0.01301   0.00773
  53   38397.8    260.4   0.001061255   0.00910  -0.02698   0.09015  -0.01560
  54   38623.6    258.9   0.007521342   0.06411   0.03335  -0.24161   0.06798
  55   39015.5    256.3   0.013093621   0.11048  -0.06009   0.21408  -0.24707
  56   39093.0    255.8   0.013552909   0.11413   0.02677   0.33479  -0.03652
  57   39167.5    255.3   0.306486979   2.57609  -1.40769  -0.74369  -0.20352
  58   39438.1    253.6   0.004978403   0.04156   0.10642  -0.17130   0.02980
  59   39641.8    252.3   0.013626582   0.11316   0.16719  -0.18110   0.22894
  60   39877.7    250.8   0.020474888   0.16903  -0.02489   0.39166  -0.12254
  61   40160.8    249.0   0.115326283   0.94537  -0.33488   0.85962  -0.30705

FINAL SINGLE POINT ENERGY     -6145.410492368577

DIPOLE MOMENT
-------------
                                X             Y             Z
Electronic contribution:    -49.54885     151.47340     -56.09820
Nuclear contribution   :     49.67267    -152.37054      59.11292
                        -----------------------------------------
Total Dipole Moment    :      0.12383      -0.89714       3.01472
                        -----------------------------------------
Magnitude (a.u.)       :      3.14782
Magnitude (Debye)      :      8.00111

Rotational constants in cm-1:     0.001236     0.000144     0.000132
Rotational constants in MHz :    37.053361     4.304011     3.948044

                             ****ORCA TERMINATED NORMALLY****
TOTAL RUN TIME: 0 days 0 hours 13 minutes 6 seconds 732 msec
