                         Program Version 4.2.0 -  RELEASE  -
|  1> # ORCA input file
|  2> # SCF done       -201.088457842333          0.000930451336
|  3> ! CAM-B3LYP def2-SVP def2/J RIJCOSX Grid4 TightSCF
|  4> %maxcore 5000
|  5> %tddft
|  6>     Mode sTDDFT
|  7>     Ethresh 5.0
|  8>     maxcore 5000
|  9> end
| 10>
| 11> %pal
| 12>   nprocs 6
| 13>   end
| 14> * xyz 0 1
| 15>    C       -3.44550         6.62619        -2.86767
| 16>    C       -2.51151         5.99731        -3.64024
| 17>    C       -2.13223         6.44549        -4.92347
| 18>    N       -1.80051         6.77533        -5.97092
| 19>    C       -1.91166         4.76698        -3.29385
| 20>    N       -1.47672         3.72273        -3.10006
| 21>    C       -4.28897         7.74256        -3.27722
| 22>    C       -5.43391         7.79126        -2.42510
| 23>    C       -6.41850         8.72305        -2.59988
| 24>    C       -6.29529         9.66822        -3.64175
| 25>    C       -5.14494         9.63575        -4.48422
| 26>    C       -4.14458         8.65687        -4.28569
| 27>    C       -5.03041        10.59193        -5.51364
| 28>    C       -6.00410        11.53421        -5.70514
| 29>    C       -7.13645        11.56460        -4.87681
| 30>    C       -7.27946        10.65138        -3.86780
| 31>    C       -5.32763         6.74156        -1.40314
| 32>    O       -6.12366         6.42210        -0.55233
| 33>    C       -3.95476         6.16539        -1.58820
| 34>    C       -3.37071         5.49950        -0.56404
| 35>    C       -1.98402         5.21486        -0.40632
| 36>    N       -1.05753         5.85208        -1.10129
| 37>    C        0.12713         5.37893        -0.65992
| 38>    C       -0.05862         4.37077         0.39142
| 39>    C        1.24624         3.85632         0.84124
| 40>    O        1.48077         3.02180         1.68743
| 41>    C        2.19903         4.60947         0.00162
| 42>    C        1.46873         5.53160        -0.89852
| 43>    N        2.33500         6.23046        -1.67364
| 44>    C        3.52297         5.80868        -1.32316
| 45>    C        3.51109         4.79366        -0.28039
| 46>    C       -1.41687         4.25570         0.57168
| 47>    C       -2.17725         3.42923         1.44414
| 48>    C       -1.57988         2.63378         2.36606
| 49>    C       -2.19606         1.78096         3.31772
| 50>    S       -1.17455         1.23364         4.60737
| 51>    C       -2.47850         0.35206         5.34322
| 52>    C       -3.64834         0.46435         4.57908
| 53>    C       -3.48834         1.27252         3.44811
| 54>    C       -4.60102         1.50322         2.47475
| 55>    C       -5.69470         0.45115         2.64086
| 56>    C       -6.09870         0.34294         4.11679
| 57>    C       -7.31147        -0.54800         4.22057
| 58>    O       -7.34501        -1.62878         4.73023
| 59>    C       -4.92999        -0.19830         4.93718
| 60>    C       -2.30860        -0.39584         6.52733
| 61>    N       -3.24131        -1.24726         6.94655
| 62>    C       -2.73338        -1.85352         8.03130
| 63>    C       -1.37453        -1.36970         8.32950
| 64>    C       -0.84901        -2.01171         9.55255
| 65>    O        0.20781        -1.82098        10.10801
| 66>    C       -1.95061        -2.91484         9.93072
| 67>    C       -3.07816        -2.78464         8.98263
| 68>    N       -4.10286        -3.59119         9.34444
| 69>    C       -3.69328        -4.19806        10.43356
| 70>    C       -2.36348        -3.81694        10.85911
| 71>    C       -1.09861        -0.41040         7.39554
| 72>    C        0.03287         0.44658         7.26572
| 73>    C        1.29907         0.12778         7.62504
| 74>    C        2.34434         1.05680         7.38161
| 75>    C        3.67731         0.80979         7.50223
| 76>    C        4.75619         1.74815         7.24178
| 77>    C        4.64011         3.01481         6.73006
| 78>    C        5.73525         3.86445         6.46557
| 79>    N        6.57668         4.60732         6.22335
| 80>    C        3.43651         3.65935         6.37357
| 81>    N        2.51045         4.26241         6.05938
| 82>    C        6.00956         1.08801         7.58766
| 83>    C        5.72684        -0.24533         8.00114
| 84>    C        4.27414        -0.48749         7.92694
| 85>    O        3.70059        -1.53207         8.13832
| 86>    C        6.71374        -1.10675         8.38410
| 87>    C        8.05614        -0.66631         8.37318
| 88>    C        8.34797         0.66655         7.96262
| 89>    C        7.30477         1.53602         7.57161
| 90>    C        9.69115         1.09558         7.95299
| 91>    C       10.69865         0.25015         8.32977
| 92>    C       10.41002        -1.06188         8.73471
| 93>    C        9.11715        -1.51013         8.75617
| 94>    H       -7.27967         8.74066        -1.94847
| 95>    H       -3.27858         8.65997        -4.92889
| 96>    H       -4.15851        10.56299        -6.15019
| 97>    H       -5.90730        12.26208        -6.49652
| 98>    H       -7.89429        12.31549        -5.04220
| 99>    H       -8.14887        10.67003        -3.22719
|100>    H       -4.02541         5.23726         0.25991
|101>    H        4.40342         6.21084        -1.79361
|102>    H        4.37782         4.32568         0.14244
|103>    H       -3.25129         3.48568         1.36340
|104>    H       -0.49842         2.66500         2.43230
|105>    H       -4.21149         1.46904         1.45478
|106>    H       -5.02633         2.49860         2.64144
|107>    H       -5.32552        -0.51930         2.30406
|108>    H       -6.55616         0.71974         2.02689
|109>    H       -6.38679         1.33959         4.47078
|110>    H       -8.20844        -0.11273         3.73388
|111>    H       -4.83581        -1.27603         4.77190
|112>    H       -5.11691        -0.09078         6.00721
|113>    H       -4.33060        -4.90959        10.92941
|114>    H       -1.85256        -4.19219        11.72359
|115>    H       -0.14559         1.41969         6.82337
|116>    H        1.53732        -0.83563         8.05098
|117>    H        2.03009         2.03927         7.05098
|118>    H        6.47174        -2.11293         8.69274
|119>    H        7.55920         2.53967         7.27002
|120>    H        9.90800         2.10649         7.63989
|121>    H       11.72429         0.58754         8.31781
|122>    H       11.21751        -1.71546         9.02934
|123>    H        8.88884        -2.51923         9.06677
|124> *
|125>
|126>                          ****END OF INPUT****

CARTESIAN COORDINATES (ANGSTROEM)
---------------------------------
  C     -3.445500    6.626190   -2.867670
  C     -2.511510    5.997310   -3.640240
  C     -2.132230    6.445490   -4.923470
  N     -1.800510    6.775330   -5.970920
  C     -1.911660    4.766980   -3.293850
  N     -1.476720    3.722730   -3.100060
  C     -4.288970    7.742560   -3.277220
  C     -5.433910    7.791260   -2.425100
  C     -6.418500    8.723050   -2.599880
  C     -6.295290    9.668220   -3.641750
  C     -5.144940    9.635750   -4.484220
  C     -4.144580    8.656870   -4.285690
  C     -5.030410   10.591930   -5.513640
  C     -6.004100   11.534210   -5.705140
  C     -7.136450   11.564600   -4.876810
  C     -7.279460   10.651380   -3.867800
  C     -5.327630    6.741560   -1.403140
  O     -6.123660    6.422100   -0.552330
  C     -3.954760    6.165390   -1.588200
  C     -3.370710    5.499500   -0.564040
  C     -1.984020    5.214860   -0.406320
  N     -1.057530    5.852080   -1.101290
  C      0.127130    5.378930   -0.659920
  C     -0.058620    4.370770    0.391420
  C      1.246240    3.856320    0.841240
  O      1.480770    3.021800    1.687430
  C      2.199030    4.609470    0.001620
  C      1.468730    5.531600   -0.898520
  N      2.335000    6.230460   -1.673640
  C      3.522970    5.808680   -1.323160
  C      3.511090    4.793660   -0.280390
  C     -1.416870    4.255700    0.571680
  C     -2.177250    3.429230    1.444140
  C     -1.579880    2.633780    2.366060
  C     -2.196060    1.780960    3.317720
  S     -1.174550    1.233640    4.607370
  C     -2.478500    0.352060    5.343220
  C     -3.648340    0.464350    4.579080
  C     -3.488340    1.272520    3.448110
  C     -4.601020    1.503220    2.474750
  C     -5.694700    0.451150    2.640860
  C     -6.098700    0.342940    4.116790
  C     -7.311470   -0.548000    4.220570
  O     -7.345010   -1.628780    4.730230
  C     -4.929990   -0.198300    4.937180
  C     -2.308600   -0.395840    6.527330
  N     -3.241310   -1.247260    6.946550
  C     -2.733380   -1.853520    8.031300
  C     -1.374530   -1.369700    8.329500
  C     -0.849010   -2.011710    9.552550
  O      0.207810   -1.820980   10.108010
  C     -1.950610   -2.914840    9.930720
  C     -3.078160   -2.784640    8.982630
  N     -4.102860   -3.591190    9.344440
  C     -3.693280   -4.198060   10.433560
  C     -2.363480   -3.816940   10.859110
  C     -1.098610   -0.410400    7.395540
  C      0.032870    0.446580    7.265720
  C      1.299070    0.127780    7.625040
  C      2.344340    1.056800    7.381610
  C      3.677310    0.809790    7.502230
  C      4.756190    1.748150    7.241780
  C      4.640110    3.014810    6.730060
  C      5.735250    3.864450    6.465570
  N      6.576680    4.607320    6.223350
  C      3.436510    3.659350    6.373570
  N      2.510450    4.262410    6.059380
  C      6.009560    1.088010    7.587660
  C      5.726840   -0.245330    8.001140
  C      4.274140   -0.487490    7.926940
  O      3.700590   -1.532070    8.138320
  C      6.713740   -1.106750    8.384100
  C      8.056140   -0.666310    8.373180
  C      8.347970    0.666550    7.962620
  C      7.304770    1.536020    7.571610
  C      9.691150    1.095580    7.952990
  C     10.698650    0.250150    8.329770
  C     10.410020   -1.061880    8.734710
  C      9.117150   -1.510130    8.756170
  H     -7.279670    8.740660   -1.948470
  H     -3.278580    8.659970   -4.928890
  H     -4.158510   10.562990   -6.150190
  H     -5.907300   12.262080   -6.496520
  H     -7.894290   12.315490   -5.042200
  H     -8.148870   10.670030   -3.227190
  H     -4.025410    5.237260    0.259910
  H      4.403420    6.210840   -1.793610
  H      4.377820    4.325680    0.142440
  H     -3.251290    3.485680    1.363400
  H     -0.498420    2.665000    2.432300
  H     -4.211490    1.469040    1.454780
  H     -5.026330    2.498600    2.641440
  H     -5.325520   -0.519300    2.304060
  H     -6.556160    0.719740    2.026890
  H     -6.386790    1.339590    4.470780
  H     -8.208440   -0.112730    3.733880
  H     -4.835810   -1.276030    4.771900
  H     -5.116910   -0.090780    6.007210
  H     -4.330600   -4.909590   10.929410
  H     -1.852560   -4.192190   11.723590
  H     -0.145590    1.419690    6.823370
  H      1.537320   -0.835630    8.050980
  H      2.030090    2.039270    7.050980
  H      6.471740   -2.112930    8.692740
  H      7.559200    2.539670    7.270020
  H      9.908000    2.106490    7.639890
  H     11.724290    0.587540    8.317810
  H     11.217510   -1.715460    9.029340
  H      8.888840   -2.519230    9.066770

 Total Charge           Charge          ....    0
 Multiplicity           Mult            ....    1
 Number of Electrons    NEL             ....  532
 Basis Dimension        Dim             .... 1260

ORBITAL ENERGIES
----------------

  NO   OCC          E(Eh)            E(eV)
   0   2.0000     -88.972258     -2421.0582
   1   2.0000     -19.231546      -523.3170
   2   2.0000     -19.219512      -522.9895
   3   2.0000     -19.215818      -522.8890
   4   2.0000     -19.210474      -522.7436
   5   2.0000     -19.205915      -522.6195
   6   2.0000     -14.425157      -392.5285
   7   2.0000     -14.423577      -392.4855
   8   2.0000     -14.419893      -392.3852
   9   2.0000     -14.413843      -392.2206
  10   2.0000     -14.413786      -392.2190
  11   2.0000     -14.411954      -392.1692
  12   2.0000     -14.405247      -391.9867
  13   2.0000     -14.398503      -391.8032
  14   2.0000     -10.381291      -282.4893
  15   2.0000     -10.378987      -282.4266
  16   2.0000     -10.366998      -282.1004
  17   2.0000     -10.361198      -281.9425
  18   2.0000     -10.354928      -281.7719
  19   2.0000     -10.354412      -281.7579
  20   2.0000     -10.353212      -281.7252
  21   2.0000     -10.347341      -281.5655
  22   2.0000     -10.347299      -281.5643
  23   2.0000     -10.339539      -281.3532
  24   2.0000     -10.338813      -281.3334
  25   2.0000     -10.337135      -281.2878
  26   2.0000     -10.334982      -281.2292
  27   2.0000     -10.334801      -281.2242
  28   2.0000     -10.329519      -281.0805
  29   2.0000     -10.325808      -280.9795
  30   2.0000     -10.324582      -280.9462
  31   2.0000     -10.324438      -280.9422
  32   2.0000     -10.322682      -280.8945
  33   2.0000     -10.322277      -280.8834
  34   2.0000     -10.317399      -280.7507
  35   2.0000     -10.317179      -280.7447
  36   2.0000     -10.316756      -280.7332
  37   2.0000     -10.315120      -280.6887
  38   2.0000     -10.314073      -280.6602
  39   2.0000     -10.313774      -280.6521
  40   2.0000     -10.312666      -280.6219
  41   2.0000     -10.309504      -280.5359
  42   2.0000     -10.307323      -280.4765
  43   2.0000     -10.306215      -280.4464
  44   2.0000     -10.305834      -280.4360
  45   2.0000     -10.305319      -280.4220
  46   2.0000     -10.303781      -280.3801
  47   2.0000     -10.301908      -280.3292
  48   2.0000     -10.301812      -280.3265
  49   2.0000     -10.300258      -280.2843
  50   2.0000     -10.299956      -280.2760
  51   2.0000     -10.299546      -280.2649
  52   2.0000     -10.298996      -280.2499
  53   2.0000     -10.298346      -280.2322
  54   2.0000     -10.296552      -280.1834
  55   2.0000     -10.295990      -280.1681
  56   2.0000     -10.295608      -280.1577
  57   2.0000     -10.294550      -280.1289
  58   2.0000     -10.294314      -280.1225
  59   2.0000     -10.294173      -280.1187
  60   2.0000     -10.294068      -280.1158
  61   2.0000     -10.293384      -280.0972
  62   2.0000     -10.293224      -280.0929
  63   2.0000     -10.292844      -280.0825
  64   2.0000     -10.292515      -280.0736
  65   2.0000     -10.292124      -280.0629
  66   2.0000     -10.291701      -280.0514
  67   2.0000     -10.289065      -279.9797
  68   2.0000     -10.284911      -279.8667
  69   2.0000     -10.284059      -279.8435
  70   2.0000     -10.283943      -279.8403
  71   2.0000     -10.283612      -279.8313
  72   2.0000     -10.283065      -279.8164
  73   2.0000     -10.282873      -279.8112
  74   2.0000     -10.282616      -279.8042
  75   2.0000     -10.282501      -279.8011
  76   2.0000     -10.282331      -279.7964
  77   2.0000     -10.281923      -279.7854
  78   2.0000     -10.267631      -279.3964
  79   2.0000      -8.067363      -219.5241
  80   2.0000      -6.036515      -164.2619
  81   2.0000      -6.032372      -164.1492
  82   2.0000      -6.029694      -164.0763
  83   2.0000      -1.146277       -31.1918
  84   2.0000      -1.134156       -30.8619
  85   2.0000      -1.131131       -30.7796
  86   2.0000      -1.125602       -30.6292
  87   2.0000      -1.121240       -30.5105
  88   2.0000      -1.089637       -29.6505
  89   2.0000      -1.075903       -29.2768
  90   2.0000      -1.069432       -29.1007
  91   2.0000      -1.053969       -28.6800
  92   2.0000      -1.025408       -27.9028
  93   2.0000      -1.014959       -27.6184
  94   2.0000      -1.006489       -27.3880
  95   2.0000      -1.006012       -27.3750
  96   2.0000      -0.999630       -27.2013
  97   2.0000      -0.994935       -27.0736
  98   2.0000      -0.990993       -26.9663
  99   2.0000      -0.980279       -26.6747
 100   2.0000      -0.967971       -26.3398
 101   2.0000      -0.947522       -25.7834
 102   2.0000      -0.938009       -25.5245
 103   2.0000      -0.934930       -25.4407
 104   2.0000      -0.933369       -25.3982
 105   2.0000      -0.930754       -25.3271
 106   2.0000      -0.924515       -25.1573
 107   2.0000      -0.917410       -24.9640
 108   2.0000      -0.911519       -24.8037
 109   2.0000      -0.895410       -24.3653
 110   2.0000      -0.889900       -24.2154
 111   2.0000      -0.887290       -24.1444
 112   2.0000      -0.881324       -23.9820
 113   2.0000      -0.877834       -23.8871
 114   2.0000      -0.871748       -23.7215
 115   2.0000      -0.863664       -23.5015
 116   2.0000      -0.855808       -23.2877
 117   2.0000      -0.853196       -23.2167
 118   2.0000      -0.841921       -22.9098
 119   2.0000      -0.836244       -22.7553
 120   2.0000      -0.831521       -22.6268
 121   2.0000      -0.824694       -22.4411
 122   2.0000      -0.819555       -22.3012
 123   2.0000      -0.818734       -22.2789
 124   2.0000      -0.787337       -21.4245
 125   2.0000      -0.781109       -21.2551
 126   2.0000      -0.773196       -21.0397
 127   2.0000      -0.762627       -20.7521
 128   2.0000      -0.758075       -20.6283
 129   2.0000      -0.756922       -20.5969
 130   2.0000      -0.752563       -20.4783
 131   2.0000      -0.748655       -20.3719
 132   2.0000      -0.730018       -19.8648
 133   2.0000      -0.722551       -19.6616
 134   2.0000      -0.717676       -19.5290
 135   2.0000      -0.714741       -19.4491
 136   2.0000      -0.714044       -19.4301
 137   2.0000      -0.708396       -19.2764
 138   2.0000      -0.700275       -19.0555
 139   2.0000      -0.693019       -18.8580
 140   2.0000      -0.685264       -18.6470
 141   2.0000      -0.683038       -18.5864
 142   2.0000      -0.681478       -18.5440
 143   2.0000      -0.674471       -18.3533
 144   2.0000      -0.668431       -18.1889
 145   2.0000      -0.659478       -17.9453
 146   2.0000      -0.649246       -17.6669
 147   2.0000      -0.645585       -17.5673
 148   2.0000      -0.641122       -17.4458
 149   2.0000      -0.638078       -17.3630
 150   2.0000      -0.636039       -17.3075
 151   2.0000      -0.634033       -17.2529
 152   2.0000      -0.624390       -16.9905
 153   2.0000      -0.621838       -16.9211
 154   2.0000      -0.619160       -16.8482
 155   2.0000      -0.615498       -16.7486
 156   2.0000      -0.613773       -16.7016
 157   2.0000      -0.607100       -16.5200
 158   2.0000      -0.603401       -16.4194
 159   2.0000      -0.602991       -16.4082
 160   2.0000      -0.594159       -16.1679
 161   2.0000      -0.590868       -16.0783
 162   2.0000      -0.585992       -15.9457
 163   2.0000      -0.580450       -15.7948
 164   2.0000      -0.570488       -15.5238
 165   2.0000      -0.567818       -15.4511
 166   2.0000      -0.562655       -15.3106
 167   2.0000      -0.560063       -15.2401
 168   2.0000      -0.557010       -15.1570
 169   2.0000      -0.555237       -15.1088
 170   2.0000      -0.553592       -15.0640
 171   2.0000      -0.546751       -14.8779
 172   2.0000      -0.545510       -14.8441
 173   2.0000      -0.544264       -14.8102
 174   2.0000      -0.542811       -14.7706
 175   2.0000      -0.540182       -14.6991
 176   2.0000      -0.539162       -14.6714
 177   2.0000      -0.536972       -14.6117
 178   2.0000      -0.534175       -14.5356
 179   2.0000      -0.533216       -14.5095
 180   2.0000      -0.531494       -14.4627
 181   2.0000      -0.531010       -14.4495
 182   2.0000      -0.529986       -14.4217
 183   2.0000      -0.523941       -14.2572
 184   2.0000      -0.522104       -14.2072
 185   2.0000      -0.521037       -14.1781
 186   2.0000      -0.519710       -14.1420
 187   2.0000      -0.517291       -14.0762
 188   2.0000      -0.514709       -14.0059
 189   2.0000      -0.511566       -13.9204
 190   2.0000      -0.510221       -13.8838
 191   2.0000      -0.509640       -13.8680
 192   2.0000      -0.508261       -13.8305
 193   2.0000      -0.504883       -13.7386
 194   2.0000      -0.502139       -13.6639
 195   2.0000      -0.501241       -13.6395
 196   2.0000      -0.499106       -13.5814
 197   2.0000      -0.497041       -13.5252
 198   2.0000      -0.495478       -13.4826
 199   2.0000      -0.493327       -13.4241
 200   2.0000      -0.489810       -13.3284
 201   2.0000      -0.488618       -13.2960
 202   2.0000      -0.485202       -13.2030
 203   2.0000      -0.482846       -13.1389
 204   2.0000      -0.481337       -13.0978
 205   2.0000      -0.480838       -13.0843
 206   2.0000      -0.478220       -13.0130
 207   2.0000      -0.474282       -12.9059
 208   2.0000      -0.473658       -12.8889
 209   2.0000      -0.468480       -12.7480
 210   2.0000      -0.467942       -12.7334
 211   2.0000      -0.466239       -12.6870
 212   2.0000      -0.462770       -12.5926
 213   2.0000      -0.460846       -12.5403
 214   2.0000      -0.456354       -12.4180
 215   2.0000      -0.455580       -12.3970
 216   2.0000      -0.455179       -12.3861
 217   2.0000      -0.450442       -12.2571
 218   2.0000      -0.447684       -12.1821
 219   2.0000      -0.446811       -12.1583
 220   2.0000      -0.446330       -12.1453
 221   2.0000      -0.441989       -12.0271
 222   2.0000      -0.440403       -11.9840
 223   2.0000      -0.438675       -11.9369
 224   2.0000      -0.437079       -11.8935
 225   2.0000      -0.434312       -11.8182
 226   2.0000      -0.433612       -11.7992
 227   2.0000      -0.430681       -11.7194
 228   2.0000      -0.429767       -11.6946
 229   2.0000      -0.428560       -11.6617
 230   2.0000      -0.426939       -11.6176
 231   2.0000      -0.423669       -11.5286
 232   2.0000      -0.421790       -11.4775
 233   2.0000      -0.419628       -11.4186
 234   2.0000      -0.416736       -11.3400
 235   2.0000      -0.414933       -11.2909
 236   2.0000      -0.411921       -11.2089
 237   2.0000      -0.408999       -11.1294
 238   2.0000      -0.404848       -11.0165
 239   2.0000      -0.403001       -10.9662
 240   2.0000      -0.387883       -10.5548
 241   2.0000      -0.386938       -10.5291
 242   2.0000      -0.374467       -10.1898
 243   2.0000      -0.372094       -10.1252
 244   2.0000      -0.368508       -10.0276
 245   2.0000      -0.363370        -9.8878
 246   2.0000      -0.361743        -9.8435
 247   2.0000      -0.352322        -9.5872
 248   2.0000      -0.350199        -9.5294
 249   2.0000      -0.346953        -9.4411
 250   2.0000      -0.346220        -9.4211
 251   2.0000      -0.342699        -9.3253
 252   2.0000      -0.337799        -9.1920
 253   2.0000      -0.329942        -8.9782
 254   2.0000      -0.328702        -8.9444
 255   2.0000      -0.326919        -8.8959
 256   2.0000      -0.325545        -8.8585
 257   2.0000      -0.323939        -8.8148
 258   2.0000      -0.321682        -8.7534
 259   2.0000      -0.319946        -8.7062
 260   2.0000      -0.314911        -8.5692
 261   2.0000      -0.313381        -8.5275
 262   2.0000      -0.300094        -8.1660
 263   2.0000      -0.294275        -8.0076
 264   2.0000      -0.282620        -7.6905
 265   2.0000      -0.265314        -7.2196
 266   0.0000      -0.134625        -3.6633
 267   0.0000      -0.115227        -3.1355
 268   0.0000      -0.093210        -2.5364
 269   0.0000      -0.080919        -2.2019
 270   0.0000      -0.063579        -1.7301

MULLIKEN ATOMIC CHARGES
-----------------------
   0 C :    0.269205
   1 C :   -0.269321
   2 C :   -0.186508
   3 N :    0.164452
   4 C :   -0.179137
   5 N :    0.164254
   6 C :    0.041711
   7 C :    0.004144
   8 C :   -0.072764
   9 C :    0.091765
  10 C :    0.094887
  11 C :   -0.077804
  12 C :   -0.016714
  13 C :    0.036636
  14 C :    0.034831
  15 C :   -0.012487
  16 C :    0.139459
  17 O :   -0.134812
  18 C :   -0.070975
  19 C :   -0.012294
  20 C :    0.022912
  21 N :   -0.047378
  22 C :    0.070174
  23 C :   -0.152345
  24 C :    0.234740
  25 O :   -0.135620
  26 C :   -0.006063
  27 C :   -0.015670
  28 N :   -0.048138
  29 C :    0.099205
  30 C :   -0.089876
  31 C :    0.069068
  32 C :   -0.047009
  33 C :    0.062244
  34 C :   -0.096347
  35 S :    0.153603
  36 C :   -0.163824
  37 C :   -0.060983
  38 C :   -0.120271
  39 C :    0.142760
  40 C :    0.026963
  41 C :   -0.123286
  42 C :    0.156527
  43 O :   -0.160791
  44 C :    0.234362
  45 C :    0.056361
  46 N :   -0.065469
  47 C :    0.076887
  48 C :   -0.143143
  49 C :    0.204854
  50 O :   -0.120166
  51 C :   -0.038373
  52 C :   -0.031081
  53 N :   -0.056513
  54 C :    0.087794
  55 C :   -0.089632
  56 C :    0.044498
  57 C :   -0.063660
  58 C :    0.038738
  59 C :   -0.057855
  60 C :   -0.053819
  61 C :    0.339034
  62 C :   -0.351517
  63 C :   -0.184226
  64 N :    0.142545
  65 C :   -0.185884
  66 N :    0.141685
  67 C :    0.043801
  68 C :   -0.006339
  69 C :    0.149608
  70 O :   -0.134029
  71 C :   -0.078544
  72 C :    0.097401
  73 C :    0.095977
  74 C :   -0.083103
  75 C :   -0.017639
  76 C :    0.034568
  77 C :    0.036154
  78 C :   -0.014703
  79 H :   -0.008178
  80 H :   -0.000336
  81 H :   -0.006568
  82 H :   -0.000419
  83 H :   -0.001556
  84 H :   -0.014935
  85 H :    0.019717
  86 H :    0.016923
  87 H :    0.003030
  88 H :   -0.026236
  89 H :    0.009464
  90 H :    0.028719
  91 H :    0.025973
  92 H :    0.023038
  93 H :    0.007888
  94 H :    0.013319
  95 H :   -0.010127
  96 H :    0.036738
  97 H :    0.030763
  98 H :    0.007951
  99 H :   -0.007761
 100 H :    0.031077
 101 H :    0.044827
 102 H :    0.011670
 103 H :   -0.012403
 104 H :   -0.010407
 105 H :   -0.010386
 106 H :   -0.005902
 107 H :   -0.005485
 108 H :   -0.018098
Sum of atomic charges:   -0.0000000

LOEWDIN ATOMIC CHARGES
----------------------
   0 C :    0.064312
   1 C :   -0.097028
   2 C :   -0.015136
   3 N :   -0.037769
   4 C :   -0.013973
   5 N :   -0.045903
   6 C :   -0.019075
   7 C :   -0.061800
   8 C :    0.037944
   9 C :   -0.009357
  10 C :   -0.001885
  11 C :    0.018262
  12 C :   -0.005415
  13 C :   -0.008649
  14 C :   -0.011199
  15 C :   -0.007497
  16 C :    0.085730
  17 O :   -0.132418
  18 C :   -0.019219
  19 C :    0.026347
  20 C :    0.057099
  21 N :   -0.076811
  22 C :    0.045506
  23 C :   -0.043989
  24 C :    0.073484
  25 O :   -0.131967
  26 C :   -0.034285
  27 C :    0.041715
  28 N :   -0.093258
  29 C :    0.088562
  30 C :   -0.023505
  31 C :   -0.016899
  32 C :   -0.032230
  33 C :   -0.003510
  34 C :   -0.149274
  35 S :    0.494292
  36 C :   -0.198042
  37 C :    0.001543
  38 C :   -0.053914
  39 C :   -0.025785
  40 C :   -0.013807
  41 C :   -0.073499
  42 C :    0.117456
  43 O :   -0.111128
  44 C :   -0.018577
  45 C :    0.056640
  46 N :   -0.103199
  47 C :    0.043657
  48 C :   -0.022422
  49 C :    0.063791
  50 O :   -0.130336
  51 C :   -0.043747
  52 C :    0.019209
  53 N :   -0.096332
  54 C :    0.071085
  55 C :   -0.039054
  56 C :   -0.040104
  57 C :   -0.001056
  58 C :    0.006506
  59 C :    0.067820
  60 C :   -0.084478
  61 C :    0.077435
  62 C :   -0.138440
  63 C :   -0.016060
  64 N :   -0.057481
  65 C :   -0.019139
  66 N :   -0.054626
  67 C :   -0.026192
  68 C :   -0.054306
  69 C :    0.083625
  70 O :   -0.131618
  71 C :    0.032190
  72 C :   -0.007557
  73 C :   -0.006662
  74 C :    0.019048
  75 C :   -0.005717
  76 C :   -0.014608
  77 C :   -0.012745
  78 C :   -0.009378
  79 H :    0.040628
  80 H :    0.040590
  81 H :    0.035825
  82 H :    0.034748
  83 H :    0.034116
  84 H :    0.032713
  85 H :    0.045697
  86 H :    0.026935
  87 H :    0.037942
  88 H :    0.026582
  89 H :    0.035081
  90 H :    0.037038
  91 H :    0.034288
  92 H :    0.030323
  93 H :    0.026137
  94 H :    0.033713
  95 H :   -0.008363
  96 H :    0.049287
  97 H :    0.044499
  98 H :    0.022956
  99 H :    0.033505
 100 H :    0.022666
 101 H :    0.040558
 102 H :    0.042288
 103 H :    0.039350
 104 H :    0.038338
 105 H :    0.034221
 106 H :    0.032702
 107 H :    0.032610
 108 H :    0.031832

  Mayer bond orders larger than 0.100000
B(  0-C ,  1-C ) :   1.7094 B(  0-C ,  6-C ) :   1.0014 B(  0-C , 18-C ) :   1.0066
B(  1-C ,  2-C ) :   1.1391 B(  1-C ,  4-C ) :   1.1540 B(  2-C ,  3-N ) :   2.9867
B(  4-C ,  5-N ) :   2.9823 B(  6-C ,  7-C ) :   1.2062 B(  6-C , 11-C ) :   1.4583
B(  7-C ,  8-C ) :   1.4675 B(  7-C , 16-C ) :   0.9298 B(  8-C ,  9-C ) :   1.1946
B(  8-C , 79-H ) :   1.0147 B(  9-C , 10-C ) :   1.2507 B(  9-C , 15-C ) :   1.2441
B( 10-C , 11-C ) :   1.2095 B( 10-C , 12-C ) :   1.2403 B( 11-C , 80-H ) :   0.9938
B( 12-C , 13-C ) :   1.4913 B( 12-C , 81-H ) :   0.9977 B( 13-C , 14-C ) :   1.2583
B( 13-C , 82-H ) :   0.9889 B( 14-C , 15-C ) :   1.4917 B( 14-C , 83-H ) :   0.9888
B( 15-C , 84-H ) :   0.9973 B( 16-C , 17-O ) :   2.2659 B( 16-C , 18-C ) :   0.9131
B( 18-C , 19-C ) :   1.7311 B( 19-C , 20-C ) :   1.0569 B( 19-C , 85-H ) :   0.9371
B( 20-C , 21-N ) :   1.5832 B( 20-C , 22-C ) :   0.1136 B( 20-C , 31-C ) :   1.0169
B( 21-N , 22-C ) :   1.3038 B( 22-C , 23-C ) :   1.0716 B( 22-C , 27-C ) :   1.4441
B( 23-C , 24-C ) :   0.8956 B( 23-C , 31-C ) :   1.5390 B( 24-C , 25-O ) :   2.1779
B( 24-C , 26-C ) :   0.9296 B( 25-O , 89-H ) :   0.1121 B( 26-C , 27-C ) :   1.0577
B( 26-C , 30-C ) :   1.6271 B( 27-C , 28-N ) :   1.3027 B( 28-N , 29-C ) :   1.6661
B( 29-C , 30-C ) :   1.0482 B( 29-C , 86-H ) :   0.9887 B( 30-C , 87-H ) :   1.0108
B( 31-C , 32-C ) :   1.1364 B( 32-C , 33-C ) :   1.6596 B( 32-C , 88-H ) :   0.9543
B( 33-C , 34-C ) :   1.1297 B( 33-C , 89-H ) :   0.9198 B( 34-C , 35-S ) :   1.1552
B( 34-C , 36-C ) :   0.1058 B( 34-C , 38-C ) :   1.4361 B( 35-S , 36-C ) :   1.1118
B( 36-C , 37-C ) :   1.4171 B( 36-C , 45-C ) :   1.1579 B( 37-C , 38-C ) :   1.3617
B( 37-C , 44-C ) :   1.0800 B( 38-C , 39-C ) :   1.0517 B( 39-C , 40-C ) :   1.0909
B( 39-C , 90-H ) :   0.9132 B( 39-C , 91-H ) :   0.8978 B( 40-C , 41-C ) :   1.0289
B( 40-C , 92-H ) :   0.9409 B( 40-C , 93-H ) :   0.9338 B( 41-C , 42-C ) :   0.9185
B( 41-C , 44-C ) :   0.9970 B( 41-C , 94-H ) :   0.9059 B( 42-C , 43-O ) :   2.2217
B( 42-C , 95-H ) :   0.9503 B( 44-C , 96-H ) :   0.8850 B( 44-C , 97-H ) :   0.8939
B( 45-C , 46-N ) :   1.5593 B( 45-C , 47-C ) :   0.1188 B( 45-C , 56-C ) :   1.0269
B( 46-N , 47-C ) :   1.3748 B( 47-C , 48-C ) :   1.0447 B( 47-C , 52-C ) :   1.3869
B( 48-C , 49-C ) :   0.8787 B( 48-C , 56-C ) :   1.6133 B( 49-C , 50-O ) :   2.2747
B( 49-C , 51-C ) :   0.9083 B( 51-C , 52-C ) :   1.0626 B( 51-C , 55-C ) :   1.5950
B( 52-C , 53-N ) :   1.3263 B( 53-N , 54-C ) :   1.6401 B( 54-C , 55-C ) :   1.0839
B( 54-C , 98-H ) :   0.9897 B( 55-C , 99-H ) :   1.0100 B( 56-C , 57-C ) :   1.0269
B( 57-C , 58-C ) :   1.6350 B( 57-C ,100-H ) :   0.9460 B( 58-C , 59-C ) :   1.1357
B( 58-C ,101-H ) :   0.9825 B( 59-C , 60-C ) :   1.5670 B( 59-C ,102-H ) :   0.9587
B( 60-C , 61-C ) :   1.0624 B( 60-C , 69-C ) :   0.9305 B( 61-C , 62-C ) :   1.6253
B( 61-C , 67-C ) :   0.9886 B( 62-C , 63-C ) :   1.1480 B( 62-C , 65-C ) :   1.1428
B( 63-C , 64-N ) :   2.9624 B( 65-C , 66-N ) :   2.9621 B( 67-C , 68-C ) :   1.2145
B( 67-C , 74-C ) :   1.4472 B( 68-C , 69-C ) :   0.9369 B( 68-C , 71-C ) :   1.4755
B( 69-C , 70-O ) :   2.2303 B( 71-C , 72-C ) :   1.1807 B( 71-C ,103-H ) :   1.0146
B( 72-C , 73-C ) :   1.2549 B( 72-C , 78-C ) :   1.2450 B( 73-C , 74-C ) :   1.2100
B( 73-C , 75-C ) :   1.2386 B( 74-C ,104-H ) :   0.9881 B( 75-C , 76-C ) :   1.4913
B( 75-C ,105-H ) :   0.9965 B( 76-C , 77-C ) :   1.2579 B( 76-C ,106-H ) :   0.9885
B( 77-C , 78-C ) :   1.4906 B( 77-C ,107-H ) :   0.9884 B( 78-C ,108-H ) :   0.9967

-----------------------------------------------------------------------------
         ABSORPTION SPECTRUM VIA TRANSITION ELECTRIC DIPOLE MOMENTS
-----------------------------------------------------------------------------
State   Energy  Wavelength   fosc         T2         TX        TY        TZ
        (cm-1)    (nm)                  (au**2)     (au)      (au)      (au)
-----------------------------------------------------------------------------
   0   13458.0    743.1   0.097472526   2.38439  -0.91073  -0.78086   0.97223
   1   18401.7    543.4   0.968740778  17.33105  -0.07816  -2.49325   3.33296
   2   19456.4    514.0   0.169493252   2.86791   0.32607   0.99317  -1.33237
   3   19534.7    511.9   0.232016458   3.91010  -1.26960  -1.27517   0.81985
   4   20842.6    479.8   0.017361285   0.27422   0.41706   0.11188   0.29626
   5   21556.0    463.9   0.002475317   0.03780  -0.09926  -0.08140   0.14603
   6   21970.5    455.2   0.163609329   2.45157   1.43989   0.14900   0.59673
   7   22610.7    442.3   0.299400660   4.35929   0.89571  -0.95184   1.62819
   8   23228.9    430.5   0.079545179   1.12736  -1.05750   0.03647  -0.08781
   9   23658.1    422.7   0.012006620   0.16708   0.28919   0.14180  -0.25167
  10   24661.6    405.5   0.101627110   1.35664   0.79900  -0.58404   0.61411
  11   24709.4    404.7   0.070589886   0.94049   0.29264  -0.77806   0.49948
  12   24798.6    403.2   0.027600525   0.36641  -0.50064   0.33120  -0.07792
  13   25103.5    398.4   0.269173583   3.53000   1.28906   1.09535  -0.81763
  14   25424.2    393.3   0.114600576   1.48394  -0.48411  -0.91954   0.63562
  15   25586.2    390.8   0.003863139   0.04971   0.10954  -0.13719   0.13742
  16   26144.1    382.5   0.750774765   9.45392  -2.85186  -1.00091   0.56480
  17   26333.2    379.7   0.014495096   0.18121  -0.10570   0.34908  -0.21952
  18   26443.3    378.2   0.034419425   0.42851  -0.00093  -0.61422   0.22638
  19   26455.9    378.0   0.091232479   1.13528   1.05476   0.14440  -0.04357
  20   26526.2    377.0   0.143248342   1.77783  -1.25067   0.13578  -0.44183
  21   26595.3    376.0   0.047429413   0.58711  -0.63600   0.42338  -0.05794
  22   27037.7    369.9   0.051217604   0.62363   0.26893   0.45596  -0.58601
  23   27160.8    368.2   0.118585602   1.43736   0.97599   0.52991  -0.45166
  24   28380.6    352.4   0.019729764   0.22886   0.47234  -0.05080  -0.05635
  25   28653.0    349.0   0.034089257   0.39167  -0.51997  -0.28378   0.20194
  26   29152.2    343.0   0.088754682   1.00229  -0.94916  -0.31477   0.04799
  27   29386.2    340.3   0.019176059   0.21483  -0.42868  -0.17372  -0.02980
  28   29617.1    337.6   0.010811612   0.12018   0.26610   0.20180   0.09298
  29   29903.6    334.4   0.073513313   0.80932  -0.68401   0.58366  -0.02791
  30   29979.8    333.6   0.047498831   0.52159   0.67672  -0.24940   0.03802
  31   30088.0    332.4   0.013217190   0.14462   0.33751  -0.08609   0.15262
  32   30483.4    328.0   0.015707535   0.16964  -0.33482  -0.23606  -0.04255
  33   30591.9    326.9   0.007409005   0.07973  -0.09697   0.16137   0.21045
  34   31253.2    320.0   0.318675384   3.35684   1.19947  -1.33593   0.36525
  35   31681.4    315.6   0.468690458   4.87032   2.05796  -0.71215   0.35772
  36   31989.7    312.6   0.003845747   0.03958   0.13052  -0.00158  -0.15013
  37   32194.2    310.6   0.063267896   0.64697   0.03813   0.38496  -0.70521
  38   32263.5    309.9   0.032568220   0.33232   0.57625   0.00139   0.01607
  39   32337.6    309.2   0.004520338   0.04602  -0.14734   0.15047  -0.04083
  40   32428.1    308.4   0.004723259   0.04795  -0.21181  -0.02303  -0.05057
  41   32785.0    305.0   0.274900641   2.76043  -1.13370   1.05055  -0.60949
  42   33131.7    301.8   0.002759058   0.02742   0.05995   0.09095  -0.12470
  43   33171.8    301.5   0.074617829   0.74054  -0.68799   0.51692  -0.00055
  44   33189.0    301.3   0.019408776   0.19252   0.32990  -0.28801   0.02712
  45   33392.1    299.5   0.050991672   0.50273  -0.57689   0.35170  -0.21501
  46   33987.3    294.2   0.014372536   0.13922   0.31066   0.02368   0.20530
  47   34274.8    291.8   0.047798790   0.45911  -0.58638   0.29765  -0.16331
  48   34482.0    290.0   0.007634827   0.07289  -0.18537  -0.13081  -0.14636
  49   34725.1    288.0   0.058702426   0.55653  -0.59197   0.28750  -0.35135
  50   34805.1    287.3   0.150464946   1.42321  -0.19974   0.76081  -0.89693
  51   34917.2    286.4   0.067717941   0.63847   0.31371  -0.70361   0.21212
  52   35055.5    285.3   0.149688518   1.40575  -0.98850   0.50681  -0.41445
  53   35214.1    284.0   0.154937219   1.44849   0.07433  -0.79083   0.90419
  54   35331.9    283.0   0.216025792   2.01286   1.08145  -0.91479   0.08063
  55   35527.0    281.5   0.211821506   1.96285   1.15993  -0.76166  -0.19309
  56   35998.5    277.8   0.032191495   0.29440  -0.15324  -0.30494   0.42181
  57   36175.6    276.4   0.019423603   0.17676   0.35661   0.11119  -0.19296
  58   36264.3    275.8   0.020934167   0.19004  -0.42052  -0.07466   0.08734
  59   36605.5    273.2   0.028014619   0.25195  -0.42282   0.26283   0.06398
  60   36629.2    273.0   0.084803953   0.76219   0.74097  -0.42626  -0.17736
  61   36855.8    271.3   0.058282649   0.52061  -0.59482   0.37905  -0.15205
  62   36996.6    270.3   0.049075396   0.43669   0.47765   0.25001  -0.38215
  63   37213.3    268.7   0.042494042   0.37593   0.40098  -0.33164   0.32429
  64   37422.8    267.2   0.076915096   0.67663  -0.23837   0.73587  -0.27982
  65   37498.3    266.7   0.010717933   0.09410  -0.10656   0.21480  -0.19132
  66   37544.3    266.4   0.074637038   0.65447   0.22879  -0.74324   0.22295
  67   37858.9    264.1   0.125846777   1.09433  -0.97231   0.37591  -0.08739
  68   37931.9    263.6   0.077584562   0.67336   0.36653  -0.16209  -0.71606
  69   38058.0    262.8   0.080976376   0.70047   0.11485   0.26125  -0.78678
  70   38139.7    262.2   0.010730663   0.09262   0.21604  -0.03515   0.21146
  71   38267.0    261.3   0.080120780   0.68928  -0.53052   0.51815  -0.37330
  72   38535.2    259.5   0.006196130   0.05293  -0.08371   0.02127  -0.21325
  73   38627.8    258.9   0.005454519   0.04649  -0.11655   0.04173   0.17653
  74   38667.3    258.6   0.023978282   0.20415  -0.40435   0.18518   0.07975
  75   38811.4    257.7   0.006670324   0.05658  -0.15855   0.17685   0.01290
  76   38885.9    257.2   0.081131919   0.68687  -0.37152   0.60193  -0.43188
  77   39077.2    255.9   0.251709350   2.12057   0.30991  -1.28182   0.61763
  78   39244.5    254.8   0.091898036   0.77091   0.83410  -0.21422   0.17118
  79   39282.1    254.6   0.003624821   0.03038  -0.13411  -0.10060   0.04767
  80   39420.8    253.7   0.013467693   0.11247   0.05194   0.23962  -0.22882
  81   39739.3    251.6   0.040793704   0.33795  -0.55654   0.12517  -0.11201
  82   39833.8    251.0   0.020942671   0.17308  -0.04157  -0.40856   0.06658
  83   40089.6    249.4   0.027637427   0.22696   0.14521   0.30127   0.33927

FINAL SINGLE POINT ENERGY     -3702.782275853684

DIPOLE MOMENT
-------------
                                X             Y             Z
Electronic contribution:     13.31684       2.36229      -1.08112
Nuclear contribution   :    -13.82276      -0.53548       0.39815
                        -----------------------------------------
Total Dipole Moment    :     -0.50592       1.82681      -0.68297
                        -----------------------------------------
Magnitude (a.u.)       :      2.01485
Magnitude (Debye)      :      5.12135

Rotational constants in cm-1:     0.000984     0.000356     0.000273
Rotational constants in MHz :    29.506318    10.680487     8.192253

                             ****ORCA TERMINATED NORMALLY****
TOTAL RUN TIME: 0 days 0 hours 25 minutes 10 seconds 638 msec
