                         Program Version 4.2.0 -  RELEASE  -
|  1> # ORCA input file
|  2> # SCF done       -179.610613910736          0.000520803139
|  3> ! CAM-B3LYP def2-SVP def2/J RIJCOSX Grid4 TightSCF
|  4> %maxcore 5000
|  5> %tddft
|  6>     Mode sTDDFT
|  7>     Ethresh 5.0
|  8>     maxcore 5000
|  9> end
| 10>
| 11> %pal
| 12>   nprocs 6
| 13>   end
| 14> * xyz 0 1
| 15>    C       -4.29934         2.55592        -1.47425
| 16>    C       -3.57806         3.30463        -2.36683
| 17>    C       -4.12897         3.94641        -3.49111
| 18>    N       -4.53401         4.54448        -4.38396
| 19>    C       -2.18403         3.49450        -2.25729
| 20>    N       -1.04131         3.60341        -2.22916
| 21>    C       -5.63687         2.02432        -1.69238
| 22>    C       -5.83284         0.91757        -0.81302
| 23>    C       -6.98302         0.18257        -0.83444
| 24>    C       -8.00679         0.52956        -1.74476
| 25>    C       -7.82108         1.64145        -2.61722
| 26>    C       -6.61834         2.38274        -2.57715
| 27>    C       -8.85141         1.97545        -3.51974
| 28>    C      -10.00793         1.24568        -3.56350
| 29>    C      -10.18951         0.15107        -2.70493
| 30>    C       -9.21060        -0.19892        -1.81490
| 31>    C       -4.64550         0.75432         0.04654
| 32>    O       -4.42853        -0.10303         0.87026
| 33>    C       -3.78061         1.92722        -0.27134
| 34>    C       -2.81348         2.32631         0.59180
| 35>    C       -2.18406         3.60295         0.62330
| 36>    C       -0.89875         3.89305         1.01747
| 37>    C       -0.54247         5.23768         0.83241
| 38>    S        1.08292         5.82788         1.06798
| 39>    C        2.03079         4.35239         0.55533
| 40>    C       -1.59179         6.00784         0.33057
| 41>    S       -3.00866         5.03980         0.09213
| 42>    C       -1.61730         7.35573        -0.12304
| 43>    C       -0.78927         8.37681         0.38345
| 44>    C       -0.75882         9.68355        -0.20683
| 45>    N        0.06149        10.62087         0.31281
| 46>    C        0.78007        10.33704         1.34876
| 47>    C        0.71272         9.05582         1.95858
| 48>    N       -0.04363         8.12221         1.47821
| 49>    F        1.42024         8.78449         3.05109
| 50>    F        1.57502        11.28255         1.83544
| 51>    C       -1.55093        10.04181        -1.31883
| 52>    C       -2.43058         9.03904        -1.79023
| 53>    C       -2.47363         7.73132        -1.18276
| 54>    N       -3.36376         6.93618        -1.77742
| 55>    S       -4.06897         7.73205        -2.97671
| 56>    N       -3.29737         9.12892        -2.80252
| 57>    C       -1.45203        11.33225        -1.91439
| 58>    C       -2.15763        11.78905        -3.01175
| 59>    C       -1.81131        13.08133        -3.41210
| 60>    S       -2.62192        13.94954        -4.67867
| 61>    C       -4.23626        13.10011        -4.70788
| 62>    C       -0.81073        13.64362        -2.60308
| 63>    S       -0.35709        12.53627        -1.32327
| 64>    C       -0.22094        14.91677        -2.59357
| 65>    C       -0.00807        15.75362        -3.66045
| 66>    C        0.45194        17.12423        -3.58931
| 67>    C        0.43861        17.92656        -2.47701
| 68>    C        0.88472        19.26344        -2.46314
| 69>    N        1.23929        20.35325        -2.38887
| 70>    C       -0.05997        17.53895        -1.21602
| 71>    N       -0.47503        17.30436        -0.17110
| 72>    C        0.84293        17.53233        -4.93413
| 73>    C        0.57220        16.45610        -5.82737
| 74>    C        0.02983        15.31794        -5.06669
| 75>    O       -0.24560        14.21251        -5.49924
| 76>    C        0.83543        16.54517        -7.16272
| 77>    C        1.39287        17.73824        -7.67728
| 78>    C        1.66980        18.81745        -6.79018
| 79>    C        1.38546        18.69564        -5.40973
| 80>    C        2.23189        19.99917        -7.31348
| 81>    C        2.50922        20.11174        -8.64893
| 82>    C        2.23726        19.04805        -9.52141
| 83>    C        1.68962        17.88722        -9.04584
| 84>    H       -7.11022        -0.65687        -0.16717
| 85>    H       -6.50202         3.22503        -3.24170
| 86>    H       -8.70591         2.81741        -4.18053
| 87>    H      -10.78956         1.50737        -4.26083
| 88>    H      -11.10858        -0.41344        -2.75248
| 89>    H       -9.34492        -1.04071        -1.15156
| 90>    H       -2.52701         1.61522         1.35977
| 91>    H       -0.22443         3.13912         1.37951
| 92>    H        3.03306         4.70868         0.34035
| 93>    H        1.58418         3.92651        -0.33694
| 94>    H        2.07009         3.62809         1.36269
| 95>    H       -2.87999        11.16861        -3.50679
| 96>    H       -4.89096        13.74021        -5.29053
| 97>    H       -4.61779        12.99648        -3.69777
| 98>    H       -4.14556        12.13298        -5.19210
| 99>    H        0.14861        15.23049        -1.62415
|100>    H        0.62140        15.71568        -7.82018
|101>    H        1.61378        19.52696        -4.76149
|102>    H        2.43934        20.81569        -6.63733
|103>    H        2.94044        21.02125        -9.03986
|104>    H        2.46408        19.15229       -10.57209
|105>    H        1.47817        17.06443        -9.71329
|106> *
|107>
|108>                          ****END OF INPUT****

CARTESIAN COORDINATES (ANGSTROEM)
---------------------------------
  C     -4.299340    2.555920   -1.474250
  C     -3.578060    3.304630   -2.366830
  C     -4.128970    3.946410   -3.491110
  N     -4.534010    4.544480   -4.383960
  C     -2.184030    3.494500   -2.257290
  N     -1.041310    3.603410   -2.229160
  C     -5.636870    2.024320   -1.692380
  C     -5.832840    0.917570   -0.813020
  C     -6.983020    0.182570   -0.834440
  C     -8.006790    0.529560   -1.744760
  C     -7.821080    1.641450   -2.617220
  C     -6.618340    2.382740   -2.577150
  C     -8.851410    1.975450   -3.519740
  C    -10.007930    1.245680   -3.563500
  C    -10.189510    0.151070   -2.704930
  C     -9.210600   -0.198920   -1.814900
  C     -4.645500    0.754320    0.046540
  O     -4.428530   -0.103030    0.870260
  C     -3.780610    1.927220   -0.271340
  C     -2.813480    2.326310    0.591800
  C     -2.184060    3.602950    0.623300
  C     -0.898750    3.893050    1.017470
  C     -0.542470    5.237680    0.832410
  S      1.082920    5.827880    1.067980
  C      2.030790    4.352390    0.555330
  C     -1.591790    6.007840    0.330570
  S     -3.008660    5.039800    0.092130
  C     -1.617300    7.355730   -0.123040
  C     -0.789270    8.376810    0.383450
  C     -0.758820    9.683550   -0.206830
  N      0.061490   10.620870    0.312810
  C      0.780070   10.337040    1.348760
  C      0.712720    9.055820    1.958580
  N     -0.043630    8.122210    1.478210
  F      1.420240    8.784490    3.051090
  F      1.575020   11.282550    1.835440
  C     -1.550930   10.041810   -1.318830
  C     -2.430580    9.039040   -1.790230
  C     -2.473630    7.731320   -1.182760
  N     -3.363760    6.936180   -1.777420
  S     -4.068970    7.732050   -2.976710
  N     -3.297370    9.128920   -2.802520
  C     -1.452030   11.332250   -1.914390
  C     -2.157630   11.789050   -3.011750
  C     -1.811310   13.081330   -3.412100
  S     -2.621920   13.949540   -4.678670
  C     -4.236260   13.100110   -4.707880
  C     -0.810730   13.643620   -2.603080
  S     -0.357090   12.536270   -1.323270
  C     -0.220940   14.916770   -2.593570
  C     -0.008070   15.753620   -3.660450
  C      0.451940   17.124230   -3.589310
  C      0.438610   17.926560   -2.477010
  C      0.884720   19.263440   -2.463140
  N      1.239290   20.353250   -2.388870
  C     -0.059970   17.538950   -1.216020
  N     -0.475030   17.304360   -0.171100
  C      0.842930   17.532330   -4.934130
  C      0.572200   16.456100   -5.827370
  C      0.029830   15.317940   -5.066690
  O     -0.245600   14.212510   -5.499240
  C      0.835430   16.545170   -7.162720
  C      1.392870   17.738240   -7.677280
  C      1.669800   18.817450   -6.790180
  C      1.385460   18.695640   -5.409730
  C      2.231890   19.999170   -7.313480
  C      2.509220   20.111740   -8.648930
  C      2.237260   19.048050   -9.521410
  C      1.689620   17.887220   -9.045840
  H     -7.110220   -0.656870   -0.167170
  H     -6.502020    3.225030   -3.241700
  H     -8.705910    2.817410   -4.180530
  H    -10.789560    1.507370   -4.260830
  H    -11.108580   -0.413440   -2.752480
  H     -9.344920   -1.040710   -1.151560
  H     -2.527010    1.615220    1.359770
  H     -0.224430    3.139120    1.379510
  H      3.033060    4.708680    0.340350
  H      1.584180    3.926510   -0.336940
  H      2.070090    3.628090    1.362690
  H     -2.879990   11.168610   -3.506790
  H     -4.890960   13.740210   -5.290530
  H     -4.617790   12.996480   -3.697770
  H     -4.145560   12.132980   -5.192100
  H      0.148610   15.230490   -1.624150
  H      0.621400   15.715680   -7.820180
  H      1.613780   19.526960   -4.761490
  H      2.439340   20.815690   -6.637330
  H      2.940440   21.021250   -9.039860
  H      2.464080   19.152290  -10.572090
  H      1.478170   17.064430   -9.713290

 Total Charge           Charge          ....    0
 Multiplicity           Mult            ....    1
 Number of Electrons    NEL             ....  504
 Basis Dimension        Dim             .... 1096

ORBITAL ENERGIES
----------------

  NO   OCC          E(Eh)            E(eV)
   0   2.0000     -89.046474     -2423.0777
   1   2.0000     -88.966905     -2420.9126
   2   2.0000     -88.954732     -2420.5813
   3   2.0000     -88.929819     -2419.9034
   4   2.0000     -88.928167     -2419.8584
   5   2.0000     -24.819455      -675.3717
   6   2.0000     -24.815439      -675.2624
   7   2.0000     -19.218583      -522.9642
   8   2.0000     -19.200064      -522.4603
   9   2.0000     -14.459027      -393.4501
  10   2.0000     -14.458491      -393.4356
  11   2.0000     -14.456609      -393.3843
  12   2.0000     -14.455229      -393.3468
  13   2.0000     -14.424130      -392.5005
  14   2.0000     -14.417641      -392.3240
  15   2.0000     -14.402608      -391.9149
  16   2.0000     -14.401756      -391.8917
  17   2.0000     -10.437133      -284.0088
  18   2.0000     -10.431402      -283.8529
  19   2.0000     -10.370219      -282.1880
  20   2.0000     -10.350864      -281.6613
  21   2.0000     -10.349915      -281.6355
  22   2.0000     -10.347195      -281.5615
  23   2.0000     -10.347153      -281.5604
  24   2.0000     -10.345685      -281.5204
  25   2.0000     -10.345650      -281.5194
  26   2.0000     -10.345011      -281.5021
  27   2.0000     -10.327690      -281.0307
  28   2.0000     -10.327571      -281.0275
  29   2.0000     -10.326233      -280.9911
  30   2.0000     -10.326125      -280.9881
  31   2.0000     -10.322619      -280.8927
  32   2.0000     -10.322227      -280.8821
  33   2.0000     -10.320338      -280.8307
  34   2.0000     -10.320296      -280.8295
  35   2.0000     -10.317941      -280.7654
  36   2.0000     -10.317134      -280.7435
  37   2.0000     -10.314839      -280.6810
  38   2.0000     -10.308581      -280.5108
  39   2.0000     -10.308485      -280.5081
  40   2.0000     -10.305901      -280.4378
  41   2.0000     -10.305208      -280.4190
  42   2.0000     -10.304992      -280.4131
  43   2.0000     -10.303727      -280.3787
  44   2.0000     -10.302840      -280.3545
  45   2.0000     -10.302227      -280.3378
  46   2.0000     -10.301960      -280.3306
  47   2.0000     -10.301588      -280.3205
  48   2.0000     -10.298906      -280.2475
  49   2.0000     -10.294941      -280.1396
  50   2.0000     -10.294229      -280.1202
  51   2.0000     -10.290868      -280.0288
  52   2.0000     -10.290601      -280.0215
  53   2.0000     -10.290285      -280.0129
  54   2.0000     -10.290022      -280.0057
  55   2.0000     -10.289672      -279.9962
  56   2.0000     -10.288211      -279.9564
  57   2.0000     -10.286729      -279.9161
  58   2.0000     -10.286417      -279.9076
  59   2.0000     -10.285984      -279.8959
  60   2.0000     -10.284858      -279.8652
  61   2.0000     -10.283300      -279.8228
  62   2.0000     -10.282938      -279.8130
  63   2.0000     -10.276968      -279.6505
  64   2.0000     -10.276478      -279.6372
  65   2.0000     -10.276160      -279.6285
  66   2.0000     -10.275971      -279.6234
  67   2.0000     -10.275683      -279.6155
  68   2.0000     -10.275503      -279.6106
  69   2.0000      -8.137345      -221.4284
  70   2.0000      -8.061241      -219.3575
  71   2.0000      -8.048852      -219.0204
  72   2.0000      -8.024255      -218.3511
  73   2.0000      -8.022650      -218.3074
  74   2.0000      -6.108429      -166.2188
  75   2.0000      -6.100576      -166.0051
  76   2.0000      -6.100171      -165.9941
  77   2.0000      -6.030764      -164.1054
  78   2.0000      -6.026251      -163.9826
  79   2.0000      -6.023196      -163.8995
  80   2.0000      -6.018430      -163.7698
  81   2.0000      -6.013922      -163.6471
  82   2.0000      -6.010702      -163.5595
  83   2.0000      -5.994747      -163.1254
  84   2.0000      -5.992984      -163.0774
  85   2.0000      -5.990445      -163.0083
  86   2.0000      -5.988523      -162.9560
  87   2.0000      -5.983988      -162.8326
  88   2.0000      -5.982817      -162.8007
  89   2.0000      -1.346491       -36.6399
  90   2.0000      -1.331533       -36.2329
  91   2.0000      -1.144254       -31.1367
  92   2.0000      -1.133895       -30.8549
  93   2.0000      -1.118517       -30.4364
  94   2.0000      -1.114308       -30.3219
  95   2.0000      -1.045282       -28.4436
  96   2.0000      -1.025401       -27.9026
  97   2.0000      -1.010647       -27.5011
  98   2.0000      -1.004981       -27.3469
  99   2.0000      -1.003950       -27.3189
 100   2.0000      -1.000762       -27.2321
 101   2.0000      -0.997615       -27.1465
 102   2.0000      -0.988668       -26.9030
 103   2.0000      -0.985487       -26.8165
 104   2.0000      -0.980874       -26.6909
 105   2.0000      -0.976384       -26.5687
 106   2.0000      -0.970682       -26.4136
 107   2.0000      -0.959005       -26.0959
 108   2.0000      -0.931057       -25.3354
 109   2.0000      -0.916909       -24.9503
 110   2.0000      -0.913016       -24.8444
 111   2.0000      -0.906848       -24.6766
 112   2.0000      -0.898762       -24.4566
 113   2.0000      -0.893598       -24.3160
 114   2.0000      -0.888438       -24.1756
 115   2.0000      -0.886745       -24.1296
 116   2.0000      -0.885408       -24.0932
 117   2.0000      -0.873191       -23.7607
 118   2.0000      -0.869522       -23.6609
 119   2.0000      -0.863087       -23.4858
 120   2.0000      -0.838647       -22.8207
 121   2.0000      -0.832968       -22.6662
 122   2.0000      -0.824453       -22.4345
 123   2.0000      -0.820837       -22.3361
 124   2.0000      -0.816823       -22.2269
 125   2.0000      -0.815668       -22.1954
 126   2.0000      -0.811423       -22.0799
 127   2.0000      -0.791100       -21.5269
 128   2.0000      -0.779969       -21.2240
 129   2.0000      -0.767422       -20.8826
 130   2.0000      -0.764524       -20.8038
 131   2.0000      -0.756727       -20.5916
 132   2.0000      -0.748136       -20.3578
 133   2.0000      -0.738564       -20.0973
 134   2.0000      -0.731475       -19.9044
 135   2.0000      -0.725918       -19.7532
 136   2.0000      -0.714457       -19.4414
 137   2.0000      -0.707343       -19.2478
 138   2.0000      -0.703102       -19.1324
 139   2.0000      -0.692350       -18.8398
 140   2.0000      -0.689331       -18.7576
 141   2.0000      -0.685272       -18.6472
 142   2.0000      -0.683181       -18.5903
 143   2.0000      -0.680698       -18.5227
 144   2.0000      -0.678214       -18.4551
 145   2.0000      -0.670250       -18.2384
 146   2.0000      -0.664233       -18.0747
 147   2.0000      -0.657217       -17.8838
 148   2.0000      -0.652386       -17.7523
 149   2.0000      -0.637392       -17.3443
 150   2.0000      -0.636735       -17.3265
 151   2.0000      -0.629725       -17.1357
 152   2.0000      -0.624454       -16.9923
 153   2.0000      -0.621700       -16.9173
 154   2.0000      -0.619990       -16.8708
 155   2.0000      -0.612369       -16.6634
 156   2.0000      -0.608706       -16.5637
 157   2.0000      -0.604444       -16.4478
 158   2.0000      -0.602480       -16.3943
 159   2.0000      -0.595378       -16.2010
 160   2.0000      -0.589464       -16.0401
 161   2.0000      -0.578565       -15.7436
 162   2.0000      -0.573081       -15.5943
 163   2.0000      -0.572213       -15.5707
 164   2.0000      -0.567986       -15.4557
 165   2.0000      -0.561465       -15.2782
 166   2.0000      -0.556023       -15.1302
 167   2.0000      -0.551896       -15.0179
 168   2.0000      -0.550203       -14.9718
 169   2.0000      -0.547673       -14.9029
 170   2.0000      -0.546045       -14.8587
 171   2.0000      -0.538530       -14.6541
 172   2.0000      -0.535297       -14.5662
 173   2.0000      -0.531458       -14.4617
 174   2.0000      -0.528813       -14.3897
 175   2.0000      -0.527527       -14.3547
 176   2.0000      -0.525090       -14.2884
 177   2.0000      -0.522741       -14.2245
 178   2.0000      -0.521823       -14.1995
 179   2.0000      -0.521233       -14.1835
 180   2.0000      -0.517405       -14.0793
 181   2.0000      -0.516537       -14.0557
 182   2.0000      -0.515914       -14.0387
 183   2.0000      -0.513780       -13.9807
 184   2.0000      -0.513242       -13.9660
 185   2.0000      -0.508489       -13.8367
 186   2.0000      -0.506825       -13.7914
 187   2.0000      -0.503660       -13.7053
 188   2.0000      -0.502939       -13.6857
 189   2.0000      -0.501829       -13.6555
 190   2.0000      -0.501306       -13.6412
 191   2.0000      -0.500158       -13.6100
 192   2.0000      -0.495350       -13.4792
 193   2.0000      -0.494135       -13.4461
 194   2.0000      -0.489613       -13.3230
 195   2.0000      -0.488213       -13.2850
 196   2.0000      -0.486061       -13.2264
 197   2.0000      -0.482251       -13.1227
 198   2.0000      -0.478719       -13.0266
 199   2.0000      -0.476111       -12.9556
 200   2.0000      -0.473904       -12.8956
 201   2.0000      -0.471693       -12.8354
 202   2.0000      -0.467589       -12.7237
 203   2.0000      -0.461548       -12.5593
 204   2.0000      -0.457222       -12.4417
 205   2.0000      -0.453012       -12.3271
 206   2.0000      -0.452123       -12.3029
 207   2.0000      -0.450082       -12.2474
 208   2.0000      -0.446808       -12.1583
 209   2.0000      -0.445611       -12.1257
 210   2.0000      -0.444081       -12.0841
 211   2.0000      -0.438637       -11.9359
 212   2.0000      -0.436847       -11.8872
 213   2.0000      -0.435263       -11.8441
 214   2.0000      -0.433070       -11.7844
 215   2.0000      -0.432201       -11.7608
 216   2.0000      -0.431478       -11.7411
 217   2.0000      -0.428624       -11.6634
 218   2.0000      -0.427019       -11.6198
 219   2.0000      -0.424227       -11.5438
 220   2.0000      -0.422457       -11.4956
 221   2.0000      -0.420951       -11.4547
 222   2.0000      -0.416199       -11.3254
 223   2.0000      -0.414260       -11.2726
 224   2.0000      -0.414125       -11.2689
 225   2.0000      -0.408537       -11.1169
 226   2.0000      -0.406717       -11.0673
 227   2.0000      -0.402650       -10.9567
 228   2.0000      -0.397348       -10.8124
 229   2.0000      -0.390532       -10.6269
 230   2.0000      -0.384204       -10.4547
 231   2.0000      -0.381648       -10.3852
 232   2.0000      -0.379666       -10.3312
 233   2.0000      -0.373276       -10.1574
 234   2.0000      -0.368465       -10.0264
 235   2.0000      -0.365340        -9.9414
 236   2.0000      -0.359701        -9.7880
 237   2.0000      -0.354013        -9.6332
 238   2.0000      -0.348407        -9.4806
 239   2.0000      -0.345518        -9.4020
 240   2.0000      -0.342447        -9.3185
 241   2.0000      -0.338570        -9.2129
 242   2.0000      -0.326148        -8.8749
 243   2.0000      -0.322354        -8.7717
 244   2.0000      -0.316802        -8.6206
 245   2.0000      -0.307583        -8.3698
 246   2.0000      -0.300481        -8.1765
 247   2.0000      -0.298627        -8.1261
 248   2.0000      -0.285712        -7.7746
 249   2.0000      -0.281089        -7.6488
 250   2.0000      -0.270070        -7.3490
 251   2.0000      -0.247175        -6.7260
 252   0.0000      -0.122274        -3.3272
 253   0.0000      -0.090917        -2.4740
 254   0.0000      -0.073715        -2.0059
 255   0.0000      -0.058696        -1.5972
 256   0.0000      -0.043083        -1.1723

MULLIKEN ATOMIC CHARGES
-----------------------
   0 C :    0.244112
   1 C :   -0.313105
   2 C :   -0.160833
   3 N :    0.129380
   4 C :   -0.188522
   5 N :    0.163582
   6 C :    0.049580
   7 C :    0.005060
   8 C :   -0.080913
   9 C :    0.095994
  10 C :    0.100187
  11 C :   -0.088242
  12 C :   -0.020029
  13 C :    0.036637
  14 C :    0.037175
  15 C :   -0.016888
  16 C :    0.140787
  17 O :   -0.138071
  18 C :   -0.134966
  19 C :    0.081312
  20 C :   -0.113286
  21 C :    0.045024
  22 C :    0.037993
  23 S :    0.002520
  24 C :   -0.098865
  25 C :   -0.217834
  26 S :    0.190071
  27 C :    0.159425
  28 C :   -0.065980
  29 C :   -0.056011
  30 N :   -0.039917
  31 C :    0.158520
  32 C :    0.157580
  33 N :   -0.013229
  34 F :   -0.136474
  35 F :   -0.131404
  36 C :    0.197936
  37 C :   -0.011366
  38 C :   -0.002979
  39 N :   -0.309011
  40 S :    0.574948
  41 N :   -0.291914
  42 C :   -0.145793
  43 C :   -0.054983
  44 C :    0.058329
  45 S :    0.039857
  46 C :   -0.088020
  47 C :   -0.104412
  48 S :    0.174126
  49 C :   -0.000082
  50 C :   -0.090469
  51 C :    0.304803
  52 C :   -0.348884
  53 C :   -0.184143
  54 N :    0.143341
  55 C :   -0.209012
  56 N :    0.160634
  57 C :    0.045737
  58 C :    0.004998
  59 C :    0.132870
  60 O :   -0.160774
  61 C :   -0.088729
  62 C :    0.100976
  63 C :    0.095974
  64 C :   -0.089014
  65 C :   -0.019685
  66 C :    0.035137
  67 C :    0.034649
  68 C :   -0.021060
  69 H :   -0.009468
  70 H :   -0.009511
  71 H :   -0.011517
  72 H :   -0.003636
  73 H :   -0.003990
  74 H :   -0.015786
  75 H :    0.029949
  76 H :   -0.014679
  77 H :    0.057419
  78 H :    0.082849
  79 H :    0.060658
  80 H :   -0.007665
  81 H :    0.059051
  82 H :    0.063632
  83 H :    0.069903
  84 H :    0.028400
  85 H :   -0.018009
  86 H :   -0.011473
  87 H :   -0.011430
  88 H :   -0.009409
  89 H :   -0.008696
  90 H :   -0.020949
Sum of atomic charges:   -0.0000000

LOEWDIN ATOMIC CHARGES
----------------------
   0 C :    0.063293
   1 C :   -0.140188
   2 C :   -0.014228
   3 N :   -0.069104
   4 C :   -0.027198
   5 N :   -0.054500
   6 C :   -0.022298
   7 C :   -0.057193
   8 C :    0.033682
   9 C :   -0.008623
  10 C :   -0.005088
  11 C :    0.014032
  12 C :   -0.007369
  13 C :   -0.012138
  14 C :   -0.012172
  15 C :   -0.008319
  16 C :    0.083036
  17 O :   -0.139672
  18 C :   -0.089292
  19 C :    0.057525
  20 C :   -0.181940
  21 C :   -0.034615
  22 C :   -0.170890
  23 S :    0.323517
  24 C :   -0.162913
  25 C :   -0.170574
  26 S :    0.511936
  27 C :   -0.040675
  28 C :   -0.009063
  29 C :   -0.008193
  30 N :   -0.056324
  31 C :    0.071164
  32 C :    0.059240
  33 N :   -0.041161
  34 F :   -0.024668
  35 F :   -0.020119
  36 C :   -0.040317
  37 C :   -0.035505
  38 C :   -0.044750
  39 N :   -0.298062
  40 S :    0.697018
  41 N :   -0.280538
  42 C :   -0.148229
  43 C :   -0.064789
  44 C :   -0.155631
  45 S :    0.370818
  46 C :   -0.160339
  47 C :   -0.199799
  48 S :    0.479417
  49 C :    0.038373
  50 C :   -0.102237
  51 C :    0.077390
  52 C :   -0.144230
  53 C :   -0.017061
  54 N :   -0.060718
  55 C :   -0.024730
  56 N :   -0.056435
  57 C :   -0.025498
  58 C :   -0.049052
  59 C :    0.062217
  60 O :   -0.157628
  61 C :    0.024793
  62 C :   -0.008726
  63 C :   -0.008924
  64 C :    0.017045
  65 C :   -0.006487
  66 C :   -0.017929
  67 C :   -0.015697
  68 C :   -0.012143
  69 H :    0.040123
  70 H :    0.037541
  71 H :    0.033709
  72 H :    0.033612
  73 H :    0.033313
  74 H :    0.032494
  75 H :    0.052044
  76 H :    0.034255
  77 H :    0.030967
  78 H :    0.033995
  79 H :    0.019937
  80 H :    0.027342
  81 H :    0.031932
  82 H :    0.027967
  83 H :    0.025148
  84 H :    0.043498
  85 H :    0.037082
  86 H :    0.037916
  87 H :    0.033728
  88 H :    0.031325
  89 H :    0.031139
  90 H :    0.030409

  Mayer bond orders larger than 0.100000
B(  0-C ,  1-C ) :   1.6613 B(  0-C ,  6-C ) :   1.0181 B(  0-C , 18-C ) :   1.0189
B(  1-C ,  2-C ) :   1.1452 B(  1-C ,  4-C ) :   1.1449 B(  2-C ,  3-N ) :   2.9518
B(  4-C ,  5-N ) :   3.0037 B(  6-C ,  7-C ) :   1.2106 B(  6-C , 11-C ) :   1.4536
B(  7-C ,  8-C ) :   1.4733 B(  7-C , 16-C ) :   0.9207 B(  8-C ,  9-C ) :   1.1870
B(  8-C , 69-H ) :   1.0163 B(  9-C , 10-C ) :   1.2545 B(  9-C , 15-C ) :   1.2435
B( 10-C , 11-C ) :   1.2038 B( 10-C , 12-C ) :   1.2395 B( 11-C , 70-H ) :   0.9947
B( 12-C , 13-C ) :   1.4905 B( 12-C , 71-H ) :   0.9981 B( 13-C , 14-C ) :   1.2578
B( 13-C , 72-H ) :   0.9889 B( 14-C , 15-C ) :   1.4917 B( 14-C , 73-H ) :   0.9888
B( 15-C , 74-H ) :   0.9982 B( 16-C , 17-O ) :   2.2830 B( 16-C , 18-C ) :   0.9314
B( 18-C , 19-C ) :   1.6907 B( 19-C , 20-C ) :   1.0778 B( 19-C , 75-H ) :   0.9525
B( 20-C , 21-C ) :   1.4485 B( 20-C , 26-S ) :   1.1222 B( 21-C , 22-C ) :   1.2697
B( 21-C , 76-H ) :   0.9982 B( 22-C , 23-S ) :   1.0337 B( 22-C , 25-C ) :   1.4793
B( 23-S , 24-C ) :   0.9808 B( 24-C , 77-H ) :   0.9714 B( 24-C , 78-H ) :   0.9660
B( 24-C , 79-H ) :   0.9683 B( 25-C , 26-S ) :   1.1462 B( 25-C , 27-C ) :   1.1151
B( 27-C , 28-C ) :   1.3290 B( 27-C , 36-C ) :   0.1291 B( 27-C , 38-C ) :   1.2105
B( 28-C , 29-C ) :   1.1094 B( 28-C , 33-N ) :   1.3938 B( 29-C , 30-N ) :   1.3733
B( 29-C , 36-C ) :   1.3059 B( 30-N , 31-C ) :   1.6629 B( 31-C , 32-C ) :   1.1010
B( 31-C , 35-F ) :   1.1902 B( 32-C , 33-N ) :   1.6424 B( 32-C , 34-F ) :   1.1823
B( 36-C , 37-C ) :   1.1956 B( 36-C , 42-C ) :   1.1571 B( 37-C , 38-C ) :   1.1216
B( 37-C , 41-N ) :   1.5063 B( 38-C , 39-N ) :   1.4756 B( 39-N , 40-S ) :   1.2807
B( 39-N , 41-N ) :   0.1504 B( 40-S , 41-N ) :   1.2804 B( 42-C , 43-C ) :   1.4515
B( 42-C , 48-S ) :   1.1397 B( 43-C , 44-C ) :   1.2496 B( 43-C , 80-H ) :   0.9805
B( 44-C , 45-S ) :   1.0792 B( 44-C , 47-C ) :   1.4070 B( 45-S , 46-C ) :   1.0018
B( 46-C , 81-H ) :   0.9703 B( 46-C , 82-H ) :   0.9675 B( 46-C , 83-H ) :   0.9663
B( 47-C , 48-S ) :   1.0518 B( 47-C , 49-C ) :   1.2420 B( 49-C , 50-C ) :   1.5373
B( 49-C , 84-H ) :   0.9315 B( 50-C , 51-C ) :   1.0752 B( 50-C , 59-C ) :   0.9797
B( 51-C , 52-C ) :   1.6322 B( 51-C , 57-C ) :   0.9878 B( 52-C , 53-C ) :   1.1470
B( 52-C , 55-C ) :   1.1425 B( 53-C , 54-N ) :   2.9660 B( 55-C , 56-N ) :   2.9990
B( 57-C , 58-C ) :   1.2143 B( 57-C , 64-C ) :   1.4561 B( 58-C , 59-C ) :   0.9360
B( 58-C , 61-C ) :   1.4791 B( 59-C , 60-O ) :   2.1736 B( 61-C , 62-C ) :   1.1724
B( 61-C , 85-H ) :   1.0164 B( 62-C , 63-C ) :   1.2615 B( 62-C , 68-C ) :   1.2454
B( 63-C , 64-C ) :   1.1980 B( 63-C , 65-C ) :   1.2430 B( 64-C , 86-H ) :   0.9911
B( 65-C , 66-C ) :   1.4863 B( 65-C , 87-H ) :   0.9968 B( 66-C , 67-C ) :   1.2628
B( 66-C , 88-H ) :   0.9879 B( 67-C , 68-C ) :   1.4864 B( 67-C , 89-H ) :   0.9886
B( 68-C , 90-H ) :   0.9973

-----------------------------------------------------------------------------
         ABSORPTION SPECTRUM VIA TRANSITION ELECTRIC DIPOLE MOMENTS
-----------------------------------------------------------------------------
State   Energy  Wavelength   fosc         T2         TX        TY        TZ
        (cm-1)    (nm)                  (au**2)     (au)      (au)      (au)
-----------------------------------------------------------------------------
   0   11495.9    869.9   0.748217500  21.42691   0.82626   4.41316  -1.12617
   1   16654.7    600.4   0.032084104   0.63420   0.68687   0.34888  -0.20173
   2   18554.1    539.0   0.086621093   1.53694  -0.40434   0.37343  -1.11085
   3   18770.2    532.8   0.163489067   2.86744  -0.93175  -1.40560   0.15354
   4   21988.0    454.8   0.375107727   5.61624   0.65189   2.18737  -0.63773
   5   22338.5    447.7   0.135164886   1.99198   1.01121   0.92571   0.33541
   6   23832.6    419.6   0.027490798   0.37974   0.41707   0.29041  -0.34850
   7   24510.7    408.0   0.046548633   0.62521   0.39450  -0.03560   0.68433
   8   25178.0    397.2   0.037352256   0.48840  -0.22808  -0.65461   0.08867
   9   25442.2    393.0   0.017361040   0.22464  -0.28401   0.33233  -0.18314
  10   26616.3    375.7   0.077915745   0.96373   0.53499  -0.45430   0.68638
  11   27020.7    370.1   0.144257674   1.75759   0.21199   1.15381  -0.61755
  12   27427.2    364.6   0.006123499   0.07350   0.23012   0.14305  -0.00909
  13   27808.2    359.6   0.102575193   1.21435  -0.74671  -0.79075   0.17747
  14   28008.3    357.0   0.039943319   0.46950  -0.26123  -0.00029  -0.63345
  15   28174.3    354.9   0.103614345   1.21071   0.39821   0.16094  -1.01303
  16   28517.1    350.7   0.073348545   0.84676  -0.77217  -0.50032  -0.01365
  17   28790.3    347.3   0.033753791   0.38597  -0.36172  -0.39148  -0.31917
  18   29011.9    344.7   0.036159204   0.41032   0.55636   0.26085   0.18092
  19   29161.6    342.9   0.106423699   1.20144   0.87968   0.64185   0.12504
  20   29618.8    337.6   0.009866708   0.10967  -0.13622  -0.21663   0.21019
  21   30057.5    332.7   0.122848268   1.34552   0.83502   0.46493  -0.65734
  22   30133.4    331.9   0.079488458   0.86842   0.64063   0.29638  -0.60842
  23   30344.3    329.6   0.264167337   2.86601   0.67708   0.13780   1.54550
  24   30960.8    323.0   0.104332912   1.10939   0.88938   0.36353   0.43155
  25   31102.3    321.5   0.036251919   0.38372  -0.32619  -0.52224   0.06769
  26   31343.5    319.0   0.234819651   2.46639  -1.31861  -0.42953  -0.73699
  27   32174.2    310.8   0.168305423   1.72213  -1.09364  -0.66917   0.27983
  28   32619.2    306.6   0.002903320   0.02930   0.09081   0.14487   0.00817
  29   33038.7    302.7   0.053440841   0.53251  -0.00970   0.45328  -0.57180
  30   33187.5    301.3   0.151690022   1.50473  -0.43490  -0.86460   0.75370
  31   33595.5    297.7   0.170269774   1.66852  -0.67939  -1.04295   0.34526
  32   33986.2    294.2   0.039548990   0.38310   0.45969  -0.40783   0.07385
  33   34128.3    293.0   0.036526108   0.35234  -0.18738   0.51057  -0.23779
  34   34569.7    289.3   0.041612970   0.39629   0.00942  -0.43074  -0.45898
  35   34685.8    288.3   0.121746935   1.15553   0.60288   0.64669   0.61145
  36   34794.7    287.4   0.060516441   0.57258   0.36339   0.22060  -0.62599
  37   35149.5    284.5   0.238724887   2.23591   0.90637   0.72843  -0.94011
  38   35212.3    284.0   0.058423163   0.54622   0.59632   0.34771  -0.26404
  39   35385.9    282.6   0.373232500   3.47236  -0.48708  -0.51789  -1.72247
  40   35588.7    281.0   0.236235784   2.18529  -1.27971  -0.22293   0.70565
  41   36086.9    277.1   0.149015295   1.35943   1.14020   0.11153   0.21663
  42   36270.1    275.7   0.008386415   0.07612  -0.16696   0.19463   0.10182
  43   36763.8    272.0   0.101472979   0.90867  -0.75913  -0.43023   0.38378
  44   36851.4    271.4   0.103184685   0.92180  -0.76440  -0.53983  -0.21465
  45   36936.2    270.7   0.027191130   0.24235   0.02520  -0.24250  -0.42768
  46   37293.9    268.1   0.081981234   0.72369  -0.72190  -0.44092   0.09020
  47   37474.5    266.8   0.015820174   0.13898  -0.21643  -0.28444   0.10598
  48   37927.3    263.7   0.043728070   0.37956  -0.10580   0.54420  -0.26872
  49   38321.5    261.0   0.347445948   2.98484  -1.02287  -0.80192  -1.13821
  50   38438.8    260.2   0.008530108   0.07306   0.26159  -0.06492   0.02030
  51   38792.3    257.8   0.005698394   0.04836   0.17703   0.13046  -0.00145
  52   38906.9    257.0   0.003717950   0.03146   0.02856  -0.14654   0.09576
  53   39421.4    253.7   0.049971674   0.41732  -0.28102  -0.24443   0.52782
  54   39732.1    251.7   0.013273373   0.10998   0.05315   0.18605   0.26933
  55   39857.2    250.9   0.169945992   1.40372  -0.22319   0.48826  -1.05618
  56   40051.9    249.7   0.107937047   0.88720   0.08107  -0.84300   0.41230
  57   40224.4    248.6   0.026677326   0.21834   0.29213   0.17167   0.32176

FINAL SINGLE POINT ENERGY     -4769.708156534621

DIPOLE MOMENT
-------------
                                X             Y             Z
Electronic contribution:     16.75881       2.21350      37.27008
Nuclear contribution   :    -18.99489      -5.48147     -38.64961
                        -----------------------------------------
Total Dipole Moment    :     -2.23607      -3.26797      -1.37954
                        -----------------------------------------
Magnitude (a.u.)       :      4.19318
Magnitude (Debye)      :     10.65823

Rotational constants in cm-1:     0.001808     0.000357     0.000318
Rotational constants in MHz :    54.191964    10.702796     9.545444

                             ****ORCA TERMINATED NORMALLY****
TOTAL RUN TIME: 0 days 0 hours 9 minutes 50 seconds 274 msec
