                         Program Version 4.2.0 -  RELEASE  -
|  1> # ORCA input file
|  2> # SCF done       -194.622785473456          0.000412348474
|  3> ! CAM-B3LYP def2-SVP def2/J RIJCOSX Grid4 TightSCF
|  4> %maxcore 5000
|  5> %tddft
|  6>     Mode sTDDFT
|  7>     Ethresh 5.0
|  8>     maxcore 5000
|  9> end
| 10>
| 11> %pal
| 12>   nprocs 6
| 13>   end
| 14> * xyz 0 1
| 15>    C        0.28608         3.34011        -2.58272
| 16>    C       -0.55526         4.41507        -2.51380
| 17>    C       -0.73827         5.32996        -3.57282
| 18>    N       -0.91683         6.09478        -4.40879
| 19>    C       -1.41912         4.67095        -1.42731
| 20>    N       -2.20189         4.87685        -0.61352
| 21>    C        1.00094         2.88689        -3.77060
| 22>    C        1.36757         1.51832        -3.59319
| 23>    C        2.02196         0.81765        -4.56726
| 24>    C        2.35145         1.46543        -5.77784
| 25>    C        2.00391         2.83744        -5.95431
| 26>    C        1.32396         3.53737        -4.93121
| 27>    C        2.34593         3.47340        -7.16495
| 28>    C        2.99689         2.78913        -8.15541
| 29>    C        3.33740         1.43896        -7.98131
| 30>    C        3.02143         0.79096        -6.81815
| 31>    C        0.94900         1.06753        -2.25987
| 32>    O        1.03050        -0.03076        -1.76691
| 33>    C        0.44680         2.30806        -1.57576
| 34>    C        0.37222         2.32889        -0.22235
| 35>    C        0.29741         3.47354         0.61690
| 36>    N        0.59848         4.69067         0.18993
| 37>    C        0.46582         5.50268         1.25493
| 38>    C        0.08536         4.74586         2.45856
| 39>    C       -0.12694         5.65896         3.59504
| 40>    O       -0.42900         5.38654         4.73582
| 41>    C        0.11519         6.98223         2.99507
| 42>    C        0.49921         6.83830         1.57000
| 43>    N        0.70631         8.05129         1.00694
| 44>    C        0.46024         8.91848         1.95750
| 45>    C        0.07470         8.31864         3.22293
| 46>    C       -0.03700         3.43887         2.06084
| 47>    C       -0.44368         2.28401         2.78867
| 48>    C       -0.48237         2.24364         4.14038
| 49>    C       -0.95586         1.11322         4.87330
| 50>    N       -0.83524         1.12413         6.18775
| 51>    N       -1.29801         0.21941         6.97799
| 52>    C       -2.12697        -0.73833         6.59175
| 53>    C       -2.31849        -0.90945         5.18488
| 54>    C       -1.63114        -0.00818         4.29305
| 55>    N       -1.89086        -0.40114         3.06398
| 56>    O       -2.68701        -1.46385         3.18281
| 57>    N       -2.96255        -1.77954         4.43676
| 58>    C       -2.79131        -1.56292         7.55607
| 59>    N       -3.36749        -2.69505         7.20486
| 60>    C       -3.97139        -3.16145         8.32022
| 61>    C       -3.77737        -2.24395         9.45437
| 62>    C       -4.45766        -2.75817        10.65630
| 63>    O       -4.52844        -2.25931        11.75650
| 64>    C       -5.04619        -4.02440        10.17487
| 65>    C       -4.72703        -4.22660         8.74132
| 66>    N       -5.27223        -5.38383         8.29040
| 67>    C       -5.88880        -5.89803         9.32307
| 68>    C       -5.78927        -5.09866        10.53470
| 69>    C       -2.99953        -1.21534         8.98590
| 70>    C       -2.48033        -0.04952         9.61072
| 71>    C       -2.84579         0.37466        10.84499
| 72>    C       -2.29727         1.51852        11.49105
| 73>    C       -1.75564         2.63659        10.92849
| 74>    C       -1.05312         3.68024        11.66154
| 75>    C       -0.65969         3.63651        12.97417
| 76>    C        0.04044         4.67435        13.62603
| 77>    N        0.60386         5.47659        14.22360
| 78>    C       -0.85942         2.56476        13.87045
| 79>    N       -0.95379         1.74310        14.66740
| 80>    C       -0.74642         4.75799        10.73090
| 81>    C       -1.22554         4.39642         9.43930
| 82>    C       -1.91125         3.09688         9.51195
| 83>    O       -2.54505         2.57113         8.62354
| 84>    C       -1.02827         5.19249         8.34649
| 85>    C       -0.33923         6.41562         8.50511
| 86>    C        0.11168         6.80208         9.80002
| 87>    C       -0.09965         5.95307        10.90952
| 88>    C        0.78151         8.03407         9.94667
| 89>    C        1.00492         8.84085         8.86457
| 90>    C        0.57217         8.45155         7.58777
| 91>    C       -0.08744         7.26565         7.40996
| 92>    H        2.28533        -0.21842        -4.41458
| 93>    H        1.08353         4.57757        -5.08542
| 94>    H        2.07954         4.51168        -7.29610
| 95>    H        3.25302         3.28470        -9.07960
| 96>    H        3.85126         0.91535        -8.77323
| 97>    H        3.28066        -0.24813        -6.67827
| 98>    H        0.46333         1.36556         0.26851
| 99>    H        0.55432         9.97356         1.76775
|100>    H       -0.17938         8.85729         4.11437
|101>    H       -0.73614         1.41012         2.22116
|102>    H       -0.16721         3.08569         4.74057
|103>    H       -6.41120        -6.83478         9.23396
|104>    H       -6.22475        -5.34723        11.48214
|105>    H       -1.75095         0.49685         9.03248
|106>    H       -3.53533        -0.22181        11.43029
|107>    H       -2.32847         1.47172        12.57365
|108>    H       -1.37731         4.89258         7.36986
|109>    H        0.25931         6.27148        11.87505
|110>    H        1.11895         8.32554        10.93057
|111>    H        1.52067         9.78190         8.98612
|112>    H        0.76900         9.10013         6.74643
|113>    H       -0.41709         6.94772         6.43297
|114> *
|115>
|116>                          ****END OF INPUT****

CARTESIAN COORDINATES (ANGSTROEM)
---------------------------------
  C      0.286080    3.340110   -2.582720
  C     -0.555260    4.415070   -2.513800
  C     -0.738270    5.329960   -3.572820
  N     -0.916830    6.094780   -4.408790
  C     -1.419120    4.670950   -1.427310
  N     -2.201890    4.876850   -0.613520
  C      1.000940    2.886890   -3.770600
  C      1.367570    1.518320   -3.593190
  C      2.021960    0.817650   -4.567260
  C      2.351450    1.465430   -5.777840
  C      2.003910    2.837440   -5.954310
  C      1.323960    3.537370   -4.931210
  C      2.345930    3.473400   -7.164950
  C      2.996890    2.789130   -8.155410
  C      3.337400    1.438960   -7.981310
  C      3.021430    0.790960   -6.818150
  C      0.949000    1.067530   -2.259870
  O      1.030500   -0.030760   -1.766910
  C      0.446800    2.308060   -1.575760
  C      0.372220    2.328890   -0.222350
  C      0.297410    3.473540    0.616900
  N      0.598480    4.690670    0.189930
  C      0.465820    5.502680    1.254930
  C      0.085360    4.745860    2.458560
  C     -0.126940    5.658960    3.595040
  O     -0.429000    5.386540    4.735820
  C      0.115190    6.982230    2.995070
  C      0.499210    6.838300    1.570000
  N      0.706310    8.051290    1.006940
  C      0.460240    8.918480    1.957500
  C      0.074700    8.318640    3.222930
  C     -0.037000    3.438870    2.060840
  C     -0.443680    2.284010    2.788670
  C     -0.482370    2.243640    4.140380
  C     -0.955860    1.113220    4.873300
  N     -0.835240    1.124130    6.187750
  N     -1.298010    0.219410    6.977990
  C     -2.126970   -0.738330    6.591750
  C     -2.318490   -0.909450    5.184880
  C     -1.631140   -0.008180    4.293050
  N     -1.890860   -0.401140    3.063980
  O     -2.687010   -1.463850    3.182810
  N     -2.962550   -1.779540    4.436760
  C     -2.791310   -1.562920    7.556070
  N     -3.367490   -2.695050    7.204860
  C     -3.971390   -3.161450    8.320220
  C     -3.777370   -2.243950    9.454370
  C     -4.457660   -2.758170   10.656300
  O     -4.528440   -2.259310   11.756500
  C     -5.046190   -4.024400   10.174870
  C     -4.727030   -4.226600    8.741320
  N     -5.272230   -5.383830    8.290400
  C     -5.888800   -5.898030    9.323070
  C     -5.789270   -5.098660   10.534700
  C     -2.999530   -1.215340    8.985900
  C     -2.480330   -0.049520    9.610720
  C     -2.845790    0.374660   10.844990
  C     -2.297270    1.518520   11.491050
  C     -1.755640    2.636590   10.928490
  C     -1.053120    3.680240   11.661540
  C     -0.659690    3.636510   12.974170
  C      0.040440    4.674350   13.626030
  N      0.603860    5.476590   14.223600
  C     -0.859420    2.564760   13.870450
  N     -0.953790    1.743100   14.667400
  C     -0.746420    4.757990   10.730900
  C     -1.225540    4.396420    9.439300
  C     -1.911250    3.096880    9.511950
  O     -2.545050    2.571130    8.623540
  C     -1.028270    5.192490    8.346490
  C     -0.339230    6.415620    8.505110
  C      0.111680    6.802080    9.800020
  C     -0.099650    5.953070   10.909520
  C      0.781510    8.034070    9.946670
  C      1.004920    8.840850    8.864570
  C      0.572170    8.451550    7.587770
  C     -0.087440    7.265650    7.409960
  H      2.285330   -0.218420   -4.414580
  H      1.083530    4.577570   -5.085420
  H      2.079540    4.511680   -7.296100
  H      3.253020    3.284700   -9.079600
  H      3.851260    0.915350   -8.773230
  H      3.280660   -0.248130   -6.678270
  H      0.463330    1.365560    0.268510
  H      0.554320    9.973560    1.767750
  H     -0.179380    8.857290    4.114370
  H     -0.736140    1.410120    2.221160
  H     -0.167210    3.085690    4.740570
  H     -6.411200   -6.834780    9.233960
  H     -6.224750   -5.347230   11.482140
  H     -1.750950    0.496850    9.032480
  H     -3.535330   -0.221810   11.430290
  H     -2.328470    1.471720   12.573650
  H     -1.377310    4.892580    7.369860
  H      0.259310    6.271480   11.875050
  H      1.118950    8.325540   10.930570
  H      1.520670    9.781900    8.986120
  H      0.769000    9.100130    6.746430
  H     -0.417090    6.947720    6.432970

 Total Charge           Charge          ....    0
 Multiplicity           Mult            ....    1
 Number of Electrons    NEL             ....  506
 Basis Dimension        Dim             .... 1188

ORBITAL ENERGIES
----------------

  NO   OCC          E(Eh)            E(eV)
   0   2.0000     -19.384428      -527.4771
   1   2.0000     -19.239235      -523.5262
   2   2.0000     -19.235803      -523.4328
   3   2.0000     -19.220425      -523.0143
   4   2.0000     -19.206198      -522.6272
   5   2.0000     -14.510718      -394.8567
   6   2.0000     -14.507269      -394.7629
   7   2.0000     -14.473596      -393.8466
   8   2.0000     -14.464763      -393.6062
   9   2.0000     -14.436708      -392.8428
  10   2.0000     -14.429524      -392.6473
  11   2.0000     -14.427271      -392.5860
  12   2.0000     -14.426850      -392.5746
  13   2.0000     -14.426777      -392.5726
  14   2.0000     -14.416271      -392.2867
  15   2.0000     -14.406552      -392.0222
  16   2.0000     -14.406261      -392.0143
  17   2.0000     -10.397437      -282.9286
  18   2.0000     -10.385396      -282.6010
  19   2.0000     -10.380092      -282.4567
  20   2.0000     -10.365430      -282.0577
  21   2.0000     -10.364589      -282.0348
  22   2.0000     -10.361817      -281.9594
  23   2.0000     -10.361253      -281.9440
  24   2.0000     -10.358558      -281.8707
  25   2.0000     -10.355421      -281.7853
  26   2.0000     -10.354673      -281.7650
  27   2.0000     -10.354521      -281.7608
  28   2.0000     -10.353850      -281.7426
  29   2.0000     -10.352873      -281.7160
  30   2.0000     -10.349739      -281.6307
  31   2.0000     -10.348745      -281.6037
  32   2.0000     -10.342407      -281.4312
  33   2.0000     -10.338457      -281.3237
  34   2.0000     -10.337878      -281.3080
  35   2.0000     -10.333022      -281.1758
  36   2.0000     -10.332763      -281.1688
  37   2.0000     -10.331476      -281.1338
  38   2.0000     -10.331320      -281.1295
  39   2.0000     -10.330233      -281.0999
  40   2.0000     -10.329536      -281.0810
  41   2.0000     -10.327281      -281.0196
  42   2.0000     -10.317383      -280.7503
  43   2.0000     -10.317286      -280.7476
  44   2.0000     -10.316096      -280.7152
  45   2.0000     -10.313716      -280.6505
  46   2.0000     -10.312101      -280.6065
  47   2.0000     -10.312099      -280.6065
  48   2.0000     -10.310987      -280.5762
  49   2.0000     -10.309725      -280.5419
  50   2.0000     -10.309485      -280.5354
  51   2.0000     -10.309426      -280.5337
  52   2.0000     -10.309056      -280.5237
  53   2.0000     -10.308292      -280.5029
  54   2.0000     -10.307198      -280.4731
  55   2.0000     -10.306303      -280.4488
  56   2.0000     -10.303887      -280.3830
  57   2.0000     -10.301447      -280.3166
  58   2.0000     -10.299730      -280.2699
  59   2.0000     -10.299166      -280.2546
  60   2.0000     -10.296682      -280.1870
  61   2.0000     -10.296267      -280.1757
  62   2.0000     -10.295917      -280.1661
  63   2.0000     -10.295266      -280.1484
  64   2.0000     -10.293182      -280.0917
  65   2.0000     -10.291949      -280.0582
  66   2.0000     -10.288177      -279.9555
  67   2.0000     -10.286848      -279.9194
  68   2.0000     -10.286572      -279.9118
  69   2.0000     -10.285912      -279.8939
  70   2.0000     -10.284706      -279.8611
  71   2.0000     -10.280540      -279.7477
  72   2.0000     -10.278422      -279.6901
  73   2.0000     -10.278110      -279.6816
  74   2.0000     -10.277769      -279.6723
  75   2.0000     -10.277050      -279.6527
  76   2.0000     -10.272833      -279.5380
  77   2.0000      -1.339152       -36.4402
  78   2.0000      -1.154824       -31.4244
  79   2.0000      -1.153443       -31.3868
  80   2.0000      -1.151115       -31.3234
  81   2.0000      -1.135015       -30.8853
  82   2.0000      -1.121468       -30.5167
  83   2.0000      -1.103141       -30.0180
  84   2.0000      -1.091310       -29.6960
  85   2.0000      -1.083246       -29.4766
  86   2.0000      -1.072073       -29.1726
  87   2.0000      -1.041137       -28.3308
  88   2.0000      -1.031392       -28.0656
  89   2.0000      -1.011752       -27.5312
  90   2.0000      -1.009110       -27.4593
  91   2.0000      -1.006027       -27.3754
  92   2.0000      -1.000903       -27.2360
  93   2.0000      -0.988662       -26.9029
  94   2.0000      -0.984991       -26.8030
  95   2.0000      -0.984886       -26.8001
  96   2.0000      -0.977227       -26.5917
  97   2.0000      -0.961938       -26.1757
  98   2.0000      -0.960959       -26.1490
  99   2.0000      -0.945741       -25.7349
 100   2.0000      -0.938140       -25.5281
 101   2.0000      -0.934549       -25.4304
 102   2.0000      -0.924894       -25.1676
 103   2.0000      -0.918057       -24.9816
 104   2.0000      -0.911886       -24.8137
 105   2.0000      -0.894230       -24.3332
 106   2.0000      -0.892176       -24.2773
 107   2.0000      -0.890471       -24.2309
 108   2.0000      -0.882584       -24.0163
 109   2.0000      -0.875524       -23.8242
 110   2.0000      -0.871730       -23.7210
 111   2.0000      -0.868854       -23.6427
 112   2.0000      -0.865710       -23.5572
 113   2.0000      -0.840309       -22.8660
 114   2.0000      -0.839928       -22.8556
 115   2.0000      -0.826511       -22.4905
 116   2.0000      -0.825512       -22.4633
 117   2.0000      -0.818320       -22.2676
 118   2.0000      -0.800385       -21.7796
 119   2.0000      -0.793131       -21.5822
 120   2.0000      -0.787361       -21.4252
 121   2.0000      -0.781177       -21.2569
 122   2.0000      -0.778648       -21.1881
 123   2.0000      -0.770903       -20.9773
 124   2.0000      -0.760194       -20.6859
 125   2.0000      -0.752258       -20.4700
 126   2.0000      -0.747812       -20.3490
 127   2.0000      -0.739359       -20.1190
 128   2.0000      -0.723139       -19.6776
 129   2.0000      -0.720588       -19.6082
 130   2.0000      -0.719811       -19.5870
 131   2.0000      -0.712495       -19.3880
 132   2.0000      -0.694368       -18.8947
 133   2.0000      -0.693670       -18.8757
 134   2.0000      -0.690386       -18.7864
 135   2.0000      -0.689674       -18.7670
 136   2.0000      -0.686155       -18.6712
 137   2.0000      -0.680697       -18.5227
 138   2.0000      -0.675644       -18.3852
 139   2.0000      -0.668029       -18.1780
 140   2.0000      -0.663962       -18.0673
 141   2.0000      -0.654544       -17.8110
 142   2.0000      -0.653495       -17.7825
 143   2.0000      -0.646537       -17.5932
 144   2.0000      -0.645072       -17.5533
 145   2.0000      -0.635988       -17.3061
 146   2.0000      -0.634856       -17.2753
 147   2.0000      -0.629384       -17.1264
 148   2.0000      -0.626641       -17.0518
 149   2.0000      -0.619760       -16.8645
 150   2.0000      -0.618143       -16.8205
 151   2.0000      -0.616450       -16.7745
 152   2.0000      -0.611856       -16.6495
 153   2.0000      -0.599167       -16.3042
 154   2.0000      -0.598244       -16.2790
 155   2.0000      -0.595498       -16.2043
 156   2.0000      -0.589993       -16.0545
 157   2.0000      -0.583389       -15.8748
 158   2.0000      -0.580137       -15.7863
 159   2.0000      -0.574523       -15.6336
 160   2.0000      -0.568897       -15.4805
 161   2.0000      -0.567346       -15.4383
 162   2.0000      -0.564490       -15.3606
 163   2.0000      -0.559830       -15.2337
 164   2.0000      -0.559267       -15.2184
 165   2.0000      -0.558277       -15.1915
 166   2.0000      -0.556856       -15.1528
 167   2.0000      -0.551731       -15.0134
 168   2.0000      -0.548733       -14.9318
 169   2.0000      -0.547406       -14.8957
 170   2.0000      -0.543204       -14.7813
 171   2.0000      -0.541095       -14.7239
 172   2.0000      -0.538913       -14.6646
 173   2.0000      -0.535840       -14.5809
 174   2.0000      -0.534068       -14.5327
 175   2.0000      -0.532255       -14.4834
 176   2.0000      -0.531944       -14.4749
 177   2.0000      -0.527834       -14.3631
 178   2.0000      -0.524187       -14.2639
 179   2.0000      -0.523958       -14.2576
 180   2.0000      -0.521834       -14.1998
 181   2.0000      -0.519891       -14.1469
 182   2.0000      -0.518470       -14.1083
 183   2.0000      -0.512052       -13.9336
 184   2.0000      -0.508562       -13.8387
 185   2.0000      -0.508138       -13.8271
 186   2.0000      -0.504597       -13.7308
 187   2.0000      -0.503127       -13.6908
 188   2.0000      -0.502025       -13.6608
 189   2.0000      -0.500429       -13.6174
 190   2.0000      -0.499892       -13.6028
 191   2.0000      -0.497118       -13.5273
 192   2.0000      -0.494869       -13.4661
 193   2.0000      -0.488098       -13.2818
 194   2.0000      -0.487282       -13.2596
 195   2.0000      -0.484530       -13.1847
 196   2.0000      -0.482436       -13.1278
 197   2.0000      -0.481192       -13.0939
 198   2.0000      -0.479168       -13.0388
 199   2.0000      -0.477351       -12.9894
 200   2.0000      -0.474728       -12.9180
 201   2.0000      -0.473342       -12.8803
 202   2.0000      -0.462122       -12.5750
 203   2.0000      -0.459479       -12.5031
 204   2.0000      -0.456240       -12.4149
 205   2.0000      -0.456205       -12.4140
 206   2.0000      -0.453771       -12.3477
 207   2.0000      -0.451527       -12.2867
 208   2.0000      -0.445212       -12.1148
 209   2.0000      -0.443469       -12.0674
 210   2.0000      -0.440531       -11.9875
 211   2.0000      -0.440056       -11.9745
 212   2.0000      -0.435652       -11.8547
 213   2.0000      -0.433775       -11.8036
 214   2.0000      -0.433060       -11.7842
 215   2.0000      -0.432441       -11.7673
 216   2.0000      -0.426290       -11.5999
 217   2.0000      -0.424577       -11.5533
 218   2.0000      -0.424479       -11.5507
 219   2.0000      -0.421219       -11.4620
 220   2.0000      -0.420790       -11.4503
 221   2.0000      -0.418823       -11.3968
 222   2.0000      -0.416728       -11.3398
 223   2.0000      -0.416313       -11.3285
 224   2.0000      -0.414198       -11.2709
 225   2.0000      -0.412644       -11.2286
 226   2.0000      -0.408718       -11.1218
 227   2.0000      -0.397422       -10.8144
 228   2.0000      -0.391830       -10.6622
 229   2.0000      -0.387263       -10.5380
 230   2.0000      -0.384536       -10.4638
 231   2.0000      -0.379335       -10.3222
 232   2.0000      -0.376119       -10.2347
 233   2.0000      -0.374539       -10.1917
 234   2.0000      -0.368150       -10.0179
 235   2.0000      -0.366318        -9.9680
 236   2.0000      -0.363368        -9.8877
 237   2.0000      -0.358246        -9.7484
 238   2.0000      -0.355579        -9.6758
 239   2.0000      -0.353831        -9.6282
 240   2.0000      -0.348329        -9.4785
 241   2.0000      -0.342968        -9.3326
 242   2.0000      -0.342047        -9.3076
 243   2.0000      -0.337922        -9.1953
 244   2.0000      -0.331846        -9.0300
 245   2.0000      -0.327848        -8.9212
 246   2.0000      -0.325069        -8.8456
 247   2.0000      -0.319822        -8.7028
 248   2.0000      -0.308290        -8.3890
 249   2.0000      -0.305191        -8.3047
 250   2.0000      -0.301383        -8.2010
 251   2.0000      -0.287469        -7.8224
 252   2.0000      -0.275619        -7.5000
 253   0.0000      -0.147599        -4.0164
 254   0.0000      -0.135326        -3.6824
 255   0.0000      -0.103826        -2.8252
 256   0.0000      -0.089305        -2.4301
 257   0.0000      -0.078806        -2.1444

MULLIKEN ATOMIC CHARGES
-----------------------
   0 C :    0.274005
   1 C :   -0.271165
   2 C :   -0.186039
   3 N :    0.165433
   4 C :   -0.173151
   5 N :    0.159553
   6 C :    0.039742
   7 C :    0.005773
   8 C :   -0.072521
   9 C :    0.093419
  10 C :    0.096859
  11 C :   -0.077631
  12 C :   -0.017487
  13 C :    0.039176
  14 C :    0.036301
  15 C :   -0.012447
  16 C :    0.137041
  17 O :   -0.124840
  18 C :   -0.069265
  19 C :   -0.011471
  20 C :    0.030822
  21 N :   -0.041876
  22 C :    0.080135
  23 C :   -0.127750
  24 C :    0.240137
  25 O :   -0.136171
  26 C :   -0.023530
  27 C :   -0.012884
  28 N :   -0.047668
  29 C :    0.103035
  30 C :   -0.093176
  31 C :    0.071287
  32 C :   -0.023217
  33 C :    0.008750
  34 C :    0.001539
  35 N :   -0.031781
  36 N :   -0.022092
  37 C :   -0.021461
  38 C :   -0.010582
  39 C :   -0.027017
  40 N :    0.057352
  41 O :   -0.073337
  42 N :    0.119661
  43 C :   -0.008780
  44 N :   -0.002216
  45 C :    0.088263
  46 C :   -0.158652
  47 C :    0.224460
  48 O :   -0.124369
  49 C :   -0.014799
  50 C :   -0.031598
  51 N :   -0.047587
  52 C :    0.098645
  53 C :   -0.090461
  54 C :   -0.006195
  55 C :    0.050974
  56 C :    0.017075
  57 C :   -0.021318
  58 C :   -0.083016
  59 C :    0.316561
  60 C :   -0.352992
  61 C :   -0.182305
  62 N :    0.144158
  63 C :   -0.204745
  64 N :    0.161878
  65 C :    0.051243
  66 C :    0.001980
  67 C :    0.154507
  68 O :   -0.148698
  69 C :   -0.077452
  70 C :    0.090153
  71 C :    0.094311
  72 C :   -0.092047
  73 C :   -0.021678
  74 C :    0.038810
  75 C :    0.033092
  76 C :   -0.004536
  77 H :   -0.006831
  78 H :   -0.001486
  79 H :   -0.007132
  80 H :   -0.000881
  81 H :   -0.000795
  82 H :   -0.014007
  83 H :    0.028022
  84 H :    0.022385
  85 H :    0.000832
  86 H :    0.021773
  87 H :    0.009983
  88 H :    0.017282
  89 H :    0.002382
  90 H :    0.029540
  91 H :    0.015781
  92 H :    0.035857
  93 H :   -0.008173
  94 H :   -0.010658
  95 H :   -0.012796
  96 H :   -0.011255
  97 H :   -0.022481
  98 H :   -0.031468
Sum of atomic charges:   -0.0000000

LOEWDIN ATOMIC CHARGES
----------------------
   0 C :    0.063240
   1 C :   -0.095760
   2 C :   -0.015133
   3 N :   -0.035064
   4 C :   -0.012708
   5 N :   -0.045840
   6 C :   -0.020359
   7 C :   -0.062007
   8 C :    0.039776
   9 C :   -0.008683
  10 C :   -0.001747
  11 C :    0.018640
  12 C :   -0.005192
  13 C :   -0.007604
  14 C :   -0.009822
  15 C :   -0.006650
  16 C :    0.085007
  17 O :   -0.123415
  18 C :   -0.011361
  19 C :    0.024202
  20 C :    0.063320
  21 N :   -0.075569
  22 C :    0.047906
  23 C :   -0.025806
  24 C :    0.078636
  25 O :   -0.126830
  26 C :   -0.036522
  27 C :    0.043785
  28 N :   -0.088459
  29 C :    0.092226
  30 C :   -0.026173
  31 C :   -0.020582
  32 C :    0.003746
  33 C :    0.007622
  34 C :    0.014425
  35 N :   -0.030571
  36 N :   -0.004075
  37 C :   -0.009631
  38 C :   -0.056701
  39 C :   -0.062098
  40 N :   -0.012915
  41 O :    0.098347
  42 N :    0.027526
  43 C :    0.057435
  44 N :   -0.069595
  45 C :    0.042531
  46 C :   -0.038049
  47 C :    0.069795
  48 O :   -0.125720
  49 C :   -0.036177
  50 C :    0.041221
  51 N :   -0.091011
  52 C :    0.087945
  53 C :   -0.025259
  54 C :   -0.016258
  55 C :    0.030266
  56 C :   -0.012697
  57 C :    0.069757
  58 C :   -0.083559
  59 C :    0.075592
  60 C :   -0.138964
  61 C :   -0.015829
  62 N :   -0.057493
  63 C :   -0.025167
  64 N :   -0.049883
  65 C :   -0.026271
  66 C :   -0.056402
  67 C :    0.084915
  68 O :   -0.138456
  69 C :    0.039587
  70 C :   -0.007379
  71 C :   -0.006342
  72 C :    0.016079
  73 C :   -0.008933
  74 C :   -0.016231
  75 C :   -0.023477
  76 C :   -0.006242
  77 H :    0.041517
  78 H :    0.040339
  79 H :    0.035770
  80 H :    0.034934
  81 H :    0.034554
  82 H :    0.033316
  83 H :    0.050814
  84 H :    0.029233
  85 H :    0.036144
  86 H :    0.035196
  87 H :    0.043808
  88 H :    0.027094
  89 H :    0.037649
  90 H :    0.033143
  91 H :    0.035303
  92 H :    0.048762
  93 H :    0.041376
  94 H :    0.037900
  95 H :    0.033352
  96 H :    0.030767
  97 H :    0.024093
  98 H :    0.024080

  Mayer bond orders larger than 0.100000
B(  0-C ,  1-C ) :   1.7012 B(  0-C ,  6-C ) :   0.9998 B(  0-C , 18-C ) :   1.0112
B(  1-C ,  2-C ) :   1.1389 B(  1-C ,  4-C ) :   1.1562 B(  2-C ,  3-N ) :   2.9851
B(  4-C ,  5-N ) :   2.9756 B(  6-C ,  7-C ) :   1.2089 B(  6-C , 11-C ) :   1.4565
B(  7-C ,  8-C ) :   1.4658 B(  7-C , 16-C ) :   0.9294 B(  8-C ,  9-C ) :   1.1928
B(  8-C , 77-H ) :   1.0151 B(  9-C , 10-C ) :   1.2529 B(  9-C , 15-C ) :   1.2423
B( 10-C , 11-C ) :   1.2088 B( 10-C , 12-C ) :   1.2398 B( 11-C , 78-H ) :   0.9927
B( 12-C , 13-C ) :   1.4916 B( 12-C , 79-H ) :   0.9976 B( 13-C , 14-C ) :   1.2594
B( 13-C , 80-H ) :   0.9882 B( 14-C , 15-C ) :   1.4912 B( 14-C , 81-H ) :   0.9885
B( 15-C , 82-H ) :   0.9977 B( 16-C , 17-O ) :   2.2763 B( 16-C , 18-C ) :   0.9074
B( 18-C , 19-C ) :   1.7215 B( 19-C , 20-C ) :   1.0663 B( 19-C , 83-H ) :   0.9387
B( 20-C , 21-N ) :   1.5705 B( 20-C , 22-C ) :   0.1113 B( 20-C , 31-C ) :   1.0207
B( 21-N , 22-C ) :   1.3228 B( 22-C , 23-C ) :   1.0639 B( 22-C , 27-C ) :   1.4298
B( 23-C , 24-C ) :   0.9287 B( 23-C , 31-C ) :   1.5531 B( 24-C , 25-O ) :   2.1346
B( 24-C , 26-C ) :   0.9095 B( 26-C , 27-C ) :   1.0504 B( 26-C , 30-C ) :   1.6216
B( 27-C , 28-N ) :   1.3160 B( 28-N , 29-C ) :   1.6549 B( 29-C , 30-C ) :   1.0589
B( 29-C , 84-H ) :   0.9894 B( 30-C , 85-H ) :   1.0092 B( 31-C , 32-C ) :   1.1011
B( 32-C , 33-C ) :   1.6180 B( 32-C , 86-H ) :   0.9405 B( 33-C , 34-C ) :   1.1392
B( 33-C , 87-H ) :   0.9679 B( 34-C , 35-N ) :   1.6462 B( 34-C , 37-C ) :   0.1084
B( 34-C , 39-C ) :   1.0435 B( 35-N , 36-N ) :   1.2254 B( 36-N , 37-C ) :   1.6960
B( 37-C , 38-C ) :   1.0839 B( 37-C , 43-C ) :   1.0302 B( 38-C , 39-C ) :   1.1721
B( 38-C , 42-N ) :   1.6136 B( 39-C , 40-N ) :   1.5972 B( 40-N , 41-O ) :   1.0662
B( 40-N , 42-N ) :   0.1827 B( 41-O , 42-N ) :   1.0755 B( 43-C , 44-N ) :   1.7047
B( 43-C , 45-C ) :   0.1309 B( 43-C , 54-C ) :   1.0283 B( 44-N , 45-C ) :   1.3058
B( 45-C , 46-C ) :   1.0597 B( 45-C , 50-C ) :   1.4358 B( 46-C , 47-C ) :   0.8883
B( 46-C , 54-C ) :   1.5319 B( 47-C , 48-O ) :   2.2208 B( 47-C , 49-C ) :   0.9166
B( 49-C , 50-C ) :   1.0556 B( 49-C , 53-C ) :   1.6304 B( 50-C , 51-N ) :   1.3004
B( 51-N , 52-C ) :   1.6708 B( 52-C , 53-C ) :   1.0475 B( 52-C , 88-H ) :   0.9886
B( 53-C , 89-H ) :   1.0104 B( 54-C , 55-C ) :   1.1813 B( 55-C , 56-C ) :   1.6410
B( 55-C , 90-H ) :   0.9194 B( 56-C , 57-C ) :   1.1514 B( 56-C , 91-H ) :   0.9424
B( 57-C , 58-C ) :   1.6157 B( 57-C , 92-H ) :   0.9396 B( 58-C , 59-C ) :   1.0688
B( 58-C , 67-C ) :   0.9247 B( 59-C , 60-C ) :   1.6262 B( 59-C , 65-C ) :   0.9920
B( 60-C , 61-C ) :   1.1499 B( 60-C , 63-C ) :   1.1386 B( 61-C , 62-N ) :   2.9618
B( 63-C , 64-N ) :   2.9861 B( 65-C , 66-C ) :   1.2131 B( 65-C , 72-C ) :   1.4413
B( 66-C , 67-C ) :   0.9430 B( 66-C , 69-C ) :   1.4498 B( 67-C , 68-O ) :   2.2261
B( 69-C , 70-C ) :   1.1869 B( 69-C , 93-H ) :   1.0204 B( 70-C , 71-C ) :   1.2488
B( 70-C , 76-C ) :   1.2604 B( 71-C , 72-C ) :   1.2084 B( 71-C , 73-C ) :   1.2387
B( 72-C , 94-H ) :   0.9895 B( 73-C , 74-C ) :   1.4930 B( 73-C , 95-H ) :   0.9971
B( 74-C , 75-C ) :   1.2567 B( 74-C , 96-H ) :   0.9866 B( 75-C , 76-C ) :   1.4756
B( 75-C , 97-H ) :   0.9879 B( 76-C , 98-H ) :   0.9829

-----------------------------------------------------------------------------
         ABSORPTION SPECTRUM VIA TRANSITION ELECTRIC DIPOLE MOMENTS
-----------------------------------------------------------------------------
State   Energy  Wavelength   fosc         T2         TX        TY        TZ
        (cm-1)    (nm)                  (au**2)     (au)      (au)      (au)
-----------------------------------------------------------------------------
   0   13739.9    727.8   0.063086521   1.51157   0.62408   1.04280  -0.18615
   1   15780.9    633.7   0.057225893   1.19381   0.49350   0.85237  -0.47300
   2   17055.9    586.3   0.046536737   0.89825   0.22256   0.85189  -0.35072
   3   17522.4    570.7   0.020831270   0.39138  -0.22000  -0.58172   0.06772
   4   18479.1    541.2   0.047180867   0.84054  -0.29574  -0.28418  -0.81995
   5   19492.1    513.0   0.055500641   0.93738  -0.24303  -0.62200  -0.70102
   6   20442.2    489.2   0.385226189   6.20388   0.64986   0.93765  -2.21413
   7   20601.2    485.4   0.180112394   2.87823   0.49573   0.54921  -1.52671
   8   21055.2    474.9   0.032782865   0.51258   0.32251   0.35088  -0.53428
   9   21131.7    473.2   0.019789558   0.30830   0.12901   0.48034  -0.24686
  10   21872.0    457.2   0.958145380  14.42175  -1.82160  -3.23414   0.80242
  11   22307.3    448.3   0.141538256   2.08882   0.49628   1.17670   0.67669
  12   22908.9    436.5   0.004611041   0.06626   0.07639   0.16662  -0.18073
  13   23592.5    423.9   0.052160178   0.72785   0.38553   0.63880  -0.41370
  14   23844.6    419.4   0.179015700   2.47159   0.03760  -1.21087  -1.00199
  15   24172.3    413.7   0.034090043   0.46429   0.01409   0.46238   0.50029
  16   24439.3    409.2   0.010164169   0.13692  -0.05125  -0.27294   0.24453
  17   24552.7    407.3   0.058595833   0.78567   0.15571  -0.66018  -0.57061
  18   24651.6    405.7   0.005880981   0.07854  -0.06701  -0.27184   0.01227
  19   24668.7    405.4   0.022747644   0.30357   0.21242   0.34074  -0.37729
  20   24848.6    402.4   0.318156434   4.21516   0.22201  -1.23107  -1.62799
  21   25194.7    396.9   0.004251178   0.05555   0.16103   0.17200   0.00580
  22   25323.9    394.9   0.012332750   0.16033  -0.12867  -0.14839  -0.34893
  23   25751.0    388.3   0.002138667   0.02734   0.08128   0.05675   0.13234
  24   26057.1    383.8   0.005597226   0.07072  -0.14996   0.04626  -0.21468
  25   26271.9    380.6   0.006925961   0.08679   0.24016   0.12096   0.12032
  26   26701.5    374.5   0.009703954   0.11964   0.28351  -0.12862  -0.15074
  27   26767.8    373.6   0.012348986   0.15188   0.31002   0.16307   0.17081
  28   27011.9    370.2   0.501335613   6.11010  -1.08031  -2.15003  -0.56605
  29   28093.2    356.0   0.003930820   0.04606  -0.06857  -0.12352  -0.16157
  30   28304.0    353.3   0.039269939   0.45676   0.15298   0.42940  -0.49897
  31   28543.6    350.3   0.137921669   1.59074   0.52520   0.97327  -0.60634
  32   28801.5    347.2   0.005314024   0.06074  -0.14582   0.00242  -0.19867
  33   29066.1    344.0   0.034534739   0.39115   0.02412   0.18568  -0.59673
  34   29385.4    340.3   0.161734535   1.81195  -0.27330   0.38372   1.26096
  35   29553.0    338.4   0.002787623   0.03105  -0.01093   0.13830  -0.10866
  36   29891.5    334.5   0.002045646   0.02253  -0.12726  -0.00032  -0.07959
  37   30077.7    332.5   0.009118895   0.09981  -0.08252  -0.04121   0.30216
  38   30179.9    331.3   0.111799316   1.21954   0.18927   0.51004  -0.96103
  39   30380.2    329.2   0.202785798   2.19746   0.11232  -1.47693   0.05932
  40   30580.9    327.0   0.119656733   1.28814  -0.78269  -0.29180   0.76837
  41   30983.2    322.8   0.195670419   2.07909   0.60682   1.16797  -0.58882
  42   31265.5    319.8   0.126487206   1.33186  -0.44696   0.74628   0.75839
  43   31343.5    319.0   0.239715026   2.51781  -0.69786  -0.93842   1.07246
  44   31833.0    314.1   0.021696267   0.22438   0.26060  -0.29044  -0.26853
  45   32268.5    309.9   0.065901547   0.67235  -0.37940  -0.55811   0.46573
  46   32351.8    309.1   0.232166210   2.36252  -0.47905  -0.85336   1.18525
  47   32374.1    308.9   0.079695588   0.81042  -0.40935   0.56032   0.57350
  48   32637.8    306.4   0.075700712   0.76358   0.03714  -0.79489  -0.36104
  49   33054.1    302.5   0.009919854   0.09880   0.11248  -0.24017  -0.16872
  50   33188.2    301.3   0.009295895   0.09221   0.14805  -0.09355  -0.24808
  51   33421.8    299.2   0.004456184   0.04389   0.03272   0.16477   0.12520
  52   33504.9    298.5   0.068368759   0.67178  -0.23557   0.39103   0.68072
  53   33748.4    296.3   0.063732616   0.62170   0.41263   0.49358  -0.45587
  54   34472.7    290.1   0.049221372   0.47006  -0.19813  -0.52270   0.39698
  55   34525.9    289.6   0.066112422   0.63040   0.17291  -0.40827   0.65865
  56   34671.1    288.4   0.055015793   0.52239  -0.37870   0.54325   0.28958
  57   34822.5    287.2   0.110955730   1.04897   0.04017   0.76800  -0.67641
  58   34908.7    286.5   0.053503926   0.50458   0.29926  -0.16402  -0.62299
  59   34963.0    286.0   0.005096352   0.04799  -0.17257   0.04656   0.12664
  60   35188.7    284.2   0.003542256   0.03314  -0.05867   0.09998   0.14036
  61   35426.9    282.3   0.116592051   1.08345   0.32769   0.61313  -0.77469
  62   35491.0    281.8   0.072272584   0.67040   0.30038  -0.72485   0.23402
  63   35545.5    281.3   0.132905614   1.23093  -0.43044   0.74899   0.69618
  64   35598.5    280.9   0.035275405   0.32622   0.07920  -0.50576   0.25329
  65   35720.3    280.0   0.000787935   0.00726  -0.07108  -0.01883  -0.04308
  66   35743.2    279.8   0.017794062   0.16389  -0.04986  -0.11392   0.38526
  67   35975.7    278.0   0.026418367   0.24175   0.08042   0.47259  -0.10929
  68   36169.4    276.5   0.034902183   0.31768  -0.03377   0.55595  -0.08638
  69   36276.6    275.7   0.165842945   1.50503  -0.53278   0.89769   0.64446
  70   36627.2    273.0   0.140002425   1.25837   0.72517  -0.55635  -0.65035
  71   36655.0    272.8   0.093881964   0.84319  -0.16750   0.88837  -0.16104
  72   36949.3    270.6   0.048800649   0.43481  -0.00558   0.11928  -0.64850
  73   37095.1    269.6   0.048358314   0.42917  -0.21008   0.19666   0.58853
  74   37217.3    268.7   0.046011362   0.40700  -0.39615   0.18213  -0.46572
  75   37450.9    267.0   0.023646087   0.20786   0.26707  -0.26940  -0.25289
  76   37518.8    266.5   0.009057834   0.07948   0.12709  -0.15044  -0.20173
  77   37734.1    265.0   0.083573890   0.72914  -0.09414   0.07240   0.84560
  78   37897.5    263.9   0.062826626   0.54577  -0.00672  -0.65103  -0.34912
  79   38157.6    262.1   0.037992658   0.32779   0.28360  -0.33347  -0.36899
  80   38272.5    261.3   0.070761313   0.60867  -0.02669   0.76606   0.14530
  81   38434.0    260.2   0.029992474   0.25691  -0.05372  -0.19102   0.46640
  82   38494.9    259.8   0.005182962   0.04433  -0.11562  -0.11924  -0.12938
  83   38550.0    259.4   0.007323672   0.06254  -0.12339  -0.21709   0.01382
  84   38736.6    258.2   0.009398067   0.07987   0.15731  -0.03560  -0.23207
  85   38791.0    257.8   0.028056656   0.23811  -0.20064  -0.00422  -0.44479
  86   38959.8    256.7   0.000437568   0.00370  -0.02530   0.05097  -0.02143
  87   39031.1    256.2   0.053512651   0.45136  -0.19182   0.54208  -0.34744
  88   39079.4    255.9   0.039998814   0.33696   0.16135  -0.38067  -0.40745
  89   39147.3    255.4   0.018878490   0.15876  -0.17630   0.32806   0.14161
  90   39351.5    254.1   0.028078940   0.23491   0.09406   0.07655   0.46925
  91   39445.7    253.5   0.109211579   0.91148  -0.23167  -0.09612  -0.92118
  92   39543.0    252.9   0.008125964   0.06765  -0.18665  -0.00300  -0.18112
  93   39629.2    252.3   0.007993212   0.06640   0.21923  -0.06342  -0.11966
  94   39762.1    251.5   0.052836746   0.43746   0.11110  -0.00192  -0.65201
  95   39855.3    250.9   0.035987401   0.29726  -0.05984  -0.31346   0.44207
  96   39940.8    250.4   0.018216381   0.15015  -0.13362  -0.09246   0.35177
  97   40077.3    249.5   0.050266479   0.41291   0.42524   0.47057   0.10316
  98   40120.9    249.2   0.069561534   0.57079   0.48835   0.45469   0.35434
  99   40153.0    249.0   0.093835480   0.76935  -0.13970  -0.55807  -0.66211
 100   40242.6    248.5   0.031229593   0.25548   0.23853  -0.36751  -0.25203

FINAL SINGLE POINT ENERGY     -3328.207679975535

DIPOLE MOMENT
-------------
                                X             Y             Z
Electronic contribution:    -14.08463     -18.04039      14.10344
Nuclear contribution   :     15.58100      18.16372     -18.85157
                        -----------------------------------------
Total Dipole Moment    :      1.49637       0.12333      -4.74814
                        -----------------------------------------
Magnitude (a.u.)       :      4.97987
Magnitude (Debye)      :     12.65783

Rotational constants in cm-1:     0.001155     0.000418     0.000319
Rotational constants in MHz :    34.618539    12.518755     9.572409

                             ****ORCA TERMINATED NORMALLY****
TOTAL RUN TIME: 0 days 0 hours 16 minutes 13 seconds 814 msec
