                         Program Version 4.2.0 -  RELEASE  -
|  1> # ORCA input file
|  2> # SCF done       -206.536779718217          0.000322883034
|  3> ! CAM-B3LYP def2-SVP def2/J RIJCOSX Grid4 TightSCF
|  4> %maxcore 5000
|  5> %tddft
|  6>     Mode sTDDFT
|  7>     Ethresh 5.0
|  8>     maxcore 5000
|  9> end
| 10>
| 11> %pal
| 12>   nprocs 6
| 13>   end
| 14> * xyz 0 1
| 15>    C       -6.15705         3.27093         2.39035
| 16>    C       -6.21112         4.47003         3.05937
| 17>    C       -7.38033         4.99300         3.64151
| 18>    N       -8.30491         5.44968         4.14683
| 19>    C       -5.10824         5.34198         3.12685
| 20>    N       -4.22498         6.07648         3.14125
| 21>    C       -7.31054         2.47199         1.99401
| 22>    C       -6.92635         1.64224         0.89974
| 23>    C       -7.81810         0.81199         0.28577
| 24>    C       -9.15101         0.76232         0.75557
| 25>    C       -9.53491         1.57665         1.85970
| 26>    C       -8.59237         2.43686         2.46977
| 27>    C      -10.86445         1.51089         2.32242
| 28>    C      -11.77486         0.68363         1.72283
| 29>    C      -11.39697        -0.11615         0.63446
| 30>    C      -10.11327        -0.07712         0.16112
| 31>    C       -5.49251         1.84628         0.61435
| 32>    O       -4.83008         1.35996        -0.27528
| 33>    C       -5.00699         2.74379         1.69506
| 34>    C       -3.66829         2.87602         1.92966
| 35>    C       -3.02857         3.26584         3.12501
| 36>    S       -3.80736         3.13382         4.68740
| 37>    C       -2.39139         3.58898         5.48836
| 38>    C       -1.35404         3.87582         4.63484
| 39>    N       -0.17371         4.46939         5.15015
| 40>    O        0.00102         4.39593         6.35687
| 41>    O        0.57209         5.04375         4.38243
| 42>    C       -1.68911         3.66011         3.25737
| 43>    N       -0.90418         3.85925         2.17161
| 44>    C        0.47574         3.74382         2.07067
| 45>    C        1.19994         2.92928         2.90150
| 46>    C        2.60100         2.87888         2.75503
| 47>    C        3.55424         2.19852         3.50006
| 48>    C        3.17348         1.33834         4.66551
| 49>    C        4.27260         0.41415         5.21629
| 50>    N        4.78556        -0.57787         4.28737
| 51>    C        2.59033         2.22331         5.80173
| 52>    N        1.24969         1.77259         6.14061
| 53>    C        4.84330         2.55544         2.94354
| 54>    C        6.10859         2.23990         3.27898
| 55>    C        7.28108         2.73162         2.50495
| 56>    C        6.94712         3.64253         1.36097
| 57>    C        5.68265         3.97078         1.04849
| 58>    C        4.60059         3.45989         1.80270
| 59>    C        3.24009         3.66561         1.71526
| 60>    C        2.45050         4.46709         0.85739
| 61>    C        1.10701         4.49606         1.03108
| 62>    C        8.11573         1.60561         1.95079
| 63>    C        7.94706         0.30180         2.15486
| 64>    C        8.75003        -0.66180         1.41737
| 65>    S        9.64118        -1.92284         2.21384
| 66>    C       10.36158        -2.41839         0.75778
| 67>    C        9.93448        -1.67074        -0.31022
| 68>    N       10.39144        -1.90281        -1.63416
| 69>    O       11.12568        -2.85148        -1.81377
| 70>    O       10.01893        -1.13511        -2.50109
| 71>    C        8.98841        -0.66262         0.05887
| 72>    N        8.33921         0.16648        -0.83636
| 73>    C        7.06538         0.54404        -0.68782
| 74>    C        6.48003         1.50088        -1.47001
| 75>    C        5.10699         1.94322        -1.47286
| 76>    C        4.09034         1.50460        -0.65969
| 77>    C        2.73740         1.86824        -0.79802
| 78>    N        1.61282         2.09019        -0.87404
| 79>    C        4.26653         0.61769         0.41340
| 80>    N        4.36159        -0.08608         1.31793
| 81>    C        4.98632         2.95997        -2.51061
| 82>    C        6.25838         3.14300        -3.12974
| 83>    C        7.22970         2.23504        -2.50030
| 84>    O        8.41699         2.10936        -2.75305
| 85>    C        6.44475         4.04515        -4.13619
| 86>    C        5.34914         4.82154        -4.57826
| 87>    C        4.07859         4.65371        -3.95596
| 88>    C        3.91554         3.71236        -2.91341
| 89>    C        2.99535         5.43691        -4.40321
| 90>    C        3.15558         6.33927        -5.41949
| 91>    C        4.40616         6.50157        -6.03328
| 92>    C        5.47985         5.75959        -5.62051
| 93>    H       -7.51315         0.19865        -0.54912
| 94>    H       -8.90455         3.04049         3.30796
| 95>    H      -11.15126         2.13158         3.15866
| 96>    H      -12.79165         0.64183         2.08386
| 97>    H      -12.12764        -0.76352         0.17289
| 98>    H       -9.81689        -0.69115        -0.67684
| 99>    H       -3.02218         2.52806         1.12815
|100>    H       -2.36466         3.68633         6.55643
|101>    H       -1.39254         4.02872         1.30213
|102>    H        0.72056         2.33491         3.66533
|103>    H        2.34821         0.69929         4.32372
|104>    H        3.87000        -0.12048         6.08229
|105>    H        5.10832         1.02042         5.57992
|106>    H        4.91355        -0.15909         3.36956
|107>    H        4.09652        -1.31184         4.15647
|108>    H        2.51317         3.25762         5.46067
|109>    H        3.28218         2.21166         6.65837
|110>    H        1.29171         0.88513         6.63231
|111>    H        0.80691         2.44849         6.75688
|112>    H        6.34722         1.61545         4.12429
|113>    H        7.92786         3.29125         3.20261
|114>    H        7.78210         4.01936         0.78979
|115>    H        5.47456         4.63361         0.21978
|116>    H        2.92451         5.04957         0.08081
|117>    H        0.48168         5.10739         0.39767
|118>    H        8.89013         1.93570         1.26907
|119>    H        7.22927        -0.09319         2.85950
|120>    H       11.06408        -3.22764         0.72408
|121>    H        8.83780         0.50456        -1.66834
|122>    H        6.50515         0.04110         0.08872
|123>    H        7.41603         4.16579        -4.59255
|124>    H        2.94263         3.60450        -2.45965
|125>    H        2.03356         5.30626        -3.92907
|126>    H        2.31874         6.93235        -5.75671
|127>    H        4.51494         7.21666        -6.83490
|128>    H        6.44535         5.88026        -6.08970
|129> *
|130>
|131>                          ****END OF INPUT****

CARTESIAN COORDINATES (ANGSTROEM)
---------------------------------
  C     -6.157050    3.270930    2.390350
  C     -6.211120    4.470030    3.059370
  C     -7.380330    4.993000    3.641510
  N     -8.304910    5.449680    4.146830
  C     -5.108240    5.341980    3.126850
  N     -4.224980    6.076480    3.141250
  C     -7.310540    2.471990    1.994010
  C     -6.926350    1.642240    0.899740
  C     -7.818100    0.811990    0.285770
  C     -9.151010    0.762320    0.755570
  C     -9.534910    1.576650    1.859700
  C     -8.592370    2.436860    2.469770
  C    -10.864450    1.510890    2.322420
  C    -11.774860    0.683630    1.722830
  C    -11.396970   -0.116150    0.634460
  C    -10.113270   -0.077120    0.161120
  C     -5.492510    1.846280    0.614350
  O     -4.830080    1.359960   -0.275280
  C     -5.006990    2.743790    1.695060
  C     -3.668290    2.876020    1.929660
  C     -3.028570    3.265840    3.125010
  S     -3.807360    3.133820    4.687400
  C     -2.391390    3.588980    5.488360
  C     -1.354040    3.875820    4.634840
  N     -0.173710    4.469390    5.150150
  O      0.001020    4.395930    6.356870
  O      0.572090    5.043750    4.382430
  C     -1.689110    3.660110    3.257370
  N     -0.904180    3.859250    2.171610
  C      0.475740    3.743820    2.070670
  C      1.199940    2.929280    2.901500
  C      2.601000    2.878880    2.755030
  C      3.554240    2.198520    3.500060
  C      3.173480    1.338340    4.665510
  C      4.272600    0.414150    5.216290
  N      4.785560   -0.577870    4.287370
  C      2.590330    2.223310    5.801730
  N      1.249690    1.772590    6.140610
  C      4.843300    2.555440    2.943540
  C      6.108590    2.239900    3.278980
  C      7.281080    2.731620    2.504950
  C      6.947120    3.642530    1.360970
  C      5.682650    3.970780    1.048490
  C      4.600590    3.459890    1.802700
  C      3.240090    3.665610    1.715260
  C      2.450500    4.467090    0.857390
  C      1.107010    4.496060    1.031080
  C      8.115730    1.605610    1.950790
  C      7.947060    0.301800    2.154860
  C      8.750030   -0.661800    1.417370
  S      9.641180   -1.922840    2.213840
  C     10.361580   -2.418390    0.757780
  C      9.934480   -1.670740   -0.310220
  N     10.391440   -1.902810   -1.634160
  O     11.125680   -2.851480   -1.813770
  O     10.018930   -1.135110   -2.501090
  C      8.988410   -0.662620    0.058870
  N      8.339210    0.166480   -0.836360
  C      7.065380    0.544040   -0.687820
  C      6.480030    1.500880   -1.470010
  C      5.106990    1.943220   -1.472860
  C      4.090340    1.504600   -0.659690
  C      2.737400    1.868240   -0.798020
  N      1.612820    2.090190   -0.874040
  C      4.266530    0.617690    0.413400
  N      4.361590   -0.086080    1.317930
  C      4.986320    2.959970   -2.510610
  C      6.258380    3.143000   -3.129740
  C      7.229700    2.235040   -2.500300
  O      8.416990    2.109360   -2.753050
  C      6.444750    4.045150   -4.136190
  C      5.349140    4.821540   -4.578260
  C      4.078590    4.653710   -3.955960
  C      3.915540    3.712360   -2.913410
  C      2.995350    5.436910   -4.403210
  C      3.155580    6.339270   -5.419490
  C      4.406160    6.501570   -6.033280
  C      5.479850    5.759590   -5.620510
  H     -7.513150    0.198650   -0.549120
  H     -8.904550    3.040490    3.307960
  H    -11.151260    2.131580    3.158660
  H    -12.791650    0.641830    2.083860
  H    -12.127640   -0.763520    0.172890
  H     -9.816890   -0.691150   -0.676840
  H     -3.022180    2.528060    1.128150
  H     -2.364660    3.686330    6.556430
  H     -1.392540    4.028720    1.302130
  H      0.720560    2.334910    3.665330
  H      2.348210    0.699290    4.323720
  H      3.870000   -0.120480    6.082290
  H      5.108320    1.020420    5.579920
  H      4.913550   -0.159090    3.369560
  H      4.096520   -1.311840    4.156470
  H      2.513170    3.257620    5.460670
  H      3.282180    2.211660    6.658370
  H      1.291710    0.885130    6.632310
  H      0.806910    2.448490    6.756880
  H      6.347220    1.615450    4.124290
  H      7.927860    3.291250    3.202610
  H      7.782100    4.019360    0.789790
  H      5.474560    4.633610    0.219780
  H      2.924510    5.049570    0.080810
  H      0.481680    5.107390    0.397670
  H      8.890130    1.935700    1.269070
  H      7.229270   -0.093190    2.859500
  H     11.064080   -3.227640    0.724080
  H      8.837800    0.504560   -1.668340
  H      6.505150    0.041100    0.088720
  H      7.416030    4.165790   -4.592550
  H      2.942630    3.604500   -2.459650
  H      2.033560    5.306260   -3.929070
  H      2.318740    6.932350   -5.756710
  H      4.514940    7.216660   -6.834900
  H      6.445350    5.880260   -6.089700

 Total Charge           Charge          ....    0
 Multiplicity           Mult            ....    1
 Number of Electrons    NEL             ....  546
 Basis Dimension        Dim             .... 1280

ORBITAL ENERGIES
----------------

  NO   OCC          E(Eh)            E(eV)
   0   2.0000     -88.991344     -2421.5776
   1   2.0000     -88.985640     -2421.4224
   2   2.0000     -19.251551      -523.8613
   3   2.0000     -19.249178      -523.7968
   4   2.0000     -19.246487      -523.7235
   5   2.0000     -19.237910      -523.4901
   6   2.0000     -19.212473      -522.7980
   7   2.0000     -19.206635      -522.6391
   8   2.0000     -14.659833      -398.9143
   9   2.0000     -14.648913      -398.6172
  10   2.0000     -14.472646      -393.8207
  11   2.0000     -14.464278      -393.5930
  12   2.0000     -14.416603      -392.2957
  13   2.0000     -14.409640      -392.1062
  14   2.0000     -14.409262      -392.0960
  15   2.0000     -14.405769      -392.0009
  16   2.0000     -14.372019      -391.0825
  17   2.0000     -14.360733      -390.7754
  18   2.0000     -10.361664      -281.9552
  19   2.0000     -10.359435      -281.8945
  20   2.0000     -10.358804      -281.8774
  21   2.0000     -10.351882      -281.6890
  22   2.0000     -10.349097      -281.6133
  23   2.0000     -10.342470      -281.4329
  24   2.0000     -10.338099      -281.3140
  25   2.0000     -10.337464      -281.2967
  26   2.0000     -10.335664      -281.2477
  27   2.0000     -10.335078      -281.2318
  28   2.0000     -10.334190      -281.2076
  29   2.0000     -10.333540      -281.1899
  30   2.0000     -10.329458      -281.0788
  31   2.0000     -10.325748      -280.9779
  32   2.0000     -10.321505      -280.8624
  33   2.0000     -10.320222      -280.8275
  34   2.0000     -10.316472      -280.7255
  35   2.0000     -10.312658      -280.6217
  36   2.0000     -10.311809      -280.5986
  37   2.0000     -10.310665      -280.5674
  38   2.0000     -10.309706      -280.5414
  39   2.0000     -10.298345      -280.2322
  40   2.0000     -10.298167      -280.2274
  41   2.0000     -10.298100      -280.2255
  42   2.0000     -10.297909      -280.2204
  43   2.0000     -10.294445      -280.1261
  44   2.0000     -10.294178      -280.1188
  45   2.0000     -10.294090      -280.1164
  46   2.0000     -10.293243      -280.0934
  47   2.0000     -10.293064      -280.0885
  48   2.0000     -10.292981      -280.0862
  49   2.0000     -10.292709      -280.0789
  50   2.0000     -10.292612      -280.0762
  51   2.0000     -10.291744      -280.0526
  52   2.0000     -10.291600      -280.0487
  53   2.0000     -10.289637      -279.9953
  54   2.0000     -10.284821      -279.8642
  55   2.0000     -10.283852      -279.8378
  56   2.0000     -10.283841      -279.8375
  57   2.0000     -10.283476      -279.8276
  58   2.0000     -10.283254      -279.8216
  59   2.0000     -10.282894      -279.8118
  60   2.0000     -10.282356      -279.7971
  61   2.0000     -10.281930      -279.7855
  62   2.0000     -10.281697      -279.7792
  63   2.0000     -10.281205      -279.7658
  64   2.0000     -10.280472      -279.7459
  65   2.0000     -10.273240      -279.5491
  66   2.0000     -10.272636      -279.5326
  67   2.0000     -10.272504      -279.5290
  68   2.0000     -10.271679      -279.5066
  69   2.0000     -10.268839      -279.4293
  70   2.0000     -10.268168      -279.4111
  71   2.0000     -10.266908      -279.3768
  72   2.0000     -10.260490      -279.2021
  73   2.0000     -10.258188      -279.1395
  74   2.0000     -10.255305      -279.0610
  75   2.0000     -10.254380      -279.0359
  76   2.0000     -10.251024      -278.9445
  77   2.0000     -10.250692      -278.9355
  78   2.0000      -8.087144      -220.0624
  79   2.0000      -8.080783      -219.8893
  80   2.0000      -6.056214      -164.7980
  81   2.0000      -6.052008      -164.6835
  82   2.0000      -6.049968      -164.6280
  83   2.0000      -6.049666      -164.6198
  84   2.0000      -6.045827      -164.5153
  85   2.0000      -6.043056      -164.4399
  86   2.0000      -1.331809       -36.2404
  87   2.0000      -1.320631       -35.9362
  88   2.0000      -1.151078       -31.3224
  89   2.0000      -1.139406       -31.0048
  90   2.0000      -1.127465       -30.6799
  91   2.0000      -1.121386       -30.5145
  92   2.0000      -1.082335       -29.4518
  93   2.0000      -1.073088       -29.2002
  94   2.0000      -1.015834       -27.6423
  95   2.0000      -1.015145       -27.6235
  96   2.0000      -1.011779       -27.5319
  97   2.0000      -1.005163       -27.3519
  98   2.0000      -0.996033       -27.1034
  99   2.0000      -0.992678       -27.0121
 100   2.0000      -0.988286       -26.8926
 101   2.0000      -0.987870       -26.8813
 102   2.0000      -0.977662       -26.6035
 103   2.0000      -0.966740       -26.3063
 104   2.0000      -0.965802       -26.2808
 105   2.0000      -0.955389       -25.9974
 106   2.0000      -0.943623       -25.6773
 107   2.0000      -0.940267       -25.5860
 108   2.0000      -0.926304       -25.2060
 109   2.0000      -0.922493       -25.1023
 110   2.0000      -0.918653       -24.9978
 111   2.0000      -0.912708       -24.8361
 112   2.0000      -0.904568       -24.6146
 113   2.0000      -0.894331       -24.3360
 114   2.0000      -0.891642       -24.2628
 115   2.0000      -0.882732       -24.0203
 116   2.0000      -0.877616       -23.8811
 117   2.0000      -0.876644       -23.8547
 118   2.0000      -0.869775       -23.6678
 119   2.0000      -0.865937       -23.5633
 120   2.0000      -0.855209       -23.2714
 121   2.0000      -0.839288       -22.8382
 122   2.0000      -0.835809       -22.7435
 123   2.0000      -0.825143       -22.4533
 124   2.0000      -0.823482       -22.4081
 125   2.0000      -0.822532       -22.3822
 126   2.0000      -0.819292       -22.2941
 127   2.0000      -0.804593       -21.8941
 128   2.0000      -0.795280       -21.6407
 129   2.0000      -0.778171       -21.1751
 130   2.0000      -0.771742       -21.0002
 131   2.0000      -0.764916       -20.8144
 132   2.0000      -0.757572       -20.6146
 133   2.0000      -0.755538       -20.5592
 134   2.0000      -0.752619       -20.4798
 135   2.0000      -0.737919       -20.0798
 136   2.0000      -0.725223       -19.7343
 137   2.0000      -0.721860       -19.6428
 138   2.0000      -0.708593       -19.2818
 139   2.0000      -0.706913       -19.2361
 140   2.0000      -0.701661       -19.0932
 141   2.0000      -0.698239       -19.0001
 142   2.0000      -0.696975       -18.9657
 143   2.0000      -0.692999       -18.8575
 144   2.0000      -0.684469       -18.6253
 145   2.0000      -0.681622       -18.5479
 146   2.0000      -0.679951       -18.5024
 147   2.0000      -0.673591       -18.3293
 148   2.0000      -0.671625       -18.2758
 149   2.0000      -0.668970       -18.2036
 150   2.0000      -0.661314       -17.9953
 151   2.0000      -0.652874       -17.7656
 152   2.0000      -0.645469       -17.5641
 153   2.0000      -0.642935       -17.4952
 154   2.0000      -0.641492       -17.4559
 155   2.0000      -0.639641       -17.4055
 156   2.0000      -0.636583       -17.3223
 157   2.0000      -0.634437       -17.2639
 158   2.0000      -0.628409       -17.0999
 159   2.0000      -0.626986       -17.0611
 160   2.0000      -0.624247       -16.9866
 161   2.0000      -0.610872       -16.6227
 162   2.0000      -0.603184       -16.4135
 163   2.0000      -0.602934       -16.4067
 164   2.0000      -0.602198       -16.3866
 165   2.0000      -0.600778       -16.3480
 166   2.0000      -0.593355       -16.1460
 167   2.0000      -0.591379       -16.0922
 168   2.0000      -0.589578       -16.0432
 169   2.0000      -0.587935       -15.9985
 170   2.0000      -0.577450       -15.7132
 171   2.0000      -0.571399       -15.5486
 172   2.0000      -0.566852       -15.4248
 173   2.0000      -0.565671       -15.3927
 174   2.0000      -0.558425       -15.1955
 175   2.0000      -0.554723       -15.0948
 176   2.0000      -0.550496       -14.9798
 177   2.0000      -0.546836       -14.8802
 178   2.0000      -0.543895       -14.8001
 179   2.0000      -0.543406       -14.7868
 180   2.0000      -0.542193       -14.7538
 181   2.0000      -0.540824       -14.7166
 182   2.0000      -0.538731       -14.6596
 183   2.0000      -0.534599       -14.5472
 184   2.0000      -0.532234       -14.4828
 185   2.0000      -0.531217       -14.4551
 186   2.0000      -0.530258       -14.4291
 187   2.0000      -0.528343       -14.3770
 188   2.0000      -0.526602       -14.3296
 189   2.0000      -0.519721       -14.1423
 190   2.0000      -0.518236       -14.1019
 191   2.0000      -0.517115       -14.0714
 192   2.0000      -0.516069       -14.0430
 193   2.0000      -0.513338       -13.9686
 194   2.0000      -0.512069       -13.9341
 195   2.0000      -0.510414       -13.8891
 196   2.0000      -0.508921       -13.8484
 197   2.0000      -0.507470       -13.8089
 198   2.0000      -0.506318       -13.7776
 199   2.0000      -0.505692       -13.7606
 200   2.0000      -0.503656       -13.7052
 201   2.0000      -0.500357       -13.6154
 202   2.0000      -0.498917       -13.5762
 203   2.0000      -0.497625       -13.5411
 204   2.0000      -0.494580       -13.4582
 205   2.0000      -0.492061       -13.3897
 206   2.0000      -0.488197       -13.2845
 207   2.0000      -0.484435       -13.1821
 208   2.0000      -0.482170       -13.1205
 209   2.0000      -0.481761       -13.1094
 210   2.0000      -0.476415       -12.9639
 211   2.0000      -0.473118       -12.8742
 212   2.0000      -0.471100       -12.8193
 213   2.0000      -0.466080       -12.6827
 214   2.0000      -0.462255       -12.5786
 215   2.0000      -0.460515       -12.5313
 216   2.0000      -0.456501       -12.4220
 217   2.0000      -0.453671       -12.3450
 218   2.0000      -0.451690       -12.2911
 219   2.0000      -0.445252       -12.1159
 220   2.0000      -0.444587       -12.0978
 221   2.0000      -0.443171       -12.0593
 222   2.0000      -0.442468       -12.0402
 223   2.0000      -0.440532       -11.9875
 224   2.0000      -0.439805       -11.9677
 225   2.0000      -0.436873       -11.8879
 226   2.0000      -0.435061       -11.8386
 227   2.0000      -0.434677       -11.8282
 228   2.0000      -0.433355       -11.7922
 229   2.0000      -0.431266       -11.7353
 230   2.0000      -0.429539       -11.6884
 231   2.0000      -0.426769       -11.6130
 232   2.0000      -0.424671       -11.5559
 233   2.0000      -0.421473       -11.4689
 234   2.0000      -0.420764       -11.4496
 235   2.0000      -0.420164       -11.4332
 236   2.0000      -0.419073       -11.4036
 237   2.0000      -0.416927       -11.3452
 238   2.0000      -0.409652       -11.1472
 239   2.0000      -0.408898       -11.1267
 240   2.0000      -0.403314       -10.9747
 241   2.0000      -0.398407       -10.8412
 242   2.0000      -0.397265       -10.8101
 243   2.0000      -0.393285       -10.7018
 244   2.0000      -0.391551       -10.6546
 245   2.0000      -0.389317       -10.5938
 246   2.0000      -0.387945       -10.5565
 247   2.0000      -0.386753       -10.5241
 248   2.0000      -0.381001       -10.3676
 249   2.0000      -0.379824       -10.3355
 250   2.0000      -0.376014       -10.2319
 251   2.0000      -0.375152       -10.2084
 252   2.0000      -0.373740       -10.1700
 253   2.0000      -0.371172       -10.1001
 254   2.0000      -0.367087        -9.9890
 255   2.0000      -0.359061        -9.7705
 256   2.0000      -0.358172        -9.7464
 257   2.0000      -0.352669        -9.5966
 258   2.0000      -0.336362        -9.1529
 259   2.0000      -0.333258        -9.0684
 260   2.0000      -0.328492        -8.9387
 261   2.0000      -0.320106        -8.7105
 262   2.0000      -0.318237        -8.6597
 263   2.0000      -0.312274        -8.4974
 264   2.0000      -0.310389        -8.4461
 265   2.0000      -0.300589        -8.1795
 266   2.0000      -0.299508        -8.1500
 267   2.0000      -0.293898        -7.9974
 268   2.0000      -0.289412        -7.8753
 269   2.0000      -0.286227        -7.7886
 270   2.0000      -0.281016        -7.6468
 271   2.0000      -0.263805        -7.1785
 272   2.0000      -0.213062        -5.7977
 273   0.0000      -0.091551        -2.4912
 274   0.0000      -0.073877        -2.0103
 275   0.0000      -0.061269        -1.6672
 276   0.0000      -0.055782        -1.5179
 277   0.0000      -0.049988        -1.3602

MULLIKEN ATOMIC CHARGES
-----------------------
   0 C :    0.243414
   1 C :   -0.330272
   2 C :   -0.169663
   3 N :    0.149227
   4 C :   -0.210353
   5 N :    0.161029
   6 C :    0.037584
   7 C :    0.010975
   8 C :   -0.084730
   9 C :    0.094303
  10 C :    0.094465
  11 C :   -0.081967
  12 C :   -0.018911
  13 C :    0.036162
  14 C :    0.035066
  15 C :   -0.016243
  16 C :    0.141417
  17 O :   -0.146298
  18 C :   -0.145458
  19 C :   -0.002998
  20 C :   -0.217798
  21 S :    0.200714
  22 C :   -0.067139
  23 C :    0.098352
  24 N :    0.277038
  25 O :   -0.270460
  26 O :   -0.202761
  27 C :    0.162518
  28 N :   -0.001575
  29 C :    0.174190
  30 C :   -0.106291
  31 C :    0.038998
  32 C :   -0.056234
  33 C :   -0.029338
  34 C :    0.112174
  35 N :   -0.217547
  36 C :    0.119839
  37 N :   -0.243015
  38 C :    0.119412
  39 C :   -0.192136
  40 C :    0.201714
  41 C :   -0.074686
  42 C :    0.028071
  43 C :   -0.011501
  44 C :    0.024908
  45 C :   -0.009686
  46 C :    0.014852
  47 C :   -0.048058
  48 C :   -0.032710
  49 C :   -0.214690
  50 S :    0.202585
  51 C :   -0.120246
  52 C :    0.143719
  53 N :    0.274543
  54 O :   -0.238045
  55 O :   -0.247206
  56 C :    0.100418
  57 N :   -0.002228
  58 C :    0.011997
  59 C :   -0.127535
  60 C :    0.371050
  61 C :   -0.377544
  62 C :   -0.184171
  63 N :    0.154719
  64 C :   -0.153118
  65 N :    0.127570
  66 C :    0.026236
  67 C :    0.002034
  68 C :    0.153437
  69 O :   -0.188931
  70 C :   -0.084934
  71 C :    0.096677
  72 C :    0.096762
  73 C :   -0.092856
  74 C :   -0.019122
  75 C :    0.036047
  76 C :    0.033079
  77 C :   -0.016349
  78 H :   -0.013029
  79 H :   -0.007787
  80 H :   -0.012350
  81 H :   -0.006789
  82 H :   -0.006515
  83 H :   -0.018732
  84 H :    0.025522
  85 H :    0.052993
  86 H :    0.145867
  87 H :   -0.022848
  88 H :   -0.006946
  89 H :   -0.014979
  90 H :   -0.006859
  91 H :    0.100044
  92 H :    0.087969
  93 H :    0.015694
  94 H :   -0.016425
  95 H :    0.086521
  96 H :    0.100056
  97 H :    0.009249
  98 H :    0.046886
  99 H :   -0.009150
 100 H :   -0.033914
 101 H :   -0.040622
 102 H :   -0.037415
 103 H :    0.017319
 104 H :    0.019225
 105 H :    0.047508
 106 H :    0.171579
 107 H :    0.048344
 108 H :   -0.014640
 109 H :   -0.014428
 110 H :   -0.014043
 111 H :   -0.005989
 112 H :   -0.005135
 113 H :   -0.018671
Sum of atomic charges:   -0.0000000

LOEWDIN ATOMIC CHARGES
----------------------
   0 C :    0.060610
   1 C :   -0.154560
   2 C :   -0.020380
   3 N :   -0.057320
   4 C :   -0.032914
   5 N :   -0.059597
   6 C :   -0.022522
   7 C :   -0.055757
   8 C :    0.030571
   9 C :   -0.009850
  10 C :   -0.006409
  11 C :    0.013897
  12 C :   -0.007244
  13 C :   -0.014625
  14 C :   -0.014833
  15 C :   -0.009787
  16 C :    0.081503
  17 O :   -0.148794
  18 C :   -0.110728
  19 C :    0.040472
  20 C :   -0.224121
  21 S :    0.516843
  22 C :   -0.112054
  23 C :   -0.089473
  24 N :    0.293080
  25 O :   -0.223250
  26 O :   -0.167526
  27 C :    0.045063
  28 N :    0.062357
  29 C :    0.022768
  30 C :   -0.044293
  31 C :   -0.010052
  32 C :   -0.041863
  33 C :   -0.052558
  34 C :    0.014049
  35 N :   -0.121002
  36 C :    0.028626
  37 N :   -0.123128
  38 C :   -0.010883
  39 C :    0.051776
  40 C :   -0.031071
  41 C :   -0.034460
  42 C :   -0.019065
  43 C :   -0.038205
  44 C :   -0.029725
  45 C :   -0.000928
  46 C :   -0.027317
  47 C :    0.020772
  48 C :   -0.067216
  49 C :   -0.190705
  50 S :    0.507957
  51 C :   -0.148713
  52 C :   -0.084789
  53 N :    0.288014
  54 O :   -0.200243
  55 O :   -0.203576
  56 C :   -0.017406
  57 N :    0.078375
  58 C :    0.126355
  59 C :   -0.153363
  60 C :    0.081702
  61 C :   -0.154558
  62 C :   -0.012892
  63 N :   -0.063348
  64 C :    0.011304
  65 N :   -0.067396
  66 C :   -0.023292
  67 C :   -0.054052
  68 C :    0.085140
  69 O :   -0.171153
  70 C :    0.030049
  71 C :   -0.010386
  72 C :   -0.008459
  73 C :    0.013308
  74 C :   -0.007971
  75 C :   -0.014599
  76 C :   -0.014298
  77 C :   -0.009601
  78 H :    0.038886
  79 H :    0.038055
  80 H :    0.033668
  81 H :    0.032383
  82 H :    0.032111
  83 H :    0.031385
  84 H :    0.046667
  85 H :    0.042968
  86 H :    0.095550
  87 H :    0.022638
  88 H :    0.027185
  89 H :    0.015263
  90 H :    0.006972
  91 H :    0.029702
  92 H :    0.056316
  93 H :    0.018930
  94 H :    0.000750
  95 H :    0.050608
  96 H :    0.043030
  97 H :    0.032569
  98 H :    0.064717
  99 H :    0.023707
 100 H :    0.029796
 101 H :    0.025197
 102 H :    0.024983
 103 H :    0.029669
 104 H :    0.034054
 105 H :    0.041175
 106 H :    0.084254
 107 H :    0.041283
 108 H :    0.038642
 109 H :    0.037085
 110 H :    0.032871
 111 H :    0.032732
 112 H :    0.032466
 113 H :    0.031452

  Mayer bond orders larger than 0.100000
B(  0-C ,  1-C ) :   1.6290 B(  0-C ,  6-C ) :   1.0026 B(  0-C , 18-C ) :   1.0600
B(  1-C ,  2-C ) :   1.1351 B(  1-C ,  4-C ) :   1.1605 B(  2-C ,  3-N ) :   2.9881
B(  4-C ,  5-N ) :   3.0218 B(  6-C ,  7-C ) :   1.2134 B(  6-C , 11-C ) :   1.4603
B(  7-C ,  8-C ) :   1.4775 B(  7-C , 16-C ) :   0.9190 B(  8-C ,  9-C ) :   1.1798
B(  8-C , 78-H ) :   1.0172 B(  9-C , 10-C ) :   1.2598 B(  9-C , 15-C ) :   1.2454
B( 10-C , 11-C ) :   1.1982 B( 10-C , 12-C ) :   1.2419 B( 11-C , 79-H ) :   0.9956
B( 12-C , 13-C ) :   1.4868 B( 12-C , 80-H ) :   0.9984 B( 13-C , 14-C ) :   1.2608
B( 13-C , 81-H ) :   0.9890 B( 14-C , 15-C ) :   1.4874 B( 14-C , 82-H ) :   0.9892
B( 15-C , 83-H ) :   0.9982 B( 16-C , 17-O ) :   2.2701 B( 16-C , 18-C ) :   0.9463
B( 18-C , 19-C ) :   1.6012 B( 19-C , 20-C ) :   1.1879 B( 19-C , 84-H ) :   0.9388
B( 20-C , 21-S ) :   1.0901 B( 20-C , 27-C ) :   1.3466 B( 21-S , 22-C ) :   1.2537
B( 22-C , 23-C ) :   1.4979 B( 22-C , 85-H ) :   0.9523 B( 23-C , 24-N ) :   0.9357
B( 23-C , 27-C ) :   1.2125 B( 24-N , 25-O ) :   1.4783 B( 24-N , 26-O ) :   1.5431
B( 25-O , 26-O ) :   0.2490 B( 27-C , 28-N ) :   1.2796 B( 28-N , 29-C ) :   1.0319
B( 28-N , 86-H ) :   0.8985 B( 29-C , 30-C ) :   1.4863 B( 29-C , 46-C ) :   1.1471
B( 30-C , 31-C ) :   1.1674 B( 30-C , 87-H ) :   0.9730 B( 31-C , 32-C ) :   1.5014
B( 31-C , 44-C ) :   1.1361 B( 32-C , 33-C ) :   1.0382 B( 32-C , 38-C ) :   1.0859
B( 33-C , 34-C ) :   1.0261 B( 33-C , 36-C ) :   0.9940 B( 33-C , 88-H ) :   0.8909
B( 34-C , 35-N ) :   1.1417 B( 34-C , 89-H ) :   0.9405 B( 34-C , 90-H ) :   0.9284
B( 35-N , 91-H ) :   0.9380 B( 35-N , 92-H ) :   0.9670 B( 36-C , 37-N ) :   1.0708
B( 36-C , 93-H ) :   0.9460 B( 36-C , 94-H ) :   0.9372 B( 37-N , 95-H ) :   0.9701
B( 37-N , 96-H ) :   0.9444 B( 38-C , 39-C ) :   1.6489 B( 38-C , 43-C ) :   1.0586
B( 39-C , 40-C ) :   0.9940 B( 39-C , 97-H ) :   0.9631 B( 40-C , 41-C ) :   0.9747
B( 40-C , 47-C ) :   0.9581 B( 40-C , 98-H ) :   0.8384 B( 41-C , 42-C ) :   1.7255
B( 41-C , 99-H ) :   0.9702 B( 42-C , 43-C ) :   1.1423 B( 42-C ,100-H ) :   0.9827
B( 43-C , 44-C ) :   1.4294 B( 44-C , 45-C ) :   1.1378 B( 45-C , 46-C ) :   1.6036
B( 45-C ,101-H ) :   0.9912 B( 46-C ,102-H ) :   0.9819 B( 47-C , 48-C ) :   1.9130
B( 47-C ,103-H ) :   0.9650 B( 48-C , 49-C ) :   0.9875 B( 48-C ,104-H ) :   0.9248
B( 49-C , 50-S ) :   1.1463 B( 49-C , 56-C ) :   1.5382 B( 50-S , 51-C ) :   1.2217
B( 51-C , 52-C ) :   1.5063 B( 51-C ,105-H ) :   0.9581 B( 52-C , 53-N ) :   0.9272
B( 52-C , 56-C ) :   1.2250 B( 53-N , 54-O ) :   1.5510 B( 53-N , 55-O ) :   1.5010
B( 54-O , 55-O ) :   0.2675 B( 56-C , 57-N ) :   1.1164 B( 57-N , 58-C ) :   1.3652
B( 57-N ,106-H ) :   0.8340 B( 58-C , 59-C ) :   1.4409 B( 58-C ,107-H ) :   0.9239
B( 59-C , 60-C ) :   1.1158 B( 59-C , 68-C ) :   0.9801 B( 60-C , 61-C ) :   1.6045
B( 60-C , 66-C ) :   0.9900 B( 61-C , 62-C ) :   1.1610 B( 61-C , 64-C ) :   1.1626
B( 62-C , 63-N ) :   2.9315 B( 64-C , 65-N ) :   2.8763 B( 66-C , 67-C ) :   1.2142
B( 66-C , 73-C ) :   1.4615 B( 67-C , 68-C ) :   0.9569 B( 67-C , 70-C ) :   1.4722
B( 68-C , 69-O ) :   2.1340 B( 69-O ,106-H ) :   0.1015 B( 70-C , 71-C ) :   1.1714
B( 70-C ,108-H ) :   1.0171 B( 71-C , 72-C ) :   1.2611 B( 71-C , 77-C ) :   1.2463
B( 72-C , 73-C ) :   1.1925 B( 72-C , 74-C ) :   1.2424 B( 73-C ,109-H ) :   0.9894
B( 74-C , 75-C ) :   1.4849 B( 74-C ,110-H ) :   0.9973 B( 75-C , 76-C ) :   1.2637
B( 75-C ,111-H ) :   0.9884 B( 76-C , 77-C ) :   1.4851 B( 76-C ,112-H ) :   0.9894
B( 77-C ,113-H ) :   0.9974

-----------------------------------------------------------------------------
         ABSORPTION SPECTRUM VIA TRANSITION ELECTRIC DIPOLE MOMENTS
-----------------------------------------------------------------------------
State   Energy  Wavelength   fosc         T2         TX        TY        TZ
        (cm-1)    (nm)                  (au**2)     (au)      (au)      (au)
-----------------------------------------------------------------------------
   0   12334.2    810.8   0.116829111   3.11828  -1.72304   0.35670  -0.14888
   1   12741.9    784.8   0.044112578   1.13973   0.37366   0.17767   0.98415
   2   14653.3    682.4   0.133441258   2.99800   1.55547   0.46436  -0.60240
   3   17675.3    565.8   0.155185606   2.89041  -1.56541   0.17832   0.63882
   4   20091.4    497.7   0.019870624   0.32559   0.13443   0.20489  -0.51531
   5   20942.3    477.5   0.642351403  10.09772  -3.13380   0.12797  -0.51050
   6   22182.4    450.8   0.013282989   0.19713   0.35009  -0.26730  -0.05589
   7   23885.2    418.7   0.038064665   0.52465  -0.66995  -0.21785  -0.16839
   8   25092.6    398.5   0.099944873   1.31127   1.05263  -0.44331   0.08195
   9   26266.7    380.7   0.129819156   1.62708   1.20004   0.41329  -0.12715
  10   26520.1    377.1   0.042934060   0.53297   0.33660  -0.64438  -0.06671
  11   27010.1    370.2   0.003411153   0.04158  -0.08222  -0.17975  -0.05007
  12   27313.0    366.1   0.086867427   1.04704  -0.80744   0.10558   0.61963
  13   27586.9    362.5   0.046059384   0.54966  -0.63603   0.08733  -0.37080
  14   28077.7    356.2   0.145484257   1.70581   1.07800  -0.50659   0.53580
  15   28232.4    354.2   0.042471685   0.49525  -0.52964   0.45403  -0.09271
  16   28487.9    351.0   0.027504901   0.31785  -0.56128   0.03379   0.04091
  17   29142.9    343.1   0.031468350   0.35548   0.13605   0.55338  -0.17533
  18   29283.9    341.5   0.058877309   0.66190  -0.36268   0.48697  -0.54151
  19   29308.4    341.2   0.029911715   0.33599   0.32649   0.37079   0.30317
  20   29738.4    336.3   0.003601526   0.03987  -0.17919  -0.07979  -0.03732
  21   29864.1    334.9   0.119048883   1.31235   0.34285  -0.75039   0.79481
  22   30368.4    329.3   0.018466967   0.20019   0.21232  -0.25579   0.29947
  23   30603.7    326.8   0.116869723   1.25720   0.07306  -0.41971   1.03716
  24   30948.8    323.1   0.021737479   0.23123   0.05588   0.34157   0.33382
  25   31014.8    322.4   0.035834320   0.38037  -0.43664   0.42528   0.09406
  26   31248.8    320.0   0.261637793   2.75640   1.40570   0.62562   0.62371
  27   32032.7    312.2   0.061176093   0.62873   0.31632  -0.52455   0.50350
  28   32222.7    310.3   0.141027111   1.44084   0.19516   0.69683  -0.95770
  29   32490.0    307.8   0.052763469   0.53464  -0.55715   0.02692   0.47276
  30   32586.9    306.9   0.006406682   0.06472  -0.11743  -0.15625   0.16285
  31   33364.6    299.7   0.089621757   0.88431  -0.68871  -0.64021   0.01042
  32   33535.6    298.2   0.444655590   4.36509   1.27365   1.35102   0.95795
  33   33831.0    295.6   0.063358994   0.61655  -0.37323   0.66858  -0.17392
  34   33925.9    294.8   0.004640829   0.04503   0.12418  -0.07564  -0.15457
  35   34153.4    292.8   0.092480842   0.89144   0.37509  -0.66977   0.54969
  36   34303.8    291.5   0.033392618   0.32047   0.56433   0.04458  -0.00344
  37   34391.2    290.8   0.384875247   3.68424   1.46824   1.05634   0.64238
  38   34548.9    289.4   0.095502960   0.91004  -0.89008  -0.33516   0.07387
  39   34638.9    288.7   0.058458125   0.55559  -0.11547   0.61058   0.41164
  40   34705.1    288.1   0.041731618   0.39587  -0.17155   0.31104  -0.51932
  41   35067.9    285.2   0.024699992   0.23188  -0.26667   0.27995   0.28704
  42   35415.7    282.4   0.065456617   0.60846  -0.63532   0.42797   0.14721
  43   35670.6    280.3   0.005994065   0.05532  -0.08818   0.21781  -0.01012
  44   35862.4    278.8   0.058219498   0.53445  -0.11974   0.62739  -0.35566
  45   36111.7    276.9   0.443063540   4.03918  -0.32367  -1.40751   1.39762
  46   36316.2    275.4   0.013321729   0.12076  -0.04074  -0.21486   0.27007
  47   36328.5    275.3   0.116939442   1.05971   0.00402   0.72480  -0.73100
  48   36722.6    272.3   0.008971482   0.08043   0.00359  -0.19028   0.21026
  49   36817.1    271.6   0.008497391   0.07598  -0.09008   0.18155  -0.18684
  50   36989.6    270.3   0.216044986   1.92283  -0.19382  -0.87483   1.05827
  51   37433.4    267.1   0.005326321   0.04684   0.16576  -0.12616   0.05873
  52   37582.2    266.1   0.021585591   0.18908   0.02373  -0.23208   0.36696
  53   37740.7    265.0   0.004807464   0.04194  -0.12297   0.01879   0.16266
  54   38003.5    263.1   0.118805558   1.02917   0.71516  -0.66427  -0.27651
  55   38033.2    262.9   0.074018625   0.64070  -0.32393   0.18548   0.70807
  56   38180.3    261.9   0.033195840   0.28623   0.40538   0.16793  -0.30610
  57   38292.6    261.1   0.020056700   0.17243   0.06999  -0.37564   0.16257
  58   38494.9    259.8   0.083629460   0.71521   0.78356   0.06114   0.31224
  59   38688.2    258.5   0.001576966   0.01342  -0.03707   0.06509   0.08836
  60   38700.0    258.4   0.011036632   0.09389  -0.06646  -0.29666  -0.03825
  61   38894.8    257.1   0.013637993   0.11543   0.31996   0.10643  -0.04166
  62   39008.5    256.4   0.129148387   1.08995  -1.00206  -0.27074  -0.11194
  63   39400.6    253.8   0.218758207   1.82783   1.34824  -0.09617   0.02900
  64   39643.6    252.2   0.042201247   0.35045   0.07037  -0.46934  -0.35386
  65   39731.2    251.7   0.008019850   0.06645  -0.20719   0.13662  -0.06970
  66   40094.3    249.4   0.011838773   0.09721   0.09236   0.29779  -0.00012
  67   40164.2    249.0   0.081584003   0.66872   0.34028  -0.30634   0.67756
  68   40225.0    248.6   0.021136150   0.17298   0.30446  -0.17820  -0.22030
  69   40303.6    248.1   0.087096758   0.71143  -0.67462   0.36584  -0.34998

FINAL SINGLE POINT ENERGY     -4098.595164858284

DIPOLE MOMENT
-------------
                                X             Y             Z
Electronic contribution:     -4.72291      -1.33996     -10.02594
Nuclear contribution   :      5.05995       0.42746       9.99328
                        -----------------------------------------
Total Dipole Moment    :      0.33704      -0.91249      -0.03266
                        -----------------------------------------
Magnitude (a.u.)       :      0.97330
Magnitude (Debye)      :      2.47392

Rotational constants in cm-1:     0.001361     0.000360     0.000333
Rotational constants in MHz :    40.810216    10.797937     9.997542

                             ****ORCA TERMINATED NORMALLY****
TOTAL RUN TIME: 0 days 0 hours 15 minutes 24 seconds 633 msec
