                         Program Version 4.2.0 -  RELEASE  -
|  1> # ORCA input file
|  2> # SCF done       -197.621703719238          0.000853154395
|  3> ! CAM-B3LYP def2-SVP def2/J RIJCOSX Grid4 TightSCF
|  4> %maxcore 5000
|  5> %tddft
|  6>     Mode sTDDFT
|  7>     Ethresh 5.0
|  8>     maxcore 5000
|  9> end
| 10>
| 11> %pal
| 12>   nprocs 6
| 13>   end
| 14> * xyz 0 1
| 15>    C        0.13705         3.97256        -1.32177
| 16>    C        0.94121         3.31563        -2.20887
| 17>    C        1.95307         3.94053        -2.96786
| 18>    N        2.76578         4.42370        -3.61690
| 19>    C        0.86941         1.91671        -2.38848
| 20>    N        0.85977         0.77299        -2.47861
| 21>    C        0.27300         5.34633        -0.85966
| 22>    C       -0.50777         5.51327         0.32462
| 23>    C       -0.59289         6.71774         0.96387
| 24>    C        0.11657         7.82328         0.44670
| 25>    C        0.92931         7.65282        -0.71287
| 26>    C        0.98923         6.40002        -1.36344
| 27>    C        1.65473         8.75800        -1.20281
| 28>    C        1.56292         9.97884        -0.59224
| 29>    C        0.74304        10.15181         0.53356
| 30>    C        0.04024         9.09581         1.04592
| 31>    C       -1.17147         4.24502         0.66367
| 32>    O       -1.84195         3.97124         1.62809
| 33>    C       -0.91047         3.36337        -0.51841
| 34>    C       -1.74289         2.33436        -0.79179
| 35>    C       -1.91258         1.70790        -2.06688
| 36>    N       -1.75539         2.39897        -3.18168
| 37>    C       -2.12937         1.57621        -4.18722
| 38>    C       -2.58089         0.28113        -3.66524
| 39>    C       -2.98389        -0.61626        -4.76253
| 40>    O       -3.43122        -1.73635        -4.69639
| 41>    C       -2.70711         0.20980        -5.95860
| 42>    C       -2.19955         1.54532        -5.55482
| 43>    N       -1.92519         2.30207        -6.64673
| 44>    C       -2.20519         1.53876        -7.67088
| 45>    C       -2.68819         0.21310        -7.31241
| 46>    C       -2.41617         0.33405        -2.30532
| 47>    C       -2.64234        -0.70994        -1.36796
| 48>    C       -2.12488        -0.77582        -0.12099
| 49>    C       -2.36071        -1.85547         0.77260
| 50>    S       -3.44517        -3.15539         0.41762
| 51>    C       -3.12205        -3.89266         1.94523
| 52>    C       -3.77500        -5.14771         2.31754
| 53>    O       -3.60822        -5.72749         3.35807
| 54>    O       -4.59403        -5.58692         1.34997
| 55>    C       -2.22145        -3.18266         2.69893
| 56>    C       -1.78433        -2.02573         2.03638
| 57>    O       -0.87393        -1.09922         2.45992
| 58>    C       -0.30799        -1.12781         3.64374
| 59>    N       -0.55982        -2.00238         4.59456
| 60>    C        0.22343        -1.64414         5.63658
| 61>    C        1.02320        -0.45845         5.31114
| 62>    C        1.88739        -0.07977         6.45025
| 63>    O        2.68599         0.82467         6.51565
| 64>    C        1.53412        -1.09444         7.45839
| 65>    C        0.51984        -2.03042         6.91822
| 66>    N        0.20135        -2.97075         7.83887
| 67>    C        0.93302        -2.68582         8.88872
| 68>    C        1.78769        -1.52855         8.71972
| 69>    C        0.70307        -0.10624         4.02650
| 70>    C        1.23090         0.98140         3.27954
| 71>    C        1.07894         1.18353         1.94973
| 72>    C        1.69273         2.24792         1.22970
| 73>    C        1.97164         3.50259         1.68393
| 74>    C        2.73814         4.51458         0.97503
| 75>    C        3.53751         4.31120        -0.12017
| 76>    C        4.22514         5.34862        -0.78486
| 77>    N        4.78047         6.16764        -1.36601
| 78>    C        3.79458         3.05635        -0.71208
| 79>    N        4.06929         2.06210        -1.21638
| 80>    C        2.58196         5.77763         1.68415
| 81>    C        1.73008         5.56643         2.80367
| 82>    C        1.34842         4.14516         2.88138
| 83>    O        0.64055         3.63717         3.71881
| 84>    C        1.39579         6.57557         3.65987
| 85>    C        1.92663         7.86597         3.44188
| 86>    C        2.80836         8.07888         2.34361
| 87>    C        3.11980         7.01878         1.46363
| 88>    C        3.35723         9.36291         2.15228
| 89>    C        3.04199        10.39162         2.99731
| 90>    C        2.16251        10.18457         4.07053
| 91>    C        1.61935         8.94796         4.29007
| 92>    H       -1.20033         6.82588         1.84996
| 93>    H        1.58646         6.30631        -2.25729
| 94>    H        2.28280         8.61805        -2.06983
| 95>    H        2.11798        10.82100        -0.97683
| 96>    H        0.67253        11.12540         0.99435
| 97>    H       -0.58617         9.22135         1.91655
| 98>    H       -2.42518         2.03594        -0.00272
| 99>    H       -2.07898         1.90726        -8.67423
|100>    H       -2.96320        -0.55683        -8.00563
|101>    H       -3.23636        -1.53710        -1.73741
|102>    H       -1.46758         0.00098         0.24499
|103>    H       -5.01273        -6.42068         1.61407
|104>    H       -1.89598        -3.47973         3.67944
|105>    H        0.86897        -3.29302         9.77497
|106>    H        2.45900        -1.13534         9.45733
|107>    H        1.85454         1.64645         3.85972
|108>    H        0.56498         0.44300         1.35171
|109>    H        1.94792         2.00515         0.20388
|110>    H        0.74491         6.38462         4.50015
|111>    H        3.78253         7.21748         0.63728
|112>    H        4.03374         9.51575         1.32456
|113>    H        3.46949        11.37116         2.84431
|114>    H        1.92205        11.00832         4.72589
|115>    H        0.94906         8.78018         5.12043
|116> *
|117>
|118>                          ****END OF INPUT****

CARTESIAN COORDINATES (ANGSTROEM)
---------------------------------
  C      0.137050    3.972560   -1.321770
  C      0.941210    3.315630   -2.208870
  C      1.953070    3.940530   -2.967860
  N      2.765780    4.423700   -3.616900
  C      0.869410    1.916710   -2.388480
  N      0.859770    0.772990   -2.478610
  C      0.273000    5.346330   -0.859660
  C     -0.507770    5.513270    0.324620
  C     -0.592890    6.717740    0.963870
  C      0.116570    7.823280    0.446700
  C      0.929310    7.652820   -0.712870
  C      0.989230    6.400020   -1.363440
  C      1.654730    8.758000   -1.202810
  C      1.562920    9.978840   -0.592240
  C      0.743040   10.151810    0.533560
  C      0.040240    9.095810    1.045920
  C     -1.171470    4.245020    0.663670
  O     -1.841950    3.971240    1.628090
  C     -0.910470    3.363370   -0.518410
  C     -1.742890    2.334360   -0.791790
  C     -1.912580    1.707900   -2.066880
  N     -1.755390    2.398970   -3.181680
  C     -2.129370    1.576210   -4.187220
  C     -2.580890    0.281130   -3.665240
  C     -2.983890   -0.616260   -4.762530
  O     -3.431220   -1.736350   -4.696390
  C     -2.707110    0.209800   -5.958600
  C     -2.199550    1.545320   -5.554820
  N     -1.925190    2.302070   -6.646730
  C     -2.205190    1.538760   -7.670880
  C     -2.688190    0.213100   -7.312410
  C     -2.416170    0.334050   -2.305320
  C     -2.642340   -0.709940   -1.367960
  C     -2.124880   -0.775820   -0.120990
  C     -2.360710   -1.855470    0.772600
  S     -3.445170   -3.155390    0.417620
  C     -3.122050   -3.892660    1.945230
  C     -3.775000   -5.147710    2.317540
  O     -3.608220   -5.727490    3.358070
  O     -4.594030   -5.586920    1.349970
  C     -2.221450   -3.182660    2.698930
  C     -1.784330   -2.025730    2.036380
  O     -0.873930   -1.099220    2.459920
  C     -0.307990   -1.127810    3.643740
  N     -0.559820   -2.002380    4.594560
  C      0.223430   -1.644140    5.636580
  C      1.023200   -0.458450    5.311140
  C      1.887390   -0.079770    6.450250
  O      2.685990    0.824670    6.515650
  C      1.534120   -1.094440    7.458390
  C      0.519840   -2.030420    6.918220
  N      0.201350   -2.970750    7.838870
  C      0.933020   -2.685820    8.888720
  C      1.787690   -1.528550    8.719720
  C      0.703070   -0.106240    4.026500
  C      1.230900    0.981400    3.279540
  C      1.078940    1.183530    1.949730
  C      1.692730    2.247920    1.229700
  C      1.971640    3.502590    1.683930
  C      2.738140    4.514580    0.975030
  C      3.537510    4.311200   -0.120170
  C      4.225140    5.348620   -0.784860
  N      4.780470    6.167640   -1.366010
  C      3.794580    3.056350   -0.712080
  N      4.069290    2.062100   -1.216380
  C      2.581960    5.777630    1.684150
  C      1.730080    5.566430    2.803670
  C      1.348420    4.145160    2.881380
  O      0.640550    3.637170    3.718810
  C      1.395790    6.575570    3.659870
  C      1.926630    7.865970    3.441880
  C      2.808360    8.078880    2.343610
  C      3.119800    7.018780    1.463630
  C      3.357230    9.362910    2.152280
  C      3.041990   10.391620    2.997310
  C      2.162510   10.184570    4.070530
  C      1.619350    8.947960    4.290070
  H     -1.200330    6.825880    1.849960
  H      1.586460    6.306310   -2.257290
  H      2.282800    8.618050   -2.069830
  H      2.117980   10.821000   -0.976830
  H      0.672530   11.125400    0.994350
  H     -0.586170    9.221350    1.916550
  H     -2.425180    2.035940   -0.002720
  H     -2.078980    1.907260   -8.674230
  H     -2.963200   -0.556830   -8.005630
  H     -3.236360   -1.537100   -1.737410
  H     -1.467580    0.000980    0.244990
  H     -5.012730   -6.420680    1.614070
  H     -1.895980   -3.479730    3.679440
  H      0.868970   -3.293020    9.774970
  H      2.459000   -1.135340    9.457330
  H      1.854540    1.646450    3.859720
  H      0.564980    0.443000    1.351710
  H      1.947920    2.005150    0.203880
  H      0.744910    6.384620    4.500150
  H      3.782530    7.217480    0.637280
  H      4.033740    9.515750    1.324560
  H      3.469490   11.371160    2.844310
  H      1.922050   11.008320    4.725890
  H      0.949060    8.780180    5.120430

 Total Charge           Charge          ....    0
 Multiplicity           Mult            ....    1
 Number of Electrons    NEL             ....  518
 Basis Dimension        Dim             .... 1202

ORBITAL ENERGIES
----------------

  NO   OCC          E(Eh)            E(eV)
   0   2.0000     -88.975911     -2421.1576
   1   2.0000     -19.327092      -525.9169
   2   2.0000     -19.266105      -524.2574
   3   2.0000     -19.228152      -523.2246
   4   2.0000     -19.219213      -522.9814
   5   2.0000     -19.217931      -522.9465
   6   2.0000     -19.214845      -522.8625
   7   2.0000     -19.204780      -522.5886
   8   2.0000     -14.423863      -392.4933
   9   2.0000     -14.423080      -392.4720
  10   2.0000     -14.422053      -392.4440
  11   2.0000     -14.419579      -392.3767
  12   2.0000     -14.415183      -392.2571
  13   2.0000     -14.413772      -392.2187
  14   2.0000     -14.413516      -392.2117
  15   2.0000     -14.410804      -392.1379
  16   2.0000     -10.418756      -283.5088
  17   2.0000     -10.410775      -283.2916
  18   2.0000     -10.379949      -282.4528
  19   2.0000     -10.378060      -282.4014
  20   2.0000     -10.375655      -282.3359
  21   2.0000     -10.369734      -282.1748
  22   2.0000     -10.363642      -282.0090
  23   2.0000     -10.355476      -281.7868
  24   2.0000     -10.352921      -281.7173
  25   2.0000     -10.347753      -281.5767
  26   2.0000     -10.346733      -281.5489
  27   2.0000     -10.342899      -281.4446
  28   2.0000     -10.342167      -281.4247
  29   2.0000     -10.338594      -281.3274
  30   2.0000     -10.335492      -281.2430
  31   2.0000     -10.335205      -281.2352
  32   2.0000     -10.330444      -281.1057
  33   2.0000     -10.329412      -281.0776
  34   2.0000     -10.324810      -280.9524
  35   2.0000     -10.324331      -280.9393
  36   2.0000     -10.323561      -280.9184
  37   2.0000     -10.321386      -280.8592
  38   2.0000     -10.320943      -280.8471
  39   2.0000     -10.320608      -280.8380
  40   2.0000     -10.320175      -280.8262
  41   2.0000     -10.317751      -280.7603
  42   2.0000     -10.316282      -280.7203
  43   2.0000     -10.314394      -280.6689
  44   2.0000     -10.312068      -280.6056
  45   2.0000     -10.311887      -280.6007
  46   2.0000     -10.309807      -280.5441
  47   2.0000     -10.309137      -280.5259
  48   2.0000     -10.306381      -280.4509
  49   2.0000     -10.305576      -280.4290
  50   2.0000     -10.304795      -280.4077
  51   2.0000     -10.304583      -280.4020
  52   2.0000     -10.304196      -280.3914
  53   2.0000     -10.303854      -280.3821
  54   2.0000     -10.302008      -280.3319
  55   2.0000     -10.301794      -280.3261
  56   2.0000     -10.300605      -280.2937
  57   2.0000     -10.299786      -280.2714
  58   2.0000     -10.299382      -280.2604
  59   2.0000     -10.298574      -280.2384
  60   2.0000     -10.298154      -280.2270
  61   2.0000     -10.297691      -280.2144
  62   2.0000     -10.296403      -280.1794
  63   2.0000     -10.295954      -280.1672
  64   2.0000     -10.295721      -280.1608
  65   2.0000     -10.295100      -280.1439
  66   2.0000     -10.294533      -280.1285
  67   2.0000     -10.292288      -280.0674
  68   2.0000     -10.292243      -280.0662
  69   2.0000     -10.292010      -280.0598
  70   2.0000     -10.291967      -280.0586
  71   2.0000     -10.291918      -280.0573
  72   2.0000     -10.291279      -280.0399
  73   2.0000     -10.291057      -280.0339
  74   2.0000     -10.290474      -280.0180
  75   2.0000     -10.290377      -280.0154
  76   2.0000     -10.289890      -280.0022
  77   2.0000      -8.071005      -219.6232
  78   2.0000      -6.040159      -164.3611
  79   2.0000      -6.036065      -164.2497
  80   2.0000      -6.033305      -164.1746
  81   2.0000      -1.242126       -33.8000
  82   2.0000      -1.192667       -32.4541
  83   2.0000      -1.143708       -31.1219
  84   2.0000      -1.134475       -30.8706
  85   2.0000      -1.134191       -30.8629
  86   2.0000      -1.130353       -30.7585
  87   2.0000      -1.096871       -29.8474
  88   2.0000      -1.089212       -29.6390
  89   2.0000      -1.088671       -29.6242
  90   2.0000      -1.069165       -29.0935
  91   2.0000      -1.066043       -29.0085
  92   2.0000      -1.026410       -27.9300
  93   2.0000      -1.017430       -27.6857
  94   2.0000      -1.006812       -27.3967
  95   2.0000      -1.005187       -27.3525
  96   2.0000      -1.000285       -27.2191
  97   2.0000      -0.997793       -27.1513
  98   2.0000      -0.993444       -27.0330
  99   2.0000      -0.980597       -26.6834
 100   2.0000      -0.974132       -26.5075
 101   2.0000      -0.947380       -25.7795
 102   2.0000      -0.946681       -25.7605
 103   2.0000      -0.938897       -25.5487
 104   2.0000      -0.931916       -25.3587
 105   2.0000      -0.929283       -25.2871
 106   2.0000      -0.924550       -25.1583
 107   2.0000      -0.910129       -24.7659
 108   2.0000      -0.904318       -24.6077
 109   2.0000      -0.888900       -24.1882
 110   2.0000      -0.887936       -24.1620
 111   2.0000      -0.884270       -24.0622
 112   2.0000      -0.883521       -24.0418
 113   2.0000      -0.879030       -23.9196
 114   2.0000      -0.870397       -23.6847
 115   2.0000      -0.863124       -23.4868
 116   2.0000      -0.860750       -23.4222
 117   2.0000      -0.838758       -22.8238
 118   2.0000      -0.835278       -22.7291
 119   2.0000      -0.831822       -22.6350
 120   2.0000      -0.825589       -22.4654
 121   2.0000      -0.817251       -22.2385
 122   2.0000      -0.799785       -21.7633
 123   2.0000      -0.795698       -21.6521
 124   2.0000      -0.775352       -21.0984
 125   2.0000      -0.770868       -20.9764
 126   2.0000      -0.765605       -20.8332
 127   2.0000      -0.763551       -20.7773
 128   2.0000      -0.760713       -20.7000
 129   2.0000      -0.753139       -20.4940
 130   2.0000      -0.742860       -20.2142
 131   2.0000      -0.731468       -19.9043
 132   2.0000      -0.726154       -19.7597
 133   2.0000      -0.714130       -19.4325
 134   2.0000      -0.707675       -19.2568
 135   2.0000      -0.707055       -19.2400
 136   2.0000      -0.702920       -19.1274
 137   2.0000      -0.697582       -18.9822
 138   2.0000      -0.687639       -18.7116
 139   2.0000      -0.684320       -18.6213
 140   2.0000      -0.681459       -18.5434
 141   2.0000      -0.678109       -18.4523
 142   2.0000      -0.669514       -18.2184
 143   2.0000      -0.661661       -18.0047
 144   2.0000      -0.659672       -17.9506
 145   2.0000      -0.652337       -17.7510
 146   2.0000      -0.645558       -17.5665
 147   2.0000      -0.642029       -17.4705
 148   2.0000      -0.638550       -17.3758
 149   2.0000      -0.630783       -17.1645
 150   2.0000      -0.628734       -17.1087
 151   2.0000      -0.622554       -16.9406
 152   2.0000      -0.617642       -16.8069
 153   2.0000      -0.613753       -16.7011
 154   2.0000      -0.610190       -16.6041
 155   2.0000      -0.607807       -16.5393
 156   2.0000      -0.603754       -16.4290
 157   2.0000      -0.600163       -16.3313
 158   2.0000      -0.597267       -16.2525
 159   2.0000      -0.593925       -16.1615
 160   2.0000      -0.583396       -15.8750
 161   2.0000      -0.580053       -15.7840
 162   2.0000      -0.573759       -15.6128
 163   2.0000      -0.568062       -15.4577
 164   2.0000      -0.567477       -15.4418
 165   2.0000      -0.562456       -15.3052
 166   2.0000      -0.561034       -15.2665
 167   2.0000      -0.556715       -15.1490
 168   2.0000      -0.555393       -15.1130
 169   2.0000      -0.552368       -15.0307
 170   2.0000      -0.550445       -14.9784
 171   2.0000      -0.550193       -14.9715
 172   2.0000      -0.548927       -14.9371
 173   2.0000      -0.548110       -14.9148
 174   2.0000      -0.543862       -14.7992
 175   2.0000      -0.542684       -14.7672
 176   2.0000      -0.541368       -14.7314
 177   2.0000      -0.537291       -14.6204
 178   2.0000      -0.533190       -14.5088
 179   2.0000      -0.531179       -14.4541
 180   2.0000      -0.527761       -14.3611
 181   2.0000      -0.526685       -14.3318
 182   2.0000      -0.523619       -14.2484
 183   2.0000      -0.522239       -14.2108
 184   2.0000      -0.521301       -14.1853
 185   2.0000      -0.519520       -14.1369
 186   2.0000      -0.518111       -14.0985
 187   2.0000      -0.516056       -14.0426
 188   2.0000      -0.515981       -14.0406
 189   2.0000      -0.514290       -13.9945
 190   2.0000      -0.510688       -13.8965
 191   2.0000      -0.506950       -13.7948
 192   2.0000      -0.504012       -13.7149
 193   2.0000      -0.502563       -13.6754
 194   2.0000      -0.498944       -13.5770
 195   2.0000      -0.495557       -13.4848
 196   2.0000      -0.493784       -13.4366
 197   2.0000      -0.491922       -13.3859
 198   2.0000      -0.487268       -13.2592
 199   2.0000      -0.483615       -13.1598
 200   2.0000      -0.481322       -13.0974
 201   2.0000      -0.480015       -13.0619
 202   2.0000      -0.478383       -13.0175
 203   2.0000      -0.475628       -12.9425
 204   2.0000      -0.475052       -12.9268
 205   2.0000      -0.471656       -12.8344
 206   2.0000      -0.470325       -12.7982
 207   2.0000      -0.468386       -12.7454
 208   2.0000      -0.467158       -12.7120
 209   2.0000      -0.464968       -12.6524
 210   2.0000      -0.460867       -12.5408
 211   2.0000      -0.456032       -12.4093
 212   2.0000      -0.454219       -12.3599
 213   2.0000      -0.449532       -12.2324
 214   2.0000      -0.448019       -12.1912
 215   2.0000      -0.446943       -12.1619
 216   2.0000      -0.445504       -12.1228
 217   2.0000      -0.444508       -12.0957
 218   2.0000      -0.442688       -12.0461
 219   2.0000      -0.439986       -11.9726
 220   2.0000      -0.436979       -11.8908
 221   2.0000      -0.435396       -11.8477
 222   2.0000      -0.431817       -11.7503
 223   2.0000      -0.429718       -11.6932
 224   2.0000      -0.426571       -11.6076
 225   2.0000      -0.426108       -11.5950
 226   2.0000      -0.422342       -11.4925
 227   2.0000      -0.418182       -11.3793
 228   2.0000      -0.416609       -11.3365
 229   2.0000      -0.413868       -11.2619
 230   2.0000      -0.409574       -11.1451
 231   2.0000      -0.406422       -11.0593
 232   2.0000      -0.399278       -10.8649
 233   2.0000      -0.396342       -10.7850
 234   2.0000      -0.386452       -10.5159
 235   2.0000      -0.375700       -10.2233
 236   2.0000      -0.375024       -10.2049
 237   2.0000      -0.373509       -10.1637
 238   2.0000      -0.363322        -9.8865
 239   2.0000      -0.360780        -9.8173
 240   2.0000      -0.359565        -9.7843
 241   2.0000      -0.358377        -9.7519
 242   2.0000      -0.356035        -9.6882
 243   2.0000      -0.351820        -9.5735
 244   2.0000      -0.346136        -9.4188
 245   2.0000      -0.345313        -9.3965
 246   2.0000      -0.341069        -9.2810
 247   2.0000      -0.340849        -9.2750
 248   2.0000      -0.338090        -9.1999
 249   2.0000      -0.337284        -9.1780
 250   2.0000      -0.334716        -9.1081
 251   2.0000      -0.332041        -9.0353
 252   2.0000      -0.323541        -8.8040
 253   2.0000      -0.319722        -8.7001
 254   2.0000      -0.312555        -8.5050
 255   2.0000      -0.297484        -8.0949
 256   2.0000      -0.296081        -8.0568
 257   2.0000      -0.286796        -7.8041
 258   2.0000      -0.274656        -7.4738
 259   0.0000      -0.129783        -3.5316
 260   0.0000      -0.118139        -3.2147
 261   0.0000      -0.091035        -2.4772
 262   0.0000      -0.084652        -2.3035
 263   0.0000      -0.068543        -1.8652

MULLIKEN ATOMIC CHARGES
-----------------------
   0 C :    0.279040
   1 C :   -0.299450
   2 C :   -0.198870
   3 N :    0.189204
   4 C :   -0.191276
   5 N :    0.171914
   6 C :    0.087568
   7 C :   -0.043682
   8 C :   -0.051108
   9 C :    0.069513
  10 C :    0.125663
  11 C :   -0.111647
  12 C :   -0.032450
  13 C :    0.033549
  14 C :    0.056095
  15 C :    0.000317
  16 C :    0.144833
  17 O :   -0.120850
  18 C :   -0.088760
  19 C :   -0.015951
  20 C :   -0.020937
  21 N :   -0.040607
  22 C :    0.083428
  23 C :   -0.124075
  24 C :    0.212034
  25 O :   -0.119007
  26 C :   -0.036929
  27 C :   -0.012647
  28 N :   -0.055286
  29 C :    0.099607
  30 C :   -0.089603
  31 C :    0.079776
  32 C :   -0.027354
  33 C :    0.013355
  34 C :   -0.137853
  35 S :    0.205953
  36 C :   -0.125800
  37 C :    0.159871
  38 O :   -0.173129
  39 O :   -0.184742
  40 C :   -0.023244
  41 C :    0.227495
  42 O :   -0.198068
  43 C :    0.171770
  44 N :   -0.083032
  45 C :    0.084302
  46 C :   -0.116732
  47 C :    0.211542
  48 O :   -0.116551
  49 C :   -0.038611
  50 C :   -0.020766
  51 N :   -0.052509
  52 C :    0.092090
  53 C :   -0.089703
  54 C :   -0.031824
  55 C :    0.070795
  56 C :   -0.004499
  57 C :   -0.011276
  58 C :   -0.115719
  59 C :    0.338019
  60 C :   -0.365976
  61 C :   -0.177302
  62 N :    0.161504
  63 C :   -0.234208
  64 N :    0.187543
  65 C :    0.031230
  66 C :    0.019986
  67 C :    0.147759
  68 O :   -0.126870
  69 C :   -0.115424
  70 C :    0.120214
  71 C :    0.085494
  72 C :   -0.071451
  73 C :    0.004809
  74 C :    0.022864
  75 C :    0.035782
  76 C :   -0.028794
  77 H :   -0.011452
  78 H :    0.003330
  79 H :    0.000087
  80 H :   -0.004885
  81 H :   -0.008376
  82 H :   -0.020140
  83 H :    0.041983
  84 H :    0.016748
  85 H :    0.001193
  86 H :    0.017467
  87 H :   -0.001730
  88 H :    0.198185
  89 H :    0.041650
  90 H :    0.013375
  91 H :   -0.002123
  92 H :    0.021811
  93 H :    0.019486
  94 H :    0.039626
  95 H :   -0.012898
  96 H :   -0.010645
  97 H :   -0.010563
  98 H :   -0.009201
  99 H :   -0.005750
 100 H :   -0.017522
Sum of atomic charges:   -0.0000000

LOEWDIN ATOMIC CHARGES
----------------------
   0 C :    0.067846
   1 C :   -0.109839
   2 C :   -0.019745
   3 N :   -0.026148
   4 C :   -0.015491
   5 N :   -0.043803
   6 C :   -0.021441
   7 C :   -0.066817
   8 C :    0.040593
   9 C :   -0.008674
  10 C :   -0.002154
  11 C :    0.018133
  12 C :   -0.004292
  13 C :   -0.010442
  14 C :   -0.006011
  15 C :   -0.005520
  16 C :    0.079399
  17 O :   -0.122187
  18 C :   -0.029464
  19 C :    0.026472
  20 C :    0.062982
  21 N :   -0.086139
  22 C :    0.041241
  23 C :   -0.035946
  24 C :    0.066696
  25 O :   -0.131434
  26 C :   -0.035405
  27 C :    0.041701
  28 N :   -0.093830
  29 C :    0.088555
  30 C :   -0.028895
  31 C :   -0.020861
  32 C :   -0.012296
  33 C :   -0.024427
  34 C :   -0.179652
  35 S :    0.500212
  36 C :   -0.219827
  37 C :    0.060890
  38 O :   -0.169424
  39 O :   -0.048033
  40 C :   -0.026708
  41 C :    0.016961
  42 O :    0.017636
  43 C :    0.126650
  44 N :   -0.128644
  45 C :    0.051572
  46 C :   -0.014428
  47 C :    0.066547
  48 O :   -0.127250
  49 C :   -0.040945
  50 C :    0.020262
  51 N :   -0.092199
  52 C :    0.077014
  53 C :   -0.033124
  54 C :   -0.044992
  55 C :    0.058155
  56 C :   -0.035423
  57 C :    0.068855
  58 C :   -0.092767
  59 C :    0.073201
  60 C :   -0.139696
  61 C :   -0.015008
  62 N :   -0.051194
  63 C :   -0.028890
  64 N :   -0.040914
  65 C :   -0.028678
  66 C :   -0.049137
  67 C :    0.078083
  68 O :   -0.123281
  69 C :    0.026387
  70 C :   -0.007733
  71 C :   -0.006907
  72 C :    0.025980
  73 C :    0.002058
  74 C :   -0.018234
  75 C :   -0.014660
  76 C :   -0.013236
  77 H :    0.039343
  78 H :    0.042228
  79 H :    0.038934
  80 H :    0.033355
  81 H :    0.031488
  82 H :    0.031113
  83 H :    0.052312
  84 H :    0.026726
  85 H :    0.036981
  86 H :    0.036458
  87 H :    0.034031
  88 H :    0.105572
  89 H :    0.048315
  90 H :    0.025385
  91 H :    0.035841
  92 H :    0.046333
  93 H :    0.031508
  94 H :    0.046245
  95 H :    0.038949
  96 H :    0.037785
  97 H :    0.033519
  98 H :    0.031481
  99 H :    0.032601
 100 H :    0.031662

  Mayer bond orders larger than 0.100000
B(  0-C ,  1-C ) :   1.7097 B(  0-C ,  6-C ) :   1.0070 B(  0-C , 18-C ) :   0.9980
B(  1-C ,  2-C ) :   1.1374 B(  1-C ,  4-C ) :   1.1555 B(  2-C ,  3-N ) :   2.9505
B(  4-C ,  5-N ) :   2.9688 B(  6-C ,  7-C ) :   1.2062 B(  6-C , 11-C ) :   1.4254
B(  7-C ,  8-C ) :   1.4510 B(  7-C , 16-C ) :   0.9231 B(  8-C ,  9-C ) :   1.1917
B(  8-C , 77-H ) :   1.0168 B(  9-C , 10-C ) :   1.2524 B(  9-C , 15-C ) :   1.2390
B( 10-C , 11-C ) :   1.2035 B( 10-C , 12-C ) :   1.2266 B( 11-C , 78-H ) :   0.9983
B( 12-C , 13-C ) :   1.4862 B( 12-C , 79-H ) :   1.0010 B( 13-C , 14-C ) :   1.2393
B( 13-C , 80-H ) :   0.9923 B( 14-C , 15-C ) :   1.4924 B( 14-C , 81-H ) :   0.9857
B( 15-C , 82-H ) :   0.9977 B( 16-C , 17-O ) :   2.2800 B( 16-C , 18-C ) :   0.9040
B( 18-C , 19-C ) :   1.7708 B( 19-C , 20-C ) :   1.0217 B( 19-C , 83-H ) :   0.9325
B( 20-C , 21-N ) :   1.6116 B( 20-C , 22-C ) :   0.1063 B( 20-C , 31-C ) :   1.0118
B( 21-N , 22-C ) :   1.3005 B( 22-C , 23-C ) :   1.0547 B( 22-C , 27-C ) :   1.4408
B( 23-C , 24-C ) :   0.8899 B( 23-C , 31-C ) :   1.5512 B( 24-C , 25-O ) :   2.2942
B( 24-C , 26-C ) :   0.8943 B( 26-C , 27-C ) :   1.0447 B( 26-C , 30-C ) :   1.6393
B( 27-C , 28-N ) :   1.3003 B( 28-N , 29-C ) :   1.6685 B( 29-C , 30-C ) :   1.0525
B( 29-C , 84-H ) :   0.9886 B( 30-C , 85-H ) :   1.0092 B( 31-C , 32-C ) :   1.1394
B( 32-C , 33-C ) :   1.6329 B( 32-C , 86-H ) :   0.9612 B( 33-C , 34-C ) :   1.1545
B( 33-C , 87-H ) :   0.9712 B( 34-C , 35-S ) :   1.1489 B( 34-C , 36-C ) :   0.1025
B( 34-C , 41-C ) :   1.4326 B( 35-S , 36-C ) :   1.1247 B( 36-C , 37-C ) :   0.9510
B( 36-C , 40-C ) :   1.4612 B( 37-C , 38-O ) :   2.1946 B( 37-C , 39-O ) :   1.2802
B( 39-O , 88-H ) :   0.9409 B( 40-C , 41-C ) :   1.2564 B( 40-C , 89-H ) :   1.0052
B( 41-C , 42-O ) :   1.0169 B( 42-O , 43-C ) :   1.2307 B( 43-C , 44-N ) :   1.5526
B( 43-C , 45-C ) :   0.1071 B( 43-C , 54-C ) :   0.9699 B( 44-N , 45-C ) :   1.3269
B( 45-C , 46-C ) :   1.0589 B( 45-C , 50-C ) :   1.4322 B( 46-C , 47-C ) :   0.8860
B( 46-C , 54-C ) :   1.5739 B( 47-C , 48-O ) :   2.2885 B( 47-C , 49-C ) :   0.9079
B( 49-C , 50-C ) :   1.0534 B( 49-C , 53-C ) :   1.6097 B( 50-C , 51-N ) :   1.3178
B( 51-N , 52-C ) :   1.6513 B( 52-C , 53-C ) :   1.0769 B( 52-C , 90-H ) :   0.9894
B( 53-C , 91-H ) :   1.0108 B( 54-C , 55-C ) :   1.1723 B( 55-C , 56-C ) :   1.6415
B( 55-C , 92-H ) :   0.9503 B( 56-C , 57-C ) :   1.1520 B( 56-C , 93-H ) :   0.9505
B( 57-C , 58-C ) :   1.6296 B( 57-C , 94-H ) :   0.9335 B( 58-C , 59-C ) :   1.0517
B( 58-C , 67-C ) :   0.9244 B( 59-C , 60-C ) :   1.6418 B( 59-C , 65-C ) :   0.9889
B( 60-C , 61-C ) :   1.1498 B( 60-C , 63-C ) :   1.1465 B( 61-C , 62-N ) :   2.9432
B( 63-C , 64-N ) :   2.9699 B( 65-C , 66-C ) :   1.2230 B( 65-C , 72-C ) :   1.4357
B( 66-C , 67-C ) :   0.9381 B( 66-C , 69-C ) :   1.4483 B( 67-C , 68-O ) :   2.2374
B( 69-C , 70-C ) :   1.1642 B( 69-C , 95-H ) :   1.0216 B( 70-C , 71-C ) :   1.2568
B( 70-C , 76-C ) :   1.2371 B( 71-C , 72-C ) :   1.2052 B( 71-C , 73-C ) :   1.2512
B( 72-C , 96-H ) :   0.9889 B( 73-C , 74-C ) :   1.4745 B( 73-C , 97-H ) :   0.9940
B( 74-C , 75-C ) :   1.2551 B( 74-C , 98-H ) :   0.9907 B( 75-C , 76-C ) :   1.4806
B( 75-C , 99-H ) :   0.9901 B( 76-C ,100-H ) :   0.9995

-----------------------------------------------------------------------------
         ABSORPTION SPECTRUM VIA TRANSITION ELECTRIC DIPOLE MOMENTS
-----------------------------------------------------------------------------
State   Energy  Wavelength   fosc         T2         TX        TY        TZ
        (cm-1)    (nm)                  (au**2)     (au)      (au)      (au)
-----------------------------------------------------------------------------
   0   14699.8    680.3   0.068423777   1.53240  -0.21181   0.03362  -1.21918
   1   19359.9    516.5   0.002958213   0.05030  -0.09499  -0.20201   0.02173
   2   19534.1    511.9   0.098131762   1.65384   0.71184   0.15971   1.05906
   3   20134.6    496.7   0.102005770   1.66785   0.48490  -0.30127   1.15843
   4   20407.6    490.0   0.540125379   8.71321  -0.30952  -1.78608   2.32966
   5   21016.3    475.8   0.026683256   0.41798  -0.48859  -0.32067  -0.27646
   6   22764.3    439.3   0.035796073   0.51767  -0.22826  -0.61305  -0.29956
   7   23131.5    432.3   0.000770806   0.01097   0.02111  -0.06730   0.07743
   8   23313.1    428.9   0.065137095   0.91982  -0.49034  -0.70723  -0.42334
   9   23919.4    418.1   0.059253582   0.81553  -0.57490  -0.47110  -0.51292
  10   24024.5    416.2   0.016050923   0.21995   0.26092  -0.37648   0.10068
  11   24182.5    413.5   0.017103011   0.23283  -0.17024   0.45035   0.03229
  12   24416.4    409.6   0.064329937   0.86738   0.34333   0.74796   0.43596
  13   24902.0    401.6   0.227456894   3.00705  -0.20365  -1.38810   1.01920
  14   25241.5    396.2   0.070729569   0.92249   0.23827  -0.16358   0.91595
  15   25658.3    389.7   0.323341074   4.14866  -0.83590  -0.30424  -1.83232
  16   26173.0    382.1   0.117366725   1.47627  -0.00568   0.56506  -1.07561
  17   26377.5    379.1   0.061704193   0.77012  -0.28332  -0.69517   0.45452
  18   26687.1    374.7   0.014792976   0.18249  -0.13515   0.12321  -0.38606
  19   26853.9    372.4   0.049042237   0.60123   0.00096  -0.01353  -0.77527
  20   26994.5    370.4   0.259356441   3.16299  -0.47532  -0.67771  -1.57409
  21   27285.7    366.5   0.271606313   3.27703   0.19244   1.09327  -1.42995
  22   27348.8    365.6   0.208642378   2.51153  -0.08587  -1.04578   1.18765
  23   27473.3    364.0   0.047267600   0.56641   0.08971   0.40327  -0.62907
  24   27774.7    360.0   0.096765528   1.14696  -0.16523  -1.05748  -0.03744
  25   28453.1    351.5   0.122505082   1.41743  -0.82888  -0.29359  -0.80261
  26   29173.1    342.8   0.409178532   4.61749   0.28508   1.32106  -1.67064
  27   29310.6    341.2   0.028693092   0.32228  -0.08713   0.02807   0.56027
  28   29649.8    337.3   0.080657541   0.89557  -0.08151   0.91145   0.24121
  29   29832.5    335.2   0.134810899   1.48768  -0.17188   1.19489  -0.17429
  30   29930.5    334.1   0.016532562   0.18185  -0.05213   0.28437   0.31346
  31   30331.6    329.7   0.029198532   0.31691   0.01860  -0.40665  -0.38885
  32   30389.2    329.1   0.010095822   0.10937  -0.06313  -0.13324  -0.29602
  33   30545.6    327.4   0.009905208   0.10676   0.22894   0.18663   0.13968
  34   30677.3    326.0   0.009720836   0.10432   0.10516   0.11796   0.28168
  35   30733.1    325.4   0.021878950   0.23437   0.00457  -0.38366  -0.29521
  36   30859.6    324.0   0.106855467   1.13994  -0.27367  -0.09701  -1.02744
  37   30994.8    322.6   0.060414009   0.64169  -0.14664   0.65903   0.43112
  38   31211.1    320.4   0.005977700   0.06305   0.21932   0.09401   0.07819
  39   31357.8    318.9   0.014447733   0.15168  -0.04200  -0.19509  -0.33445
  40   31639.4    316.1   0.034452817   0.35849  -0.45395   0.20683  -0.33111
  41   31801.4    314.5   0.079627143   0.82431   0.32866  -0.70825   0.46333
  42   31959.0    312.9   0.201721662   2.07795  -0.06814   1.19396   0.80483
  43   32087.3    311.7   0.080485920   0.82578   0.55223   0.29478  -0.65873
  44   32660.6    306.2   0.081118706   0.81766   0.28334   0.77207  -0.37587
  45   32845.5    304.5   0.012605015   0.12634  -0.01599  -0.34632  -0.07843
  46   33196.5    301.2   0.034896432   0.34607   0.14934  -0.34824  -0.45000
  47   33440.8    299.0   0.027596111   0.27167  -0.24745  -0.00845  -0.45866
  48   33445.2    299.0   0.025772088   0.25368  -0.44116   0.08089  -0.22917
  49   33458.2    298.9   0.016655036   0.16388  -0.10970  -0.27788   0.27317
  50   33777.1    296.1   0.047428619   0.46227   0.57590  -0.28167   0.22642
  51   34090.4    293.3   0.136138714   1.31469   0.20132   0.93799  -0.62796
  52   34467.6    290.1   0.098254789   0.93847   0.58502  -0.23637  -0.73509
  53   34604.9    289.0   0.320792562   3.05185  -0.30702  -1.67903  -0.37208
  54   34719.4    288.0   0.024074388   0.22828  -0.14819   0.45422   0.00079
  55   34931.0    286.3   0.191810622   1.80774   0.08976   1.23857   0.51539
  56   34978.3    285.9   0.109621203   1.03174   0.07193  -0.95426   0.34052
  57   35201.7    284.1   0.003037430   0.02841   0.04049   0.13894   0.08638
  58   35268.3    283.5   0.180928430   1.68888   0.23065   1.23884   0.31775
  59   35395.4    282.5   0.060705684   0.56462   0.10232  -0.74349   0.03715
  60   35534.3    281.4   0.025744018   0.23851  -0.03874  -0.45450   0.17447
  61   35697.4    280.1   0.076479500   0.70532  -0.29550   0.33365   0.71181
  62   35859.3    278.9   0.066499227   0.61051   0.00557   0.30424  -0.71966
  63   35990.6    277.9   0.050113011   0.45839  -0.23262  -0.49492  -0.39917
  64   36203.0    276.2   0.259106026   2.35618  -0.22484  -0.90045  -1.22263
  65   36454.7    274.3   0.081517250   0.73616  -0.34378   0.74690   0.24518
  66   36555.6    273.6   0.008119320   0.07312  -0.13858  -0.20903   0.10110
  67   36695.9    272.5   0.155573765   1.39571  -0.06980  -0.50070  -1.06777
  68   36961.0    270.6   0.016016991   0.14266  -0.01485   0.02043  -0.37686
  69   37135.9    269.3   0.120860104   1.07143  -0.12109   0.61804   0.82146
  70   37219.3    268.7   0.012503982   0.11060  -0.04289   0.13949  -0.29884
  71   37222.3    268.7   0.010481007   0.09270  -0.01086   0.17826  -0.24659
  72   37655.5    265.6   0.119263261   1.04269   0.11040  -0.04881   1.01396
  73   37696.3    265.3   0.010886648   0.09508  -0.13223   0.16442   0.22485
  74   37941.1    263.6   0.033711626   0.29251  -0.34132   0.39797  -0.13281
  75   38066.4    262.7   0.004982115   0.04309   0.07800  -0.19164  -0.01667
  76   38270.3    261.3   0.016152757   0.13895  -0.09695  -0.14997  -0.32720
  77   38516.5    259.6   0.136256485   1.16462  -0.02303  -0.53359  -0.93775
  78   38628.8    258.9   0.117929600   1.00505   0.20328  -0.18322  -0.96445
  79   38870.9    257.3   0.057884508   0.49025  -0.24030  -0.22504  -0.61795
  80   38916.5    257.0   0.037462401   0.31691  -0.33012  -0.44809   0.08453
  81   39133.6    255.5   0.009928206   0.08352   0.08829  -0.19067  -0.19842
  82   39196.4    255.1   0.065810069   0.55274  -0.16221   0.48840   0.53656
  83   39283.0    254.6   0.088446245   0.74123   0.52978  -0.64073  -0.22367
  84   39492.2    253.2   0.016986389   0.14160   0.03112   0.05855  -0.37041
  85   39585.1    252.6   0.001692383   0.01407  -0.00314  -0.10895  -0.04686
  86   39592.3    252.6   0.115473513   0.96017   0.20112   0.08612  -0.95514
  87   39677.1    252.0   0.007413250   0.06151   0.20353  -0.02523  -0.13946
  88   39721.5    251.8   0.103526929   0.85803  -0.35320  -0.04584   0.85509
  89   39816.0    251.2   0.041443231   0.34267  -0.39143  -0.03202   0.43407
  90   40087.8    249.5   0.009499794   0.07801  -0.10355  -0.08919   0.24360
  91   40178.7    248.9   0.022556800   0.18482  -0.26951   0.10500   0.31806

FINAL SINGLE POINT ENERGY     -3697.230118283230

DIPOLE MOMENT
-------------
                                X             Y             Z
Electronic contribution:     -7.89496     -37.46752      -9.57458
Nuclear contribution   :      6.30904      40.27826      10.98674
                        -----------------------------------------
Total Dipole Moment    :     -1.58592       2.81074       1.41216
                        -----------------------------------------
Magnitude (a.u.)       :      3.52273
Magnitude (Debye)      :      8.95406

Rotational constants in cm-1:     0.001045     0.000759     0.000491
Rotational constants in MHz :    31.330487    22.752875    14.728428

                             ****ORCA TERMINATED NORMALLY****
TOTAL RUN TIME: 0 days 0 hours 13 minutes 24 seconds 838 msec
