                         Program Version 4.2.0 -  RELEASE  -
|  1> # ORCA input file
|  2> # SCF done       -201.641362484330          0.000389955751
|  3> ! CAM-B3LYP def2-SVP def2/J RIJCOSX Grid4 TightSCF
|  4> %maxcore 5000
|  5> %tddft
|  6>     Mode sTDDFT
|  7>     Ethresh 5.0
|  8>     maxcore 5000
|  9> end
| 10>
| 11> %pal
| 12>   nprocs 6
| 13>   end
| 14> * xyz 0 1
| 15>    C       -3.09237         1.65430         1.57053
| 16>    C       -3.68210         2.03262         0.39293
| 17>    C       -4.00193         1.13578        -0.64700
| 18>    N       -4.26037         0.45243        -1.53236
| 19>    C       -4.10875         3.34665         0.11488
| 20>    N       -4.50312         4.39239        -0.14608
| 21>    C       -2.87674         0.27499         1.99686
| 22>    C       -2.72159         0.25685         3.41402
| 23>    C       -2.54619        -0.90887         4.10231
| 24>    C       -2.50390        -2.12920         3.39126
| 25>    C       -2.63811        -2.11626         1.97256
| 26>    C       -2.82754        -0.89436         1.28672
| 27>    C       -2.58417        -3.33983         1.27458
| 28>    C       -2.41036        -4.52056         1.94389
| 29>    C       -2.28106        -4.53254         3.34078
| 30>    C       -2.32712        -3.36244         4.04899
| 31>    C       -2.76701         1.63662         3.92620
| 32>    O       -2.72387         2.01205         5.07428
| 33>    C       -2.81628         2.50492         2.71020
| 34>    C       -2.51564         3.82232         2.84487
| 35>    C       -2.13739         4.77526         1.86340
| 36>    C       -1.60124         4.58302         0.61383
| 37>    C       -1.28854         5.78140        -0.05946
| 38>    C       -1.60203         6.92982         0.72278
| 39>    S       -2.24776         6.47814         2.27165
| 40>    C       -1.39792         8.21062         0.26545
| 41>    C       -0.86335         8.36702        -1.01665
| 42>    C       -0.55631         7.22010        -1.80281
| 43>    C       -0.75622         5.94083        -1.34230
| 44>    S        0.07308         7.67210        -3.36332
| 45>    C       -0.05105         9.37558        -2.95582
| 46>    C       -0.56350         9.56558        -1.69384
| 47>    C        0.35540        10.36009        -3.90758
| 48>    C        0.39658        11.75180        -3.65198
| 49>    C        0.79963        12.69189        -4.67173
| 50>    N        0.83092        14.00127        -4.39446
| 51>    C        0.49991        14.43394        -3.20532
| 52>    C        0.10696        13.50099        -2.19129
| 53>    N        0.06776        12.21541        -2.43635
| 54>    C       -0.24438        13.95829        -0.89596
| 55>    N       -0.52698        14.34863         0.14298
| 56>    C        0.53957        15.82275        -2.92879
| 57>    N        0.55884        16.93711        -2.66512
| 58>    C        1.17102        12.30766        -5.98009
| 59>    C        1.14795        10.91930        -6.22935
| 60>    C        0.75487         9.97822        -5.20643
| 61>    N        0.81011         8.72149        -5.64887
| 62>    S        1.29760         8.71341        -7.17322
| 63>    N        1.46804        10.29605        -7.36626
| 64>    C        1.53797        13.27853        -6.95730
| 65>    C        1.87723        13.03263        -8.26826
| 66>    C        2.19146        14.19589        -8.99681
| 67>    C        2.08822        15.36735        -8.19301
| 68>    S        1.59167        14.98259        -6.56216
| 69>    C        2.35423        16.61980        -8.68954
| 70>    C        2.73427        16.72946       -10.03231
| 71>    C        2.82577        15.55582       -10.83716
| 72>    C        2.56513        14.30015       -10.34016
| 73>    S        3.29375        15.94763       -12.46320
| 74>    C        3.38870        17.66440       -12.06294
| 75>    C        3.05690        17.89796       -10.74998
| 76>    C        3.73602        18.53014       -13.12880
| 77>    C        4.07550        19.85126       -13.13660
| 78>    C        4.38442        20.59096       -14.35406
| 79>    C        4.04376        20.23889       -15.63316
| 80>    C        4.35366        21.01453       -16.77081
| 81>    N        4.58034        21.59313       -17.73590
| 82>    C        3.30013        19.09774       -16.00412
| 83>    N        2.67993        18.21158       -16.38987
| 84>    C        5.04421        21.83124       -13.96933
| 85>    C        5.03038        21.92465       -12.54944
| 86>    C        4.37414        20.73618       -11.97906
| 87>    O        4.15417        20.54388       -10.80210
| 88>    C        5.57052        22.99100       -11.88980
| 89>    C        6.16777        24.03082       -12.63633
| 90>    C        6.19345        23.94133       -14.05835
| 91>    C        5.62196        22.82635       -14.71301
| 92>    C        6.79612        24.98276       -14.79308
| 93>    C        7.34638        26.06146       -14.15599
| 94>    C        7.32040        26.14850       -12.75595
| 95>    C        6.74327        25.15511       -12.01233
| 96>    H       -2.44031        -0.90058         5.17690
| 97>    H       -2.91863        -0.91300         0.21179
| 98>    H       -2.68799        -3.32623         0.19954
| 99>    H       -2.37230        -5.45263         1.40030
|100>    H       -2.14456        -5.47327         3.85275
|101>    H       -2.22807        -3.36514         5.12459
|102>    H       -2.50085         4.17877         3.87112
|103>    H       -1.39487         3.61136         0.20044
|104>    H       -1.63897         9.07142         0.86824
|105>    H       -0.52209         5.08108        -1.94947
|106>    H       -0.72013        10.53952        -1.26976
|107>    H        1.89498        12.04119        -8.68221
|108>    H        2.27772        17.49977        -8.07129
|109>    H        2.64133        13.42055       -10.95919
|110>    H        3.04856        18.88005       -10.31467
|111>    H        3.75691        18.02541       -14.08850
|112>    H        5.54358        23.03892       -10.81126
|113>    H        5.66335        22.78507       -15.78980
|114>    H        6.81233        24.91197       -15.87078
|115>    H        7.80495        26.85428       -14.72771
|116>    H        7.76004        27.00649       -12.26975
|117>    H        6.72012        25.21654       -10.93412
|118> *
|119>
|120>                          ****END OF INPUT****

CARTESIAN COORDINATES (ANGSTROEM)
---------------------------------
  C     -3.092370    1.654300    1.570530
  C     -3.682100    2.032620    0.392930
  C     -4.001930    1.135780   -0.647000
  N     -4.260370    0.452430   -1.532360
  C     -4.108750    3.346650    0.114880
  N     -4.503120    4.392390   -0.146080
  C     -2.876740    0.274990    1.996860
  C     -2.721590    0.256850    3.414020
  C     -2.546190   -0.908870    4.102310
  C     -2.503900   -2.129200    3.391260
  C     -2.638110   -2.116260    1.972560
  C     -2.827540   -0.894360    1.286720
  C     -2.584170   -3.339830    1.274580
  C     -2.410360   -4.520560    1.943890
  C     -2.281060   -4.532540    3.340780
  C     -2.327120   -3.362440    4.048990
  C     -2.767010    1.636620    3.926200
  O     -2.723870    2.012050    5.074280
  C     -2.816280    2.504920    2.710200
  C     -2.515640    3.822320    2.844870
  C     -2.137390    4.775260    1.863400
  C     -1.601240    4.583020    0.613830
  C     -1.288540    5.781400   -0.059460
  C     -1.602030    6.929820    0.722780
  S     -2.247760    6.478140    2.271650
  C     -1.397920    8.210620    0.265450
  C     -0.863350    8.367020   -1.016650
  C     -0.556310    7.220100   -1.802810
  C     -0.756220    5.940830   -1.342300
  S      0.073080    7.672100   -3.363320
  C     -0.051050    9.375580   -2.955820
  C     -0.563500    9.565580   -1.693840
  C      0.355400   10.360090   -3.907580
  C      0.396580   11.751800   -3.651980
  C      0.799630   12.691890   -4.671730
  N      0.830920   14.001270   -4.394460
  C      0.499910   14.433940   -3.205320
  C      0.106960   13.500990   -2.191290
  N      0.067760   12.215410   -2.436350
  C     -0.244380   13.958290   -0.895960
  N     -0.526980   14.348630    0.142980
  C      0.539570   15.822750   -2.928790
  N      0.558840   16.937110   -2.665120
  C      1.171020   12.307660   -5.980090
  C      1.147950   10.919300   -6.229350
  C      0.754870    9.978220   -5.206430
  N      0.810110    8.721490   -5.648870
  S      1.297600    8.713410   -7.173220
  N      1.468040   10.296050   -7.366260
  C      1.537970   13.278530   -6.957300
  C      1.877230   13.032630   -8.268260
  C      2.191460   14.195890   -8.996810
  C      2.088220   15.367350   -8.193010
  S      1.591670   14.982590   -6.562160
  C      2.354230   16.619800   -8.689540
  C      2.734270   16.729460  -10.032310
  C      2.825770   15.555820  -10.837160
  C      2.565130   14.300150  -10.340160
  S      3.293750   15.947630  -12.463200
  C      3.388700   17.664400  -12.062940
  C      3.056900   17.897960  -10.749980
  C      3.736020   18.530140  -13.128800
  C      4.075500   19.851260  -13.136600
  C      4.384420   20.590960  -14.354060
  C      4.043760   20.238890  -15.633160
  C      4.353660   21.014530  -16.770810
  N      4.580340   21.593130  -17.735900
  C      3.300130   19.097740  -16.004120
  N      2.679930   18.211580  -16.389870
  C      5.044210   21.831240  -13.969330
  C      5.030380   21.924650  -12.549440
  C      4.374140   20.736180  -11.979060
  O      4.154170   20.543880  -10.802100
  C      5.570520   22.991000  -11.889800
  C      6.167770   24.030820  -12.636330
  C      6.193450   23.941330  -14.058350
  C      5.621960   22.826350  -14.713010
  C      6.796120   24.982760  -14.793080
  C      7.346380   26.061460  -14.155990
  C      7.320400   26.148500  -12.755950
  C      6.743270   25.155110  -12.012330
  H     -2.440310   -0.900580    5.176900
  H     -2.918630   -0.913000    0.211790
  H     -2.687990   -3.326230    0.199540
  H     -2.372300   -5.452630    1.400300
  H     -2.144560   -5.473270    3.852750
  H     -2.228070   -3.365140    5.124590
  H     -2.500850    4.178770    3.871120
  H     -1.394870    3.611360    0.200440
  H     -1.638970    9.071420    0.868240
  H     -0.522090    5.081080   -1.949470
  H     -0.720130   10.539520   -1.269760
  H      1.894980   12.041190   -8.682210
  H      2.277720   17.499770   -8.071290
  H      2.641330   13.420550  -10.959190
  H      3.048560   18.880050  -10.314670
  H      3.756910   18.025410  -14.088500
  H      5.543580   23.038920  -10.811260
  H      5.663350   22.785070  -15.789800
  H      6.812330   24.911970  -15.870780
  H      7.804950   26.854280  -14.727710
  H      7.760040   27.006490  -12.269750
  H      6.720120   25.216540  -10.934120

 Total Charge           Charge          ....    0
 Multiplicity           Mult            ....    1
 Number of Electrons    NEL             ....  572
 Basis Dimension        Dim             .... 1264

ORBITAL ENERGIES
----------------

  NO   OCC          E(Eh)            E(eV)
   0   2.0000     -89.059678     -2423.4371
   1   2.0000     -88.957453     -2420.6554
   2   2.0000     -88.954817     -2420.5836
   3   2.0000     -88.952623     -2420.5239
   4   2.0000     -88.952346     -2420.5164
   5   2.0000     -19.219323      -522.9844
   6   2.0000     -19.216336      -522.9031
   7   2.0000     -14.474501      -393.8712
   8   2.0000     -14.471753      -393.7964
   9   2.0000     -14.467077      -393.6692
  10   2.0000     -14.466183      -393.6449
  11   2.0000     -14.438151      -392.8821
  12   2.0000     -14.437652      -392.8685
  13   2.0000     -14.418674      -392.3521
  14   2.0000     -14.416405      -392.2903
  15   2.0000     -14.414509      -392.2387
  16   2.0000     -14.413605      -392.2141
  17   2.0000     -10.392922      -282.8058
  18   2.0000     -10.392495      -282.7942
  19   2.0000     -10.370429      -282.1937
  20   2.0000     -10.367343      -282.1098
  21   2.0000     -10.360486      -281.9232
  22   2.0000     -10.359484      -281.8959
  23   2.0000     -10.356652      -281.8188
  24   2.0000     -10.355563      -281.7892
  25   2.0000     -10.346084      -281.5313
  26   2.0000     -10.344311      -281.4830
  27   2.0000     -10.341479      -281.4060
  28   2.0000     -10.339918      -281.3635
  29   2.0000     -10.332488      -281.1613
  30   2.0000     -10.331078      -281.1229
  31   2.0000     -10.330997      -281.1207
  32   2.0000     -10.330759      -281.1143
  33   2.0000     -10.323578      -280.9188
  34   2.0000     -10.322579      -280.8917
  35   2.0000     -10.322218      -280.8818
  36   2.0000     -10.321430      -280.8604
  37   2.0000     -10.321172      -280.8534
  38   2.0000     -10.319362      -280.8041
  39   2.0000     -10.317168      -280.7444
  40   2.0000     -10.317062      -280.7415
  41   2.0000     -10.316504      -280.7264
  42   2.0000     -10.316426      -280.7242
  43   2.0000     -10.311516      -280.5906
  44   2.0000     -10.311402      -280.5875
  45   2.0000     -10.306012      -280.4409
  46   2.0000     -10.304386      -280.3966
  47   2.0000     -10.302420      -280.3431
  48   2.0000     -10.302267      -280.3389
  49   2.0000     -10.301943      -280.3301
  50   2.0000     -10.300156      -280.2815
  51   2.0000     -10.300129      -280.2808
  52   2.0000     -10.299668      -280.2682
  53   2.0000     -10.299229      -280.2563
  54   2.0000     -10.299113      -280.2531
  55   2.0000     -10.297547      -280.2105
  56   2.0000     -10.297290      -280.2035
  57   2.0000     -10.296930      -280.1937
  58   2.0000     -10.296480      -280.1815
  59   2.0000     -10.296350      -280.1779
  60   2.0000     -10.294956      -280.1400
  61   2.0000     -10.292019      -280.0601
  62   2.0000     -10.291891      -280.0566
  63   2.0000     -10.291421      -280.0438
  64   2.0000     -10.291413      -280.0436
  65   2.0000     -10.291055      -280.0338
  66   2.0000     -10.290902      -280.0297
  67   2.0000     -10.290721      -280.0247
  68   2.0000     -10.289617      -279.9947
  69   2.0000     -10.288471      -279.9635
  70   2.0000     -10.288415      -279.9620
  71   2.0000     -10.288117      -279.9539
  72   2.0000     -10.287863      -279.9470
  73   2.0000     -10.287464      -279.9361
  74   2.0000     -10.287405      -279.9345
  75   2.0000     -10.286975      -279.9228
  76   2.0000     -10.286477      -279.9093
  77   2.0000     -10.285917      -279.8940
  78   2.0000     -10.285802      -279.8909
  79   2.0000     -10.285625      -279.8861
  80   2.0000     -10.285111      -279.8721
  81   2.0000      -8.150671      -221.7910
  82   2.0000      -8.053507      -219.1471
  83   2.0000      -8.050892      -219.0759
  84   2.0000      -8.047419      -218.9814
  85   2.0000      -8.046360      -218.9526
  86   2.0000      -6.121704      -166.5800
  87   2.0000      -6.113879      -166.3671
  88   2.0000      -6.113616      -166.3599
  89   2.0000      -6.023113      -163.8972
  90   2.0000      -6.020466      -163.8252
  91   2.0000      -6.019108      -163.7883
  92   2.0000      -6.017230      -163.7371
  93   2.0000      -6.016507      -163.7175
  94   2.0000      -6.016261      -163.7108
  95   2.0000      -6.014710      -163.6686
  96   2.0000      -6.012890      -163.6191
  97   2.0000      -6.012109      -163.5978
  98   2.0000      -6.011738      -163.5877
  99   2.0000      -6.008526      -163.5003
 100   2.0000      -6.007554      -163.4739
 101   2.0000      -1.156513       -31.4703
 102   2.0000      -1.134213       -30.8635
 103   2.0000      -1.133384       -30.8410
 104   2.0000      -1.131907       -30.8008
 105   2.0000      -1.060448       -28.8562
 106   2.0000      -1.023240       -27.8438
 107   2.0000      -1.021191       -27.7880
 108   2.0000      -1.017785       -27.6953
 109   2.0000      -1.016432       -27.6585
 110   2.0000      -1.011313       -27.5192
 111   2.0000      -1.008698       -27.4481
 112   2.0000      -1.005573       -27.3630
 113   2.0000      -1.000369       -27.2214
 114   2.0000      -0.998188       -27.1621
 115   2.0000      -0.996833       -27.1252
 116   2.0000      -0.994557       -27.0633
 117   2.0000      -0.992476       -27.0066
 118   2.0000      -0.983126       -26.7522
 119   2.0000      -0.976185       -26.5634
 120   2.0000      -0.972493       -26.4629
 121   2.0000      -0.970333       -26.4041
 122   2.0000      -0.933254       -25.3951
 123   2.0000      -0.928610       -25.2688
 124   2.0000      -0.923446       -25.1282
 125   2.0000      -0.920651       -25.0522
 126   2.0000      -0.916897       -24.9500
 127   2.0000      -0.904222       -24.6051
 128   2.0000      -0.896540       -24.3961
 129   2.0000      -0.888417       -24.1751
 130   2.0000      -0.883600       -24.0440
 131   2.0000      -0.883363       -24.0375
 132   2.0000      -0.881844       -23.9962
 133   2.0000      -0.880615       -23.9628
 134   2.0000      -0.870483       -23.6870
 135   2.0000      -0.864827       -23.5331
 136   2.0000      -0.848684       -23.0939
 137   2.0000      -0.839089       -22.8328
 138   2.0000      -0.838443       -22.8152
 139   2.0000      -0.830463       -22.5980
 140   2.0000      -0.828059       -22.5326
 141   2.0000      -0.827134       -22.5074
 142   2.0000      -0.822093       -22.3703
 143   2.0000      -0.810118       -22.0444
 144   2.0000      -0.796888       -21.6844
 145   2.0000      -0.790428       -21.5086
 146   2.0000      -0.787747       -21.4357
 147   2.0000      -0.776661       -21.1340
 148   2.0000      -0.763335       -20.7714
 149   2.0000      -0.761785       -20.7292
 150   2.0000      -0.756711       -20.5911
 151   2.0000      -0.743845       -20.2411
 152   2.0000      -0.730967       -19.8906
 153   2.0000      -0.716992       -19.5103
 154   2.0000      -0.715561       -19.4714
 155   2.0000      -0.707339       -19.2477
 156   2.0000      -0.704601       -19.1732
 157   2.0000      -0.703748       -19.1500
 158   2.0000      -0.702547       -19.1173
 159   2.0000      -0.697780       -18.9876
 160   2.0000      -0.693929       -18.8828
 161   2.0000      -0.692166       -18.8348
 162   2.0000      -0.679767       -18.4974
 163   2.0000      -0.678872       -18.4730
 164   2.0000      -0.675019       -18.3682
 165   2.0000      -0.671356       -18.2685
 166   2.0000      -0.663788       -18.0626
 167   2.0000      -0.656368       -17.8607
 168   2.0000      -0.655960       -17.8496
 169   2.0000      -0.649698       -17.6792
 170   2.0000      -0.637099       -17.3363
 171   2.0000      -0.635041       -17.2803
 172   2.0000      -0.632289       -17.2055
 173   2.0000      -0.629861       -17.1394
 174   2.0000      -0.621016       -16.8987
 175   2.0000      -0.615742       -16.7552
 176   2.0000      -0.609714       -16.5912
 177   2.0000      -0.609414       -16.5830
 178   2.0000      -0.606543       -16.5049
 179   2.0000      -0.603994       -16.4355
 180   2.0000      -0.600294       -16.3348
 181   2.0000      -0.592114       -16.1122
 182   2.0000      -0.581139       -15.8136
 183   2.0000      -0.577110       -15.7040
 184   2.0000      -0.575255       -15.6535
 185   2.0000      -0.570720       -15.5301
 186   2.0000      -0.569881       -15.5073
 187   2.0000      -0.567096       -15.4315
 188   2.0000      -0.561820       -15.2879
 189   2.0000      -0.552487       -15.0339
 190   2.0000      -0.549149       -14.9431
 191   2.0000      -0.547992       -14.9116
 192   2.0000      -0.547179       -14.8895
 193   2.0000      -0.546287       -14.8652
 194   2.0000      -0.542535       -14.7631
 195   2.0000      -0.539119       -14.6702
 196   2.0000      -0.537894       -14.6368
 197   2.0000      -0.536896       -14.6097
 198   2.0000      -0.534716       -14.5504
 199   2.0000      -0.532670       -14.4947
 200   2.0000      -0.526510       -14.3271
 201   2.0000      -0.522601       -14.2207
 202   2.0000      -0.520731       -14.1698
 203   2.0000      -0.520120       -14.1532
 204   2.0000      -0.517224       -14.0744
 205   2.0000      -0.516866       -14.0646
 206   2.0000      -0.514696       -14.0056
 207   2.0000      -0.513792       -13.9810
 208   2.0000      -0.512830       -13.9548
 209   2.0000      -0.509773       -13.8716
 210   2.0000      -0.508450       -13.8356
 211   2.0000      -0.505806       -13.7637
 212   2.0000      -0.501450       -13.6451
 213   2.0000      -0.499009       -13.5787
 214   2.0000      -0.497619       -13.5409
 215   2.0000      -0.495633       -13.4869
 216   2.0000      -0.494644       -13.4600
 217   2.0000      -0.490577       -13.3493
 218   2.0000      -0.489063       -13.3081
 219   2.0000      -0.486853       -13.2479
 220   2.0000      -0.486332       -13.2338
 221   2.0000      -0.480972       -13.0879
 222   2.0000      -0.478522       -13.0212
 223   2.0000      -0.477939       -13.0054
 224   2.0000      -0.470470       -12.8021
 225   2.0000      -0.467389       -12.7183
 226   2.0000      -0.465504       -12.6670
 227   2.0000      -0.464670       -12.6443
 228   2.0000      -0.462925       -12.5968
 229   2.0000      -0.461367       -12.5544
 230   2.0000      -0.458648       -12.4804
 231   2.0000      -0.458084       -12.4651
 232   2.0000      -0.454257       -12.3610
 233   2.0000      -0.452950       -12.3254
 234   2.0000      -0.450609       -12.2617
 235   2.0000      -0.450167       -12.2497
 236   2.0000      -0.447378       -12.1738
 237   2.0000      -0.445408       -12.1202
 238   2.0000      -0.443825       -12.0771
 239   2.0000      -0.443257       -12.0616
 240   2.0000      -0.441324       -12.0090
 241   2.0000      -0.441099       -12.0029
 242   2.0000      -0.439429       -11.9575
 243   2.0000      -0.436273       -11.8716
 244   2.0000      -0.433877       -11.8064
 245   2.0000      -0.433494       -11.7960
 246   2.0000      -0.432754       -11.7758
 247   2.0000      -0.432128       -11.7588
 248   2.0000      -0.431728       -11.7479
 249   2.0000      -0.428718       -11.6660
 250   2.0000      -0.427436       -11.6311
 251   2.0000      -0.425373       -11.5750
 252   2.0000      -0.422223       -11.4893
 253   2.0000      -0.421816       -11.4782
 254   2.0000      -0.421103       -11.4588
 255   2.0000      -0.416999       -11.3471
 256   2.0000      -0.416345       -11.3293
 257   2.0000      -0.414028       -11.2663
 258   2.0000      -0.409259       -11.1365
 259   2.0000      -0.406326       -11.0567
 260   2.0000      -0.405361       -11.0304
 261   2.0000      -0.394863       -10.7448
 262   2.0000      -0.391147       -10.6437
 263   2.0000      -0.387390       -10.5414
 264   2.0000      -0.384526       -10.4635
 265   2.0000      -0.383635       -10.4392
 266   2.0000      -0.375558       -10.2195
 267   2.0000      -0.374783       -10.1984
 268   2.0000      -0.373910       -10.1746
 269   2.0000      -0.360277        -9.8036
 270   2.0000      -0.355603        -9.6765
 271   2.0000      -0.354168        -9.6374
 272   2.0000      -0.347771        -9.4633
 273   2.0000      -0.340203        -9.2574
 274   2.0000      -0.339319        -9.2333
 275   2.0000      -0.336303        -9.1513
 276   2.0000      -0.327734        -8.9181
 277   2.0000      -0.318711        -8.6726
 278   2.0000      -0.317361        -8.6358
 279   2.0000      -0.306608        -8.3432
 280   2.0000      -0.298516        -8.1230
 281   2.0000      -0.294429        -8.0118
 282   2.0000      -0.289247        -7.8708
 283   2.0000      -0.282747        -7.6939
 284   2.0000      -0.267862        -7.2889
 285   2.0000      -0.247745        -6.7415
 286   0.0000      -0.137693        -3.7468
 287   0.0000      -0.095435        -2.5969
 288   0.0000      -0.093543        -2.5454
 289   0.0000      -0.063660        -1.7323
 290   0.0000      -0.058705        -1.5974

MULLIKEN ATOMIC CHARGES
-----------------------
   0 C :    0.266160
   1 C :   -0.334513
   2 C :   -0.174129
   3 N :    0.152615
   4 C :   -0.207148
   5 N :    0.182815
   6 C :    0.034388
   7 C :    0.015180
   8 C :   -0.080960
   9 C :    0.094824
  10 C :    0.096093
  11 C :   -0.082442
  12 C :   -0.020125
  13 C :    0.037132
  14 C :    0.036082
  15 C :   -0.017246
  16 C :    0.133674
  17 O :   -0.139701
  18 C :   -0.126627
  19 C :    0.089211
  20 C :   -0.096884
  21 C :    0.017745
  22 C :    0.096848
  23 C :   -0.027417
  24 S :    0.137524
  25 C :   -0.047440
  26 C :    0.129084
  27 C :   -0.015699
  28 C :   -0.049485
  29 S :    0.135881
  30 C :   -0.158630
  31 C :   -0.034178
  32 C :    0.221868
  33 C :   -0.072455
  34 C :   -0.056875
  35 N :    0.008267
  36 C :   -0.096034
  37 C :   -0.128594
  38 N :    0.047411
  39 C :   -0.228629
  40 N :    0.249519
  41 C :   -0.231245
  42 N :    0.249555
  43 C :    0.190944
  44 C :    0.000786
  45 C :   -0.030031
  46 N :   -0.312771
  47 S :    0.571310
  48 N :   -0.291990
  49 C :   -0.147240
  50 C :   -0.043566
  51 C :    0.132280
  52 C :   -0.012366
  53 S :    0.140599
  54 C :   -0.050358
  55 C :    0.096345
  56 C :   -0.031575
  57 C :   -0.052755
  58 S :    0.122282
  59 C :   -0.095458
  60 C :    0.000404
  61 C :    0.047769
  62 C :   -0.083778
  63 C :    0.299715
  64 C :   -0.346278
  65 C :   -0.180678
  66 N :    0.146641
  67 C :   -0.203901
  68 N :    0.162842
  69 C :    0.049353
  70 C :    0.001568
  71 C :    0.158683
  72 O :   -0.152175
  73 C :   -0.084659
  74 C :    0.101098
  75 C :    0.097767
  76 C :   -0.084540
  77 C :   -0.021473
  78 C :    0.037364
  79 C :    0.037154
  80 C :   -0.019457
  81 H :   -0.009836
  82 H :   -0.006431
  83 H :   -0.009346
  84 H :   -0.004575
  85 H :   -0.005174
  86 H :   -0.015107
  87 H :    0.027802
  88 H :   -0.005478
  89 H :   -0.022121
  90 H :   -0.029866
  91 H :   -0.002905
  92 H :   -0.005757
  93 H :   -0.019561
  94 H :   -0.027165
  95 H :    0.012743
  96 H :    0.019513
  97 H :   -0.012172
  98 H :   -0.006229
  99 H :   -0.007806
 100 H :   -0.004532
 101 H :   -0.005189
 102 H :   -0.016084
Sum of atomic charges:    0.0000000

LOEWDIN ATOMIC CHARGES
----------------------
   0 C :    0.065444
   1 C :   -0.137649
   2 C :   -0.019406
   3 N :   -0.051654
   4 C :   -0.021062
   5 N :   -0.035833
   6 C :   -0.023410
   7 C :   -0.057414
   8 C :    0.033505
   9 C :   -0.008952
  10 C :   -0.005220
  11 C :    0.014985
  12 C :   -0.006833
  13 C :   -0.012321
  14 C :   -0.012506
  15 C :   -0.008939
  16 C :    0.083713
  17 O :   -0.139815
  18 C :   -0.084216
  19 C :    0.050386
  20 C :   -0.166097
  21 C :   -0.008936
  22 C :   -0.037968
  23 C :   -0.144940
  24 S :    0.415761
  25 C :   -0.024181
  26 C :   -0.041769
  27 C :   -0.153453
  28 C :   -0.025997
  29 S :    0.425432
  30 C :   -0.152623
  31 C :   -0.020406
  32 C :   -0.029517
  33 C :   -0.004894
  34 C :   -0.007557
  35 N :   -0.008066
  36 C :   -0.021988
  37 C :   -0.022928
  38 N :    0.009624
  39 C :   -0.038799
  40 N :   -0.000554
  41 C :   -0.037294
  42 N :    0.002251
  43 C :   -0.031264
  44 C :   -0.034624
  45 C :   -0.043209
  46 N :   -0.288179
  47 S :    0.693146
  48 N :   -0.277611
  49 C :   -0.152413
  50 C :   -0.023122
  51 C :   -0.039959
  52 C :   -0.158404
  53 S :    0.427754
  54 C :   -0.019430
  55 C :   -0.046756
  56 C :   -0.147673
  57 C :   -0.030454
  58 S :    0.403711
  59 C :   -0.165856
  60 C :    0.004109
  61 C :    0.050594
  62 C :   -0.085708
  63 C :    0.075961
  64 C :   -0.138631
  65 C :   -0.016686
  66 N :   -0.053479
  67 C :   -0.026962
  68 N :   -0.048076
  69 C :   -0.026297
  70 C :   -0.055207
  71 C :    0.087961
  72 O :   -0.139136
  73 C :    0.031832
  74 C :   -0.008194
  75 C :   -0.006021
  76 C :    0.019324
  77 C :   -0.005588
  78 C :   -0.013211
  79 C :   -0.012167
  80 C :   -0.009752
  81 H :    0.039980
  82 H :    0.038348
  83 H :    0.034443
  84 H :    0.033283
  85 H :    0.032913
  86 H :    0.032407
  87 H :    0.047340
  88 H :    0.033876
  89 H :    0.035022
  90 H :    0.032316
  91 H :    0.031108
  92 H :    0.030489
  93 H :    0.035915
  94 H :    0.032529
  95 H :    0.036016
  96 H :    0.044229
  97 H :    0.038965
  98 H :    0.039208
  99 H :    0.035051
 100 H :    0.033321
 101 H :    0.032849
 102 H :    0.032168

  Mayer bond orders larger than 0.100000
B(  0-C ,  1-C ) :   1.6555 B(  0-C ,  6-C ) :   0.9989 B(  0-C , 18-C ) :   1.0296
B(  1-C ,  2-C ) :   1.1294 B(  1-C ,  4-C ) :   1.1641 B(  2-C ,  3-N ) :   2.9865
B(  4-C ,  5-N ) :   3.0072 B(  6-C ,  7-C ) :   1.2144 B(  6-C , 11-C ) :   1.4575
B(  7-C ,  8-C ) :   1.4746 B(  7-C , 16-C ) :   0.9211 B(  8-C ,  9-C ) :   1.1859
B(  8-C , 81-H ) :   1.0157 B(  9-C , 10-C ) :   1.2547 B(  9-C , 15-C ) :   1.2446
B( 10-C , 11-C ) :   1.2064 B( 10-C , 12-C ) :   1.2406 B( 11-C , 82-H ) :   0.9934
B( 12-C , 13-C ) :   1.4897 B( 12-C , 83-H ) :   0.9975 B( 13-C , 14-C ) :   1.2594
B( 13-C , 84-H ) :   0.9893 B( 14-C , 15-C ) :   1.4892 B( 14-C , 85-H ) :   0.9895
B( 15-C , 86-H ) :   0.9978 B( 16-C , 17-O ) :   2.2698 B( 16-C , 18-C ) :   0.9347
B( 18-C , 19-C ) :   1.6999 B( 19-C , 20-C ) :   1.1037 B( 19-C , 87-H ) :   0.9257
B( 20-C , 21-C ) :   1.5120 B( 20-C , 24-S ) :   1.0734 B( 21-C , 22-C ) :   1.1980
B( 21-C , 88-H ) :   0.9920 B( 22-C , 23-C ) :   1.2711 B( 22-C , 28-C ) :   1.2976
B( 23-C , 24-S ) :   1.0529 B( 23-C , 25-C ) :   1.3847 B( 25-C , 26-C ) :   1.3046
B( 25-C , 28-C ) :   0.1010 B( 25-C , 89-H ) :   1.0034 B( 26-C , 27-C ) :   1.2590
B( 26-C , 31-C ) :   1.1411 B( 27-C , 28-C ) :   1.4003 B( 27-C , 29-S ) :   1.0093
B( 28-C , 90-H ) :   1.0022 B( 29-S , 30-C ) :   1.0796 B( 30-C , 31-C ) :   1.5083
B( 30-C , 32-C ) :   1.1729 B( 31-C , 91-H ) :   0.9920 B( 32-C , 33-C ) :   1.2654
B( 32-C , 43-C ) :   0.1237 B( 32-C , 45-C ) :   1.1926 B( 33-C , 34-C ) :   1.1028
B( 33-C , 38-N ) :   1.4404 B( 34-C , 35-N ) :   1.4013 B( 34-C , 43-C ) :   1.2544
B( 35-N , 36-C ) :   1.7068 B( 36-C , 37-C ) :   1.2091 B( 36-C , 41-C ) :   1.1613
B( 37-C , 38-N ) :   1.7355 B( 37-C , 39-C ) :   1.1568 B( 39-C , 40-N ) :   3.0493
B( 41-C , 42-N ) :   3.0381 B( 43-C , 44-C ) :   1.2143 B( 43-C , 49-C ) :   1.1828
B( 44-C , 45-C ) :   1.1044 B( 44-C , 48-N ) :   1.5019 B( 45-C , 46-N ) :   1.4757
B( 46-N , 47-S ) :   1.2885 B( 46-N , 48-N ) :   0.1520 B( 47-S , 48-N ) :   1.2840
B( 49-C , 50-C ) :   1.5129 B( 49-C , 53-S ) :   1.0751 B( 50-C , 51-C ) :   1.1428
B( 50-C , 92-H ) :   0.9893 B( 51-C , 52-C ) :   1.2575 B( 51-C , 57-C ) :   1.3033
B( 52-C , 53-S ) :   0.9899 B( 52-C , 54-C ) :   1.4073 B( 54-C , 55-C ) :   1.2876
B( 54-C , 93-H ) :   1.0047 B( 55-C , 56-C ) :   1.2575 B( 55-C , 60-C ) :   1.1663
B( 56-C , 57-C ) :   1.3834 B( 56-C , 58-S ) :   1.0585 B( 57-C , 94-H ) :   1.0049
B( 58-S , 59-C ) :   1.0616 B( 59-C , 60-C ) :   1.5098 B( 59-C , 61-C ) :   1.1820
B( 60-C , 95-H ) :   0.9827 B( 61-C , 62-C ) :   1.6216 B( 61-C , 96-H ) :   0.9230
B( 62-C , 63-C ) :   1.0641 B( 62-C , 71-C ) :   0.9327 B( 63-C , 64-C ) :   1.6369
B( 63-C , 69-C ) :   0.9868 B( 64-C , 65-C ) :   1.1459 B( 64-C , 67-C ) :   1.1353
B( 65-C , 66-N ) :   2.9678 B( 67-C , 68-N ) :   2.9961 B( 69-C , 70-C ) :   1.2146
B( 69-C , 76-C ) :   1.4481 B( 70-C , 71-C ) :   0.9548 B( 70-C , 73-C ) :   1.4672
B( 71-C , 72-O ) :   2.1792 B( 73-C , 74-C ) :   1.1786 B( 73-C , 97-H ) :   1.0174
B( 74-C , 75-C ) :   1.2559 B( 74-C , 80-C ) :   1.2430 B( 75-C , 76-C ) :   1.2055
B( 75-C , 77-C ) :   1.2389 B( 76-C , 98-H ) :   0.9913 B( 77-C , 78-C ) :   1.4891
B( 77-C , 99-H ) :   0.9980 B( 78-C , 79-C ) :   1.2596 B( 78-C ,100-H ) :   0.9883
B( 79-C , 80-C ) :   1.4895 B( 79-C ,101-H ) :   0.9881 B( 80-C ,102-H ) :   0.9983

-----------------------------------------------------------------------------
         ABSORPTION SPECTRUM VIA TRANSITION ELECTRIC DIPOLE MOMENTS
-----------------------------------------------------------------------------
State   Energy  Wavelength   fosc         T2         TX        TY        TZ
        (cm-1)    (nm)                  (au**2)     (au)      (au)      (au)
-----------------------------------------------------------------------------
   0    9146.9   1093.3   0.837911468  30.15772   1.60856   3.63500  -3.78907
   1   13641.1    733.1   0.007740033   0.18680  -0.02626   0.05708   0.42761
   2   15618.9    640.2   0.074392223   1.56802   0.24088   1.13042  -0.48182
   3   19258.3    519.3   0.382943770   6.54624  -0.93812  -2.21520   0.87123
   4   19646.2    509.0   0.370038865   6.20076  -0.82949  -1.59966   1.71866
   5   20459.8    488.8   0.596885466   9.60428   0.84917   1.82149  -2.35910
   6   23299.8    429.2   0.125399905   1.77182   0.34740   1.09190  -0.67742
   7   24127.1    414.5   0.020062114   0.27375   0.20011   0.47425   0.09375
   8   24230.7    412.7   0.076177249   1.03499  -0.08805  -1.01312  -0.02876
   9   24556.3    407.2   0.324162535   4.34586  -0.59190  -1.83872   0.78399
  10   24965.7    400.6   0.129074027   1.70205  -0.21374  -0.88124   0.93796
  11   25287.6    395.5   0.009364249   0.12191   0.33842  -0.02858   0.08103
  12   25669.9    389.6   0.025293791   0.32439   0.23914  -0.46921   0.21690
  13   25872.1    386.5   0.100197343   1.27497   0.21574   1.09940  -0.14053
  14   26743.7    373.9   0.026237690   0.32298  -0.05658  -0.38669   0.41262
  15   27581.1    362.6   0.018925985   0.22590  -0.01596  -0.26928  -0.39133
  16   27765.8    360.2   0.027953300   0.33144  -0.13166  -0.20947   0.51983
  17   28028.6    356.8   0.010272518   0.12066   0.01297   0.33773  -0.08018
  18   28170.8    355.0   0.056102006   0.65562  -0.44550  -0.55992  -0.37900
  19   28373.1    352.4   0.020883085   0.24231  -0.44393   0.11648   0.17795
  20   28457.9    351.4   0.048738712   0.56383  -0.16125  -0.49772   0.53861
  21   28813.2    347.1   0.210945155   2.41021  -0.25725  -1.23673   0.90252
  22   29123.3    343.4   0.061044127   0.69005   0.11539   0.65703  -0.49502
  23   29209.2    342.4   0.092595436   1.04363   0.27238   0.89025  -0.42058
  24   29487.8    339.1   0.040136724   0.44810   0.05231   0.16150   0.64752
  25   29776.3    335.8   0.131393881   1.45271  -0.60453  -1.03888   0.08938
  26   30075.3    332.5   0.051415346   0.56281  -0.43122   0.38119  -0.48120
  27   30330.4    329.7   0.307580278   3.33854  -0.32422  -1.79610   0.08623
  28   30999.2    322.6   0.243078683   2.58150   0.24707  -1.00731  -1.22710
  29   31409.2    318.4   0.012791863   0.13408  -0.15391   0.33200   0.01295
  30   31789.3    314.6   0.039545746   0.40954  -0.18500  -0.60976   0.05924
  31   31961.3    312.9   0.023973982   0.24694   0.01058  -0.26450  -0.42056
  32   32436.1    308.3   0.344344047   3.49494  -0.36398  -1.40664   1.17635
  33   32725.2    305.6   0.315390259   3.17280   0.47213   0.26474  -1.69700
  34   32928.1    303.7   0.259256623   2.59202   0.06098   1.40055   0.79168
  35   33290.9    300.4   0.018570567   0.18364   0.35404  -0.14342   0.19425
  36   33502.3    298.5   0.229292407   2.25315   0.77965  -1.14429  -0.57957
  37   33671.5    297.0   0.003607356   0.03527  -0.13788   0.12268   0.03475
  38   34115.9    293.1   0.293018361   2.82757   0.07706   1.55292  -0.64038
  39   34182.4    292.5   0.250311638   2.41076  -0.26091  -1.20580  -0.94272
  40   34292.9    291.6   0.281653380   2.70387  -0.69368  -0.73554  -1.29679
  41   34523.7    289.7   0.171702318   1.63732  -0.52534  -0.99221  -0.61389
  42   34739.1    287.9   0.141502225   1.34098  -0.16758  -0.53409  -1.01373
  43   34798.7    287.4   0.081227743   0.76845  -0.23263  -0.82919  -0.16363
  44   35025.0    285.5   0.107637153   1.01172   0.71803   0.62866   0.31770
  45   35251.4    283.7   0.453337356   4.23371   0.25335  -1.95901   0.57601
  46   35397.9    282.5   0.146145274   1.35920  -0.08670   1.15158  -0.15980
  47   35639.3    280.6   0.043452432   0.40138  -0.04002   0.24081  -0.58463
  48   35782.4    279.5   0.031702353   0.29167   0.32817  -0.13205   0.40809
  49   36251.3    275.9   0.046045319   0.41816  -0.20617   0.61271  -0.01544
  50   36368.8    275.0   0.055393539   0.50142  -0.19476   0.64604  -0.21476
  51   36494.5    274.0   0.001050274   0.00947   0.02078   0.09481   0.00727
  52   36869.3    271.2   0.007019448   0.06268  -0.07845  -0.18365   0.15098
  53   37146.2    269.2   0.002625580   0.02327  -0.11112   0.04825  -0.09270
  54   37301.6    268.1   0.038289691   0.33793  -0.01698  -0.42989   0.39095
  55   37534.3    266.4   0.054148338   0.47493  -0.36153  -0.45711   0.36780
  56   37879.2    264.0   0.005738994   0.04988  -0.13713   0.04057  -0.17154
  57   38569.0    259.3   0.013916164   0.11878  -0.08259  -0.14285   0.30258
  58   38614.3    259.0   0.131849614   1.12410   0.03710   1.01906   0.29025
  59   38857.8    257.3   0.009694882   0.08214   0.00864   0.16532   0.23395
  60   38933.7    256.8   0.087286813   0.73807   0.12203   0.83830  -0.14296
  61   39155.5    255.4   0.011361455   0.09552   0.08379   0.26519   0.13483
  62   39341.1    254.2   0.131042272   1.09658   0.07781   0.21702   1.02148
  63   39349.3    254.1   0.005622202   0.04704  -0.09609   0.14724  -0.12698
  64   39669.6    252.1   0.037556011   0.31167   0.00015   0.31596  -0.46026
  65   39871.8    250.8   0.005925199   0.04892  -0.15023   0.11470   0.11488
  66   40072.6    249.5   0.073606124   0.60470   0.03109   0.76383   0.14249
  67   40248.1    248.5   0.122712595   1.00374   0.18176  -0.60361  -0.77869

FINAL SINGLE POINT ENERGY     -5136.301771223571

DIPOLE MOMENT
-------------
                                X             Y             Z
Electronic contribution:    -10.58272       3.98675      -0.44268
Nuclear contribution   :     13.09577      -6.36945       1.40748
                        -----------------------------------------
Total Dipole Moment    :      2.51305      -2.38270       0.96480
                        -----------------------------------------
Magnitude (a.u.)       :      3.59493
Magnitude (Debye)      :      9.13758

Rotational constants in cm-1:     0.002406     0.000137     0.000131
Rotational constants in MHz :    72.125660     4.104005     3.931026

                             ****ORCA TERMINATED NORMALLY****
TOTAL RUN TIME: 0 days 0 hours 11 minutes 33 seconds 103 msec
