                         Program Version 4.2.0 -  RELEASE  -
|  1> # ORCA input file
|  2> # SCF done       -198.961853163687          0.000354718123
|  3> ! CAM-B3LYP def2-SVP def2/J RIJCOSX Grid4 TightSCF
|  4> %maxcore 5000
|  5> %tddft
|  6>     Mode sTDDFT
|  7>     Ethresh 5.0
|  8>     maxcore 5000
|  9> end
| 10>
| 11> %pal
| 12>   nprocs 6
| 13>   end
| 14> * xyz 0 1
| 15>    C        2.87351         4.65928         0.87680
| 16>    C        2.31664         5.82809         1.31100
| 17>    C        3.02989         7.04090         1.41611
| 18>    N        3.57658         8.04509         1.50608
| 19>    C        0.98900         5.91568         1.78211
| 20>    N       -0.06573         6.00130         2.22594
| 21>    C        4.28125         4.41293         0.59583
| 22>    C        4.51701         3.00435         0.62921
| 23>    C        5.76161         2.48082         0.41856
| 24>    C        6.83941         3.35294         0.15071
| 25>    C        6.60752         4.75948         0.10360
| 26>    C        5.31157         5.27544         0.33294
| 27>    C        7.69160         5.61639        -0.17542
| 28>    C        8.94399         5.11157        -0.39736
| 29>    C        9.17128         3.72763        -0.34995
| 30>    C        8.14197         2.86724        -0.08037
| 31>    C        3.25365         2.29914         0.88657
| 32>    O        3.05756         1.11913         1.04944
| 33>    C        2.20644         3.37031         0.82339
| 34>    C        0.91802         3.04576         0.57768
| 35>    C       -0.10473         3.92007         0.09755
| 36>    N        0.16781         4.94560        -0.68958
| 37>    C       -1.02722         5.44637        -1.07325
| 38>    C       -2.13432         4.65425        -0.51901
| 39>    C       -3.43468         5.20957        -0.92871
| 40>    O       -4.54331         4.79003        -0.68973
| 41>    C       -3.03392         6.39949        -1.70979
| 42>    C       -1.55488         6.49131        -1.78523
| 43>    N       -1.18009         7.59489        -2.47896
| 44>    C       -2.29837         8.18708        -2.81042
| 45>    C       -3.49490         7.50105        -2.34962
| 46>    C       -1.55906         3.69661         0.27253
| 47>    C       -2.18947         2.73100         1.10753
| 48>    C       -1.61365         2.22664         2.22285
| 49>    C       -2.18453         1.27418         3.11217
| 50>    S       -1.55152         1.21319         4.72439
| 51>    C       -2.63135        -0.07870         5.16298
| 52>    C       -3.43029        -0.44512         4.07072
| 53>    C       -3.18036         0.32127         2.92469
| 54>    C       -3.89083         0.06978         1.63342
| 55>    C       -4.50590        -1.32640         1.62072
| 56>    C       -5.34877        -1.53746         2.88232
| 57>    O       -6.01440        -2.77901         2.87667
| 58>    C       -4.44292        -1.52911         4.11472
| 59>    C       -2.68257        -0.63109         6.46030
| 60>    N       -3.45938        -1.68237         6.71412
| 61>    C       -3.34515        -1.92914         8.02758
| 62>    C       -2.45441        -0.95580         8.67808
| 63>    C       -2.30440        -1.26791        10.11550
| 64>    O       -1.61907        -0.70907        10.94054
| 65>    C       -3.17509        -2.44569        10.27392
| 66>    C       -3.78837        -2.81578         8.98090
| 67>    N       -4.57840        -3.90570         9.12037
| 68>    C       -4.49286        -4.23021        10.38952
| 69>    C       -3.63150        -3.36459        11.16512
| 70>    C       -2.00433        -0.12631         7.68762
| 71>    C       -1.12227         0.98940         7.79637
| 72>    C       -1.03451         1.75476         8.91025
| 73>    C       -0.17138         2.87990         8.95767
| 74>    C       -0.18089         3.82554         9.93778
| 75>    C        0.70817         4.96898        10.05563
| 76>    C        1.64566         5.37903         9.14290
| 77>    C        2.48656         6.49805         9.32224
| 78>    N        3.20509         7.38948         9.40621
| 79>    C        1.90203         4.77631         7.89378
| 80>    N        2.16898         4.35923         6.85696
| 81>    C        0.40702         5.63661        11.31706
| 82>    C       -0.68364         4.96588        11.94077
| 83>    C       -1.12177         3.84263        11.09356
| 84>    O       -2.07429         3.12024        11.28528
| 85>    C       -1.19860         5.37837        13.13541
| 86>    C       -0.63511         6.50360        13.77710
| 87>    C        0.45769         7.18014        13.16194
| 88>    C        0.97017         6.72889        11.92435
| 89>    C        1.00933         8.30544        13.80830
| 90>    C        0.50636         8.74304        15.00305
| 91>    C       -0.56931         8.07545        15.60789
| 92>    C       -1.12740         6.97924        15.00822
| 93>    H        5.92092         1.41323         0.45228
| 94>    H        5.15846         6.34215         0.28128
| 95>    H        7.51291         6.68091        -0.20819
| 96>    H        9.76754         5.77618        -0.61072
| 97>    H       10.16567         3.34709        -0.52866
| 98>    H        8.31078         1.80107        -0.04234
| 99>    H        0.65726         1.99557         0.66261
|100>    H       -2.28193         9.09865        -3.38240
|101>    H       -4.50195         7.83091        -2.51122
|102>    H       -3.21168         2.49638         0.85195
|103>    H       -0.65398         2.62160         2.53458
|104>    H       -3.19459         0.18185         0.79915
|105>    H       -4.68411         0.81418         1.50825
|106>    H       -3.72187        -2.08538         1.59136
|107>    H       -5.12675        -1.44505         0.72962
|108>    H       -6.08259        -0.71685         2.95981
|109>    H       -6.61145        -2.81912         2.12212
|110>    H       -3.93907        -2.49785         4.17720
|111>    H       -5.03562        -1.45659         5.02776
|112>    H       -5.03754        -5.07701        10.76979
|113>    H       -3.42794        -3.46162        12.21310
|114>    H       -0.52536         1.24879         6.93148
|115>    H       -1.65009         1.54296         9.77215
|116>    H        0.53531         2.97580         8.14241
|117>    H       -2.02768         4.85167        13.58421
|118>    H        1.79864         7.26299        11.48701
|119>    H        1.83690         8.81656        13.33854
|120>    H        0.93451         9.60685        15.48921
|121>    H       -0.95360         8.43457        16.55093
|122>    H       -1.95600         6.46115        15.46854
|123> *
|124>
|125>                          ****END OF INPUT****

CARTESIAN COORDINATES (ANGSTROEM)
---------------------------------
  C      2.873510    4.659280    0.876800
  C      2.316640    5.828090    1.311000
  C      3.029890    7.040900    1.416110
  N      3.576580    8.045090    1.506080
  C      0.989000    5.915680    1.782110
  N     -0.065730    6.001300    2.225940
  C      4.281250    4.412930    0.595830
  C      4.517010    3.004350    0.629210
  C      5.761610    2.480820    0.418560
  C      6.839410    3.352940    0.150710
  C      6.607520    4.759480    0.103600
  C      5.311570    5.275440    0.332940
  C      7.691600    5.616390   -0.175420
  C      8.943990    5.111570   -0.397360
  C      9.171280    3.727630   -0.349950
  C      8.141970    2.867240   -0.080370
  C      3.253650    2.299140    0.886570
  O      3.057560    1.119130    1.049440
  C      2.206440    3.370310    0.823390
  C      0.918020    3.045760    0.577680
  C     -0.104730    3.920070    0.097550
  N      0.167810    4.945600   -0.689580
  C     -1.027220    5.446370   -1.073250
  C     -2.134320    4.654250   -0.519010
  C     -3.434680    5.209570   -0.928710
  O     -4.543310    4.790030   -0.689730
  C     -3.033920    6.399490   -1.709790
  C     -1.554880    6.491310   -1.785230
  N     -1.180090    7.594890   -2.478960
  C     -2.298370    8.187080   -2.810420
  C     -3.494900    7.501050   -2.349620
  C     -1.559060    3.696610    0.272530
  C     -2.189470    2.731000    1.107530
  C     -1.613650    2.226640    2.222850
  C     -2.184530    1.274180    3.112170
  S     -1.551520    1.213190    4.724390
  C     -2.631350   -0.078700    5.162980
  C     -3.430290   -0.445120    4.070720
  C     -3.180360    0.321270    2.924690
  C     -3.890830    0.069780    1.633420
  C     -4.505900   -1.326400    1.620720
  C     -5.348770   -1.537460    2.882320
  O     -6.014400   -2.779010    2.876670
  C     -4.442920   -1.529110    4.114720
  C     -2.682570   -0.631090    6.460300
  N     -3.459380   -1.682370    6.714120
  C     -3.345150   -1.929140    8.027580
  C     -2.454410   -0.955800    8.678080
  C     -2.304400   -1.267910   10.115500
  O     -1.619070   -0.709070   10.940540
  C     -3.175090   -2.445690   10.273920
  C     -3.788370   -2.815780    8.980900
  N     -4.578400   -3.905700    9.120370
  C     -4.492860   -4.230210   10.389520
  C     -3.631500   -3.364590   11.165120
  C     -2.004330   -0.126310    7.687620
  C     -1.122270    0.989400    7.796370
  C     -1.034510    1.754760    8.910250
  C     -0.171380    2.879900    8.957670
  C     -0.180890    3.825540    9.937780
  C      0.708170    4.968980   10.055630
  C      1.645660    5.379030    9.142900
  C      2.486560    6.498050    9.322240
  N      3.205090    7.389480    9.406210
  C      1.902030    4.776310    7.893780
  N      2.168980    4.359230    6.856960
  C      0.407020    5.636610   11.317060
  C     -0.683640    4.965880   11.940770
  C     -1.121770    3.842630   11.093560
  O     -2.074290    3.120240   11.285280
  C     -1.198600    5.378370   13.135410
  C     -0.635110    6.503600   13.777100
  C      0.457690    7.180140   13.161940
  C      0.970170    6.728890   11.924350
  C      1.009330    8.305440   13.808300
  C      0.506360    8.743040   15.003050
  C     -0.569310    8.075450   15.607890
  C     -1.127400    6.979240   15.008220
  H      5.920920    1.413230    0.452280
  H      5.158460    6.342150    0.281280
  H      7.512910    6.680910   -0.208190
  H      9.767540    5.776180   -0.610720
  H     10.165670    3.347090   -0.528660
  H      8.310780    1.801070   -0.042340
  H      0.657260    1.995570    0.662610
  H     -2.281930    9.098650   -3.382400
  H     -4.501950    7.830910   -2.511220
  H     -3.211680    2.496380    0.851950
  H     -0.653980    2.621600    2.534580
  H     -3.194590    0.181850    0.799150
  H     -4.684110    0.814180    1.508250
  H     -3.721870   -2.085380    1.591360
  H     -5.126750   -1.445050    0.729620
  H     -6.082590   -0.716850    2.959810
  H     -6.611450   -2.819120    2.122120
  H     -3.939070   -2.497850    4.177200
  H     -5.035620   -1.456590    5.027760
  H     -5.037540   -5.077010   10.769790
  H     -3.427940   -3.461620   12.213100
  H     -0.525360    1.248790    6.931480
  H     -1.650090    1.542960    9.772150
  H      0.535310    2.975800    8.142410
  H     -2.027680    4.851670   13.584210
  H      1.798640    7.262990   11.487010
  H      1.836900    8.816560   13.338540
  H      0.934510    9.606850   15.489210
  H     -0.953600    8.434570   16.550930
  H     -1.956000    6.461150   15.468540

 Total Charge           Charge          ....    0
 Multiplicity           Mult            ....    1
 Number of Electrons    NEL             ....  526
 Basis Dimension        Dim             .... 1246

ORBITAL ENERGIES
----------------

  NO   OCC          E(Eh)            E(eV)
   0   2.0000     -88.971754     -2421.0445
   1   2.0000     -19.226822      -523.1884
   2   2.0000     -19.216090      -522.8964
   3   2.0000     -19.210177      -522.7355
   4   2.0000     -19.204854      -522.5906
   5   2.0000     -19.204360      -522.5772
   6   2.0000     -14.423122      -392.4731
   7   2.0000     -14.419959      -392.3870
   8   2.0000     -14.419428      -392.3726
   9   2.0000     -14.414168      -392.2295
  10   2.0000     -14.413624      -392.2146
  11   2.0000     -14.410444      -392.1281
  12   2.0000     -14.403253      -391.9324
  13   2.0000     -14.397597      -391.7785
  14   2.0000     -10.376910      -282.3701
  15   2.0000     -10.376763      -282.3661
  16   2.0000     -10.365991      -282.0730
  17   2.0000     -10.360842      -281.9328
  18   2.0000     -10.354498      -281.7602
  19   2.0000     -10.351040      -281.6661
  20   2.0000     -10.347200      -281.5616
  21   2.0000     -10.344676      -281.4929
  22   2.0000     -10.339637      -281.3558
  23   2.0000     -10.338212      -281.3170
  24   2.0000     -10.336622      -281.2738
  25   2.0000     -10.336025      -281.2575
  26   2.0000     -10.335690      -281.2484
  27   2.0000     -10.328193      -281.0444
  28   2.0000     -10.322696      -280.8948
  29   2.0000     -10.322598      -280.8922
  30   2.0000     -10.322107      -280.8788
  31   2.0000     -10.320441      -280.8335
  32   2.0000     -10.319599      -280.8106
  33   2.0000     -10.316601      -280.7290
  34   2.0000     -10.316036      -280.7136
  35   2.0000     -10.315412      -280.6966
  36   2.0000     -10.313388      -280.6416
  37   2.0000     -10.313364      -280.6409
  38   2.0000     -10.313258      -280.6380
  39   2.0000     -10.311935      -280.6020
  40   2.0000     -10.309233      -280.5285
  41   2.0000     -10.309088      -280.5246
  42   2.0000     -10.306404      -280.4515
  43   2.0000     -10.305538      -280.4280
  44   2.0000     -10.303024      -280.3595
  45   2.0000     -10.302206      -280.3373
  46   2.0000     -10.301727      -280.3242
  47   2.0000     -10.301454      -280.3168
  48   2.0000     -10.301027      -280.3052
  49   2.0000     -10.301015      -280.3049
  50   2.0000     -10.300676      -280.2957
  51   2.0000     -10.298513      -280.2368
  52   2.0000     -10.298321      -280.2316
  53   2.0000     -10.297406      -280.2067
  54   2.0000     -10.296937      -280.1939
  55   2.0000     -10.295999      -280.1684
  56   2.0000     -10.294667      -280.1321
  57   2.0000     -10.293427      -280.0984
  58   2.0000     -10.293173      -280.0915
  59   2.0000     -10.293002      -280.0868
  60   2.0000     -10.292315      -280.0681
  61   2.0000     -10.292060      -280.0612
  62   2.0000     -10.291212      -280.0381
  63   2.0000     -10.289814      -280.0001
  64   2.0000     -10.289343      -279.9873
  65   2.0000     -10.289060      -279.9796
  66   2.0000     -10.288271      -279.9581
  67   2.0000     -10.283065      -279.8164
  68   2.0000     -10.283012      -279.8150
  69   2.0000     -10.282828      -279.8100
  70   2.0000     -10.282305      -279.7957
  71   2.0000     -10.282057      -279.7890
  72   2.0000     -10.281899      -279.7847
  73   2.0000     -10.281425      -279.7718
  74   2.0000     -10.281381      -279.7706
  75   2.0000     -10.280645      -279.7506
  76   2.0000     -10.266640      -279.3695
  77   2.0000     -10.259426      -279.1732
  78   2.0000      -8.066964      -219.5133
  79   2.0000      -6.036169      -164.2525
  80   2.0000      -6.032090      -164.1415
  81   2.0000      -6.029160      -164.0618
  82   2.0000      -1.141779       -31.0694
  83   2.0000      -1.130972       -30.7753
  84   2.0000      -1.125297       -30.6209
  85   2.0000      -1.120161       -30.4811
  86   2.0000      -1.095118       -29.7997
  87   2.0000      -1.088839       -29.6288
  88   2.0000      -1.074693       -29.2439
  89   2.0000      -1.069618       -29.1058
  90   2.0000      -1.052708       -28.6457
  91   2.0000      -1.022628       -27.8271
  92   2.0000      -1.014126       -27.5958
  93   2.0000      -1.004288       -27.3281
  94   2.0000      -1.003446       -27.3051
  95   2.0000      -0.997771       -27.1507
  96   2.0000      -0.994296       -27.0562
  97   2.0000      -0.989926       -26.9373
  98   2.0000      -0.977043       -26.5867
  99   2.0000      -0.967196       -26.3188
 100   2.0000      -0.946783       -25.7633
 101   2.0000      -0.936540       -25.4846
 102   2.0000      -0.932844       -25.3840
 103   2.0000      -0.928592       -25.2683
 104   2.0000      -0.926503       -25.2114
 105   2.0000      -0.918498       -24.9936
 106   2.0000      -0.913730       -24.8638
 107   2.0000      -0.908117       -24.7111
 108   2.0000      -0.893988       -24.3267
 109   2.0000      -0.886757       -24.1299
 110   2.0000      -0.884993       -24.0819
 111   2.0000      -0.879562       -23.9341
 112   2.0000      -0.876972       -23.8636
 113   2.0000      -0.870346       -23.6833
 114   2.0000      -0.863475       -23.4964
 115   2.0000      -0.853165       -23.2158
 116   2.0000      -0.841869       -22.9084
 117   2.0000      -0.832691       -22.6587
 118   2.0000      -0.831398       -22.6235
 119   2.0000      -0.827328       -22.5127
 120   2.0000      -0.823797       -22.4167
 121   2.0000      -0.816057       -22.2060
 122   2.0000      -0.813244       -22.1295
 123   2.0000      -0.786644       -21.4057
 124   2.0000      -0.778429       -21.1821
 125   2.0000      -0.770342       -20.9621
 126   2.0000      -0.760411       -20.6918
 127   2.0000      -0.757152       -20.6032
 128   2.0000      -0.753514       -20.5042
 129   2.0000      -0.749848       -20.4044
 130   2.0000      -0.731011       -19.8918
 131   2.0000      -0.722595       -19.6628
 132   2.0000      -0.719385       -19.5755
 133   2.0000      -0.714397       -19.4397
 134   2.0000      -0.711938       -19.3728
 135   2.0000      -0.704946       -19.1826
 136   2.0000      -0.702319       -19.1111
 137   2.0000      -0.699377       -19.0310
 138   2.0000      -0.691935       -18.8285
 139   2.0000      -0.682238       -18.5646
 140   2.0000      -0.679748       -18.4969
 141   2.0000      -0.676874       -18.4187
 142   2.0000      -0.667484       -18.1632
 143   2.0000      -0.661848       -18.0098
 144   2.0000      -0.657273       -17.8853
 145   2.0000      -0.650558       -17.7026
 146   2.0000      -0.644589       -17.5401
 147   2.0000      -0.637742       -17.3538
 148   2.0000      -0.636757       -17.3270
 149   2.0000      -0.630772       -17.1642
 150   2.0000      -0.624871       -17.0036
 151   2.0000      -0.623222       -16.9587
 152   2.0000      -0.617356       -16.7991
 153   2.0000      -0.614813       -16.7299
 154   2.0000      -0.611972       -16.6526
 155   2.0000      -0.607441       -16.5293
 156   2.0000      -0.602552       -16.3963
 157   2.0000      -0.600349       -16.3363
 158   2.0000      -0.595283       -16.1985
 159   2.0000      -0.592479       -16.1222
 160   2.0000      -0.586282       -15.9536
 161   2.0000      -0.584285       -15.8992
 162   2.0000      -0.569558       -15.4985
 163   2.0000      -0.567561       -15.4441
 164   2.0000      -0.562931       -15.3181
 165   2.0000      -0.557124       -15.1601
 166   2.0000      -0.555036       -15.1033
 167   2.0000      -0.553098       -15.0506
 168   2.0000      -0.549820       -14.9614
 169   2.0000      -0.546656       -14.8753
 170   2.0000      -0.543234       -14.7821
 171   2.0000      -0.542314       -14.7571
 172   2.0000      -0.541237       -14.7278
 173   2.0000      -0.538790       -14.6612
 174   2.0000      -0.537621       -14.6294
 175   2.0000      -0.534225       -14.5370
 176   2.0000      -0.532537       -14.4911
 177   2.0000      -0.530445       -14.4341
 178   2.0000      -0.529560       -14.4101
 179   2.0000      -0.528626       -14.3846
 180   2.0000      -0.526001       -14.3132
 181   2.0000      -0.522119       -14.2076
 182   2.0000      -0.519673       -14.1410
 183   2.0000      -0.516703       -14.0602
 184   2.0000      -0.516441       -14.0531
 185   2.0000      -0.516037       -14.0421
 186   2.0000      -0.512381       -13.9426
 187   2.0000      -0.509714       -13.8700
 188   2.0000      -0.509013       -13.8509
 189   2.0000      -0.506722       -13.7886
 190   2.0000      -0.505703       -13.7609
 191   2.0000      -0.503082       -13.6895
 192   2.0000      -0.499154       -13.5827
 193   2.0000      -0.498915       -13.5762
 194   2.0000      -0.497987       -13.5509
 195   2.0000      -0.496017       -13.4973
 196   2.0000      -0.492561       -13.4033
 197   2.0000      -0.489301       -13.3145
 198   2.0000      -0.488855       -13.3024
 199   2.0000      -0.484842       -13.1932
 200   2.0000      -0.482395       -13.1266
 201   2.0000      -0.480165       -13.0659
 202   2.0000      -0.478446       -13.0192
 203   2.0000      -0.476365       -12.9625
 204   2.0000      -0.472523       -12.8580
 205   2.0000      -0.471853       -12.8398
 206   2.0000      -0.469755       -12.7827
 207   2.0000      -0.467132       -12.7113
 208   2.0000      -0.466249       -12.6873
 209   2.0000      -0.462056       -12.5732
 210   2.0000      -0.456127       -12.4118
 211   2.0000      -0.455253       -12.3881
 212   2.0000      -0.453836       -12.3495
 213   2.0000      -0.452474       -12.3124
 214   2.0000      -0.448136       -12.1944
 215   2.0000      -0.446162       -12.1407
 216   2.0000      -0.443458       -12.0671
 217   2.0000      -0.440955       -11.9990
 218   2.0000      -0.440025       -11.9737
 219   2.0000      -0.437319       -11.9000
 220   2.0000      -0.436186       -11.8692
 221   2.0000      -0.435100       -11.8397
 222   2.0000      -0.434454       -11.8221
 223   2.0000      -0.430038       -11.7019
 224   2.0000      -0.430018       -11.7014
 225   2.0000      -0.428788       -11.6679
 226   2.0000      -0.428048       -11.6478
 227   2.0000      -0.425993       -11.5919
 228   2.0000      -0.424578       -11.5534
 229   2.0000      -0.421460       -11.4685
 230   2.0000      -0.417347       -11.3566
 231   2.0000      -0.415841       -11.3156
 232   2.0000      -0.413731       -11.2582
 233   2.0000      -0.407734       -11.0950
 234   2.0000      -0.404141       -10.9972
 235   2.0000      -0.402168       -10.9435
 236   2.0000      -0.390041       -10.6135
 237   2.0000      -0.387117       -10.5340
 238   2.0000      -0.382560       -10.4100
 239   2.0000      -0.373654       -10.1676
 240   2.0000      -0.371441       -10.1074
 241   2.0000      -0.363680        -9.8962
 242   2.0000      -0.361858        -9.8467
 243   2.0000      -0.360910        -9.8208
 244   2.0000      -0.349900        -9.5213
 245   2.0000      -0.346227        -9.4213
 246   2.0000      -0.345188        -9.3930
 247   2.0000      -0.345004        -9.3880
 248   2.0000      -0.342514        -9.3203
 249   2.0000      -0.337711        -9.1896
 250   2.0000      -0.335764        -9.1366
 251   2.0000      -0.328556        -8.9405
 252   2.0000      -0.326068        -8.8728
 253   2.0000      -0.324765        -8.8373
 254   2.0000      -0.323114        -8.7924
 255   2.0000      -0.322045        -8.7633
 256   2.0000      -0.319140        -8.6843
 257   2.0000      -0.315023        -8.5722
 258   2.0000      -0.312670        -8.5082
 259   2.0000      -0.297006        -8.0819
 260   2.0000      -0.293295        -7.9810
 261   2.0000      -0.281896        -7.6708
 262   2.0000      -0.266762        -7.2590
 263   0.0000      -0.130186        -3.5425
 264   0.0000      -0.113422        -3.0864
 265   0.0000      -0.092382        -2.5138
 266   0.0000      -0.078872        -2.1462
 267   0.0000      -0.060191        -1.6379

MULLIKEN ATOMIC CHARGES
-----------------------
   0 C :    0.282742
   1 C :   -0.282292
   2 C :   -0.183269
   3 N :    0.161421
   4 C :   -0.175739
   5 N :    0.161083
   6 C :    0.044815
   7 C :    0.003631
   8 C :   -0.074201
   9 C :    0.094496
  10 C :    0.097319
  11 C :   -0.077391
  12 C :   -0.018422
  13 C :    0.037684
  14 C :    0.038365
  15 C :   -0.015415
  16 C :    0.142331
  17 O :   -0.128267
  18 C :   -0.080756
  19 C :   -0.024523
  20 C :   -0.007324
  21 N :   -0.032084
  22 C :    0.078713
  23 C :   -0.113134
  24 C :    0.209114
  25 O :   -0.123757
  26 C :   -0.037864
  27 C :   -0.015358
  28 N :   -0.053344
  29 C :    0.098041
  30 C :   -0.089599
  31 C :    0.053340
  32 C :   -0.022437
  33 C :    0.017185
  34 C :   -0.094537
  35 S :    0.133894
  36 C :   -0.156215
  37 C :   -0.080503
  38 C :   -0.096920
  39 C :    0.096353
  40 C :    0.056903
  41 C :    0.069301
  42 O :   -0.272522
  43 C :    0.212670
  44 C :    0.064905
  45 N :   -0.070870
  46 C :    0.073343
  47 C :   -0.149524
  48 C :    0.206420
  49 O :   -0.124016
  50 C :   -0.032993
  51 C :   -0.030961
  52 N :   -0.057022
  53 C :    0.088339
  54 C :   -0.092460
  55 C :    0.037150
  56 C :   -0.053319
  57 C :    0.037228
  58 C :   -0.049831
  59 C :   -0.056119
  60 C :    0.329735
  61 C :   -0.348979
  62 C :   -0.185712
  63 N :    0.147077
  64 C :   -0.187592
  65 N :    0.143867
  66 C :    0.046899
  67 C :   -0.003256
  68 C :    0.149141
  69 O :   -0.138015
  70 C :   -0.076543
  71 C :    0.096304
  72 C :    0.094525
  73 C :   -0.082006
  74 C :   -0.017820
  75 C :    0.035646
  76 C :    0.037213
  77 C :   -0.016742
  78 H :   -0.007978
  79 H :   -0.000758
  80 H :   -0.006937
  81 H :   -0.001520
  82 H :   -0.003786
  83 H :   -0.014560
  84 H :    0.040222
  85 H :    0.016543
  86 H :    0.000218
  87 H :    0.013320
  88 H :    0.019051
  89 H :    0.020805
  90 H :    0.036392
  91 H :    0.010074
  92 H :   -0.009739
  93 H :   -0.012564
  94 H :    0.163334
  95 H :    0.028830
  96 H :    0.037567
  97 H :    0.005594
  98 H :   -0.007599
  99 H :    0.028226
 100 H :    0.045464
 101 H :    0.013358
 102 H :   -0.012869
 103 H :   -0.009564
 104 H :   -0.009356
 105 H :   -0.005569
 106 H :   -0.006176
 107 H :   -0.017566
Sum of atomic charges:   -0.0000000

LOEWDIN ATOMIC CHARGES
----------------------
   0 C :    0.070720
   1 C :   -0.103482
   2 C :   -0.015118
   3 N :   -0.037373
   4 C :   -0.011142
   5 N :   -0.047964
   6 C :   -0.018938
   7 C :   -0.059700
   8 C :    0.037874
   9 C :   -0.008086
  10 C :   -0.002020
  11 C :    0.020834
  12 C :   -0.004829
  13 C :   -0.009335
  14 C :   -0.010744
  15 C :   -0.007726
  16 C :    0.085956
  17 O :   -0.128651
  18 C :   -0.024896
  19 C :    0.026688
  20 C :    0.062545
  21 N :   -0.086240
  22 C :    0.043371
  23 C :   -0.034793
  24 C :    0.066573
  25 O :   -0.135469
  26 C :   -0.035783
  27 C :    0.040855
  28 N :   -0.093655
  29 C :    0.087468
  30 C :   -0.029673
  31 C :   -0.021074
  32 C :   -0.007440
  33 C :   -0.026840
  34 C :   -0.149118
  35 S :    0.474049
  36 C :   -0.197612
  37 C :    0.006521
  38 C :   -0.051342
  39 C :   -0.027919
  40 C :   -0.041768
  41 C :    0.058541
  42 O :   -0.125333
  43 C :   -0.029380
  44 C :    0.059185
  45 N :   -0.102995
  46 C :    0.043998
  47 C :   -0.024380
  48 C :    0.064570
  49 O :   -0.131712
  50 C :   -0.043470
  51 C :    0.016902
  52 N :   -0.097999
  53 C :    0.069427
  54 C :   -0.040171
  55 C :   -0.038265
  56 C :    0.001340
  57 C :    0.007094
  58 C :    0.067212
  59 C :   -0.082406
  60 C :    0.076898
  61 C :   -0.137533
  62 C :   -0.016600
  63 N :   -0.054023
  64 C :   -0.018152
  65 N :   -0.056784
  66 C :   -0.025896
  67 C :   -0.054232
  68 C :    0.084725
  69 O :   -0.131927
  70 C :    0.032377
  71 C :   -0.007560
  72 C :   -0.006538
  73 C :    0.019642
  74 C :   -0.005268
  75 C :   -0.014443
  76 C :   -0.012505
  77 C :   -0.009722
  78 H :    0.040765
  79 H :    0.040784
  80 H :    0.035719
  81 H :    0.034449
  82 H :    0.033547
  83 H :    0.032771
  84 H :    0.052168
  85 H :    0.026618
  86 H :    0.036562
  87 H :    0.042108
  88 H :    0.035460
  89 H :    0.035015
  90 H :    0.036657
  91 H :    0.026320
  92 H :    0.020216
  93 H :    0.004684
  94 H :    0.075377
  95 H :    0.049599
  96 H :    0.045361
  97 H :    0.022201
  98 H :    0.033348
  99 H :    0.019501
 100 H :    0.039825
 101 H :    0.042088
 102 H :    0.039234
 103 H :    0.038705
 104 H :    0.034580
 105 H :    0.032783
 106 H :    0.032350
 107 H :    0.031866

  Mayer bond orders larger than 0.100000
B(  0-C ,  1-C ) :   1.7025 B(  0-C ,  6-C ) :   1.0033 B(  0-C , 18-C ) :   1.0068
B(  1-C ,  2-C ) :   1.1344 B(  1-C ,  4-C ) :   1.1583 B(  2-C ,  3-N ) :   2.9858
B(  4-C ,  5-N ) :   2.9740 B(  6-C ,  7-C ) :   1.2092 B(  6-C , 11-C ) :   1.4566
B(  7-C ,  8-C ) :   1.4655 B(  7-C , 16-C ) :   0.9245 B(  8-C ,  9-C ) :   1.1933
B(  8-C , 78-H ) :   1.0157 B(  9-C , 10-C ) :   1.2523 B(  9-C , 15-C ) :   1.2425
B( 10-C , 11-C ) :   1.2085 B( 10-C , 12-C ) :   1.2390 B( 11-C , 79-H ) :   0.9939
B( 12-C , 13-C ) :   1.4912 B( 12-C , 80-H ) :   0.9981 B( 13-C , 14-C ) :   1.2587
B( 13-C , 81-H ) :   0.9883 B( 14-C , 15-C ) :   1.4918 B( 14-C , 82-H ) :   0.9885
B( 15-C , 83-H ) :   0.9981 B( 16-C , 17-O ) :   2.2850 B( 16-C , 18-C ) :   0.9112
B( 18-C , 19-C ) :   1.7528 B( 19-C , 20-C ) :   1.0204 B( 19-C , 84-H ) :   0.9407
B( 20-C , 21-N ) :   1.6028 B( 20-C , 22-C ) :   0.1100 B( 20-C , 31-C ) :   1.0226
B( 21-N , 22-C ) :   1.3086 B( 22-C , 23-C ) :   1.0534 B( 22-C , 27-C ) :   1.4426
B( 23-C , 24-C ) :   0.8894 B( 23-C , 31-C ) :   1.5546 B( 24-C , 25-O ) :   2.2956
B( 24-C , 26-C ) :   0.8945 B( 26-C , 27-C ) :   1.0431 B( 26-C , 30-C ) :   1.6370
B( 27-C , 28-N ) :   1.3038 B( 28-N , 29-C ) :   1.6683 B( 29-C , 30-C ) :   1.0544
B( 29-C , 85-H ) :   0.9887 B( 30-C , 86-H ) :   1.0101 B( 31-C , 32-C ) :   1.1232
B( 32-C , 33-C ) :   1.6599 B( 32-C , 87-H ) :   0.9619 B( 33-C , 34-C ) :   1.1179
B( 33-C , 88-H ) :   0.9467 B( 34-C , 35-S ) :   1.1438 B( 34-C , 38-C ) :   1.4607
B( 35-S , 36-C ) :   1.1064 B( 36-C , 37-C ) :   1.4361 B( 36-C , 44-C ) :   1.1589
B( 37-C , 38-C ) :   1.3460 B( 37-C , 43-C ) :   1.0517 B( 38-C , 39-C ) :   1.0532
B( 39-C , 40-C ) :   1.0660 B( 39-C , 89-H ) :   0.9133 B( 39-C , 90-H ) :   0.9000
B( 40-C , 41-C ) :   1.0343 B( 40-C , 91-H ) :   0.9329 B( 40-C , 92-H ) :   0.9267
B( 41-C , 42-O ) :   1.1100 B( 41-C , 43-C ) :   1.0069 B( 41-C , 93-H ) :   0.9347
B( 42-O , 94-H ) :   0.9758 B( 43-C , 95-H ) :   0.8889 B( 43-C , 96-H ) :   0.8870
B( 44-C , 45-N ) :   1.5557 B( 44-C , 46-C ) :   0.1165 B( 44-C , 55-C ) :   1.0242
B( 45-N , 46-C ) :   1.3747 B( 46-C , 47-C ) :   1.0466 B( 46-C , 51-C ) :   1.3883
B( 47-C , 48-C ) :   0.8791 B( 47-C , 55-C ) :   1.6126 B( 48-C , 49-O ) :   2.2675
B( 48-C , 50-C ) :   0.9097 B( 50-C , 51-C ) :   1.0648 B( 50-C , 54-C ) :   1.5942
B( 51-C , 52-N ) :   1.3273 B( 52-N , 53-C ) :   1.6374 B( 53-C , 54-C ) :   1.0872
B( 53-C , 97-H ) :   0.9895 B( 54-C , 98-H ) :   1.0095 B( 55-C , 56-C ) :   1.0329
B( 56-C , 57-C ) :   1.6429 B( 56-C , 99-H ) :   0.9525 B( 57-C , 58-C ) :   1.1315
B( 57-C ,100-H ) :   0.9759 B( 58-C , 59-C ) :   1.5777 B( 58-C ,101-H ) :   0.9603
B( 59-C , 60-C ) :   1.0576 B( 59-C , 68-C ) :   0.9308 B( 60-C , 61-C ) :   1.6289
B( 60-C , 66-C ) :   0.9903 B( 61-C , 62-C ) :   1.1464 B( 61-C , 64-C ) :   1.1463
B( 62-C , 63-N ) :   2.9636 B( 64-C , 65-N ) :   2.9632 B( 66-C , 67-C ) :   1.2176
B( 66-C , 73-C ) :   1.4458 B( 67-C , 68-C ) :   0.9396 B( 67-C , 70-C ) :   1.4724
B( 68-C , 69-O ) :   2.2196 B( 70-C , 71-C ) :   1.1806 B( 70-C ,102-H ) :   1.0158
B( 71-C , 72-C ) :   1.2584 B( 71-C , 77-C ) :   1.2425 B( 72-C , 73-C ) :   1.2089
B( 72-C , 74-C ) :   1.2386 B( 73-C ,103-H ) :   0.9889 B( 74-C , 75-C ) :   1.4903
B( 74-C ,104-H ) :   0.9972 B( 75-C , 76-C ) :   1.2595 B( 75-C ,105-H ) :   0.9885
B( 76-C , 77-C ) :   1.4906 B( 76-C ,106-H ) :   0.9882 B( 77-C ,107-H ) :   0.9977

-----------------------------------------------------------------------------
         ABSORPTION SPECTRUM VIA TRANSITION ELECTRIC DIPOLE MOMENTS
-----------------------------------------------------------------------------
State   Energy  Wavelength   fosc         T2         TX        TY        TZ
        (cm-1)    (nm)                  (au**2)     (au)      (au)      (au)
-----------------------------------------------------------------------------
   0   14822.5    674.7   0.101298022   2.24986   0.42658  -0.89793   1.12321
   1   18993.0    526.5   0.762444402  13.21570   0.53712   1.65743  -3.19063
   2   19810.9    504.8   0.592624350   9.84804  -1.03952  -2.37834   1.76379
   3   19965.0    500.9   0.037368654   0.61619   0.34452  -0.07759   0.70105
   4   21036.9    475.4   0.015020858   0.23507   0.26463  -0.07459   0.39934
   5   21512.8    464.8   0.031947084   0.48889  -0.19623  -0.36635   0.56229
   6   22550.2    443.5   0.147312400   2.15062   0.46558   0.83030   1.11555
   7   22963.5    435.5   0.228260664   3.27242   0.19191   0.38696   1.75666
   8   23650.3    422.8   0.101083867   1.40709   0.78903  -0.15940   0.87128
   9   24164.6    413.8   0.094392489   1.28598  -0.70400   0.58508  -0.66937
  10   24900.0    401.6   0.007607855   0.10059  -0.16443  -0.26693   0.04792
  11   25049.0    399.2   0.125952821   1.65536   1.23402   0.35069   0.09785
  12   25103.9    398.3   0.212347883   2.78472  -0.53258  -1.15758   1.07753
  13   25392.9    393.8   0.119852722   1.55386   0.84673  -0.43954   0.80232
  14   25577.4    391.0   0.037622758   0.48425   0.32100   0.60975  -0.09705
  15   25814.5    387.4   0.531400174   6.77693  -1.47523  -2.12961  -0.25567
  16   26270.0    380.7   0.196750162   2.46564  -0.84706   1.08024  -0.76238
  17   26420.7    378.5   0.128042902   1.59546  -0.34865  -1.19992   0.18464
  18   26551.9    376.6   0.142296397   1.76431   0.86180  -0.91154   0.43670
  19   26828.0    372.7   0.005303075   0.06508  -0.11934   0.07346  -0.21316
  20   27051.9    369.7   0.150826942   1.83551  -0.50574   1.20141  -0.36927
  21   27200.1    367.6   0.079839935   0.96633   0.96410   0.18931   0.03181
  22   27355.6    365.6   0.021534104   0.25915   0.34702   0.09379   0.36046
  23   27825.1    359.4   0.027956667   0.33077  -0.45381  -0.34136  -0.09109
  24   28467.4    351.3   0.012108342   0.14003   0.11637  -0.32637  -0.14132
  25   28899.2    346.0   0.048734446   0.55517   0.40050   0.57772  -0.24700
  26   29282.2    341.5   0.006066978   0.06821  -0.14233  -0.03713  -0.21581
  27   29615.9    337.7   0.039309454   0.43697  -0.46809   0.17756   0.43166
  28   29824.6    335.3   0.102293308   1.12914  -0.03168   0.65996   0.83222
  29   30583.8    327.0   0.157308667   1.69331  -0.09882   0.63133  -1.13356
  30   30864.4    324.0   0.014421822   0.15383  -0.30520  -0.13602   0.20538
  31   31002.4    322.6   0.074602956   0.79220  -0.87107   0.08091   0.16399
  32   31129.4    321.2   0.139021322   1.47023  -1.03400   0.58695   0.23783
  33   31219.8    320.3   0.065493174   0.69062   0.75559  -0.20719   0.27709
  34   31729.1    315.2   0.423695974   4.39614  -0.55540   1.38996   1.46822
  35   31872.7    313.7   0.078580260   0.81165   0.87395  -0.20336   0.08071
  36   32273.5    309.9   0.042229915   0.43077  -0.09582  -0.49057  -0.42536
  37   32442.6    308.2   0.001255596   0.01274  -0.01523   0.08133  -0.07678
  38   32577.7    307.0   0.066032163   0.66728   0.75877   0.30187  -0.02057
  39   32707.3    305.7   0.001442317   0.01452  -0.03423  -0.00815  -0.11523
  40   32901.4    303.9   0.009777349   0.09783   0.01605  -0.02111   0.31166
  41   33140.3    301.7   0.000927230   0.00921   0.08576   0.02327  -0.03626
  42   33385.4    299.5   0.001443573   0.01423  -0.10083  -0.06335   0.00736
  43   33453.0    298.9   0.027418092   0.26982   0.02342   0.25581   0.45148
  44   33726.7    296.5   0.166890234   1.62904   0.71096  -0.42260  -0.97211
  45   33997.1    294.1   0.031381685   0.30389   0.54219  -0.00597   0.09938
  46   34103.2    293.2   0.040854454   0.39438  -0.05348  -0.40078  -0.48052
  47   34464.4    290.2   0.073994370   0.70681   0.29155  -0.32256  -0.71956
  48   34576.5    289.2   0.180406977   1.71770  -1.18163   0.26232   0.50264
  49   34606.6    289.0   0.119228169   1.13421  -0.95245  -0.00180  -0.47650
  50   34754.4    287.7   0.000625948   0.00593  -0.04715  -0.04513  -0.04086
  51   34954.8    286.1   0.011081946   0.10437   0.17340  -0.09967  -0.25371
  52   35067.2    285.2   0.217914446   2.04579   0.44640   0.54535  -1.24463
  53   35201.4    284.1   0.259604569   2.42789   0.55423  -1.15673  -0.88470
  54   35328.4    283.1   0.041463863   0.38639   0.47323  -0.32072   0.24409
  55   35560.5    281.2   0.105319175   0.97502  -0.18334   0.55059  -0.79891
  56   35734.9    279.8   0.004885733   0.04501   0.15139  -0.14637   0.02586
  57   35884.6    278.7   0.003793531   0.03480  -0.16389  -0.07769  -0.04367
  58   36186.2    276.3   0.035656509   0.32439  -0.12689   0.42586  -0.35628
  59   36451.3    274.3   0.129168020   1.16659  -0.51744   0.94746  -0.03415
  60   36618.4    273.1   0.112105576   1.00787  -0.79295   0.25351   0.56109
  61   36749.3    272.1   0.040978818   0.36710   0.48057   0.03997  -0.36681
  62   36781.3    271.9   0.027615699   0.24717   0.18979  -0.43241   0.15549
  63   37032.5    270.0   0.048416926   0.43042   0.62546  -0.18341  -0.07465
  64   37150.2    269.2   0.134360979   1.19066  -0.84066   0.50484   0.47862
  65   37195.6    268.8   0.042410792   0.37537  -0.47774   0.32009   0.21139
  66   37544.9    266.3   0.004767372   0.04180  -0.11993   0.16235  -0.03260
  67   37760.4    264.8   0.093376886   0.81410   0.43547  -0.64926   0.45047
  68   37848.4    264.2   0.053609298   0.46630   0.23298  -0.49709   0.40611
  69   38013.9    263.1   0.003311773   0.02868  -0.14433  -0.08789  -0.01113
  70   38194.6    261.8   0.077838662   0.67092  -0.44181   0.11538   0.68001
  71   38374.5    260.6   0.035733175   0.30655   0.14646  -0.20576  -0.49271
  72   38508.1    259.7   0.021836176   0.18668  -0.29933   0.24100  -0.19749
  73   38724.1    258.2   0.002370518   0.02015  -0.09663  -0.00490   0.10388
  74   38786.8    257.8   0.018438665   0.15650   0.26602  -0.27553  -0.09909
  75   38845.0    257.4   0.054357500   0.46068   0.65483  -0.13171  -0.12057
  76   39002.2    256.4   0.088906556   0.75045  -0.35258  -0.23782   0.75471
  77   39108.6    255.7   0.191683992   1.61358   0.63577   0.58742  -0.92968
  78   39241.6    254.8   0.032444900   0.27219  -0.48291   0.19191  -0.04651
  79   39381.7    253.9   0.074362234   0.62163  -0.62181  -0.48291   0.04224
  80   39493.1    253.2   0.057565107   0.47986  -0.41654  -0.55332  -0.01385
  81   39632.1    252.3   0.000660818   0.00549   0.03966  -0.04072  -0.04752
  82   39665.9    252.1   0.062241216   0.51658  -0.59318  -0.33266   0.23250
  83   40096.5    249.4   0.038213748   0.31375   0.28016  -0.48488  -0.01263
  84   40122.4    249.2   0.029231780   0.23985   0.46941  -0.08572   0.11027

FINAL SINGLE POINT ENERGY     -3664.726588388329

DIPOLE MOMENT
-------------
                                X             Y             Z
Electronic contribution:      6.89264      11.39034      -1.99114
Nuclear contribution   :     -6.40113     -11.41424       0.83706
                        -----------------------------------------
Total Dipole Moment    :      0.49151      -0.02390      -1.15408
                        -----------------------------------------
Magnitude (a.u.)       :      1.25461
Magnitude (Debye)      :      3.18897

Rotational constants in cm-1:     0.000747     0.000480     0.000373
Rotational constants in MHz :    22.396783    14.396435    11.173056

                             ****ORCA TERMINATED NORMALLY****
TOTAL RUN TIME: 0 days 0 hours 15 minutes 40 seconds 738 msec
