                         Program Version 4.2.0 -  RELEASE  -
|  1> # ORCA input file
|  2> # SCF done       -188.097466225734          0.000934406638
|  3> ! CAM-B3LYP def2-SVP def2/J RIJCOSX Grid4 TightSCF
|  4> %maxcore 5000
|  5> %tddft
|  6>     Mode sTDDFT
|  7>     Ethresh 5.0
|  8>     maxcore 5000
|  9> end
| 10>
| 11> %pal
| 12>   nprocs 6
| 13>   end
| 14> * xyz 0 1
| 15>    C        5.20185         2.20432         3.22515
| 16>    C        5.13479         0.86910         2.91192
| 17>    C        5.87409        -0.13542         3.56971
| 18>    N        6.44386        -1.00566         4.05705
| 19>    C        4.33106         0.29303         1.90778
| 20>    N        3.70903        -0.26079         1.11552
| 21>    C        6.03312         2.77658         4.28084
| 22>    C        5.81347         4.18334         4.31886
| 23>    C        6.45446         4.99258         5.21072
| 24>    C        7.36596         4.42032         6.12714
| 25>    C        7.59271         3.01463         6.09652
| 26>    C        6.91244         2.20237         5.15927
| 27>    C        8.50330         2.45345         7.01421
| 28>    C        9.15996         3.24161         7.92010
| 29>    C        8.93611         4.62573         7.94924
| 30>    C        8.05791         5.20261         7.07180
| 31>    C        4.83420         4.54458         3.28166
| 32>    O        4.41515         5.66384         3.03949
| 33>    C        4.47372         3.29277         2.60498
| 34>    C        3.59888         3.17629         1.55344
| 35>    C        2.82844         4.14306         0.89480
| 36>    C        1.97494         3.80845        -0.16565
| 37>    C        1.26676         4.87214        -0.68594
| 38>    C        1.59203         6.06406        -0.00038
| 39>    S        2.74654         5.85850         1.24657
| 40>    C        0.89840         7.21454        -0.44629
| 41>    C       -0.01302         7.01327        -1.49522
| 42>   Si       -0.00983         5.21136        -2.01390
| 43>    C        0.63727         4.95009        -3.75123
| 44>    C       -1.64896         4.36050        -1.70812
| 45>    C       -0.65850         8.19770        -1.83404
| 46>    C       -0.25595         9.28223        -1.07266
| 47>    S        0.95766         8.84584         0.09727
| 48>    C       -0.73033        10.61031        -1.15289
| 49>    N       -0.28807        11.60467        -0.44289
| 50>    C       -0.94432        12.72717        -0.73218
| 51>    C       -1.95420        12.63411        -1.70510
| 52>    S       -2.05619        11.01910        -2.28380
| 53>    N       -2.61719        13.75209        -1.99103
| 54>    C       -2.16918        14.74861        -1.28067
| 55>    S       -0.83993        14.34433        -0.16196
| 56>    C       -2.69173        16.06052        -1.37273
| 57>    C       -3.77032        16.45575        -2.14828
| 58>    C       -4.05964        17.81287        -2.04520
| 59>    C       -3.16953        18.45512        -1.17169
| 60>    S       -2.00522        17.39038        -0.48596
| 61>    C       -3.36115        19.84671        -1.01087
| 62>    C       -4.42865        20.39931        -1.74620
| 63>   Si       -5.29405        19.05455        -2.72422
| 64>    C       -5.16720        19.28885        -4.57602
| 65>    C       -7.04068        18.72988        -2.13507
| 66>    C       -4.52878        21.76724        -1.54781
| 67>    C       -3.56806        22.28654        -0.68524
| 68>    S       -2.51131        21.00632        -0.08864
| 69>    C       -3.29740        23.58241        -0.21468
| 70>    C       -3.84141        24.80297        -0.52616
| 71>    C       -3.40137        26.04565         0.08726
| 72>    C       -2.59756        26.19080         1.19010
| 73>    C       -2.22058        27.43781         1.73100
| 74>    N       -1.86979        28.41540         2.22096
| 75>    C       -2.05674        25.15255         1.97694
| 76>    N       -1.58911        24.38284         2.69081
| 77>    C       -4.01815        27.14950        -0.64046
| 78>    C       -4.89351        26.60517        -1.62000
| 79>    C       -4.84554        25.13331        -1.56224
| 80>    O       -5.51001        24.38255        -2.25033
| 81>    C       -5.62682        27.39629        -2.45584
| 82>    C       -5.50911        28.80054        -2.35373
| 83>    C       -4.62746        29.35474        -1.38212
| 84>    C       -3.88549        28.50791        -0.52644
| 85>    C       -4.51196        30.75673        -1.29195
| 86>    C       -5.23279        31.57358        -2.11989
| 87>    C       -6.10164        31.02661        -3.07567
| 88>    C       -6.23696        29.66960        -3.18983
| 89>    H        6.26940         6.05648         5.21840
| 90>    H        7.10831         1.14215         5.16302
| 91>    H        8.67201         1.38683         6.98725
| 92>    H        9.85598         2.80208         8.61888
| 93>    H        9.46235         5.23332         8.67031
| 94>    H        7.88163         6.26823         7.09032
| 95>    H        3.45681         2.18141         1.14866
| 96>    H        1.89284         2.79611        -0.52167
| 97>    H        1.58710         5.45506        -3.91699
| 98>    H       -0.05810         5.32383        -4.50012
| 99>    H        0.79531         3.89512        -3.96547
|100>    H       -2.01745         4.52875        -0.69794
|101>    H       -1.57383         3.28375        -1.84503
|102>    H       -2.41865         4.71311        -2.39172
|103>    H       -1.40160         8.28593        -2.60692
|104>    H       -4.30826        15.75346        -2.75768
|105>    H       -4.14106        19.44380        -4.90415
|106>    H       -5.74119        20.15212        -4.90640
|107>    H       -5.54982        18.42649        -5.11803
|108>    H       -7.09245        18.58166        -1.05798
|109>    H       -7.46372        17.84199        -2.60055
|110>    H       -7.70227        19.55961        -2.37504
|111>    H       -5.26837        22.39272        -2.01240
|112>    H       -2.48980        23.60348         0.50794
|113>    H       -6.28673        26.95570        -3.18851
|114>    H       -3.22510        28.96099         0.19526
|115>    H       -3.84241        31.17316        -0.55364
|116>    H       -5.13741        32.64636        -2.04275
|117>    H       -6.66297        31.68580        -3.72101
|118>    H       -6.90448        29.24242        -3.92407
|119> *
|120>
|121>                          ****END OF INPUT****

CARTESIAN COORDINATES (ANGSTROEM)
---------------------------------
  C      5.201850    2.204320    3.225150
  C      5.134790    0.869100    2.911920
  C      5.874090   -0.135420    3.569710
  N      6.443860   -1.005660    4.057050
  C      4.331060    0.293030    1.907780
  N      3.709030   -0.260790    1.115520
  C      6.033120    2.776580    4.280840
  C      5.813470    4.183340    4.318860
  C      6.454460    4.992580    5.210720
  C      7.365960    4.420320    6.127140
  C      7.592710    3.014630    6.096520
  C      6.912440    2.202370    5.159270
  C      8.503300    2.453450    7.014210
  C      9.159960    3.241610    7.920100
  C      8.936110    4.625730    7.949240
  C      8.057910    5.202610    7.071800
  C      4.834200    4.544580    3.281660
  O      4.415150    5.663840    3.039490
  C      4.473720    3.292770    2.604980
  C      3.598880    3.176290    1.553440
  C      2.828440    4.143060    0.894800
  C      1.974940    3.808450   -0.165650
  C      1.266760    4.872140   -0.685940
  C      1.592030    6.064060   -0.000380
  S      2.746540    5.858500    1.246570
  C      0.898400    7.214540   -0.446290
  C     -0.013020    7.013270   -1.495220
  Si    -0.009830    5.211360   -2.013900
  C      0.637270    4.950090   -3.751230
  C     -1.648960    4.360500   -1.708120
  C     -0.658500    8.197700   -1.834040
  C     -0.255950    9.282230   -1.072660
  S      0.957660    8.845840    0.097270
  C     -0.730330   10.610310   -1.152890
  N     -0.288070   11.604670   -0.442890
  C     -0.944320   12.727170   -0.732180
  C     -1.954200   12.634110   -1.705100
  S     -2.056190   11.019100   -2.283800
  N     -2.617190   13.752090   -1.991030
  C     -2.169180   14.748610   -1.280670
  S     -0.839930   14.344330   -0.161960
  C     -2.691730   16.060520   -1.372730
  C     -3.770320   16.455750   -2.148280
  C     -4.059640   17.812870   -2.045200
  C     -3.169530   18.455120   -1.171690
  S     -2.005220   17.390380   -0.485960
  C     -3.361150   19.846710   -1.010870
  C     -4.428650   20.399310   -1.746200
  Si    -5.294050   19.054550   -2.724220
  C     -5.167200   19.288850   -4.576020
  C     -7.040680   18.729880   -2.135070
  C     -4.528780   21.767240   -1.547810
  C     -3.568060   22.286540   -0.685240
  S     -2.511310   21.006320   -0.088640
  C     -3.297400   23.582410   -0.214680
  C     -3.841410   24.802970   -0.526160
  C     -3.401370   26.045650    0.087260
  C     -2.597560   26.190800    1.190100
  C     -2.220580   27.437810    1.731000
  N     -1.869790   28.415400    2.220960
  C     -2.056740   25.152550    1.976940
  N     -1.589110   24.382840    2.690810
  C     -4.018150   27.149500   -0.640460
  C     -4.893510   26.605170   -1.620000
  C     -4.845540   25.133310   -1.562240
  O     -5.510010   24.382550   -2.250330
  C     -5.626820   27.396290   -2.455840
  C     -5.509110   28.800540   -2.353730
  C     -4.627460   29.354740   -1.382120
  C     -3.885490   28.507910   -0.526440
  C     -4.511960   30.756730   -1.291950
  C     -5.232790   31.573580   -2.119890
  C     -6.101640   31.026610   -3.075670
  C     -6.236960   29.669600   -3.189830
  H      6.269400    6.056480    5.218400
  H      7.108310    1.142150    5.163020
  H      8.672010    1.386830    6.987250
  H      9.855980    2.802080    8.618880
  H      9.462350    5.233320    8.670310
  H      7.881630    6.268230    7.090320
  H      3.456810    2.181410    1.148660
  H      1.892840    2.796110   -0.521670
  H      1.587100    5.455060   -3.916990
  H     -0.058100    5.323830   -4.500120
  H      0.795310    3.895120   -3.965470
  H     -2.017450    4.528750   -0.697940
  H     -1.573830    3.283750   -1.845030
  H     -2.418650    4.713110   -2.391720
  H     -1.401600    8.285930   -2.606920
  H     -4.308260   15.753460   -2.757680
  H     -4.141060   19.443800   -4.904150
  H     -5.741190   20.152120   -4.906400
  H     -5.549820   18.426490   -5.118030
  H     -7.092450   18.581660   -1.057980
  H     -7.463720   17.841990   -2.600550
  H     -7.702270   19.559610   -2.375040
  H     -5.268370   22.392720   -2.012400
  H     -2.489800   23.603480    0.507940
  H     -6.286730   26.955700   -3.188510
  H     -3.225100   28.960990    0.195260
  H     -3.842410   31.173160   -0.553640
  H     -5.137410   32.646360   -2.042750
  H     -6.662970   31.685800   -3.721010
  H     -6.904480   29.242420   -3.924070

 Total Charge           Charge          ....    0
 Multiplicity           Mult            ....    1
 Number of Electrons    NEL             ....  560
 Basis Dimension        Dim             .... 1218

ORBITAL ENERGIES
----------------

  NO   OCC          E(Eh)            E(eV)
   0   2.0000     -88.978393     -2421.2252
   1   2.0000     -88.974110     -2421.1086
   2   2.0000     -88.973649     -2421.0961
   3   2.0000     -88.973039     -2421.0795
   4   2.0000     -88.972709     -2421.0705
   5   2.0000     -88.967663     -2420.9332
   6   2.0000     -66.204402     -1801.5134
   7   2.0000     -66.203311     -1801.4837
   8   2.0000     -19.212804      -522.8070
   9   2.0000     -19.211708      -522.7771
  10   2.0000     -14.427207      -392.5842
  11   2.0000     -14.426431      -392.5632
  12   2.0000     -14.410105      -392.1189
  13   2.0000     -14.409215      -392.0947
  14   2.0000     -14.405997      -392.0071
  15   2.0000     -14.405708      -391.9992
  16   2.0000     -10.362953      -281.9903
  17   2.0000     -10.361183      -281.9421
  18   2.0000     -10.355528      -281.7882
  19   2.0000     -10.355512      -281.7878
  20   2.0000     -10.334485      -281.2156
  21   2.0000     -10.333927      -281.2005
  22   2.0000     -10.333414      -281.1865
  23   2.0000     -10.333194      -281.1805
  24   2.0000     -10.332037      -281.1490
  25   2.0000     -10.331343      -281.1301
  26   2.0000     -10.328997      -281.0663
  27   2.0000     -10.321620      -280.8656
  28   2.0000     -10.319235      -280.8007
  29   2.0000     -10.318427      -280.7787
  30   2.0000     -10.317664      -280.7579
  31   2.0000     -10.317385      -280.7503
  32   2.0000     -10.316854      -280.7359
  33   2.0000     -10.316342      -280.7219
  34   2.0000     -10.313735      -280.6510
  35   2.0000     -10.312627      -280.6208
  36   2.0000     -10.312341      -280.6131
  37   2.0000     -10.310244      -280.5560
  38   2.0000     -10.309760      -280.5428
  39   2.0000     -10.309543      -280.5369
  40   2.0000     -10.296000      -280.1684
  41   2.0000     -10.295706      -280.1604
  42   2.0000     -10.293808      -280.1088
  43   2.0000     -10.292454      -280.0719
  44   2.0000     -10.292211      -280.0653
  45   2.0000     -10.291996      -280.0595
  46   2.0000     -10.291804      -280.0542
  47   2.0000     -10.291762      -280.0531
  48   2.0000     -10.291411      -280.0435
  49   2.0000     -10.290721      -280.0248
  50   2.0000     -10.290599      -280.0214
  51   2.0000     -10.290333      -280.0142
  52   2.0000     -10.289959      -280.0040
  53   2.0000     -10.289459      -279.9904
  54   2.0000     -10.287829      -279.9461
  55   2.0000     -10.286149      -279.9003
  56   2.0000     -10.282468      -279.8002
  57   2.0000     -10.282101      -279.7902
  58   2.0000     -10.282036      -279.7884
  59   2.0000     -10.281851      -279.7834
  60   2.0000     -10.281580      -279.7760
  61   2.0000     -10.281326      -279.7691
  62   2.0000     -10.281015      -279.7607
  63   2.0000     -10.280781      -279.7543
  64   2.0000     -10.280665      -279.7511
  65   2.0000     -10.280155      -279.7372
  66   2.0000     -10.271587      -279.5041
  67   2.0000     -10.269426      -279.4453
  68   2.0000     -10.266237      -279.3585
  69   2.0000     -10.263611      -279.2870
  70   2.0000     -10.257089      -279.1096
  71   2.0000     -10.256936      -279.1054
  72   2.0000     -10.256902      -279.1045
  73   2.0000     -10.256797      -279.1016
  74   2.0000      -8.073918      -219.7025
  75   2.0000      -8.070101      -219.5986
  76   2.0000      -8.069152      -219.5728
  77   2.0000      -8.068543      -219.5562
  78   2.0000      -8.068045      -219.5427
  79   2.0000      -8.060947      -219.3495
  80   2.0000      -6.043061      -164.4401
  81   2.0000      -6.039261      -164.3366
  82   2.0000      -6.039098      -164.3322
  83   2.0000      -6.038130      -164.3059
  84   2.0000      -6.037695      -164.2940
  85   2.0000      -6.037240      -164.2816
  86   2.0000      -6.036121      -164.2512
  87   2.0000      -6.035583      -164.2366
  88   2.0000      -6.034278      -164.2011
  89   2.0000      -6.034124      -164.1969
  90   2.0000      -6.033115      -164.1694
  91   2.0000      -6.031821      -164.1342
  92   2.0000      -6.031559      -164.1271
  93   2.0000      -6.030308      -164.0930
  94   2.0000      -6.030241      -164.0912
  95   2.0000      -6.030194      -164.0899
  96   2.0000      -6.025753      -163.9691
  97   2.0000      -6.023376      -163.9044
  98   2.0000      -5.370792      -146.1467
  99   2.0000      -5.369723      -146.1176
 100   2.0000      -3.734356      -101.6170
 101   2.0000      -3.733263      -101.5872
 102   2.0000      -3.732898      -101.5773
 103   2.0000      -3.731777      -101.5468
 104   2.0000      -3.731705      -101.5449
 105   2.0000      -3.730704      -101.5176
 106   2.0000      -1.127859       -30.6906
 107   2.0000      -1.125766       -30.6337
 108   2.0000      -1.099042       -29.9065
 109   2.0000      -1.059413       -28.8281
 110   2.0000      -1.012215       -27.5438
 111   2.0000      -1.011162       -27.5151
 112   2.0000      -1.010062       -27.4852
 113   2.0000      -1.005832       -27.3701
 114   2.0000      -0.992494       -27.0071
 115   2.0000      -0.992468       -27.0064
 116   2.0000      -0.986617       -26.8472
 117   2.0000      -0.986221       -26.8364
 118   2.0000      -0.984956       -26.8020
 119   2.0000      -0.981447       -26.7065
 120   2.0000      -0.965282       -26.2667
 121   2.0000      -0.964706       -26.2510
 122   2.0000      -0.923916       -25.1410
 123   2.0000      -0.920350       -25.0440
 124   2.0000      -0.918423       -24.9916
 125   2.0000      -0.907248       -24.6875
 126   2.0000      -0.902177       -24.5495
 127   2.0000      -0.890593       -24.2343
 128   2.0000      -0.883972       -24.0541
 129   2.0000      -0.883295       -24.0357
 130   2.0000      -0.875421       -23.8214
 131   2.0000      -0.874901       -23.8073
 132   2.0000      -0.866793       -23.5866
 133   2.0000      -0.858193       -23.3526
 134   2.0000      -0.853762       -23.2320
 135   2.0000      -0.851146       -23.1609
 136   2.0000      -0.835705       -22.7407
 137   2.0000      -0.834449       -22.7065
 138   2.0000      -0.831481       -22.6257
 139   2.0000      -0.822830       -22.3903
 140   2.0000      -0.822331       -22.3768
 141   2.0000      -0.815443       -22.1893
 142   2.0000      -0.802066       -21.8253
 143   2.0000      -0.800597       -21.7854
 144   2.0000      -0.797517       -21.7015
 145   2.0000      -0.783750       -21.3269
 146   2.0000      -0.775643       -21.1063
 147   2.0000      -0.775587       -21.1048
 148   2.0000      -0.756041       -20.5729
 149   2.0000      -0.755851       -20.5677
 150   2.0000      -0.753329       -20.4991
 151   2.0000      -0.737829       -20.0773
 152   2.0000      -0.715760       -19.4768
 153   2.0000      -0.705007       -19.1842
 154   2.0000      -0.699399       -19.0316
 155   2.0000      -0.698972       -19.0200
 156   2.0000      -0.694875       -18.9085
 157   2.0000      -0.693590       -18.8736
 158   2.0000      -0.684846       -18.6356
 159   2.0000      -0.683140       -18.5892
 160   2.0000      -0.677946       -18.4479
 161   2.0000      -0.671103       -18.2616
 162   2.0000      -0.668954       -18.2032
 163   2.0000      -0.664716       -18.0878
 164   2.0000      -0.654353       -17.8058
 165   2.0000      -0.646791       -17.6001
 166   2.0000      -0.639257       -17.3951
 167   2.0000      -0.627593       -17.0777
 168   2.0000      -0.625717       -17.0266
 169   2.0000      -0.622510       -16.9394
 170   2.0000      -0.618953       -16.8426
 171   2.0000      -0.616206       -16.7678
 172   2.0000      -0.612028       -16.6541
 173   2.0000      -0.602409       -16.3924
 174   2.0000      -0.601109       -16.3570
 175   2.0000      -0.600478       -16.3398
 176   2.0000      -0.592924       -16.1343
 177   2.0000      -0.589132       -16.0311
 178   2.0000      -0.578205       -15.7338
 179   2.0000      -0.577443       -15.7130
 180   2.0000      -0.566372       -15.4118
 181   2.0000      -0.557893       -15.1810
 182   2.0000      -0.550935       -14.9917
 183   2.0000      -0.550328       -14.9752
 184   2.0000      -0.544534       -14.8175
 185   2.0000      -0.541873       -14.7451
 186   2.0000      -0.541676       -14.7397
 187   2.0000      -0.539079       -14.6691
 188   2.0000      -0.536501       -14.5989
 189   2.0000      -0.532697       -14.4954
 190   2.0000      -0.531435       -14.4611
 191   2.0000      -0.530743       -14.4422
 192   2.0000      -0.528222       -14.3737
 193   2.0000      -0.525677       -14.3044
 194   2.0000      -0.523382       -14.2420
 195   2.0000      -0.521253       -14.1840
 196   2.0000      -0.518157       -14.0998
 197   2.0000      -0.515353       -14.0235
 198   2.0000      -0.512527       -13.9466
 199   2.0000      -0.511956       -13.9310
 200   2.0000      -0.510973       -13.9043
 201   2.0000      -0.509710       -13.8699
 202   2.0000      -0.508747       -13.8437
 203   2.0000      -0.502885       -13.6842
 204   2.0000      -0.502676       -13.6785
 205   2.0000      -0.497398       -13.5349
 206   2.0000      -0.495380       -13.4800
 207   2.0000      -0.494756       -13.4630
 208   2.0000      -0.494422       -13.4539
 209   2.0000      -0.493530       -13.4296
 210   2.0000      -0.492705       -13.4072
 211   2.0000      -0.490340       -13.3428
 212   2.0000      -0.489322       -13.3151
 213   2.0000      -0.488492       -13.2925
 214   2.0000      -0.484016       -13.1708
 215   2.0000      -0.482052       -13.1173
 216   2.0000      -0.479178       -13.0391
 217   2.0000      -0.478541       -13.0218
 218   2.0000      -0.477512       -12.9938
 219   2.0000      -0.475954       -12.9514
 220   2.0000      -0.475206       -12.9310
 221   2.0000      -0.474638       -12.9156
 222   2.0000      -0.468501       -12.7486
 223   2.0000      -0.465635       -12.6706
 224   2.0000      -0.461750       -12.5649
 225   2.0000      -0.459246       -12.4967
 226   2.0000      -0.458495       -12.4763
 227   2.0000      -0.453424       -12.3383
 228   2.0000      -0.449517       -12.2320
 229   2.0000      -0.446833       -12.1589
 230   2.0000      -0.443213       -12.0604
 231   2.0000      -0.442482       -12.0406
 232   2.0000      -0.439619       -11.9626
 233   2.0000      -0.439095       -11.9484
 234   2.0000      -0.435006       -11.8371
 235   2.0000      -0.434772       -11.8308
 236   2.0000      -0.434419       -11.8211
 237   2.0000      -0.430647       -11.7185
 238   2.0000      -0.427636       -11.6366
 239   2.0000      -0.427506       -11.6330
 240   2.0000      -0.427189       -11.6244
 241   2.0000      -0.425514       -11.5788
 242   2.0000      -0.422965       -11.5095
 243   2.0000      -0.420423       -11.4403
 244   2.0000      -0.419756       -11.4221
 245   2.0000      -0.414706       -11.2847
 246   2.0000      -0.412117       -11.2143
 247   2.0000      -0.410557       -11.1718
 248   2.0000      -0.409109       -11.1324
 249   2.0000      -0.401409       -10.9229
 250   2.0000      -0.400396       -10.8953
 251   2.0000      -0.398953       -10.8561
 252   2.0000      -0.398593       -10.8463
 253   2.0000      -0.398272       -10.8375
 254   2.0000      -0.395558       -10.7637
 255   2.0000      -0.394674       -10.7396
 256   2.0000      -0.387560       -10.5460
 257   2.0000      -0.386884       -10.5276
 258   2.0000      -0.383615       -10.4387
 259   2.0000      -0.379367       -10.3231
 260   2.0000      -0.376874       -10.2553
 261   2.0000      -0.370769       -10.0891
 262   2.0000      -0.365003        -9.9322
 263   2.0000      -0.351536        -9.5658
 264   2.0000      -0.347728        -9.4622
 265   2.0000      -0.340422        -9.2634
 266   2.0000      -0.336939        -9.1686
 267   2.0000      -0.335944        -9.1415
 268   2.0000      -0.332665        -9.0523
 269   2.0000      -0.331709        -9.0263
 270   2.0000      -0.328880        -8.9493
 271   2.0000      -0.327792        -8.9197
 272   2.0000      -0.325554        -8.8588
 273   2.0000      -0.312195        -8.4953
 274   2.0000      -0.310861        -8.4590
 275   2.0000      -0.297024        -8.0824
 276   2.0000      -0.289376        -7.8743
 277   2.0000      -0.285131        -7.7588
 278   2.0000      -0.261372        -7.1123
 279   2.0000      -0.238630        -6.4935
 280   0.0000      -0.098652        -2.6845
 281   0.0000      -0.089428        -2.4335
 282   0.0000      -0.060787        -1.6541
 283   0.0000      -0.053580        -1.4580
 284   0.0000      -0.047610        -1.2955

MULLIKEN ATOMIC CHARGES
-----------------------
   0 C :    0.337614
   1 C :   -0.364443
   2 C :   -0.186437
   3 N :    0.144089
   4 C :   -0.189049
   5 N :    0.135738
   6 C :    0.043521
   7 C :   -0.001623
   8 C :   -0.085335
   9 C :    0.098562
  10 C :    0.095651
  11 C :   -0.085685
  12 C :   -0.020677
  13 C :    0.035963
  14 C :    0.034770
  15 C :   -0.019061
  16 C :    0.164828
  17 O :   -0.182350
  18 C :   -0.104566
  19 C :   -0.015626
  20 C :   -0.060884
  21 C :   -0.032795
  22 C :   -0.097621
  23 C :   -0.062774
  24 S :    0.215660
  25 C :   -0.096349
  26 C :   -0.111574
  27 Si:    0.523491
  28 C :   -0.198011
  29 C :   -0.199620
  30 C :   -0.047757
  31 C :   -0.046707
  32 S :    0.224363
  33 C :   -0.095781
  34 N :   -0.038213
  35 C :   -0.059466
  36 C :   -0.051921
  37 S :    0.109657
  38 N :   -0.037683
  39 C :   -0.096392
  40 S :    0.129989
  41 C :   -0.040339
  42 C :   -0.031898
  43 C :   -0.112560
  44 C :   -0.085736
  45 S :    0.171651
  46 C :   -0.065966
  47 C :   -0.130837
  48 Si:    0.535553
  49 C :   -0.200082
  50 C :   -0.198597
  51 C :   -0.008420
  52 C :   -0.109682
  53 S :    0.171589
  54 C :    0.047458
  55 C :   -0.095738
  56 C :    0.314661
  57 C :   -0.363071
  58 C :   -0.182762
  59 N :    0.141724
  60 C :   -0.198022
  61 N :    0.151122
  62 C :    0.045797
  63 C :    0.005433
  64 C :    0.154641
  65 O :   -0.163712
  66 C :   -0.086065
  67 C :    0.097188
  68 C :    0.094292
  69 C :   -0.083253
  70 C :   -0.017577
  71 C :    0.034294
  72 C :    0.034999
  73 C :   -0.018022
  74 H :   -0.014647
  75 H :   -0.009324
  76 H :   -0.008911
  77 H :   -0.006539
  78 H :   -0.006612
  79 H :   -0.018164
  80 H :    0.005151
  81 H :    0.002249
  82 H :    0.056220
  83 H :    0.044222
  84 H :    0.047723
  85 H :    0.055764
  86 H :    0.048990
  87 H :    0.044613
  88 H :   -0.007434
  89 H :   -0.002732
  90 H :    0.055786
  91 H :    0.051271
  92 H :    0.045407
  93 H :    0.057220
  94 H :    0.045240
  95 H :    0.050675
  96 H :    0.013348
  97 H :    0.006561
  98 H :   -0.017728
  99 H :   -0.009144
 100 H :   -0.009654
 101 H :   -0.005556
 102 H :   -0.007191
 103 H :   -0.020362
Sum of atomic charges:   -0.0000000

LOEWDIN ATOMIC CHARGES
----------------------
   0 C :    0.079051
   1 C :   -0.151153
   2 C :   -0.017551
   3 N :   -0.062136
   4 C :   -0.020399
   5 N :   -0.063420
   6 C :   -0.024797
   7 C :   -0.053808
   8 C :    0.029230
   9 C :   -0.009205
  10 C :   -0.007250
  11 C :    0.018333
  12 C :   -0.005942
  13 C :   -0.015304
  14 C :   -0.014110
  15 C :   -0.010748
  16 C :    0.082905
  17 O :   -0.173304
  18 C :   -0.118050
  19 C :    0.056160
  20 C :   -0.190381
  21 C :   -0.009654
  22 C :   -0.209993
  23 C :   -0.173410
  24 S :    0.516607
  25 C :   -0.194020
  26 C :   -0.189316
  27 Si:    0.664158
  28 C :   -0.242474
  29 C :   -0.242771
  30 C :   -0.050721
  31 C :   -0.198581
  32 S :    0.488015
  33 C :   -0.128359
  34 N :   -0.106167
  35 C :   -0.211508
  36 C :   -0.210731
  37 S :    0.402660
  38 N :   -0.101328
  39 C :   -0.132689
  40 S :    0.405538
  41 C :   -0.199025
  42 C :   -0.026553
  43 C :   -0.186223
  44 C :   -0.195129
  45 S :    0.451033
  46 C :   -0.166221
  47 C :   -0.206316
  48 Si:    0.669320
  49 C :   -0.241755
  50 C :   -0.241352
  51 C :   -0.001906
  52 C :   -0.183602
  53 S :    0.463464
  54 C :    0.046592
  55 C :   -0.106260
  56 C :    0.078131
  57 C :   -0.149402
  58 C :   -0.016739
  59 N :   -0.061442
  60 C :   -0.025841
  61 N :   -0.057605
  62 C :   -0.025639
  63 C :   -0.053421
  64 C :    0.086954
  65 O :   -0.153013
  66 C :    0.027869
  67 C :   -0.009158
  68 C :   -0.007248
  69 C :    0.018045
  70 C :   -0.005556
  71 C :   -0.015850
  72 C :   -0.014329
  73 C :   -0.011422
  74 H :    0.038137
  75 H :    0.038729
  76 H :    0.034536
  77 H :    0.032447
  78 H :    0.032045
  79 H :    0.031288
  80 H :    0.050352
  81 H :    0.035955
  82 H :    0.042616
  83 H :    0.037387
  84 H :    0.038862
  85 H :    0.042633
  86 H :    0.039198
  87 H :    0.037425
  88 H :    0.025622
  89 H :    0.036042
  90 H :    0.042842
  91 H :    0.040653
  92 H :    0.037979
  93 H :    0.043099
  94 H :    0.037816
  95 H :    0.040082
  96 H :    0.033052
  97 H :    0.042458
  98 H :    0.036809
  99 H :    0.038614
 100 H :    0.034512
 101 H :    0.032557
 102 H :    0.031816
 103 H :    0.030658

  Mayer bond orders larger than 0.100000
B(  0-C ,  1-C ) :   1.6032 B(  0-C ,  6-C ) :   0.9814 B(  0-C , 18-C ) :   1.0934
B(  1-C ,  2-C ) :   1.1526 B(  1-C ,  4-C ) :   1.1485 B(  2-C ,  3-N ) :   2.9601
B(  4-C ,  5-N ) :   2.9531 B(  6-C ,  7-C ) :   1.2148 B(  6-C , 11-C ) :   1.4595
B(  7-C ,  8-C ) :   1.4742 B(  7-C , 16-C ) :   0.9560 B(  8-C ,  9-C ) :   1.1744
B(  8-C , 74-H ) :   1.0161 B(  9-C , 10-C ) :   1.2584 B(  9-C , 15-C ) :   1.2468
B( 10-C , 11-C ) :   1.2011 B( 10-C , 12-C ) :   1.2438 B( 11-C , 75-H ) :   0.9880
B( 12-C , 13-C ) :   1.4863 B( 12-C , 76-H ) :   0.9965 B( 13-C , 14-C ) :   1.2628
B( 13-C , 77-H ) :   0.9884 B( 14-C , 15-C ) :   1.4872 B( 14-C , 78-H ) :   0.9885
B( 15-C , 79-H ) :   0.9968 B( 16-C , 17-O ) :   2.1360 B( 16-C , 18-C ) :   0.9804
B( 18-C , 19-C ) :   1.4619 B( 19-C , 20-C ) :   1.2904 B( 19-C , 80-H ) :   0.9396
B( 20-C , 21-C ) :   1.3258 B( 20-C , 24-S ) :   1.0745 B( 21-C , 22-C ) :   1.3350
B( 21-C , 81-H ) :   1.0090 B( 22-C , 23-C ) :   1.4059 B( 22-C , 27-Si) :   0.8764
B( 23-C , 24-S ) :   1.1294 B( 23-C , 25-C ) :   1.1762 B( 25-C , 26-C ) :   1.4864
B( 25-C , 32-S ) :   1.1168 B( 26-C , 27-Si) :   0.8774 B( 26-C , 30-C ) :   1.2971
B( 27-Si, 28-C ) :   1.0607 B( 27-Si, 29-C ) :   1.0600 B( 28-C , 82-H ) :   0.9490
B( 28-C , 83-H ) :   0.9532 B( 28-C , 84-H ) :   0.9534 B( 29-C , 85-H ) :   0.9496
B( 29-C , 86-H ) :   0.9533 B( 29-C , 87-H ) :   0.9527 B( 30-C , 31-C ) :   1.4595
B( 30-C , 88-H ) :   0.9892 B( 31-C , 32-S ) :   1.1196 B( 31-C , 33-C ) :   1.1527
B( 33-C , 34-N ) :   1.7268 B( 33-C , 37-S ) :   1.0817 B( 34-N , 35-C ) :   1.3979
B( 35-C , 36-C ) :   1.3026 B( 35-C , 40-S ) :   1.0990 B( 36-C , 37-S ) :   1.0940
B( 36-C , 38-N ) :   1.3999 B( 38-N , 39-C ) :   1.7246 B( 39-C , 40-S ) :   1.0829
B( 39-C , 41-C ) :   1.1108 B( 41-C , 42-C ) :   1.4803 B( 41-C , 44-C ) :   0.1039
B( 41-C , 45-S ) :   1.1177 B( 42-C , 43-C ) :   1.2551 B( 42-C , 89-H ) :   1.0129
B( 43-C , 44-C ) :   1.4899 B( 43-C , 48-Si) :   0.8677 B( 44-C , 45-S ) :   1.1172
B( 44-C , 46-C ) :   1.1694 B( 46-C , 47-C ) :   1.4373 B( 46-C , 53-S ) :   1.1652
B( 47-C , 48-Si) :   0.8721 B( 47-C , 51-C ) :   1.3006 B( 48-Si, 49-C ) :   1.0622
B( 48-Si, 50-C ) :   1.0653 B( 49-C , 90-H ) :   0.9495 B( 49-C , 91-H ) :   0.9532
B( 49-C , 92-H ) :   0.9530 B( 50-C , 93-H ) :   0.9481 B( 50-C , 94-H ) :   0.9529
B( 50-C , 95-H ) :   0.9535 B( 51-C , 52-C ) :   1.3931 B( 51-C , 96-H ) :   0.9787
B( 52-C , 53-S ) :   1.0706 B( 52-C , 54-C ) :   1.2533 B( 54-C , 55-C ) :   1.5525
B( 54-C , 97-H ) :   0.9112 B( 55-C , 56-C ) :   1.0932 B( 55-C , 64-C ) :   0.9476
B( 56-C , 57-C ) :   1.6076 B( 56-C , 62-C ) :   0.9796 B( 57-C , 58-C ) :   1.1530
B( 57-C , 60-C ) :   1.1398 B( 58-C , 59-N ) :   2.9609 B( 60-C , 61-N ) :   2.9753
B( 62-C , 63-C ) :   1.2178 B( 62-C , 69-C ) :   1.4551 B( 63-C , 64-C ) :   0.9538
B( 63-C , 66-C ) :   1.4711 B( 64-C , 65-O ) :   2.1596 B( 66-C , 67-C ) :   1.1775
B( 66-C , 98-H ) :   1.0160 B( 67-C , 68-C ) :   1.2605 B( 67-C , 73-C ) :   1.2441
B( 68-C , 69-C ) :   1.2025 B( 68-C , 70-C ) :   1.2421 B( 69-C , 99-H ) :   0.9893
B( 70-C , 71-C ) :   1.4880 B( 70-C ,100-H ) :   0.9970 B( 71-C , 72-C ) :   1.2614
B( 71-C ,101-H ) :   0.9880 B( 72-C , 73-C ) :   1.4903 B( 72-C ,102-H ) :   0.9883
B( 73-C ,103-H ) :   0.9971

-----------------------------------------------------------------------------
         ABSORPTION SPECTRUM VIA TRANSITION ELECTRIC DIPOLE MOMENTS
-----------------------------------------------------------------------------
State   Energy  Wavelength   fosc         T2         TX        TY        TZ
        (cm-1)    (nm)                  (au**2)     (au)      (au)      (au)
-----------------------------------------------------------------------------
   0   16413.8    609.2   3.205002290  64.28289  -2.88987   7.37176  -1.26044
   1   19541.7    511.7   0.542068849   9.13205  -1.74519  -1.19859  -2.15632
   2   24555.8    407.2   0.041059990   0.55048  -0.38987  -0.39268  -0.49425
   3   25315.6    395.0   0.020923626   0.27210   0.46297  -0.21497   0.10745
   4   26381.2    379.1   0.001321332   0.01649   0.06568   0.08834   0.06611
   5   26687.5    374.7   0.006849767   0.08450   0.19295  -0.20462   0.07349
   6   27563.9    362.8   0.148214575   1.77021   0.33252   1.19850   0.47247
   7   27982.1    357.4   0.347297458   4.08598   1.08563  -1.24931   1.16044
   8   28361.3    352.6   0.112472787   1.30556   0.15054   0.93812   0.63469
   9   28656.0    349.0   0.001876569   0.02156   0.14306  -0.03143   0.01023
  10   29128.0    343.3   0.024161348   0.27308  -0.29320   0.29427  -0.31704
  11   29957.9    333.8   0.039465446   0.43369  -0.27451   0.52595  -0.28586
  12   30001.3    333.3   0.025192337   0.27644   0.36169   0.09171   0.37042
  13   30692.7    325.8   0.015777870   0.16923   0.02258   0.40839   0.04406
  14   31502.7    317.4   0.018885171   0.19736   0.17786  -0.08124   0.39890
  15   32759.3    305.3   0.044940407   0.45163  -0.30964   0.43915  -0.40361
  16   33579.2    297.8   0.448127017   4.39345   1.20401   0.59212   1.61034
  17   33881.6    295.1   0.175051184   1.70089   0.72970   0.35836   1.01981
  18   34082.1    293.4   0.554370796   5.35488   0.64917  -2.05782   0.83597
  19   34552.8    289.4   0.001562127   0.01488   0.07503  -0.07732   0.05723
  20   34586.2    289.1   0.005369737   0.05111  -0.09424  -0.18512  -0.08922
  21   34693.7    288.2   0.145563052   1.38126   0.70361  -0.52571   0.78091
  22   35473.5    281.9   0.030192872   0.28021  -0.34318   0.22497  -0.33440
  23   35651.1    280.5   0.302481159   2.79319  -0.81721  -1.01979  -1.04183
  24   35812.6    279.2   0.078237070   0.71921  -0.32010  -0.45927  -0.63703
  25   36188.9    276.3   0.005259461   0.04785  -0.01182  -0.07040  -0.20676
  26   36461.5    274.3   0.030593186   0.27623   0.29753  -0.27052   0.33841
  27   36690.5    272.6   0.016436825   0.14748  -0.18601  -0.28067  -0.18467
  28   37173.3    269.0   0.026085573   0.23102   0.24816   0.27509   0.30620
  29   37616.2    265.8   0.037807964   0.33089  -0.34955   0.40265  -0.21583
  30   38334.4    260.9   0.028696593   0.24644  -0.20067  -0.34936  -0.29003
  31   38430.1    260.2   0.227168570   1.94604   0.85757   0.12287   1.09340
  32   38804.4    257.7   0.170824235   1.44925   0.77292   0.45658   0.80211
  33   38899.9    257.1   0.126296741   1.06886   0.08048   0.97356   0.33847
  34   39268.2    254.7   0.057658432   0.48339   0.03678   0.64295   0.26201
  35   39600.7    252.5   0.056167521   0.46694  -0.49445   0.21822  -0.41814
  36   39803.6    251.2   0.227709557   1.88337  -0.91224   0.27668  -0.98723
  37   40096.8    249.4   0.130342794   1.07017  -0.17063   1.01626   0.09096

FINAL SINGLE POINT ENERGY     -5671.003580470762

DIPOLE MOMENT
-------------
                                X             Y             Z
Electronic contribution:     19.27583      -4.87806      19.24803
Nuclear contribution   :    -21.39993       5.93273     -21.93728
                        -----------------------------------------
Total Dipole Moment    :     -2.12410       1.05467      -2.68925
                        -----------------------------------------
Magnitude (a.u.)       :      3.58556
Magnitude (Debye)      :      9.11376

Rotational constants in cm-1:     0.001586     0.000142     0.000131
Rotational constants in MHz :    47.552080     4.262875     3.930456

                             ****ORCA TERMINATED NORMALLY****
TOTAL RUN TIME: 0 days 0 hours 10 minutes 4 seconds 233 msec
