                         Program Version 4.2.0 -  RELEASE  -
|  1> # ORCA input file
|  2> # SCF done       -190.883210317197          0.000633467306
|  3> ! CAM-B3LYP def2-SVP def2/J RIJCOSX Grid4 TightSCF
|  4> %maxcore 5000
|  5> %tddft
|  6>     Mode sTDDFT
|  7>     Ethresh 5.0
|  8>     maxcore 5000
|  9> end
| 10>
| 11> %pal
| 12>   nprocs 6
| 13>   end
| 14> * xyz 0 1
| 15>    C       -4.21682         0.73750         1.16332
| 16>    C       -4.27666         0.81908         2.52939
| 17>    C       -4.99877        -0.08314         3.33872
| 18>    N       -5.56921        -0.77967         4.05121
| 19>    C       -3.59451         1.76334         3.32645
| 20>    N       -3.05789         2.47567         4.04998
| 21>    C       -4.82219        -0.31255         0.35458
| 22>    C       -4.34920        -0.17678        -0.98036
| 23>    C       -4.73717        -1.02795        -1.97432
| 24>    C       -5.64564        -2.06747        -1.67419
| 25>    C       -6.13450        -2.20234        -0.34274
| 26>    C       -5.70606        -1.31101         0.66773
| 27>    C       -7.04953        -3.23618        -0.05743
| 28>    C       -7.46177        -4.09696        -1.03791
| 29>    C       -6.97782        -3.96470        -2.34800
| 30>    C       -6.08862        -2.97207        -2.65907
| 31>    C       -3.44110         0.98081        -1.06995
| 32>    O       -2.81936         1.31713        -2.05616
| 33>    C       -3.47722         1.61886         0.27029
| 34>    C       -3.07960         2.87679         0.62243
| 35>    C       -2.39408         3.87192        -0.11271
| 36>    C       -1.68637         3.83373        -1.28918
| 37>    C       -1.16546         5.08476        -1.67741
| 38>    C       -1.48943         6.11847        -0.75190
| 39>    S       -2.40350         5.49573         0.58683
| 40>    C       -1.11723         7.42854        -0.95153
| 41>    C       -0.39943         7.73137        -2.10939
| 42>    C       -0.05718         6.70018        -3.02658
| 43>    C       -0.42493         5.39164        -2.82349
| 44>    S        0.83824         7.33020        -4.39025
| 45>    C        0.71410         8.95433        -3.75391
| 46>    C        0.05380         8.99354        -2.55535
| 47>    C        1.23420        10.07066        -4.49668
| 48>    C        1.07539        11.38819        -4.09613
| 49>    C        1.52723        12.44214        -4.87712
| 50>    C        2.16591        12.26203        -6.09666
| 51>    C        2.39340        10.91902        -6.52039
| 52>    C        1.91881         9.84581        -5.72222
| 53>    N        2.10524         8.57794        -6.11919
| 54>    C        2.73605         8.32339        -7.23374
| 55>    C        3.23381         9.39891        -8.02470
| 56>    N        3.05127        10.64211        -7.66263
| 57>    C        3.98156         9.14963        -9.29135
| 58>    C        2.91259         6.89719        -7.62492
| 59>    C        2.53896        13.40119        -6.89519
| 60>    C        3.09824        13.43322        -8.13989
| 61>    C        3.27378        14.73738        -8.66026
| 62>    C        2.82601        15.73822        -7.75297
| 63>    S        2.21472        15.02476        -6.28894
| 64>    C        2.87128        17.07892        -8.04875
| 65>    C        3.37143        17.45527        -9.29973
| 66>    C        3.82694        16.45498       -10.20576
| 67>    C        3.78742        15.11204        -9.90138
| 68>    S        4.39146        17.16371       -11.68604
| 69>    C        3.99179        18.78644       -11.10774
| 70>    C        3.48066        18.75515        -9.83328
| 71>    C        4.25910        19.84388       -12.00887
| 72>    C        3.94229        21.17146       -11.96530
| 73>    C        4.29363        22.10969       -13.02430
| 74>    C        5.22019        21.92434       -14.01652
| 75>    C        5.51773        22.88707       -15.00473
| 76>    N        5.80423        23.61841       -15.84207
| 77>    C        6.04373        20.79057       -14.18624
| 78>    N        6.76885        19.92348       -14.38963
| 79>    C        3.53457        23.33494       -12.80764
| 80>    C        2.82592        23.21190       -11.58040
| 81>    C        3.09266        21.89231       -10.98327
| 82>    O        2.67814        21.50831        -9.90906
| 83>    C        2.03174        24.21256       -11.09939
| 84>    C        1.89966        25.40462       -11.84553
| 85>    C        2.59656        25.53231       -13.08169
| 86>    C        3.41693        24.48044       -13.55006
| 87>    C        2.45190        26.72334       -13.82208
| 88>    C        1.65928        27.74045       -13.36441
| 89>    C        0.97495        27.61411       -12.14624
| 90>    C        1.09281        26.47118       -11.40289
| 91>    H       -4.35972        -0.90606        -2.97884
| 92>    H       -6.09806        -1.43584         1.66460
| 93>    H       -7.41794        -3.33502         0.95315
| 94>    H       -8.16353        -4.88508        -0.80931
| 95>    H       -7.31367        -4.65272        -3.10950
| 96>    H       -5.71290        -2.86476        -3.66624
| 97>    H       -3.37641         3.21213         1.61032
| 98>    H       -1.55239         2.93501        -1.86193
| 99>    H       -1.37692         8.20050        -0.24450
|100>    H       -0.16867         4.61772        -3.52923
|101>    H       -0.11973         9.89553        -1.99658
|102>    H        0.57377        11.61288        -3.16846
|103>    H        1.35835        13.45036        -4.52686
|104>    H        4.86152         8.53857        -9.09679
|105>    H        4.29162        10.09507        -9.72665
|106>    H        3.35299         8.61566       -10.00256
|107>    H        2.44099         6.26284        -6.88034
|108>    H        3.97138         6.65134        -7.69242
|109>    H        2.46220         6.71203        -8.59882
|110>    H        3.36482        12.53789        -8.66886
|111>    H        2.52366        17.82567        -7.35308
|112>    H        4.13289        14.36722       -10.60035
|113>    H        3.18395        19.64011        -9.30131
|114>    H        4.77502        19.50857       -12.90173
|115>    H        1.50848        24.09404       -10.16209
|116>    H        3.92696        24.60742       -14.49156
|117>    H        2.98203        26.81662       -14.75857
|118>    H        1.55528        28.64879       -13.93877
|119>    H        0.35377        28.42669       -11.80011
|120>    H        0.56816        26.36781       -10.46424
|121> *
|122>
|123>                          ****END OF INPUT****

CARTESIAN COORDINATES (ANGSTROEM)
---------------------------------
  C     -4.216820    0.737500    1.163320
  C     -4.276660    0.819080    2.529390
  C     -4.998770   -0.083140    3.338720
  N     -5.569210   -0.779670    4.051210
  C     -3.594510    1.763340    3.326450
  N     -3.057890    2.475670    4.049980
  C     -4.822190   -0.312550    0.354580
  C     -4.349200   -0.176780   -0.980360
  C     -4.737170   -1.027950   -1.974320
  C     -5.645640   -2.067470   -1.674190
  C     -6.134500   -2.202340   -0.342740
  C     -5.706060   -1.311010    0.667730
  C     -7.049530   -3.236180   -0.057430
  C     -7.461770   -4.096960   -1.037910
  C     -6.977820   -3.964700   -2.348000
  C     -6.088620   -2.972070   -2.659070
  C     -3.441100    0.980810   -1.069950
  O     -2.819360    1.317130   -2.056160
  C     -3.477220    1.618860    0.270290
  C     -3.079600    2.876790    0.622430
  C     -2.394080    3.871920   -0.112710
  C     -1.686370    3.833730   -1.289180
  C     -1.165460    5.084760   -1.677410
  C     -1.489430    6.118470   -0.751900
  S     -2.403500    5.495730    0.586830
  C     -1.117230    7.428540   -0.951530
  C     -0.399430    7.731370   -2.109390
  C     -0.057180    6.700180   -3.026580
  C     -0.424930    5.391640   -2.823490
  S      0.838240    7.330200   -4.390250
  C      0.714100    8.954330   -3.753910
  C      0.053800    8.993540   -2.555350
  C      1.234200   10.070660   -4.496680
  C      1.075390   11.388190   -4.096130
  C      1.527230   12.442140   -4.877120
  C      2.165910   12.262030   -6.096660
  C      2.393400   10.919020   -6.520390
  C      1.918810    9.845810   -5.722220
  N      2.105240    8.577940   -6.119190
  C      2.736050    8.323390   -7.233740
  C      3.233810    9.398910   -8.024700
  N      3.051270   10.642110   -7.662630
  C      3.981560    9.149630   -9.291350
  C      2.912590    6.897190   -7.624920
  C      2.538960   13.401190   -6.895190
  C      3.098240   13.433220   -8.139890
  C      3.273780   14.737380   -8.660260
  C      2.826010   15.738220   -7.752970
  S      2.214720   15.024760   -6.288940
  C      2.871280   17.078920   -8.048750
  C      3.371430   17.455270   -9.299730
  C      3.826940   16.454980  -10.205760
  C      3.787420   15.112040   -9.901380
  S      4.391460   17.163710  -11.686040
  C      3.991790   18.786440  -11.107740
  C      3.480660   18.755150   -9.833280
  C      4.259100   19.843880  -12.008870
  C      3.942290   21.171460  -11.965300
  C      4.293630   22.109690  -13.024300
  C      5.220190   21.924340  -14.016520
  C      5.517730   22.887070  -15.004730
  N      5.804230   23.618410  -15.842070
  C      6.043730   20.790570  -14.186240
  N      6.768850   19.923480  -14.389630
  C      3.534570   23.334940  -12.807640
  C      2.825920   23.211900  -11.580400
  C      3.092660   21.892310  -10.983270
  O      2.678140   21.508310   -9.909060
  C      2.031740   24.212560  -11.099390
  C      1.899660   25.404620  -11.845530
  C      2.596560   25.532310  -13.081690
  C      3.416930   24.480440  -13.550060
  C      2.451900   26.723340  -13.822080
  C      1.659280   27.740450  -13.364410
  C      0.974950   27.614110  -12.146240
  C      1.092810   26.471180  -11.402890
  H     -4.359720   -0.906060   -2.978840
  H     -6.098060   -1.435840    1.664600
  H     -7.417940   -3.335020    0.953150
  H     -8.163530   -4.885080   -0.809310
  H     -7.313670   -4.652720   -3.109500
  H     -5.712900   -2.864760   -3.666240
  H     -3.376410    3.212130    1.610320
  H     -1.552390    2.935010   -1.861930
  H     -1.376920    8.200500   -0.244500
  H     -0.168670    4.617720   -3.529230
  H     -0.119730    9.895530   -1.996580
  H      0.573770   11.612880   -3.168460
  H      1.358350   13.450360   -4.526860
  H      4.861520    8.538570   -9.096790
  H      4.291620   10.095070   -9.726650
  H      3.352990    8.615660  -10.002560
  H      2.440990    6.262840   -6.880340
  H      3.971380    6.651340   -7.692420
  H      2.462200    6.712030   -8.598820
  H      3.364820   12.537890   -8.668860
  H      2.523660   17.825670   -7.353080
  H      4.132890   14.367220  -10.600350
  H      3.183950   19.640110   -9.301310
  H      4.775020   19.508570  -12.901730
  H      1.508480   24.094040  -10.162090
  H      3.926960   24.607420  -14.491560
  H      2.982030   26.816620  -14.758570
  H      1.555280   28.648790  -13.938770
  H      0.353770   28.426690  -11.800110
  H      0.568160   26.367810  -10.464240

 Total Charge           Charge          ....    0
 Multiplicity           Mult            ....    1
 Number of Electrons    NEL             ....  536
 Basis Dimension        Dim             .... 1230

ORBITAL ENERGIES
----------------

  NO   OCC          E(Eh)            E(eV)
   0   2.0000     -88.951922     -2420.5049
   1   2.0000     -88.950192     -2420.4578
   2   2.0000     -88.947514     -2420.3849
   3   2.0000     -88.943471     -2420.2749
   4   2.0000     -19.217798      -522.9429
   5   2.0000     -19.215334      -522.8758
   6   2.0000     -14.431396      -392.6982
   7   2.0000     -14.428562      -392.6211
   8   2.0000     -14.413266      -392.2049
   9   2.0000     -14.411828      -392.1658
  10   2.0000     -14.410256      -392.1230
  11   2.0000     -14.409920      -392.1139
  12   2.0000     -10.368643      -282.1451
  13   2.0000     -10.366397      -282.0840
  14   2.0000     -10.339355      -281.3482
  15   2.0000     -10.338468      -281.3240
  16   2.0000     -10.337012      -281.2844
  17   2.0000     -10.336020      -281.2574
  18   2.0000     -10.335709      -281.2489
  19   2.0000     -10.334750      -281.2228
  20   2.0000     -10.326257      -280.9917
  21   2.0000     -10.323970      -280.9295
  22   2.0000     -10.321753      -280.8692
  23   2.0000     -10.319108      -280.7972
  24   2.0000     -10.316020      -280.7132
  25   2.0000     -10.314947      -280.6840
  26   2.0000     -10.313043      -280.6322
  27   2.0000     -10.312990      -280.6307
  28   2.0000     -10.312977      -280.6304
  29   2.0000     -10.311576      -280.5922
  30   2.0000     -10.309961      -280.5483
  31   2.0000     -10.308955      -280.5209
  32   2.0000     -10.308527      -280.5093
  33   2.0000     -10.305159      -280.4176
  34   2.0000     -10.303879      -280.3828
  35   2.0000     -10.303148      -280.3629
  36   2.0000     -10.301907      -280.3292
  37   2.0000     -10.300833      -280.2999
  38   2.0000     -10.299850      -280.2732
  39   2.0000     -10.299155      -280.2543
  40   2.0000     -10.296761      -280.1891
  41   2.0000     -10.296448      -280.1806
  42   2.0000     -10.296146      -280.1724
  43   2.0000     -10.295139      -280.1450
  44   2.0000     -10.295044      -280.1424
  45   2.0000     -10.294967      -280.1403
  46   2.0000     -10.294726      -280.1337
  47   2.0000     -10.293596      -280.1030
  48   2.0000     -10.293449      -280.0990
  49   2.0000     -10.293047      -280.0880
  50   2.0000     -10.292597      -280.0758
  51   2.0000     -10.289176      -279.9827
  52   2.0000     -10.288847      -279.9738
  53   2.0000     -10.288794      -279.9723
  54   2.0000     -10.287832      -279.9461
  55   2.0000     -10.286854      -279.9195
  56   2.0000     -10.285670      -279.8873
  57   2.0000     -10.285440      -279.8811
  58   2.0000     -10.285330      -279.8781
  59   2.0000     -10.285168      -279.8736
  60   2.0000     -10.285121      -279.8724
  61   2.0000     -10.284833      -279.8645
  62   2.0000     -10.284434      -279.8537
  63   2.0000     -10.284303      -279.8501
  64   2.0000     -10.284086      -279.8442
  65   2.0000     -10.283889      -279.8388
  66   2.0000     -10.283552      -279.8297
  67   2.0000     -10.283082      -279.8169
  68   2.0000     -10.283009      -279.8149
  69   2.0000     -10.282734      -279.8074
  70   2.0000     -10.282465      -279.8001
  71   2.0000     -10.282060      -279.7891
  72   2.0000     -10.281314      -279.7688
  73   2.0000     -10.280407      -279.7441
  74   2.0000     -10.276418      -279.6356
  75   2.0000     -10.270757      -279.4815
  76   2.0000      -8.047902      -218.9946
  77   2.0000      -8.045979      -218.9422
  78   2.0000      -8.043663      -218.8792
  79   2.0000      -8.036970      -218.6971
  80   2.0000      -6.017431      -163.7426
  81   2.0000      -6.015616      -163.6932
  82   2.0000      -6.013552      -163.6371
  83   2.0000      -6.013236      -163.6285
  84   2.0000      -6.011653      -163.5854
  85   2.0000      -6.009327      -163.5221
  86   2.0000      -6.009158      -163.5175
  87   2.0000      -6.007157      -163.4630
  88   2.0000      -6.006892      -163.4558
  89   2.0000      -6.004815      -163.3993
  90   2.0000      -6.002318      -163.3314
  91   2.0000      -5.998297      -163.2220
  92   2.0000      -1.132301       -30.8115
  93   2.0000      -1.129883       -30.7457
  94   2.0000      -1.093090       -29.7445
  95   2.0000      -1.018101       -27.7039
  96   2.0000      -1.016228       -27.6530
  97   2.0000      -1.013902       -27.5897
  98   2.0000      -1.004259       -27.3273
  99   2.0000      -0.998645       -27.1745
 100   2.0000      -0.996787       -27.1240
 101   2.0000      -0.994674       -27.0664
 102   2.0000      -0.991026       -26.9672
 103   2.0000      -0.988651       -26.9026
 104   2.0000      -0.984862       -26.7995
 105   2.0000      -0.977498       -26.5991
 106   2.0000      -0.969773       -26.3889
 107   2.0000      -0.968069       -26.3425
 108   2.0000      -0.961331       -26.1591
 109   2.0000      -0.927592       -25.2411
 110   2.0000      -0.923811       -25.1382
 111   2.0000      -0.918134       -24.9837
 112   2.0000      -0.911687       -24.8083
 113   2.0000      -0.898577       -24.4515
 114   2.0000      -0.896292       -24.3894
 115   2.0000      -0.890687       -24.2368
 116   2.0000      -0.880993       -23.9730
 117   2.0000      -0.879089       -23.9212
 118   2.0000      -0.878653       -23.9094
 119   2.0000      -0.877063       -23.8661
 120   2.0000      -0.873389       -23.7661
 121   2.0000      -0.865271       -23.5452
 122   2.0000      -0.857601       -23.3365
 123   2.0000      -0.834879       -22.7182
 124   2.0000      -0.832748       -22.6602
 125   2.0000      -0.826919       -22.5016
 126   2.0000      -0.826267       -22.4839
 127   2.0000      -0.825189       -22.4545
 128   2.0000      -0.821592       -22.3566
 129   2.0000      -0.814233       -22.1564
 130   2.0000      -0.809130       -22.0176
 131   2.0000      -0.788159       -21.4469
 132   2.0000      -0.783575       -21.3222
 133   2.0000      -0.780822       -21.2473
 134   2.0000      -0.769069       -20.9274
 135   2.0000      -0.760524       -20.6949
 136   2.0000      -0.758219       -20.6322
 137   2.0000      -0.744332       -20.2543
 138   2.0000      -0.731542       -19.9063
 139   2.0000      -0.728877       -19.8337
 140   2.0000      -0.723909       -19.6986
 141   2.0000      -0.708576       -19.2813
 142   2.0000      -0.702930       -19.1277
 143   2.0000      -0.701177       -19.0800
 144   2.0000      -0.697345       -18.9757
 145   2.0000      -0.695060       -18.9135
 146   2.0000      -0.692213       -18.8361
 147   2.0000      -0.687275       -18.7017
 148   2.0000      -0.676778       -18.4161
 149   2.0000      -0.674365       -18.3504
 150   2.0000      -0.667496       -18.1635
 151   2.0000      -0.665423       -18.1071
 152   2.0000      -0.658513       -17.9190
 153   2.0000      -0.657039       -17.8789
 154   2.0000      -0.648880       -17.6569
 155   2.0000      -0.643152       -17.5011
 156   2.0000      -0.631343       -17.1797
 157   2.0000      -0.628013       -17.0891
 158   2.0000      -0.623221       -16.9587
 159   2.0000      -0.614771       -16.7288
 160   2.0000      -0.614480       -16.7209
 161   2.0000      -0.605710       -16.4822
 162   2.0000      -0.604859       -16.4590
 163   2.0000      -0.602868       -16.4049
 164   2.0000      -0.602754       -16.4018
 165   2.0000      -0.599340       -16.3089
 166   2.0000      -0.583942       -15.8899
 167   2.0000      -0.572666       -15.5830
 168   2.0000      -0.570108       -15.5134
 169   2.0000      -0.569325       -15.4921
 170   2.0000      -0.567985       -15.4557
 171   2.0000      -0.562792       -15.3143
 172   2.0000      -0.560048       -15.2397
 173   2.0000      -0.556051       -15.1309
 174   2.0000      -0.546935       -14.8829
 175   2.0000      -0.545093       -14.8327
 176   2.0000      -0.543678       -14.7942
 177   2.0000      -0.543420       -14.7872
 178   2.0000      -0.541790       -14.7429
 179   2.0000      -0.536118       -14.5885
 180   2.0000      -0.534943       -14.5565
 181   2.0000      -0.533908       -14.5284
 182   2.0000      -0.532596       -14.4927
 183   2.0000      -0.529794       -14.4164
 184   2.0000      -0.528289       -14.3755
 185   2.0000      -0.521681       -14.1957
 186   2.0000      -0.519800       -14.1445
 187   2.0000      -0.518694       -14.1144
 188   2.0000      -0.516786       -14.0625
 189   2.0000      -0.516383       -14.0515
 190   2.0000      -0.515506       -14.0276
 191   2.0000      -0.511493       -13.9184
 192   2.0000      -0.509769       -13.8715
 193   2.0000      -0.508530       -13.8378
 194   2.0000      -0.506261       -13.7761
 195   2.0000      -0.506037       -13.7700
 196   2.0000      -0.504604       -13.7310
 197   2.0000      -0.503325       -13.6962
 198   2.0000      -0.500594       -13.6219
 199   2.0000      -0.499160       -13.5828
 200   2.0000      -0.494516       -13.4565
 201   2.0000      -0.492088       -13.3904
 202   2.0000      -0.490989       -13.3605
 203   2.0000      -0.489818       -13.3286
 204   2.0000      -0.487821       -13.2743
 205   2.0000      -0.486033       -13.2256
 206   2.0000      -0.484511       -13.1842
 207   2.0000      -0.483483       -13.1562
 208   2.0000      -0.477912       -13.0047
 209   2.0000      -0.473810       -12.8930
 210   2.0000      -0.467378       -12.7180
 211   2.0000      -0.465334       -12.6624
 212   2.0000      -0.463297       -12.6070
 213   2.0000      -0.462246       -12.5784
 214   2.0000      -0.460906       -12.5419
 215   2.0000      -0.459802       -12.5119
 216   2.0000      -0.452288       -12.3074
 217   2.0000      -0.450699       -12.2642
 218   2.0000      -0.445888       -12.1332
 219   2.0000      -0.443532       -12.0691
 220   2.0000      -0.442448       -12.0396
 221   2.0000      -0.441135       -12.0039
 222   2.0000      -0.440190       -11.9782
 223   2.0000      -0.438551       -11.9336
 224   2.0000      -0.437451       -11.9036
 225   2.0000      -0.436493       -11.8776
 226   2.0000      -0.435304       -11.8452
 227   2.0000      -0.432649       -11.7730
 228   2.0000      -0.431510       -11.7420
 229   2.0000      -0.431168       -11.7327
 230   2.0000      -0.429579       -11.6894
 231   2.0000      -0.429016       -11.6741
 232   2.0000      -0.426190       -11.5972
 233   2.0000      -0.423884       -11.5345
 234   2.0000      -0.421522       -11.4702
 235   2.0000      -0.420260       -11.4358
 236   2.0000      -0.415194       -11.2980
 237   2.0000      -0.414835       -11.2882
 238   2.0000      -0.412378       -11.2214
 239   2.0000      -0.411106       -11.1868
 240   2.0000      -0.407812       -11.0971
 241   2.0000      -0.405422       -11.0321
 242   2.0000      -0.403347       -10.9756
 243   2.0000      -0.401800       -10.9335
 244   2.0000      -0.389586       -10.6012
 245   2.0000      -0.383658       -10.4399
 246   2.0000      -0.381906       -10.3922
 247   2.0000      -0.377342       -10.2680
 248   2.0000      -0.373922       -10.1749
 249   2.0000      -0.371378       -10.1057
 250   2.0000      -0.366212        -9.9651
 251   2.0000      -0.352566        -9.5938
 252   2.0000      -0.341362        -9.2889
 253   2.0000      -0.337702        -9.1893
 254   2.0000      -0.335741        -9.1360
 255   2.0000      -0.334818        -9.1109
 256   2.0000      -0.329084        -8.9548
 257   2.0000      -0.321090        -8.7373
 258   2.0000      -0.318540        -8.6679
 259   2.0000      -0.315932        -8.5969
 260   2.0000      -0.314238        -8.5508
 261   2.0000      -0.303334        -8.2541
 262   2.0000      -0.294360        -8.0100
 263   2.0000      -0.289880        -7.8880
 264   2.0000      -0.283557        -7.7160
 265   2.0000      -0.276247        -7.5171
 266   2.0000      -0.261394        -7.1129
 267   2.0000      -0.245378        -6.6771
 268   0.0000      -0.097598        -2.6558
 269   0.0000      -0.090441        -2.4610
 270   0.0000      -0.066972        -1.8224
 271   0.0000      -0.055806        -1.5186
 272   0.0000      -0.052914        -1.4399

MULLIKEN ATOMIC CHARGES
-----------------------
   0 C :    0.297584
   1 C :   -0.349247
   2 C :   -0.181853
   3 N :    0.145776
   4 C :   -0.204357
   5 N :    0.164358
   6 C :    0.047838
   7 C :    0.001030
   8 C :   -0.083627
   9 C :    0.098098
  10 C :    0.094418
  11 C :   -0.081160
  12 C :   -0.017599
  13 C :    0.035009
  14 C :    0.035035
  15 C :   -0.014811
  16 C :    0.160237
  17 O :   -0.155843
  18 C :   -0.089782
  19 C :    0.051807
  20 C :   -0.099962
  21 C :    0.005336
  22 C :    0.091002
  23 C :   -0.031304
  24 S :    0.114283
  25 C :   -0.062153
  26 C :    0.129414
  27 C :   -0.023117
  28 C :   -0.050847
  29 S :    0.129078
  30 C :   -0.053682
  31 C :   -0.055182
  32 C :    0.161755
  33 C :   -0.058387
  34 C :   -0.059300
  35 C :    0.164835
  36 C :   -0.028156
  37 C :   -0.041174
  38 N :   -0.048463
  39 C :   -0.150951
  40 C :   -0.160597
  41 N :   -0.004120
  42 C :    0.121286
  43 C :    0.124254
  44 C :   -0.085128
  45 C :   -0.041210
  46 C :    0.135402
  47 C :   -0.029055
  48 S :    0.079733
  49 C :   -0.042579
  50 C :    0.089005
  51 C :   -0.032136
  52 C :   -0.055410
  53 S :    0.119524
  54 C :   -0.100039
  55 C :   -0.000550
  56 C :    0.053190
  57 C :   -0.084192
  58 C :    0.306839
  59 C :   -0.351922
  60 C :   -0.183224
  61 N :    0.145717
  62 C :   -0.198346
  63 N :    0.160169
  64 C :    0.047765
  65 C :    0.001565
  66 C :    0.160157
  67 O :   -0.154963
  68 C :   -0.083963
  69 C :    0.099439
  70 C :    0.096845
  71 C :   -0.082179
  72 C :   -0.019522
  73 C :    0.037337
  74 C :    0.035395
  75 C :   -0.015792
  76 H :   -0.015587
  77 H :   -0.008250
  78 H :   -0.010223
  79 H :   -0.005381
  80 H :   -0.006031
  81 H :   -0.019704
  82 H :    0.017944
  83 H :    0.009167
  84 H :   -0.032473
  85 H :   -0.029450
  86 H :   -0.028806
  87 H :   -0.021465
  88 H :   -0.001751
  89 H :    0.030148
  90 H :    0.031115
  91 H :    0.030819
  92 H :    0.038389
  93 H :    0.031131
  94 H :    0.028559
  95 H :   -0.019396
  96 H :   -0.022357
  97 H :   -0.029823
  98 H :    0.009610
  99 H :    0.013358
 100 H :   -0.015325
 101 H :   -0.008956
 102 H :   -0.009948
 103 H :   -0.005297
 104 H :   -0.005750
 105 H :   -0.018894
Sum of atomic charges:    0.0000000

LOEWDIN ATOMIC CHARGES
----------------------
   0 C :    0.076704
   1 C :   -0.141571
   2 C :   -0.016761
   3 N :   -0.056298
   4 C :   -0.027285
   5 N :   -0.049664
   6 C :   -0.025737
   7 C :   -0.053999
   8 C :    0.029895
   9 C :   -0.008603
  10 C :   -0.006556
  11 C :    0.018892
  12 C :   -0.005450
  13 C :   -0.014490
  14 C :   -0.013572
  15 C :   -0.010333
  16 C :    0.087675
  17 O :   -0.142280
  18 C :   -0.091283
  19 C :    0.052863
  20 C :   -0.171181
  21 C :    0.006852
  22 C :   -0.055043
  23 C :   -0.145925
  24 S :    0.396545
  25 C :   -0.042550
  26 C :   -0.033183
  27 C :   -0.166870
  28 C :   -0.020686
  29 S :    0.428393
  30 C :   -0.139244
  31 C :   -0.054550
  32 C :   -0.032786
  33 C :   -0.002222
  34 C :   -0.014631
  35 C :   -0.034566
  36 C :    0.000072
  37 C :   -0.007238
  38 N :   -0.052185
  39 C :    0.007106
  40 C :    0.004737
  41 N :   -0.035470
  42 C :   -0.051706
  43 C :   -0.051086
  44 C :   -0.135465
  45 C :   -0.044792
  46 C :   -0.033065
  47 C :   -0.152495
  48 S :    0.386787
  49 C :   -0.020438
  50 C :   -0.053777
  51 C :   -0.146093
  52 C :   -0.037507
  53 S :    0.401932
  54 C :   -0.169874
  55 C :    0.005335
  56 C :    0.052789
  57 C :   -0.090395
  58 C :    0.076989
  59 C :   -0.140860
  60 C :   -0.016523
  61 N :   -0.055506
  62 C :   -0.026492
  63 N :   -0.049426
  64 C :   -0.026089
  65 C :   -0.054722
  66 C :    0.088480
  67 O :   -0.142219
  68 C :    0.030810
  69 C :   -0.008434
  70 C :   -0.006332
  71 C :    0.019277
  72 C :   -0.005277
  73 C :   -0.013878
  74 C :   -0.012893
  75 C :   -0.009995
  76 H :    0.037755
  77 H :    0.038746
  78 H :    0.034473
  79 H :    0.032841
  80 H :    0.032378
  81 H :    0.031111
  82 H :    0.044064
  83 H :    0.034690
  84 H :    0.030051
  85 H :    0.031895
  86 H :    0.026860
  87 H :    0.032696
  88 H :    0.025072
  89 H :    0.040188
  90 H :    0.039188
  91 H :    0.040447
  92 H :    0.041321
  93 H :    0.041056
  94 H :    0.040107
  95 H :    0.026990
  96 H :    0.034863
  97 H :    0.031784
  98 H :    0.034603
  99 H :    0.043695
 100 H :    0.038042
 101 H :    0.038852
 102 H :    0.034661
 103 H :    0.032995
 104 H :    0.032550
 105 H :    0.031447

  Mayer bond orders larger than 0.100000
B(  0-C ,  1-C ) :   1.6383 B(  0-C ,  6-C ) :   0.9863 B(  0-C , 18-C ) :   1.0637
B(  1-C ,  2-C ) :   1.1458 B(  1-C ,  4-C ) :   1.1359 B(  2-C ,  3-N ) :   2.9700
B(  4-C ,  5-N ) :   2.9992 B(  6-C ,  7-C ) :   1.2156 B(  6-C , 11-C ) :   1.4519
B(  7-C ,  8-C ) :   1.4723 B(  7-C , 16-C ) :   0.9512 B(  8-C ,  9-C ) :   1.1789
B(  8-C , 76-H ) :   1.0158 B(  9-C , 10-C ) :   1.2572 B(  9-C , 15-C ) :   1.2443
B( 10-C , 11-C ) :   1.2056 B( 10-C , 12-C ) :   1.2405 B( 11-C , 77-H ) :   0.9908
B( 12-C , 13-C ) :   1.4895 B( 12-C , 78-H ) :   0.9971 B( 13-C , 14-C ) :   1.2598
B( 13-C , 79-H ) :   0.9888 B( 14-C , 15-C ) :   1.4887 B( 14-C , 80-H ) :   0.9884
B( 15-C , 81-H ) :   0.9974 B( 16-C , 17-O ) :   2.1760 B( 16-C , 18-C ) :   0.9391
B( 18-C , 19-C ) :   1.6103 B( 19-C , 20-C ) :   1.1937 B( 19-C , 82-H ) :   0.9235
B( 20-C , 21-C ) :   1.5084 B( 20-C , 24-S ) :   1.0549 B( 21-C , 22-C ) :   1.1647
B( 21-C , 83-H ) :   0.9823 B( 22-C , 23-C ) :   1.2622 B( 22-C , 28-C ) :   1.2925
B( 23-C , 24-S ) :   1.0576 B( 23-C , 25-C ) :   1.3807 B( 25-C , 26-C ) :   1.3139
B( 25-C , 28-C ) :   0.1011 B( 25-C , 84-H ) :   1.0022 B( 26-C , 27-C ) :   1.2674
B( 26-C , 31-C ) :   1.1587 B( 27-C , 28-C ) :   1.4042 B( 27-C , 29-S ) :   0.9798
B( 28-C , 85-H ) :   1.0019 B( 29-S , 30-C ) :   1.0903 B( 30-C , 31-C ) :   1.5573
B( 30-C , 32-C ) :   1.0795 B( 31-C , 86-H ) :   0.9944 B( 32-C , 33-C ) :   1.4053
B( 32-C , 35-C ) :   0.1146 B( 32-C , 37-C ) :   1.2019 B( 33-C , 34-C ) :   1.2894
B( 33-C , 87-H ) :   0.9970 B( 34-C , 35-C ) :   1.3903 B( 34-C , 88-H ) :   0.9848
B( 35-C , 36-C ) :   1.2186 B( 35-C , 44-C ) :   1.1044 B( 36-C , 37-C ) :   1.2595
B( 36-C , 41-N ) :   1.4387 B( 37-C , 38-N ) :   1.3956 B( 38-N , 39-C ) :   1.6566
B( 39-C , 40-C ) :   1.1747 B( 39-C , 43-C ) :   1.1020 B( 40-C , 41-N ) :   1.6743
B( 40-C , 42-C ) :   1.0965 B( 42-C , 89-H ) :   0.9411 B( 42-C , 90-H ) :   0.9458
B( 42-C , 91-H ) :   0.9403 B( 43-C , 92-H ) :   0.9435 B( 43-C , 93-H ) :   0.9392
B( 43-C , 94-H ) :   0.9393 B( 44-C , 45-C ) :   1.6008 B( 44-C , 48-S ) :   1.0637
B( 45-C , 46-C ) :   1.1061 B( 45-C , 95-H ) :   0.9883 B( 46-C , 47-C ) :   1.2617
B( 46-C , 52-C ) :   1.3259 B( 47-C , 48-S ) :   1.0362 B( 47-C , 49-C ) :   1.4067
B( 49-C , 50-C ) :   1.2887 B( 49-C , 52-C ) :   0.1004 B( 49-C , 96-H ) :   1.0026
B( 50-C , 51-C ) :   1.2668 B( 50-C , 55-C ) :   1.1634 B( 51-C , 52-C ) :   1.3698
B( 51-C , 53-S ) :   1.0608 B( 52-C , 97-H ) :   1.0027 B( 53-S , 54-C ) :   1.0596
B( 54-C , 55-C ) :   1.5061 B( 54-C , 56-C ) :   1.1976 B( 55-C , 98-H ) :   0.9810
B( 56-C , 57-C ) :   1.6095 B( 56-C , 99-H ) :   0.9177 B( 57-C , 58-C ) :   1.0697
B( 57-C , 66-C ) :   0.9353 B( 58-C , 59-C ) :   1.6305 B( 58-C , 64-C ) :   0.9833
B( 59-C , 60-C ) :   1.1483 B( 59-C , 62-C ) :   1.1356 B( 60-C , 61-N ) :   2.9656
B( 62-C , 63-N ) :   2.9873 B( 64-C , 65-C ) :   1.2179 B( 64-C , 71-C ) :   1.4484
B( 65-C , 66-C ) :   0.9538 B( 65-C , 68-C ) :   1.4700 B( 66-C , 67-O ) :   2.1699
B( 68-C , 69-C ) :   1.1771 B( 68-C ,100-H ) :   1.0163 B( 69-C , 70-C ) :   1.2579
B( 69-C , 75-C ) :   1.2439 B( 70-C , 71-C ) :   1.2069 B( 70-C , 72-C ) :   1.2384
B( 71-C ,101-H ) :   0.9901 B( 72-C , 73-C ) :   1.4911 B( 72-C ,102-H ) :   0.9971
B( 73-C , 74-C ) :   1.2594 B( 73-C ,103-H ) :   0.9882 B( 74-C , 75-C ) :   1.4884
B( 74-C ,104-H ) :   0.9889 B( 75-C ,105-H ) :   0.9977

-----------------------------------------------------------------------------
         ABSORPTION SPECTRUM VIA TRANSITION ELECTRIC DIPOLE MOMENTS
-----------------------------------------------------------------------------
State   Energy  Wavelength   fosc         T2         TX        TY        TZ
        (cm-1)    (nm)                  (au**2)     (au)      (au)      (au)
-----------------------------------------------------------------------------
   0   18370.0    544.4   2.846237149  51.00791   2.48119   5.39676  -3.96568
   1   20210.9    494.8   0.113226303   1.84433   0.58164  -0.98451   0.73263
   2   23318.5    428.8   0.546990450   7.72246  -0.65730  -2.57071   0.82575
   3   23846.7    419.3   0.054808798   0.75665  -0.57392  -0.64704   0.09275
   4   24669.7    405.4   0.133131123   1.77661   0.01803  -1.32373   0.15497
   5   25803.5    387.5   0.006509948   0.08306  -0.22369   0.16579  -0.07440
   6   26828.5    372.7   0.038031252   0.46668   0.22569  -0.63825  -0.09155
   7   27079.8    369.3   0.030053431   0.36536  -0.50050   0.31880  -0.11502
   8   27859.9    358.9   0.131658413   1.55577   0.79136   0.87079   0.41381
   9   28027.8    356.8   0.064389308   0.75631  -0.36410   0.60742   0.50477
  10   28192.4    354.7   0.088524068   1.03372  -0.02303  -0.91412   0.44450
  11   28378.0    352.4   0.009262988   0.10746  -0.20490  -0.22572   0.12053
  12   28655.5    349.0   0.008205136   0.09427   0.09458  -0.26571   0.12131
  13   28749.4    347.8   0.023771335   0.27221   0.10799  -0.50165   0.09431
  14   29101.1    343.6   0.083903356   0.94917   0.12263  -0.86856   0.42395
  15   29928.9    334.1   0.051466958   0.56613   0.55246  -0.33975  -0.38142
  16   30034.4    333.0   0.054495868   0.59734   0.38841  -0.59481   0.30443
  17   30261.6    330.5   0.170616211   1.85611   0.56097   1.23690   0.10729
  18   31785.0    314.6   0.030798105   0.31899  -0.19732   0.52112   0.09216
  19   32298.5    309.6   0.021067718   0.21474   0.22833   0.37980  -0.13550
  20   33211.8    301.1   0.054269663   0.53795  -0.60913   0.40526  -0.05177
  21   33244.3    300.8   0.041526062   0.41123  -0.23192   0.43285   0.41240
  22   33737.0    296.4   0.843756731   8.23353   0.15894   2.66666   1.04748
  23   33976.3    294.3   0.203745034   1.97418   0.44104  -0.82908   1.04512
  24   34083.9    293.4   0.116673210   1.12693   0.92808  -0.43786  -0.27180
  25   34219.0    292.2   0.238542292   2.29495  -1.23905  -0.13838   0.86055
  26   34424.4    290.5   0.288140299   2.75558   0.11679   0.87371   1.40662
  27   34519.8    289.7   0.206560980   1.96995   1.15470  -0.79770  -0.01736
  28   34786.2    287.5   0.191485214   1.81219   0.26884   0.76012   1.07802
  29   34852.1    286.9   0.098052799   0.92620   0.11944  -0.23538   0.92549
  30   35521.0    281.5   0.073981025   0.68566  -0.62291  -0.51139   0.19007
  31   35753.3    279.7   0.022723313   0.20923  -0.06672  -0.31125  -0.32849
  32   36618.4    273.1   0.044524979   0.40029  -0.01181  -0.62878  -0.06923
  33   36665.5    272.7   0.057307984   0.51456   0.21874  -0.23687  -0.64078
  34   37360.1    267.7   0.013356910   0.11770   0.12194  -0.28105   0.15440
  35   37413.2    267.3   0.008028171   0.07064   0.10827   0.05938   0.23536
  36   37779.8    264.7   0.005207437   0.04538  -0.10457  -0.01218  -0.18519
  37   38120.2    262.3   0.035731449   0.30858  -0.09497  -0.14895  -0.52667
  38   38375.2    260.6   0.290333154   2.49070   0.65963  -0.87952  -1.13227
  39   38455.6    260.0   0.040291550   0.34493   0.00479   0.39549  -0.43416
  40   38786.5    257.8   0.042225876   0.35840  -0.16265  -0.38573  -0.42797
  41   38833.8    257.5   0.080995521   0.68664   0.45138   0.05286  -0.69289
  42   39009.2    256.4   0.001772944   0.01496   0.03993  -0.01998  -0.11388
  43   39242.6    254.8   0.024000368   0.20134  -0.11538  -0.30256  -0.31062
  44   39374.2    254.0   0.081283398   0.67962  -0.49225   0.17266   0.63836
  45   39446.9    253.5   0.344664060   2.87646   0.77926   0.40317  -1.45143
  46   39760.5    251.5   0.018081166   0.14971  -0.05839  -0.03280  -0.38108
  47   40324.5    248.0   0.028790203   0.23505   0.36547   0.29774  -0.11325

FINAL SINGLE POINT ENERGY     -4524.390494016785

DIPOLE MOMENT
-------------
                                X             Y             Z
Electronic contribution:      5.90540       9.39153      15.25607
Nuclear contribution   :     -7.39801      -9.39265     -17.01946
                        -----------------------------------------
Total Dipole Moment    :     -1.49261      -0.00112      -1.76338
                        -----------------------------------------
Magnitude (a.u.)       :      2.31029
Magnitude (Debye)      :      5.87228

Rotational constants in cm-1:     0.002308     0.000134     0.000132
Rotational constants in MHz :    69.178111     4.023190     3.948846

                             ****ORCA TERMINATED NORMALLY****
TOTAL RUN TIME: 0 days 0 hours 13 minutes 43 seconds 872 msec
