                         Program Version 4.2.0 -  RELEASE  -
|  1> # ORCA input file
|  2> # SCF done       -186.246565143930          0.000823113798
|  3> ! CAM-B3LYP def2-SVP def2/J RIJCOSX Grid4 TightSCF
|  4> %maxcore 5000
|  5> %tddft
|  6>     Mode sTDDFT
|  7>     Ethresh 5.0
|  8>     maxcore 5000
|  9> end
| 10>
| 11> %pal
| 12>   nprocs 6
| 13>   end
| 14> * xyz 0 1
| 15>    C        4.06052         4.27760        -3.30854
| 16>    C        4.46787         5.56409        -3.07305
| 17>    C        5.07234         6.38431        -4.04647
| 18>    N        5.55367         7.09442        -4.80892
| 19>    C        4.41471         6.16842        -1.79974
| 20>    N        4.43255         6.66731        -0.76591
| 21>    C        4.37019         3.49687        -4.49988
| 22>    C        4.28392         2.11260        -4.16704
| 23>    C        4.57778         1.13874        -5.07760
| 24>    C        4.96741         1.51106        -6.38404
| 25>    C        5.03540         2.89261        -6.72739
| 26>    C        4.73111         3.88051        -5.76294
| 27>    C        5.42048         3.24926        -8.03570
| 28>    C        5.73040         2.28960        -8.96045
| 29>    C        5.66611         0.92990        -8.62099
| 30>    C        5.29213         0.54904        -7.36086
| 31>    C        3.84498         1.97191        -2.76698
| 32>    O        3.71016         0.95879        -2.12093
| 33>    C        3.53089         3.36061        -2.31889
| 34>    C        2.77550         3.55760        -1.20868
| 35>    C        2.03322         4.70600        -0.82895
| 36>    C        1.61627         5.01481         0.45036
| 37>    C        0.87597         6.19428         0.49270
| 38>    C        0.67580         6.77500        -0.76813
| 39>    S        1.43704         5.86459        -2.01251
| 40>    C       -0.08238         7.94466        -0.69714
| 41>    C       -0.44925         8.26013         0.62024
| 42>    S        0.13376         7.10147         1.77860
| 43>    C       -1.19868         9.43034         0.73175
| 44>    C       -1.41323        10.01338        -0.50063
| 45>    S       -0.67867         9.10913        -1.81583
| 46>    C       -2.12962        11.20718        -0.76984
| 47>    C       -2.73728        12.08890         0.09654
| 48>    C       -2.94761        12.24445         1.54311
| 49>    O       -2.60540        11.54759         2.46889
| 50>    N       -3.67216        13.42380         1.67643
| 51>    C       -4.09243        13.95104         2.95101
| 52>    C       -3.95987        14.04781         0.46963
| 53>    O       -4.57913        15.07854         0.35105
| 54>    C       -3.35757        13.18619        -0.54886
| 55>    C       -3.25637        13.18300        -1.91886
| 56>    S       -2.34934        11.76643        -2.41972
| 57>    C       -3.76240        14.11025        -2.86238
| 58>    C       -3.65602        14.02067        -4.23792
| 59>    C       -4.26872        15.09730        -4.87115
| 60>    C       -4.83997        16.01585        -3.97658
| 61>    S       -4.62736        15.54119        -2.33289
| 62>    C       -5.44655        17.08485        -4.64253
| 63>    C       -5.34310        16.97303        -6.04089
| 64>    S       -4.48028        15.54337        -6.54040
| 65>    C       -5.94284        18.01224        -6.73980
| 66>    C       -6.51816        18.94242        -5.88965
| 67>    S       -6.28750        18.50906        -4.19033
| 68>    C       -7.21042        20.14889        -6.12499
| 69>    C       -7.69208        20.70329        -7.27767
| 70>    C       -8.39188        21.97994        -7.31617
| 71>    C       -8.36290        22.96137        -6.36031
| 72>    C       -9.04742        24.18997        -6.47517
| 73>    N       -9.58181        25.20568        -6.50312
| 74>    C       -7.61558        22.92498        -5.16362
| 75>    N       -7.02123        22.98696        -4.18263
| 76>    C       -9.06531        22.08246        -8.60440
| 77>    C       -8.68063        20.96728        -9.39983
| 78>    C       -7.76885        20.10155        -8.63274
| 79>    O       -7.22152        19.10278        -9.05286
| 80>    C       -9.14149        20.79391       -10.67296
| 81>    C      -10.03706        21.74233       -11.21523
| 82>    C      -10.43934        22.85409       -10.42013
| 83>    C       -9.93752        23.01094        -9.10762
| 84>    C      -11.34168        23.78856       -10.96772
| 85>    C      -11.82200        23.63578       -12.23991
| 86>    C      -11.42246        22.54259       -13.02298
| 87>    C      -10.54900        21.61609       -12.52152
| 88>    H        4.51685         0.09565        -4.80469
| 89>    H        4.78190         4.91981        -6.04844
| 90>    H        5.47216         4.29753        -8.29076
| 91>    H        6.02824         2.57306        -9.95881
| 92>    H        5.91446         0.18585        -9.36295
| 93>    H        5.24074        -0.49643        -7.09415
| 94>    H        2.66652         2.69432        -0.55861
| 95>    H        1.87687         4.42659         1.31076
| 96>    H       -1.56900         9.84506         1.65199
| 97>    H       -3.75723        13.26118         3.72323
| 98>    H       -5.17871        14.04354         2.97566
| 99>    H       -3.65173        14.93560         3.11175
|100>    H       -3.15937        13.20982        -4.73904
|101>    H       -5.97407        18.09796        -7.81007
|102>    H       -7.41413        20.69785        -5.21212
|103>    H       -8.82915        19.94120       -11.25743
|104>    H      -10.26529        23.86034        -8.52963
|105>    H      -11.64455        24.62979       -10.36181
|106>    H      -12.51275        24.35710       -12.65017
|107>    H      -11.81161        22.43738       -14.02458
|108>    H      -10.23884        20.77140       -13.11893
|109> *
|110>
|111>                          ****END OF INPUT****

CARTESIAN COORDINATES (ANGSTROEM)
---------------------------------
  C      4.060520    4.277600   -3.308540
  C      4.467870    5.564090   -3.073050
  C      5.072340    6.384310   -4.046470
  N      5.553670    7.094420   -4.808920
  C      4.414710    6.168420   -1.799740
  N      4.432550    6.667310   -0.765910
  C      4.370190    3.496870   -4.499880
  C      4.283920    2.112600   -4.167040
  C      4.577780    1.138740   -5.077600
  C      4.967410    1.511060   -6.384040
  C      5.035400    2.892610   -6.727390
  C      4.731110    3.880510   -5.762940
  C      5.420480    3.249260   -8.035700
  C      5.730400    2.289600   -8.960450
  C      5.666110    0.929900   -8.620990
  C      5.292130    0.549040   -7.360860
  C      3.844980    1.971910   -2.766980
  O      3.710160    0.958790   -2.120930
  C      3.530890    3.360610   -2.318890
  C      2.775500    3.557600   -1.208680
  C      2.033220    4.706000   -0.828950
  C      1.616270    5.014810    0.450360
  C      0.875970    6.194280    0.492700
  C      0.675800    6.775000   -0.768130
  S      1.437040    5.864590   -2.012510
  C     -0.082380    7.944660   -0.697140
  C     -0.449250    8.260130    0.620240
  S      0.133760    7.101470    1.778600
  C     -1.198680    9.430340    0.731750
  C     -1.413230   10.013380   -0.500630
  S     -0.678670    9.109130   -1.815830
  C     -2.129620   11.207180   -0.769840
  C     -2.737280   12.088900    0.096540
  C     -2.947610   12.244450    1.543110
  O     -2.605400   11.547590    2.468890
  N     -3.672160   13.423800    1.676430
  C     -4.092430   13.951040    2.951010
  C     -3.959870   14.047810    0.469630
  O     -4.579130   15.078540    0.351050
  C     -3.357570   13.186190   -0.548860
  C     -3.256370   13.183000   -1.918860
  S     -2.349340   11.766430   -2.419720
  C     -3.762400   14.110250   -2.862380
  C     -3.656020   14.020670   -4.237920
  C     -4.268720   15.097300   -4.871150
  C     -4.839970   16.015850   -3.976580
  S     -4.627360   15.541190   -2.332890
  C     -5.446550   17.084850   -4.642530
  C     -5.343100   16.973030   -6.040890
  S     -4.480280   15.543370   -6.540400
  C     -5.942840   18.012240   -6.739800
  C     -6.518160   18.942420   -5.889650
  S     -6.287500   18.509060   -4.190330
  C     -7.210420   20.148890   -6.124990
  C     -7.692080   20.703290   -7.277670
  C     -8.391880   21.979940   -7.316170
  C     -8.362900   22.961370   -6.360310
  C     -9.047420   24.189970   -6.475170
  N     -9.581810   25.205680   -6.503120
  C     -7.615580   22.924980   -5.163620
  N     -7.021230   22.986960   -4.182630
  C     -9.065310   22.082460   -8.604400
  C     -8.680630   20.967280   -9.399830
  C     -7.768850   20.101550   -8.632740
  O     -7.221520   19.102780   -9.052860
  C     -9.141490   20.793910  -10.672960
  C    -10.037060   21.742330  -11.215230
  C    -10.439340   22.854090  -10.420130
  C     -9.937520   23.010940   -9.107620
  C    -11.341680   23.788560  -10.967720
  C    -11.822000   23.635780  -12.239910
  C    -11.422460   22.542590  -13.022980
  C    -10.549000   21.616090  -12.521520
  H      4.516850    0.095650   -4.804690
  H      4.781900    4.919810   -6.048440
  H      5.472160    4.297530   -8.290760
  H      6.028240    2.573060   -9.958810
  H      5.914460    0.185850   -9.362950
  H      5.240740   -0.496430   -7.094150
  H      2.666520    2.694320   -0.558610
  H      1.876870    4.426590    1.310760
  H     -1.569000    9.845060    1.651990
  H     -3.757230   13.261180    3.723230
  H     -5.178710   14.043540    2.975660
  H     -3.651730   14.935600    3.111750
  H     -3.159370   13.209820   -4.739040
  H     -5.974070   18.097960   -7.810070
  H     -7.414130   20.697850   -5.212120
  H     -8.829150   19.941200  -11.257430
  H    -10.265290   23.860340   -8.529630
  H    -11.644550   24.629790  -10.361810
  H    -12.512750   24.357100  -12.650170
  H    -11.811610   22.437380  -14.024580
  H    -10.238840   20.771400  -13.118930

 Total Charge           Charge          ....    0
 Multiplicity           Mult            ....    1
 Number of Electrons    NEL             ....  542
 Basis Dimension        Dim             .... 1155

ORBITAL ENERGIES
----------------

  NO   OCC          E(Eh)            E(eV)
   0   2.0000     -88.987625     -2421.4764
   1   2.0000     -88.978325     -2421.2233
   2   2.0000     -88.975718     -2421.1524
   3   2.0000     -88.972429     -2421.0629
   4   2.0000     -88.971689     -2421.0428
   5   2.0000     -88.970619     -2421.0136
   6   2.0000     -88.967753     -2420.9356
   7   2.0000     -19.220686      -523.0214
   8   2.0000     -19.218921      -522.9734
   9   2.0000     -19.216556      -522.9091
  10   2.0000     -19.214202      -522.8450
  11   2.0000     -14.464353      -393.5951
  12   2.0000     -14.415556      -392.2672
  13   2.0000     -14.412059      -392.1721
  14   2.0000     -14.411612      -392.1599
  15   2.0000     -14.410032      -392.1169
  16   2.0000     -10.404046      -283.1085
  17   2.0000     -10.400827      -283.0209
  18   2.0000     -10.367649      -282.1181
  19   2.0000     -10.365902      -282.0705
  20   2.0000     -10.347325      -281.5650
  21   2.0000     -10.345217      -281.5077
  22   2.0000     -10.342903      -281.4447
  23   2.0000     -10.340810      -281.3877
  24   2.0000     -10.337216      -281.2900
  25   2.0000     -10.336576      -281.2725
  26   2.0000     -10.330367      -281.1036
  27   2.0000     -10.329475      -281.0793
  28   2.0000     -10.325658      -280.9754
  29   2.0000     -10.324810      -280.9524
  30   2.0000     -10.323662      -280.9211
  31   2.0000     -10.323526      -280.9174
  32   2.0000     -10.322669      -280.8941
  33   2.0000     -10.322462      -280.8885
  34   2.0000     -10.318823      -280.7894
  35   2.0000     -10.318209      -280.7727
  36   2.0000     -10.318164      -280.7715
  37   2.0000     -10.317877      -280.7637
  38   2.0000     -10.317498      -280.7534
  39   2.0000     -10.316068      -280.7145
  40   2.0000     -10.314532      -280.6727
  41   2.0000     -10.314225      -280.6643
  42   2.0000     -10.313892      -280.6553
  43   2.0000     -10.313226      -280.6372
  44   2.0000     -10.308481      -280.5080
  45   2.0000     -10.307142      -280.4716
  46   2.0000     -10.303628      -280.3760
  47   2.0000     -10.302346      -280.3411
  48   2.0000     -10.302221      -280.3377
  49   2.0000     -10.300932      -280.3026
  50   2.0000     -10.299503      -280.2637
  51   2.0000     -10.298488      -280.2361
  52   2.0000     -10.298183      -280.2278
  53   2.0000     -10.297794      -280.2172
  54   2.0000     -10.297436      -280.2075
  55   2.0000     -10.297320      -280.2043
  56   2.0000     -10.296799      -280.1901
  57   2.0000     -10.296030      -280.1692
  58   2.0000     -10.295283      -280.1489
  59   2.0000     -10.295221      -280.1472
  60   2.0000     -10.294975      -280.1405
  61   2.0000     -10.294024      -280.1146
  62   2.0000     -10.293754      -280.1073
  63   2.0000     -10.289752      -279.9984
  64   2.0000     -10.286744      -279.9165
  65   2.0000     -10.286457      -279.9087
  66   2.0000     -10.286140      -279.9001
  67   2.0000     -10.285761      -279.8898
  68   2.0000     -10.285718      -279.8886
  69   2.0000     -10.284613      -279.8585
  70   2.0000     -10.284084      -279.8442
  71   2.0000     -10.283728      -279.8345
  72   2.0000     -10.283192      -279.8199
  73   2.0000      -8.082825      -219.9449
  74   2.0000      -8.073654      -219.6953
  75   2.0000      -8.070487      -219.6091
  76   2.0000      -8.066986      -219.5139
  77   2.0000      -8.066506      -219.5008
  78   2.0000      -8.065858      -219.4832
  79   2.0000      -8.063048      -219.4067
  80   2.0000      -6.052437      -164.6952
  81   2.0000      -6.048054      -164.5759
  82   2.0000      -6.044479      -164.4786
  83   2.0000      -6.043277      -164.4459
  84   2.0000      -6.040125      -164.3602
  85   2.0000      -6.039134      -164.3332
  86   2.0000      -6.036405      -164.2589
  87   2.0000      -6.036189      -164.2531
  88   2.0000      -6.035965      -164.2470
  89   2.0000      -6.035602      -164.2371
  90   2.0000      -6.035087      -164.2231
  91   2.0000      -6.032815      -164.1612
  92   2.0000      -6.032390      -164.1497
  93   2.0000      -6.031963      -164.1380
  94   2.0000      -6.031801      -164.1337
  95   2.0000      -6.031695      -164.1308
  96   2.0000      -6.028931      -164.0556
  97   2.0000      -6.028668      -164.0484
  98   2.0000      -6.027971      -164.0294
  99   2.0000      -6.026797      -163.9975
 100   2.0000      -6.023925      -163.9193
 101   2.0000      -1.166383       -31.7389
 102   2.0000      -1.142886       -31.0995
 103   2.0000      -1.131246       -30.7828
 104   2.0000      -1.129527       -30.7360
 105   2.0000      -1.058026       -28.7904
 106   2.0000      -1.035428       -28.1754
 107   2.0000      -1.031663       -28.0730
 108   2.0000      -1.018656       -27.7190
 109   2.0000      -1.015284       -27.6273
 110   2.0000      -1.014180       -27.5973
 111   2.0000      -0.997883       -27.1538
 112   2.0000      -0.996116       -27.1057
 113   2.0000      -0.995236       -27.0818
 114   2.0000      -0.991342       -26.9758
 115   2.0000      -0.989339       -26.9213
 116   2.0000      -0.985775       -26.8243
 117   2.0000      -0.971487       -26.4355
 118   2.0000      -0.968672       -26.3589
 119   2.0000      -0.946197       -25.7473
 120   2.0000      -0.938727       -25.5441
 121   2.0000      -0.923105       -25.1190
 122   2.0000      -0.920757       -25.0551
 123   2.0000      -0.902846       -24.5677
 124   2.0000      -0.900778       -24.5114
 125   2.0000      -0.898100       -24.4385
 126   2.0000      -0.892713       -24.2919
 127   2.0000      -0.882697       -24.0194
 128   2.0000      -0.880431       -23.9577
 129   2.0000      -0.878783       -23.9129
 130   2.0000      -0.876012       -23.8375
 131   2.0000      -0.863153       -23.4876
 132   2.0000      -0.852050       -23.1854
 133   2.0000      -0.849433       -23.1142
 134   2.0000      -0.846505       -23.0346
 135   2.0000      -0.828505       -22.5448
 136   2.0000      -0.825721       -22.4690
 137   2.0000      -0.817496       -22.2452
 138   2.0000      -0.813614       -22.1396
 139   2.0000      -0.806700       -21.9514
 140   2.0000      -0.803256       -21.8577
 141   2.0000      -0.794688       -21.6245
 142   2.0000      -0.782969       -21.3057
 143   2.0000      -0.776074       -21.1180
 144   2.0000      -0.760849       -20.7038
 145   2.0000      -0.758914       -20.6511
 146   2.0000      -0.751638       -20.4531
 147   2.0000      -0.738789       -20.1035
 148   2.0000      -0.721045       -19.6206
 149   2.0000      -0.710039       -19.3211
 150   2.0000      -0.702753       -19.1229
 151   2.0000      -0.701844       -19.0981
 152   2.0000      -0.699359       -19.0305
 153   2.0000      -0.695294       -18.9199
 154   2.0000      -0.692615       -18.8470
 155   2.0000      -0.686086       -18.6694
 156   2.0000      -0.676667       -18.4131
 157   2.0000      -0.673179       -18.3181
 158   2.0000      -0.664995       -18.0954
 159   2.0000      -0.662754       -18.0345
 160   2.0000      -0.657402       -17.8888
 161   2.0000      -0.650473       -17.7003
 162   2.0000      -0.643684       -17.5155
 163   2.0000      -0.638964       -17.3871
 164   2.0000      -0.634511       -17.2659
 165   2.0000      -0.631226       -17.1765
 166   2.0000      -0.625579       -17.0229
 167   2.0000      -0.614922       -16.7329
 168   2.0000      -0.607962       -16.5435
 169   2.0000      -0.606568       -16.5055
 170   2.0000      -0.603947       -16.4342
 171   2.0000      -0.597013       -16.2456
 172   2.0000      -0.593229       -16.1426
 173   2.0000      -0.588596       -16.0165
 174   2.0000      -0.586477       -15.9589
 175   2.0000      -0.578429       -15.7399
 176   2.0000      -0.573234       -15.5985
 177   2.0000      -0.569769       -15.5042
 178   2.0000      -0.565201       -15.3799
 179   2.0000      -0.555817       -15.1246
 180   2.0000      -0.552969       -15.0471
 181   2.0000      -0.551453       -15.0058
 182   2.0000      -0.547199       -14.8900
 183   2.0000      -0.545637       -14.8475
 184   2.0000      -0.544335       -14.8121
 185   2.0000      -0.542343       -14.7579
 186   2.0000      -0.537777       -14.6337
 187   2.0000      -0.535953       -14.5840
 188   2.0000      -0.534454       -14.5432
 189   2.0000      -0.533197       -14.5090
 190   2.0000      -0.530244       -14.4287
 191   2.0000      -0.529447       -14.4070
 192   2.0000      -0.528061       -14.3693
 193   2.0000      -0.525946       -14.3117
 194   2.0000      -0.522166       -14.2089
 195   2.0000      -0.518369       -14.1055
 196   2.0000      -0.517236       -14.0747
 197   2.0000      -0.516801       -14.0629
 198   2.0000      -0.513484       -13.9726
 199   2.0000      -0.511944       -13.9307
 200   2.0000      -0.508933       -13.8488
 201   2.0000      -0.507205       -13.8018
 202   2.0000      -0.505695       -13.7607
 203   2.0000      -0.500473       -13.6186
 204   2.0000      -0.498563       -13.5666
 205   2.0000      -0.494738       -13.4625
 206   2.0000      -0.493314       -13.4237
 207   2.0000      -0.492356       -13.3977
 208   2.0000      -0.489654       -13.3242
 209   2.0000      -0.487720       -13.2715
 210   2.0000      -0.486652       -13.2425
 211   2.0000      -0.483260       -13.1502
 212   2.0000      -0.482906       -13.1406
 213   2.0000      -0.482048       -13.1172
 214   2.0000      -0.480076       -13.0635
 215   2.0000      -0.477724       -12.9995
 216   2.0000      -0.476093       -12.9551
 217   2.0000      -0.469395       -12.7729
 218   2.0000      -0.464545       -12.6409
 219   2.0000      -0.462546       -12.5865
 220   2.0000      -0.462017       -12.5721
 221   2.0000      -0.460398       -12.5281
 222   2.0000      -0.452117       -12.3027
 223   2.0000      -0.449054       -12.2194
 224   2.0000      -0.448341       -12.2000
 225   2.0000      -0.444022       -12.0825
 226   2.0000      -0.442922       -12.0525
 227   2.0000      -0.440348       -11.9825
 228   2.0000      -0.439878       -11.9697
 229   2.0000      -0.437442       -11.9034
 230   2.0000      -0.437213       -11.8972
 231   2.0000      -0.433645       -11.8001
 232   2.0000      -0.432436       -11.7672
 233   2.0000      -0.430712       -11.7203
 234   2.0000      -0.430196       -11.7062
 235   2.0000      -0.429395       -11.6844
 236   2.0000      -0.427399       -11.6301
 237   2.0000      -0.425595       -11.5810
 238   2.0000      -0.423048       -11.5117
 239   2.0000      -0.422686       -11.5019
 240   2.0000      -0.419877       -11.4254
 241   2.0000      -0.418882       -11.3984
 242   2.0000      -0.415832       -11.3154
 243   2.0000      -0.415285       -11.3005
 244   2.0000      -0.405625       -11.0376
 245   2.0000      -0.403485       -10.9794
 246   2.0000      -0.398404       -10.8411
 247   2.0000      -0.396359       -10.7855
 248   2.0000      -0.390779       -10.6336
 249   2.0000      -0.380524       -10.3546
 250   2.0000      -0.376336       -10.2406
 251   2.0000      -0.370611       -10.0848
 252   2.0000      -0.370369       -10.0782
 253   2.0000      -0.362264        -9.8577
 254   2.0000      -0.359143        -9.7728
 255   2.0000      -0.351353        -9.5608
 256   2.0000      -0.348233        -9.4759
 257   2.0000      -0.345066        -9.3897
 258   2.0000      -0.339921        -9.2497
 259   2.0000      -0.338884        -9.2215
 260   2.0000      -0.336977        -9.1696
 261   2.0000      -0.332193        -9.0394
 262   2.0000      -0.317752        -8.6465
 263   2.0000      -0.314904        -8.5690
 264   2.0000      -0.309642        -8.4258
 265   2.0000      -0.297184        -8.0868
 266   2.0000      -0.294072        -8.0021
 267   2.0000      -0.293126        -7.9764
 268   2.0000      -0.291163        -7.9230
 269   2.0000      -0.272565        -7.4169
 270   2.0000      -0.249747        -6.7960
 271   0.0000      -0.101365        -2.7583
 272   0.0000      -0.093906        -2.5553
 273   0.0000      -0.065295        -1.7768
 274   0.0000      -0.057677        -1.5695
 275   0.0000      -0.051620        -1.4046

MULLIKEN ATOMIC CHARGES
-----------------------
   0 C :    0.248827
   1 C :   -0.321656
   2 C :   -0.174437
   3 N :    0.154711
   4 C :   -0.203652
   5 N :    0.173869
   6 C :    0.039228
   7 C :    0.012022
   8 C :   -0.085644
   9 C :    0.096775
  10 C :    0.096428
  11 C :   -0.082810
  12 C :   -0.021274
  13 C :    0.039374
  14 C :    0.035621
  15 C :   -0.017847
  16 C :    0.143651
  17 O :   -0.142860
  18 C :   -0.139740
  19 C :    0.051793
  20 C :   -0.102557
  21 C :    0.016882
  22 C :   -0.015803
  23 C :   -0.069768
  24 S :    0.170923
  25 C :   -0.064198
  26 C :   -0.023284
  27 S :    0.182483
  28 C :   -0.047480
  29 C :   -0.068011
  30 S :    0.154948
  31 C :   -0.085135
  32 C :   -0.021795
  33 C :    0.204948
  34 O :   -0.173189
  35 N :   -0.308099
  36 C :    0.139033
  37 C :    0.186654
  38 O :   -0.172211
  39 C :   -0.030676
  40 C :   -0.079185
  41 S :    0.156341
  42 C :   -0.070806
  43 C :   -0.077704
  44 C :   -0.003113
  45 C :   -0.073818
  46 S :    0.216362
  47 C :   -0.060006
  48 C :   -0.038920
  49 S :    0.169593
  50 C :   -0.003566
  51 C :   -0.112482
  52 S :    0.172858
  53 C :    0.039673
  54 C :   -0.091403
  55 C :    0.305488
  56 C :   -0.353980
  57 C :   -0.180797
  58 N :    0.144024
  59 C :   -0.202409
  60 N :    0.160174
  61 C :    0.047555
  62 C :    0.000111
  63 C :    0.159886
  64 O :   -0.160629
  65 C :   -0.084100
  66 C :    0.098680
  67 C :    0.096134
  68 C :   -0.081588
  69 C :   -0.019525
  70 C :    0.035066
  71 C :    0.037546
  72 C :   -0.015720
  73 H :   -0.011271
  74 H :   -0.004797
  75 H :   -0.010597
  76 H :   -0.005526
  77 H :   -0.004627
  78 H :   -0.016783
  79 H :    0.029675
  80 H :    0.000812
  81 H :    0.010469
  82 H :    0.054034
  83 H :    0.042120
  84 H :    0.041836
  85 H :   -0.002796
  86 H :    0.020163
  87 H :    0.016053
  88 H :   -0.015169
  89 H :   -0.008352
  90 H :   -0.009791
  91 H :   -0.005469
  92 H :   -0.006597
  93 H :   -0.019169
Sum of atomic charges:   -0.0000000

LOEWDIN ATOMIC CHARGES
----------------------
   0 C :    0.059999
   1 C :   -0.139662
   2 C :   -0.018909
   3 N :   -0.051484
   4 C :   -0.034584
   5 N :   -0.047606
   6 C :   -0.022346
   7 C :   -0.057237
   8 C :    0.032574
   9 C :   -0.009324
  10 C :   -0.005209
  11 C :    0.014938
  12 C :   -0.006893
  13 C :   -0.012706
  14 C :   -0.013510
  15 C :   -0.009174
  16 C :    0.083593
  17 O :   -0.143439
  18 C :   -0.095437
  19 C :    0.050450
  20 C :   -0.171911
  21 C :   -0.018124
  22 C :   -0.189132
  23 C :   -0.196823
  24 S :    0.456336
  25 C :   -0.211064
  26 C :   -0.182659
  27 S :    0.427074
  28 C :   -0.035776
  29 C :   -0.183462
  30 S :    0.424985
  31 C :   -0.139017
  32 C :   -0.096656
  33 C :    0.095953
  34 O :   -0.163719
  35 N :   -0.034456
  36 C :    0.037460
  37 C :    0.084187
  38 O :   -0.168204
  39 C :   -0.101534
  40 C :   -0.142925
  41 S :    0.446488
  42 C :   -0.177864
  43 C :   -0.064690
  44 C :   -0.180911
  45 C :   -0.221647
  46 S :    0.492573
  47 C :   -0.197407
  48 C :   -0.193473
  49 S :    0.412812
  50 C :   -0.014877
  51 C :   -0.173107
  52 S :    0.450463
  53 C :    0.047119
  54 C :   -0.096821
  55 C :    0.077031
  56 C :   -0.143558
  57 C :   -0.017101
  58 N :   -0.056562
  59 C :   -0.026668
  60 N :   -0.051909
  61 C :   -0.025581
  62 C :   -0.054584
  63 C :    0.088274
  64 O :   -0.146162
  65 C :    0.030396
  66 C :   -0.008754
  67 C :   -0.006480
  68 C :    0.018837
  69 C :   -0.005444
  70 C :   -0.014262
  71 C :   -0.013173
  72 C :   -0.010197
  73 H :    0.039466
  74 H :    0.038660
  75 H :    0.034227
  76 H :    0.032960
  77 H :    0.032883
  78 H :    0.031945
  79 H :    0.052575
  80 H :    0.041692
  81 H :    0.039152
  82 H :    0.038316
  83 H :    0.034150
  84 H :    0.034195
  85 H :    0.031732
  86 H :    0.038908
  87 H :    0.043988
  88 H :    0.037949
  89 H :    0.038849
  90 H :    0.034566
  91 H :    0.032883
  92 H :    0.032308
  93 H :    0.031271

  Mayer bond orders larger than 0.100000
B(  0-C ,  1-C ) :   1.6628 B(  0-C ,  6-C ) :   1.0017 B(  0-C , 18-C ) :   1.0287
B(  1-C ,  2-C ) :   1.1370 B(  1-C ,  4-C ) :   1.1503 B(  2-C ,  3-N ) :   2.9900
B(  4-C ,  5-N ) :   3.0238 B(  6-C ,  7-C ) :   1.2158 B(  6-C , 11-C ) :   1.4573
B(  7-C ,  8-C ) :   1.4730 B(  7-C , 16-C ) :   0.9209 B(  8-C ,  9-C ) :   1.1840
B(  8-C , 73-H ) :   1.0171 B(  9-C , 10-C ) :   1.2584 B(  9-C , 15-C ) :   1.2436
B( 10-C , 11-C ) :   1.2023 B( 10-C , 12-C ) :   1.2397 B( 11-C , 74-H ) :   0.9951
B( 12-C , 13-C ) :   1.4909 B( 12-C , 75-H ) :   0.9981 B( 13-C , 14-C ) :   1.2604
B( 13-C , 76-H ) :   0.9880 B( 14-C , 15-C ) :   1.4889 B( 14-C , 77-H ) :   0.9887
B( 15-C , 78-H ) :   0.9984 B( 16-C , 17-O ) :   2.2735 B( 16-C , 18-C ) :   0.9345
B( 18-C , 19-C ) :   1.6649 B( 19-C , 20-C ) :   1.1264 B( 19-C , 79-H ) :   0.9458
B( 20-C , 21-C ) :   1.4618 B( 20-C , 24-S ) :   1.0855 B( 21-C , 22-C ) :   1.2849
B( 21-C , 80-H ) :   1.0035 B( 22-C , 23-C ) :   1.4291 B( 22-C , 27-S ) :   1.0485
B( 23-C , 24-S ) :   1.0887 B( 23-C , 25-C ) :   1.3251 B( 25-C , 26-C ) :   1.4375
B( 25-C , 30-S ) :   1.0771 B( 26-C , 27-S ) :   1.0617 B( 26-C , 28-C ) :   1.2560
B( 28-C , 29-C ) :   1.5261 B( 28-C , 81-H ) :   0.9800 B( 29-C , 30-S ) :   1.0734
B( 29-C , 31-C ) :   1.1567 B( 31-C , 32-C ) :   1.5658 B( 31-C , 41-S ) :   1.1125
B( 32-C , 33-C ) :   0.9044 B( 32-C , 39-C ) :   1.2389 B( 33-C , 34-O ) :   2.1088
B( 33-C , 35-N ) :   1.0863 B( 35-N , 36-C ) :   0.9394 B( 35-N , 37-C ) :   1.0821
B( 36-C , 82-H ) :   0.9602 B( 36-C , 83-H ) :   0.9747 B( 36-C , 84-H ) :   0.9757
B( 37-C , 38-O ) :   2.1571 B( 37-C , 39-C ) :   0.9014 B( 39-C , 40-C ) :   1.5318
B( 40-C , 41-S ) :   1.1145 B( 40-C , 42-C ) :   1.1878 B( 42-C , 43-C ) :   1.4652
B( 42-C , 46-S ) :   1.1199 B( 43-C , 44-C ) :   1.2950 B( 43-C , 85-H ) :   0.9980
B( 44-C , 45-C ) :   1.4346 B( 44-C , 49-S ) :   1.0521 B( 45-C , 46-S ) :   1.0533
B( 45-C , 47-C ) :   1.3063 B( 47-C , 48-C ) :   1.4097 B( 47-C , 52-S ) :   1.1074
B( 48-C , 49-S ) :   1.0429 B( 48-C , 50-C ) :   1.2929 B( 50-C , 51-C ) :   1.4472
B( 50-C , 86-H ) :   0.9781 B( 51-C , 52-S ) :   1.0672 B( 51-C , 53-C ) :   1.2249
B( 53-C , 54-C ) :   1.5885 B( 53-C , 87-H ) :   0.9189 B( 54-C , 55-C ) :   1.0731
B( 54-C , 63-C ) :   0.9419 B( 55-C , 56-C ) :   1.6295 B( 55-C , 61-C ) :   0.9830
B( 56-C , 57-C ) :   1.1469 B( 56-C , 59-C ) :   1.1373 B( 57-C , 58-N ) :   2.9679
B( 59-C , 60-N ) :   2.9928 B( 61-C , 62-C ) :   1.2170 B( 61-C , 68-C ) :   1.4508
B( 62-C , 63-C ) :   0.9542 B( 62-C , 65-C ) :   1.4693 B( 63-C , 64-O ) :   2.1657
B( 65-C , 66-C ) :   1.1773 B( 65-C , 88-H ) :   1.0167 B( 66-C , 67-C ) :   1.2578
B( 66-C , 72-C ) :   1.2439 B( 67-C , 68-C ) :   1.2039 B( 67-C , 69-C ) :   1.2407
B( 68-C , 89-H ) :   0.9913 B( 69-C , 70-C ) :   1.4880 B( 69-C , 90-H ) :   0.9977
B( 70-C , 71-C ) :   1.2600 B( 70-C , 91-H ) :   0.9891 B( 71-C , 72-C ) :   1.4882
B( 71-C , 92-H ) :   0.9885 B( 72-C , 93-H ) :   0.9977

-----------------------------------------------------------------------------
         ABSORPTION SPECTRUM VIA TRANSITION ELECTRIC DIPOLE MOMENTS
-----------------------------------------------------------------------------
State   Energy  Wavelength   fosc         T2         TX        TY        TZ
        (cm-1)    (nm)                  (au**2)     (au)      (au)      (au)
-----------------------------------------------------------------------------
   0   17730.7    564.0   2.244933203  41.68241  -3.88699   5.09448  -0.78740
   1   20206.0    494.9   0.788324168  12.84402   0.36996  -1.96111   2.97677
   2   25083.7    398.7   0.054323641   0.71297  -0.00822  -0.84168  -0.06689
   3   25704.7    389.0   0.075487864   0.96681   0.37556  -0.66220   0.62230
   4   26053.7    383.8   0.134093838   1.69439   0.08036   0.45377  -1.21738
   5   26533.2    376.9   0.008005427   0.09933   0.10612   0.28964  -0.06459
   6   26731.2    374.1   0.082255492   1.01303  -0.27088   0.49663  -0.83248
   7   26938.3    371.2   0.009961707   0.12174   0.00272  -0.28968  -0.19447
   8   27836.3    359.2   0.407119874   4.81489  -0.36603   0.89604   1.96927
   9   28229.3    354.2   0.111052041   1.29509   0.94701  -0.54984   0.30975
  10   28589.7    349.8   0.187338545   2.15722  -0.52416   1.25059   0.56436
  11   29190.1    342.6   0.095958391   1.08224  -0.49652   0.65478  -0.63795
  12   29496.6    339.0   0.013852093   0.15460   0.36761  -0.13447  -0.03719
  13   29798.0    335.6   0.014399384   0.15909  -0.13487   0.36210   0.09890
  14   29988.1    333.5   0.116695286   1.28109   0.41835   0.17823   1.03649
  15   30303.8    330.0   0.113585843   1.23397  -0.24200   0.84490   0.67937
  16   32277.0    309.8   0.063990121   0.65267  -0.14196   0.75799  -0.24078
  17   32443.4    308.2   0.023687599   0.24036   0.14915  -0.45304   0.11349
  18   33228.2    300.9   0.166713834   1.65173   0.00429  -1.28247   0.08357
  19   33287.5    300.4   0.163161848   1.61366   0.02778   0.45492   1.18572
  20   33827.4    295.6   0.590942376   5.75112  -1.13368  -0.17332  -2.10615
  21   34176.6    292.6   0.432429696   4.16545   0.59691  -1.22138  -1.52230
  22   34739.8    287.9   0.110032499   1.04272  -0.28862  -0.18961  -0.96097
  23   34770.5    287.6   0.069805054   0.66092  -0.01259   0.38934   0.71357
  24   34811.1    287.3   0.067074377   0.63433  -0.34211   0.23948   0.67819
  25   35269.7    283.5   0.159696683   1.49063  -0.25199  -0.05888  -1.19317
  26   35575.8    281.1   0.047016454   0.43508   0.26189  -0.40298   0.45178
  27   35841.0    279.0   0.046919240   0.43097   0.00481  -0.20601  -0.62330
  28   36385.9    274.8   0.013020482   0.11781   0.02903  -0.24461   0.23902
  29   36800.6    271.7   0.003230103   0.02890   0.14766  -0.00232   0.08419
  30   36919.7    270.9   0.024708462   0.22032   0.12677   0.32283   0.31628
  31   37038.5    270.0   0.003755377   0.03338  -0.04870   0.07465  -0.15948
  32   37188.6    268.9   0.058997978   0.52228  -0.11310   0.18516   0.68935
  33   37348.4    267.7   0.006031436   0.05316  -0.20332   0.08367   0.06945
  34   37760.8    264.8   0.014202915   0.12383  -0.17079   0.20667  -0.22792
  35   37886.7    263.9   0.107822923   0.93691   0.44595  -0.66717  -0.54123
  36   37969.2    263.4   0.006995039   0.06065   0.02487  -0.08048   0.23142
  37   38391.6    260.5   0.011207350   0.09610  -0.09169  -0.09423  -0.28074
  38   38591.8    259.1   0.038762432   0.33067  -0.05938   0.05854  -0.56896
  39   38839.6    257.5   0.035387372   0.29995   0.39293   0.35563   0.13816
  40   39126.3    255.6   0.010794067   0.09082   0.04072  -0.23211  -0.18785
  41   39282.7    254.6   0.292071224   2.44773   0.31748  -1.23521  -0.90620
  42   39550.3    252.8   0.117522141   0.97824   0.11191  -0.83879  -0.51200
  43   39941.7    250.4   0.017829209   0.14695  -0.17711   0.11501   0.31994

FINAL SINGLE POINT ENERGY     -5542.375022975064

DIPOLE MOMENT
-------------
                                X             Y             Z
Electronic contribution:      6.59815      -0.88852      30.62943
Nuclear contribution   :     -7.65489      -2.20268     -33.09477
                        -----------------------------------------
Total Dipole Moment    :     -1.05673      -3.09121      -2.46534
                        -----------------------------------------
Magnitude (a.u.)       :      4.09269
Magnitude (Debye)      :     10.40280

Rotational constants in cm-1:     0.001290     0.000192     0.000170
Rotational constants in MHz :    38.664623     5.747149     5.101532

                             ****ORCA TERMINATED NORMALLY****
TOTAL RUN TIME: 0 days 0 hours 8 minutes 52 seconds 878 msec
