                         Program Version 4.2.0 -  RELEASE  -
|  1> # ORCA input file
|  2> # SCF done       -179.603697166368          0.000390192201
|  3> ! CAM-B3LYP def2-SVP def2/J RIJCOSX Grid4 TightSCF
|  4> %maxcore 5000
|  5> %tddft
|  6>     Mode sTDDFT
|  7>     Ethresh 5.0
|  8>     maxcore 5000
|  9> end
| 10>
| 11> %pal
| 12>   nprocs 6
| 13>   end
| 14> * xyz 0 1
| 15>    C        0.76408         0.78343         0.71470
| 16>    C        1.56937         1.71963         1.31077
| 17>    C        2.23846         1.51394         2.53453
| 18>    N        2.78478         1.40705         3.53848
| 19>    C        1.88898         2.96041         0.72560
| 20>    N        2.19871         3.96658         0.26794
| 21>    C        0.63240        -0.60544         1.14526
| 22>    C        0.14761        -1.37589         0.04789
| 23>    C       -0.02933        -2.72614         0.14102
| 24>    C        0.26313        -3.37682         1.36079
| 25>    C        0.72752        -2.60946         2.46818
| 26>    C        0.90951        -1.21292         2.34016
| 27>    C        1.00659        -3.26967         3.68195
| 28>    C        0.84051        -4.62306         3.79703
| 29>    C        0.38640        -5.37807         2.70533
| 30>    C        0.10389        -4.76822         1.51319
| 31>    C       -0.11091        -0.48473        -1.09528
| 32>    O       -0.47933        -0.78031        -2.20834
| 33>    C        0.12114         0.89705        -0.57665
| 34>    C       -0.35361         1.94537        -1.30178
| 35>    C       -0.60369         3.28347        -0.91780
| 36>    C       -0.77690         3.83155         0.34190
| 37>    C       -1.06010         5.19147         0.28429
| 38>    C       -1.10625         5.70404        -1.02259
| 39>    S       -0.82419         4.47693        -2.18875
| 40>    C       -1.37138         7.07577        -1.04566
| 41>    C       -1.52545         7.60432         0.24796
| 42>    S       -1.34724         6.40514         1.49810
| 43>    C       -1.79513         8.97027         0.26123
| 44>    C       -1.85148         9.47812        -1.02153
| 45>    S       -1.56795         8.28006        -2.26075
| 46>    C       -2.12068        10.81514        -1.42567
| 47>    N       -2.17200        11.07269        -2.72087
| 48>    N       -2.43092        12.24861        -3.21102
| 49>    C       -2.65933        13.31715        -2.46813
| 50>    C       -2.61722        13.18792        -1.04534
| 51>    C       -2.34383        11.88339        -0.50240
| 52>    N       -2.36125        11.99269         0.80885
| 53>    O       -2.62510        13.27187         1.06784
| 54>    N       -2.78326        14.00866        -0.03019
| 55>    C       -2.94888        14.54158        -3.13269
| 56>    C       -3.19626        15.77857        -2.57174
| 57>    C       -3.44973        16.73314        -3.55370
| 58>    C       -3.39864        16.21820        -4.86129
| 59>    S       -3.02492        14.53631        -4.87749
| 60>    C       -3.66645        17.19739        -5.82083
| 61>    C       -3.91468        18.45730        -5.24531
| 62>    S       -3.82243        18.43298        -3.50523
| 63>    C       -4.18730        19.45833        -6.16884
| 64>    C       -4.15299        18.98438        -7.47017
| 65>    S       -3.78140        17.25674        -7.53068
| 66>    C       -4.38600        19.59919        -8.71909
| 67>    C       -4.59010        20.90547        -9.06374
| 68>    C       -4.83701        21.34013       -10.43237
| 69>    C       -5.21279        20.55467       -11.49052
| 70>    C       -5.45464        21.04891       -12.79026
| 71>    N       -5.66210        21.38060       -13.86949
| 72>    C       -5.46219        19.16609       -11.44663
| 73>    N       -5.70965        18.04559       -11.49723
| 74>    C       -4.69861        22.79015       -10.47341
| 75>    C       -4.49229        23.25893        -9.14592
| 76>    C       -4.46893        22.11850        -8.21504
| 77>    O       -4.35820        22.19149        -7.00853
| 78>    C       -4.34053        24.58588        -8.86290
| 79>    C       -4.38007        25.52340        -9.91881
| 80>    C       -4.57558        25.06169       -11.25263
| 81>    C       -4.73584        23.68148       -11.51315
| 82>    C       -4.60623        26.00500       -12.29990
| 83>    C       -4.45249        27.34033       -12.04394
| 84>    C       -4.26139        27.79391       -10.73015
| 85>    C       -4.22645        26.90494        -9.69020
| 86>    H       -0.38750        -3.29198        -0.70611
| 87>    H        1.25572        -0.65554         3.19667
| 88>    H        1.35980        -2.68498         4.51867
| 89>    H        1.05925        -5.11970         4.73041
| 90>    H        0.26138        -6.44502         2.81357
| 91>    H       -0.24621        -5.34405         0.66899
| 92>    H       -0.64357         1.69144        -2.31776
| 93>    H       -0.74242         3.26261         1.25275
| 94>    H       -1.94534         9.57155         1.13885
| 95>    H       -3.18915        15.95560        -1.51206
| 96>    H       -4.39598        20.48353        -5.92452
| 97>    H       -4.37548        18.88886        -9.53825
| 98>    H       -4.18946        24.91525        -7.84556
| 99>    H       -4.87722        23.36449       -12.53403
|100>    H       -4.75544        25.65097       -13.30941
|101>    H       -4.47749        28.05496       -12.85290
|102>    H       -4.14148        28.85111       -10.54639
|103>    H       -4.07937        27.24823        -8.67659
|104> *
|105>
|106>                          ****END OF INPUT****

CARTESIAN COORDINATES (ANGSTROEM)
---------------------------------
  C      0.764080    0.783430    0.714700
  C      1.569370    1.719630    1.310770
  C      2.238460    1.513940    2.534530
  N      2.784780    1.407050    3.538480
  C      1.888980    2.960410    0.725600
  N      2.198710    3.966580    0.267940
  C      0.632400   -0.605440    1.145260
  C      0.147610   -1.375890    0.047890
  C     -0.029330   -2.726140    0.141020
  C      0.263130   -3.376820    1.360790
  C      0.727520   -2.609460    2.468180
  C      0.909510   -1.212920    2.340160
  C      1.006590   -3.269670    3.681950
  C      0.840510   -4.623060    3.797030
  C      0.386400   -5.378070    2.705330
  C      0.103890   -4.768220    1.513190
  C     -0.110910   -0.484730   -1.095280
  O     -0.479330   -0.780310   -2.208340
  C      0.121140    0.897050   -0.576650
  C     -0.353610    1.945370   -1.301780
  C     -0.603690    3.283470   -0.917800
  C     -0.776900    3.831550    0.341900
  C     -1.060100    5.191470    0.284290
  C     -1.106250    5.704040   -1.022590
  S     -0.824190    4.476930   -2.188750
  C     -1.371380    7.075770   -1.045660
  C     -1.525450    7.604320    0.247960
  S     -1.347240    6.405140    1.498100
  C     -1.795130    8.970270    0.261230
  C     -1.851480    9.478120   -1.021530
  S     -1.567950    8.280060   -2.260750
  C     -2.120680   10.815140   -1.425670
  N     -2.172000   11.072690   -2.720870
  N     -2.430920   12.248610   -3.211020
  C     -2.659330   13.317150   -2.468130
  C     -2.617220   13.187920   -1.045340
  C     -2.343830   11.883390   -0.502400
  N     -2.361250   11.992690    0.808850
  O     -2.625100   13.271870    1.067840
  N     -2.783260   14.008660   -0.030190
  C     -2.948880   14.541580   -3.132690
  C     -3.196260   15.778570   -2.571740
  C     -3.449730   16.733140   -3.553700
  C     -3.398640   16.218200   -4.861290
  S     -3.024920   14.536310   -4.877490
  C     -3.666450   17.197390   -5.820830
  C     -3.914680   18.457300   -5.245310
  S     -3.822430   18.432980   -3.505230
  C     -4.187300   19.458330   -6.168840
  C     -4.152990   18.984380   -7.470170
  S     -3.781400   17.256740   -7.530680
  C     -4.386000   19.599190   -8.719090
  C     -4.590100   20.905470   -9.063740
  C     -4.837010   21.340130  -10.432370
  C     -5.212790   20.554670  -11.490520
  C     -5.454640   21.048910  -12.790260
  N     -5.662100   21.380600  -13.869490
  C     -5.462190   19.166090  -11.446630
  N     -5.709650   18.045590  -11.497230
  C     -4.698610   22.790150  -10.473410
  C     -4.492290   23.258930   -9.145920
  C     -4.468930   22.118500   -8.215040
  O     -4.358200   22.191490   -7.008530
  C     -4.340530   24.585880   -8.862900
  C     -4.380070   25.523400   -9.918810
  C     -4.575580   25.061690  -11.252630
  C     -4.735840   23.681480  -11.513150
  C     -4.606230   26.005000  -12.299900
  C     -4.452490   27.340330  -12.043940
  C     -4.261390   27.793910  -10.730150
  C     -4.226450   26.904940   -9.690200
  H     -0.387500   -3.291980   -0.706110
  H      1.255720   -0.655540    3.196670
  H      1.359800   -2.684980    4.518670
  H      1.059250   -5.119700    4.730410
  H      0.261380   -6.445020    2.813570
  H     -0.246210   -5.344050    0.668990
  H     -0.643570    1.691440   -2.317760
  H     -0.742420    3.262610    1.252750
  H     -1.945340    9.571550    1.138850
  H     -3.189150   15.955600   -1.512060
  H     -4.395980   20.483530   -5.924520
  H     -4.375480   18.888860   -9.538250
  H     -4.189460   24.915250   -7.845560
  H     -4.877220   23.364490  -12.534030
  H     -4.755440   25.650970  -13.309410
  H     -4.477490   28.054960  -12.852900
  H     -4.141480   28.851110  -10.546390
  H     -4.079370   27.248230   -8.676590

 Total Charge           Charge          ....    0
 Multiplicity           Mult            ....    1
 Number of Electrons    NEL             ....  518
 Basis Dimension        Dim             .... 1108

ORBITAL ENERGIES
----------------

  NO   OCC          E(Eh)            E(eV)
   0   2.0000     -88.976323     -2421.1688
   1   2.0000     -88.975259     -2421.1399
   2   2.0000     -88.975146     -2421.1368
   3   2.0000     -88.974343     -2421.1150
   4   2.0000     -88.970835     -2421.0195
   5   2.0000     -88.970714     -2421.0162
   6   2.0000     -19.387076      -527.5492
   7   2.0000     -19.219207      -522.9812
   8   2.0000     -19.214338      -522.8487
   9   2.0000     -14.514457      -394.9584
  10   2.0000     -14.514312      -394.9545
  11   2.0000     -14.460684      -393.4952
  12   2.0000     -14.459875      -393.4732
  13   2.0000     -14.416656      -392.2971
  14   2.0000     -14.415843      -392.2750
  15   2.0000     -14.414363      -392.2348
  16   2.0000     -14.412144      -392.1744
  17   2.0000     -10.370250      -282.1888
  18   2.0000     -10.365433      -282.0578
  19   2.0000     -10.359213      -281.8885
  20   2.0000     -10.358887      -281.8796
  21   2.0000     -10.356618      -281.8179
  22   2.0000     -10.356367      -281.8111
  23   2.0000     -10.344028      -281.4753
  24   2.0000     -10.342951      -281.4460
  25   2.0000     -10.339983      -281.3652
  26   2.0000     -10.339272      -281.3459
  27   2.0000     -10.327657      -281.0298
  28   2.0000     -10.325695      -280.9764
  29   2.0000     -10.325296      -280.9656
  30   2.0000     -10.325262      -280.9647
  31   2.0000     -10.324165      -280.9348
  32   2.0000     -10.323782      -280.9244
  33   2.0000     -10.323284      -280.9108
  34   2.0000     -10.322938      -280.9014
  35   2.0000     -10.322814      -280.8980
  36   2.0000     -10.322377      -280.8862
  37   2.0000     -10.320838      -280.8443
  38   2.0000     -10.319309      -280.8027
  39   2.0000     -10.319267      -280.8015
  40   2.0000     -10.319056      -280.7958
  41   2.0000     -10.317936      -280.7653
  42   2.0000     -10.317179      -280.7447
  43   2.0000     -10.316688      -280.7314
  44   2.0000     -10.315274      -280.6929
  45   2.0000     -10.307719      -280.4873
  46   2.0000     -10.304714      -280.4055
  47   2.0000     -10.304315      -280.3947
  48   2.0000     -10.304302      -280.3943
  49   2.0000     -10.301472      -280.3173
  50   2.0000     -10.300903      -280.3018
  51   2.0000     -10.299416      -280.2614
  52   2.0000     -10.298475      -280.2358
  53   2.0000     -10.298178      -280.2277
  54   2.0000     -10.298028      -280.2236
  55   2.0000     -10.297519      -280.2097
  56   2.0000     -10.297396      -280.2064
  57   2.0000     -10.297034      -280.1966
  58   2.0000     -10.296730      -280.1883
  59   2.0000     -10.296029      -280.1692
  60   2.0000     -10.295589      -280.1572
  61   2.0000     -10.289719      -279.9975
  62   2.0000     -10.287845      -279.9465
  63   2.0000     -10.287013      -279.9238
  64   2.0000     -10.286636      -279.9136
  65   2.0000     -10.286390      -279.9069
  66   2.0000     -10.286104      -279.8991
  67   2.0000     -10.285926      -279.8943
  68   2.0000     -10.285600      -279.8854
  69   2.0000     -10.285299      -279.8772
  70   2.0000     -10.284754      -279.8624
  71   2.0000      -8.071601      -219.6394
  72   2.0000      -8.070405      -219.6069
  73   2.0000      -8.069663      -219.5867
  74   2.0000      -8.068759      -219.5621
  75   2.0000      -8.066040      -219.4881
  76   2.0000      -8.065911      -219.4846
  77   2.0000      -6.041072      -164.3859
  78   2.0000      -6.039817      -164.3518
  79   2.0000      -6.039286      -164.3373
  80   2.0000      -6.038380      -164.3127
  81   2.0000      -6.037021      -164.2757
  82   2.0000      -6.035830      -164.2433
  83   2.0000      -6.035796      -164.2424
  84   2.0000      -6.035683      -164.2393
  85   2.0000      -6.035025      -164.2214
  86   2.0000      -6.034133      -164.1971
  87   2.0000      -6.033249      -164.1731
  88   2.0000      -6.032093      -164.1416
  89   2.0000      -6.031934      -164.1373
  90   2.0000      -6.031819      -164.1341
  91   2.0000      -6.031286      -164.1196
  92   2.0000      -6.030379      -164.0950
  93   2.0000      -6.026932      -164.0011
  94   2.0000      -6.026786      -163.9972
  95   2.0000      -1.340011       -36.4636
  96   2.0000      -1.142981       -31.1021
  97   2.0000      -1.133909       -30.8552
  98   2.0000      -1.129875       -30.7455
  99   2.0000      -1.045563       -28.4512
 100   2.0000      -1.034294       -28.1446
 101   2.0000      -1.033908       -28.1341
 102   2.0000      -1.019228       -27.7346
 103   2.0000      -1.017002       -27.6740
 104   2.0000      -1.004698       -27.3392
 105   2.0000      -1.001522       -27.2528
 106   2.0000      -0.998838       -27.1798
 107   2.0000      -0.997633       -27.1470
 108   2.0000      -0.995226       -27.0815
 109   2.0000      -0.992190       -26.9989
 110   2.0000      -0.991308       -26.9749
 111   2.0000      -0.972764       -26.4703
 112   2.0000      -0.971131       -26.4258
 113   2.0000      -0.965643       -26.2765
 114   2.0000      -0.943637       -25.6777
 115   2.0000      -0.930262       -25.3137
 116   2.0000      -0.923639       -25.1335
 117   2.0000      -0.921962       -25.0879
 118   2.0000      -0.902925       -24.5698
 119   2.0000      -0.900596       -24.5065
 120   2.0000      -0.885725       -24.1018
 121   2.0000      -0.883264       -24.0348
 122   2.0000      -0.881623       -23.9902
 123   2.0000      -0.879770       -23.9398
 124   2.0000      -0.873827       -23.7780
 125   2.0000      -0.862351       -23.4658
 126   2.0000      -0.851344       -23.1662
 127   2.0000      -0.850495       -23.1431
 128   2.0000      -0.847133       -23.0517
 129   2.0000      -0.828890       -22.5552
 130   2.0000      -0.827551       -22.5188
 131   2.0000      -0.819059       -22.2877
 132   2.0000      -0.814764       -22.1708
 133   2.0000      -0.802801       -21.8453
 134   2.0000      -0.800324       -21.7779
 135   2.0000      -0.796188       -21.6654
 136   2.0000      -0.782009       -21.2795
 137   2.0000      -0.773388       -21.0450
 138   2.0000      -0.761396       -20.7186
 139   2.0000      -0.760820       -20.7030
 140   2.0000      -0.744240       -20.2518
 141   2.0000      -0.730652       -19.8820
 142   2.0000      -0.716041       -19.4845
 143   2.0000      -0.706929       -19.2365
 144   2.0000      -0.703780       -19.1508
 145   2.0000      -0.701920       -19.1002
 146   2.0000      -0.697594       -18.9825
 147   2.0000      -0.690792       -18.7974
 148   2.0000      -0.684949       -18.6384
 149   2.0000      -0.676822       -18.4172
 150   2.0000      -0.675868       -18.3913
 151   2.0000      -0.666464       -18.1354
 152   2.0000      -0.664226       -18.0745
 153   2.0000      -0.657057       -17.8794
 154   2.0000      -0.654960       -17.8224
 155   2.0000      -0.648785       -17.6544
 156   2.0000      -0.646509       -17.5924
 157   2.0000      -0.640389       -17.4259
 158   2.0000      -0.637627       -17.3507
 159   2.0000      -0.637051       -17.3350
 160   2.0000      -0.631690       -17.1892
 161   2.0000      -0.630046       -17.1444
 162   2.0000      -0.608014       -16.5449
 163   2.0000      -0.607933       -16.5427
 164   2.0000      -0.605087       -16.4653
 165   2.0000      -0.602912       -16.4061
 166   2.0000      -0.595002       -16.1908
 167   2.0000      -0.585987       -15.9455
 168   2.0000      -0.582389       -15.8476
 169   2.0000      -0.580444       -15.7947
 170   2.0000      -0.570418       -15.5219
 171   2.0000      -0.565636       -15.3917
 172   2.0000      -0.553840       -15.0708
 173   2.0000      -0.553229       -15.0541
 174   2.0000      -0.549265       -14.9463
 175   2.0000      -0.547821       -14.9070
 176   2.0000      -0.546767       -14.8783
 177   2.0000      -0.546193       -14.8627
 178   2.0000      -0.544060       -14.8046
 179   2.0000      -0.539512       -14.6809
 180   2.0000      -0.538058       -14.6413
 181   2.0000      -0.536198       -14.5907
 182   2.0000      -0.534121       -14.5342
 183   2.0000      -0.531962       -14.4754
 184   2.0000      -0.530394       -14.4328
 185   2.0000      -0.527304       -14.3487
 186   2.0000      -0.520514       -14.1639
 187   2.0000      -0.518992       -14.1225
 188   2.0000      -0.516879       -14.0650
 189   2.0000      -0.512925       -13.9574
 190   2.0000      -0.512089       -13.9347
 191   2.0000      -0.510219       -13.8838
 192   2.0000      -0.508499       -13.8370
 193   2.0000      -0.506831       -13.7916
 194   2.0000      -0.501359       -13.6427
 195   2.0000      -0.497981       -13.5508
 196   2.0000      -0.496732       -13.5168
 197   2.0000      -0.493312       -13.4237
 198   2.0000      -0.491676       -13.3792
 199   2.0000      -0.488217       -13.2851
 200   2.0000      -0.487044       -13.2531
 201   2.0000      -0.485001       -13.1975
 202   2.0000      -0.480380       -13.0718
 203   2.0000      -0.475725       -12.9451
 204   2.0000      -0.472218       -12.8497
 205   2.0000      -0.471223       -12.8226
 206   2.0000      -0.465655       -12.6711
 207   2.0000      -0.464558       -12.6413
 208   2.0000      -0.460625       -12.5342
 209   2.0000      -0.456801       -12.4302
 210   2.0000      -0.454400       -12.3649
 211   2.0000      -0.450181       -12.2500
 212   2.0000      -0.446478       -12.1493
 213   2.0000      -0.444512       -12.0958
 214   2.0000      -0.443227       -12.0608
 215   2.0000      -0.442145       -12.0314
 216   2.0000      -0.440297       -11.9811
 217   2.0000      -0.439329       -11.9547
 218   2.0000      -0.436835       -11.8869
 219   2.0000      -0.436159       -11.8685
 220   2.0000      -0.434494       -11.8232
 221   2.0000      -0.432615       -11.7721
 222   2.0000      -0.432411       -11.7665
 223   2.0000      -0.431355       -11.7378
 224   2.0000      -0.428800       -11.6682
 225   2.0000      -0.427434       -11.6311
 226   2.0000      -0.426477       -11.6050
 227   2.0000      -0.425309       -11.5732
 228   2.0000      -0.424902       -11.5622
 229   2.0000      -0.423792       -11.5320
 230   2.0000      -0.422928       -11.5085
 231   2.0000      -0.421184       -11.4610
 232   2.0000      -0.417472       -11.3600
 233   2.0000      -0.417277       -11.3547
 234   2.0000      -0.412057       -11.2126
 235   2.0000      -0.409089       -11.1319
 236   2.0000      -0.405291       -11.0285
 237   2.0000      -0.401122       -10.9151
 238   2.0000      -0.400551       -10.8996
 239   2.0000      -0.387694       -10.5497
 240   2.0000      -0.381824       -10.3900
 241   2.0000      -0.377795       -10.2803
 242   2.0000      -0.371533       -10.1099
 243   2.0000      -0.363389        -9.8883
 244   2.0000      -0.347017        -9.4428
 245   2.0000      -0.345141        -9.3918
 246   2.0000      -0.342997        -9.3334
 247   2.0000      -0.339583        -9.2405
 248   2.0000      -0.334841        -9.1115
 249   2.0000      -0.323058        -8.7908
 250   2.0000      -0.321184        -8.7399
 251   2.0000      -0.316784        -8.6201
 252   2.0000      -0.314707        -8.5636
 253   2.0000      -0.296635        -8.0719
 254   2.0000      -0.295852        -8.0505
 255   2.0000      -0.295139        -8.0311
 256   2.0000      -0.293187        -7.9780
 257   2.0000      -0.276761        -7.5311
 258   2.0000      -0.256246        -6.9728
 259   0.0000      -0.115446        -3.1415
 260   0.0000      -0.094737        -2.5779
 261   0.0000      -0.085166        -2.3175
 262   0.0000      -0.058135        -1.5819
 263   0.0000      -0.056638        -1.5412

MULLIKEN ATOMIC CHARGES
-----------------------
   0 C :    0.268628
   1 C :   -0.341266
   2 C :   -0.174062
   3 N :    0.152926
   4 C :   -0.210139
   5 N :    0.182682
   6 C :    0.033599
   7 C :    0.015899
   8 C :   -0.081783
   9 C :    0.094507
  10 C :    0.094983
  11 C :   -0.082610
  12 C :   -0.018246
  13 C :    0.037969
  14 C :    0.033497
  15 C :   -0.014400
  16 C :    0.136194
  17 O :   -0.141933
  18 C :   -0.138393
  19 C :    0.087126
  20 C :   -0.111446
  21 C :    0.011431
  22 C :   -0.037965
  23 C :   -0.065504
  24 S :    0.183580
  25 C :   -0.061974
  26 C :   -0.023150
  27 S :    0.177463
  28 C :   -0.053098
  29 C :   -0.119135
  30 S :    0.219048
  31 C :    0.020820
  32 N :   -0.052902
  33 N :   -0.051994
  34 C :    0.022764
  35 C :   -0.029170
  36 C :   -0.030114
  37 N :    0.073004
  38 O :   -0.079849
  39 N :    0.072002
  40 C :   -0.118498
  41 C :   -0.057953
  42 C :   -0.021069
  43 C :   -0.063284
  44 S :    0.221086
  45 C :   -0.069317
  46 C :   -0.034834
  47 S :    0.176010
  48 C :   -0.006728
  49 C :   -0.110091
  50 S :    0.174809
  51 C :    0.039370
  52 C :   -0.086350
  53 C :    0.305764
  54 C :   -0.354281
  55 C :   -0.180079
  56 N :    0.145566
  57 C :   -0.200343
  58 N :    0.158342
  59 C :    0.046558
  60 C :   -0.002607
  61 C :    0.163399
  62 O :   -0.161319
  63 C :   -0.079301
  64 C :    0.096443
  65 C :    0.093268
  66 C :   -0.079635
  67 C :   -0.017699
  68 C :    0.034857
  69 C :    0.034161
  70 C :   -0.013817
  71 H :   -0.011433
  72 H :   -0.007201
  73 H :   -0.010414
  74 H :   -0.005160
  75 H :   -0.004023
  76 H :   -0.017388
  77 H :    0.025216
  78 H :    0.004728
  79 H :    0.006929
  80 H :    0.007657
  81 H :    0.021279
  82 H :    0.015336
  83 H :   -0.014306
  84 H :   -0.007117
  85 H :   -0.009303
  86 H :   -0.003575
  87 H :   -0.004449
  88 H :   -0.018191
Sum of atomic charges:   -0.0000000

LOEWDIN ATOMIC CHARGES
----------------------
   0 C :    0.066064
   1 C :   -0.142120
   2 C :   -0.020195
   3 N :   -0.052162
   4 C :   -0.020874
   5 N :   -0.039394
   6 C :   -0.023366
   7 C :   -0.057216
   8 C :    0.033074
   9 C :   -0.009131
  10 C :   -0.005477
  11 C :    0.015086
  12 C :   -0.006642
  13 C :   -0.012664
  14 C :   -0.013024
  15 C :   -0.008931
  16 C :    0.083090
  17 O :   -0.142723
  18 C :   -0.091949
  19 C :    0.046811
  20 C :   -0.172486
  21 C :   -0.023231
  22 C :   -0.182497
  23 C :   -0.200785
  24 S :    0.458415
  25 C :   -0.207618
  26 C :   -0.185028
  27 S :    0.419445
  28 C :   -0.040825
  29 C :   -0.175947
  30 S :    0.479708
  31 C :   -0.020802
  32 N :   -0.057704
  33 N :   -0.055468
  34 C :   -0.023396
  35 C :   -0.058088
  36 C :   -0.058127
  37 N :   -0.003776
  38 O :    0.089642
  39 N :   -0.004712
  40 C :   -0.173185
  41 C :   -0.043748
  42 C :   -0.183487
  43 C :   -0.211736
  44 S :    0.480384
  45 C :   -0.200511
  46 C :   -0.190338
  47 S :    0.418481
  48 C :   -0.015740
  49 C :   -0.170057
  50 S :    0.452526
  51 C :    0.046622
  52 C :   -0.094021
  53 C :    0.076836
  54 C :   -0.141920
  55 C :   -0.016886
  56 N :   -0.055176
  57 C :   -0.026315
  58 N :   -0.051006
  59 C :   -0.026033
  60 C :   -0.055167
  61 C :    0.088845
  62 O :   -0.145495
  63 C :    0.031406
  64 C :   -0.008666
  65 C :   -0.006283
  66 C :    0.019469
  67 C :   -0.005263
  68 C :   -0.013557
  69 C :   -0.012738
  70 C :   -0.009794
  71 H :    0.039612
  72 H :    0.038303
  73 H :    0.034317
  74 H :    0.033109
  75 H :    0.033011
  76 H :    0.031999
  77 H :    0.046780
  78 H :    0.038714
  79 H :    0.039350
  80 H :    0.039390
  81 H :    0.039199
  82 H :    0.043853
  83 H :    0.038270
  84 H :    0.039127
  85 H :    0.034782
  86 H :    0.033367
  87 H :    0.032832
  88 H :    0.031559

  Mayer bond orders larger than 0.100000
B(  0-C ,  1-C ) :   1.6429 B(  0-C ,  6-C ) :   0.9987 B(  0-C , 18-C ) :   1.0382
B(  1-C ,  2-C ) :   1.1306 B(  1-C ,  4-C ) :   1.1684 B(  2-C ,  3-N ) :   2.9862
B(  4-C ,  5-N ) :   3.0068 B(  6-C ,  7-C ) :   1.2160 B(  6-C , 11-C ) :   1.4568
B(  7-C ,  8-C ) :   1.4767 B(  7-C , 16-C ) :   0.9210 B(  8-C ,  9-C ) :   1.1821
B(  8-C , 71-H ) :   1.0155 B(  9-C , 10-C ) :   1.2583 B(  9-C , 15-C ) :   1.2464
B( 10-C , 11-C ) :   1.2053 B( 10-C , 12-C ) :   1.2405 B( 11-C , 72-H ) :   0.9930
B( 12-C , 13-C ) :   1.4902 B( 12-C , 73-H ) :   0.9969 B( 13-C , 14-C ) :   1.2622
B( 13-C , 74-H ) :   0.9879 B( 14-C , 15-C ) :   1.4878 B( 14-C , 75-H ) :   0.9891
B( 15-C , 76-H ) :   0.9970 B( 16-C , 17-O ) :   2.2671 B( 16-C , 18-C ) :   0.9387
B( 18-C , 19-C ) :   1.6741 B( 19-C , 20-C ) :   1.1350 B( 19-C , 77-H ) :   0.9232
B( 20-C , 21-C ) :   1.4553 B( 20-C , 24-S ) :   1.0848 B( 21-C , 22-C ) :   1.3315
B( 21-C , 78-H ) :   0.9889 B( 22-C , 23-C ) :   1.4332 B( 22-C , 27-S ) :   1.0493
B( 23-C , 24-S ) :   1.0963 B( 23-C , 25-C ) :   1.3115 B( 25-C , 26-C ) :   1.4477
B( 25-C , 30-S ) :   1.0700 B( 26-C , 27-S ) :   1.0521 B( 26-C , 28-C ) :   1.2653
B( 28-C , 29-C ) :   1.5218 B( 28-C , 79-H ) :   0.9874 B( 29-C , 30-S ) :   1.0817
B( 29-C , 31-C ) :   1.1809 B( 31-C , 32-N ) :   1.7343 B( 31-C , 34-C ) :   0.1091
B( 31-C , 36-C ) :   1.0744 B( 32-N , 33-N ) :   1.2069 B( 33-N , 34-C ) :   1.7354
B( 34-C , 35-C ) :   1.0759 B( 34-C , 40-C ) :   1.1771 B( 35-C , 36-C ) :   1.1670
B( 35-C , 39-N ) :   1.6241 B( 36-C , 37-N ) :   1.6248 B( 37-N , 38-O ) :   1.0711
B( 37-N , 39-N ) :   0.1794 B( 38-O , 39-N ) :   1.0696 B( 40-C , 41-C ) :   1.5231
B( 40-C , 44-S ) :   1.0850 B( 41-C , 42-C ) :   1.2631 B( 41-C , 80-H ) :   0.9887
B( 42-C , 43-C ) :   1.4446 B( 42-C , 47-S ) :   1.0526 B( 43-C , 44-S ) :   1.0676
B( 43-C , 45-C ) :   1.3136 B( 45-C , 46-C ) :   1.4103 B( 45-C , 50-S ) :   1.1047
B( 46-C , 47-S ) :   1.0472 B( 46-C , 48-C ) :   1.2890 B( 48-C , 49-C ) :   1.4524
B( 48-C , 81-H ) :   0.9772 B( 49-C , 50-S ) :   1.0712 B( 49-C , 51-C ) :   1.2185
B( 51-C , 52-C ) :   1.5957 B( 51-C , 82-H ) :   0.9162 B( 52-C , 53-C ) :   1.0744
B( 52-C , 61-C ) :   0.9379 B( 53-C , 54-C ) :   1.6284 B( 53-C , 59-C ) :   0.9860
B( 54-C , 55-C ) :   1.1479 B( 54-C , 57-C ) :   1.1371 B( 55-C , 56-N ) :   2.9658
B( 57-C , 58-N ) :   2.9872 B( 59-C , 60-C ) :   1.2157 B( 59-C , 66-C ) :   1.4494
B( 60-C , 61-C ) :   0.9553 B( 60-C , 63-C ) :   1.4716 B( 61-C , 62-O ) :   2.1640
B( 63-C , 64-C ) :   1.1780 B( 63-C , 83-H ) :   1.0163 B( 64-C , 65-C ) :   1.2568
B( 64-C , 70-C ) :   1.2455 B( 65-C , 66-C ) :   1.2074 B( 65-C , 67-C ) :   1.2394
B( 66-C , 84-H ) :   0.9904 B( 67-C , 68-C ) :   1.4893 B( 67-C , 85-H ) :   0.9976
B( 68-C , 69-C ) :   1.2601 B( 68-C , 86-H ) :   0.9889 B( 69-C , 70-C ) :   1.4871
B( 69-C , 87-H ) :   0.9893 B( 70-C , 88-H ) :   0.9980

-----------------------------------------------------------------------------
         ABSORPTION SPECTRUM VIA TRANSITION ELECTRIC DIPOLE MOMENTS
-----------------------------------------------------------------------------
State   Energy  Wavelength   fosc         T2         TX        TY        TZ
        (cm-1)    (nm)                  (au**2)     (au)      (au)      (au)
-----------------------------------------------------------------------------
   0   15579.2    641.9   2.558469843  54.06444   1.64233  -6.43906   3.14734
   1   20582.0    485.9   0.001947368   0.03115  -0.07789   0.13653   0.08025
   2   20665.6    483.9   0.184669574   2.94187   0.47742  -0.54262  -1.55548
   3   22660.5    441.3   0.344441155   5.00404  -0.69089   1.13128  -1.80192
   4   23575.6    424.2   0.138544365   1.93464   0.28475  -0.77666   1.11820
   5   24081.8    415.3   0.031457730   0.43005  -0.12913   0.57969   0.27809
   6   24155.8    414.0   0.054671532   0.74510  -0.05410   0.33265   0.79468
   7   26242.6    381.1   0.105580272   1.32450   0.18461   1.01997  -0.50008
   8   26346.9    379.6   0.009637628   0.12042   0.25068   0.22633  -0.07973
   9   27699.1    361.0   0.030891573   0.36716   0.20125  -0.30128   0.48568
  10   28390.2    352.2   0.019228308   0.22297  -0.04474  -0.46638   0.05880
  11   28416.8    351.9   0.021859935   0.25325   0.27381  -0.39879   0.13873
  12   28621.8    349.4   0.022281673   0.25629  -0.16197   0.42999  -0.21251
  13   29090.9    343.8   0.156841157   1.77492   0.04418   1.33152   0.00581
  14   29299.5    341.3   0.172128104   1.93404  -0.17454  -1.32417  -0.38749
  15   29802.6    335.5   0.116536926   1.28732  -0.14301  -1.10799  -0.19808
  16   30035.2    332.9   0.005588832   0.06126  -0.15544  -0.15674  -0.11193
  17   30383.5    329.1   0.264879581   2.87003   0.08378  -1.65843   0.33558
  18   31274.6    319.7   0.082304063   0.86637   0.17039  -0.89836   0.17406
  19   31425.8    318.2   0.128522572   1.34638  -0.04917  -1.08607   0.40548
  20   32995.1    303.1   0.041648432   0.41555  -0.10239  -0.53475   0.34513
  21   33164.3    301.5   0.961299171   9.54252  -0.47242  -3.04606   0.20214
  22   33695.1    296.8   0.079499291   0.77673   0.27191   0.79698  -0.26003
  23   34164.6    292.7   0.194704250   1.87618  -0.17548  -1.35404  -0.10942
  24   34462.9    290.2   0.002859097   0.02731  -0.12284  -0.10595   0.03157
  25   34598.8    289.0   0.201991927   1.92198   0.39653  -1.16784   0.63317
  26   34875.6    286.7   0.000470602   0.00444   0.02353   0.04264  -0.04550
  27   34981.1    285.9   0.003080865   0.02899   0.10862  -0.00745   0.13092
  28   35016.2    285.6   0.046341653   0.43569  -0.29474  -0.58904   0.04304
  29   35180.6    284.2   0.004240441   0.03968  -0.03564  -0.02088  -0.19487
  30   35219.4    283.9   0.009051621   0.08461   0.24102   0.13822   0.08612
  31   36051.5    277.4   0.076995645   0.70310   0.11000   0.13310   0.82054
  32   36494.5    274.0   0.028825258   0.26003   0.18917   0.45683   0.12470
  33   36727.3    272.3   0.008917643   0.07993  -0.03532  -0.13916  -0.24356
  34   37006.7    270.2   0.042702931   0.37989   0.21461   0.45644  -0.35425
  35   37109.5    269.5   0.054978391   0.48773  -0.02458  -0.69558  -0.05743
  36   37277.3    268.3   0.168430785   1.48749   0.37696   1.05656   0.47861
  37   37542.6    266.4   0.021707728   0.19036   0.09969   0.38891   0.17078
  38   37583.6    266.1   0.123615967   1.08281  -0.23808  -0.93384  -0.39251
  39   38074.9    262.6   0.028032241   0.24238   0.00529   0.44881  -0.20230
  40   38434.9    260.2   0.026866684   0.23012   0.16711   0.35024   0.28201
  41   38523.3    259.6   0.068949660   0.58923   0.13736  -0.75024  -0.08663
  42   38674.4    258.6   0.024454764   0.20817   0.06539  -0.19678   0.40641
  43   39105.7    255.7   0.018293452   0.15400  -0.10550   0.30053   0.22924
  44   39474.0    253.3   0.017659900   0.14728  -0.01669  -0.05256   0.37979
  45   39636.4    252.3   0.005120862   0.04253  -0.07281  -0.17138   0.08867
  46   39759.9    251.5   0.030666639   0.25392   0.00727   0.17548   0.47231
  47   39895.7    250.7   0.110334906   0.91046  -0.37921  -0.69344  -0.53461
  48   39988.6    250.1   0.034587502   0.28475  -0.13399   0.28663  -0.42970
  49   40209.5    248.7   0.008604967   0.07045  -0.17966  -0.07857   0.17889

FINAL SINGLE POINT ENERGY     -5117.078070482475

DIPOLE MOMENT
-------------
                                X             Y             Z
Electronic contribution:     -1.61393       2.20079       5.49401
Nuclear contribution   :      1.14874      -1.90718      -3.24713
                        -----------------------------------------
Total Dipole Moment    :     -0.46520       0.29361       2.24688
                        -----------------------------------------
Magnitude (a.u.)       :      2.31324
Magnitude (Debye)      :      5.87978

Rotational constants in cm-1:     0.003262     0.000150     0.000145
Rotational constants in MHz :    97.779994     4.509100     4.353928

                             ****ORCA TERMINATED NORMALLY****
TOTAL RUN TIME: 0 days 0 hours 8 minutes 31 seconds 796 msec
