                         Program Version 4.2.0 -  RELEASE  -
|  1> # ORCA input file
|  2> # SCF done       -196.057195583913          0.000882255191
|  3> ! CAM-B3LYP def2-SVP def2/J RIJCOSX Grid4 TightSCF
|  4> %maxcore 5000
|  5> %tddft
|  6>     Mode sTDDFT
|  7>     Ethresh 5.0
|  8>     maxcore 5000
|  9> end
| 10>
| 11> %pal
| 12>   nprocs 6
| 13>   end
| 14> * xyz 0 1
| 15>    C       -3.84765         1.21745        -1.24326
| 16>    C       -5.04397         1.89464        -1.16189
| 17>    C       -6.00542         1.67501        -0.16040
| 18>    N       -6.80341         1.56639         0.65942
| 19>    C       -5.44423         2.88024        -2.08357
| 20>    N       -5.82896         3.65896        -2.83562
| 21>    C       -3.50523         0.04240        -0.44797
| 22>    C       -2.43209        -0.63852        -1.09179
| 23>    C       -1.89890        -1.78087        -0.57058
| 24>    C       -2.41905        -2.29666         0.64076
| 25>    C       -3.49326        -1.62002         1.28513
| 26>    C       -4.02877        -0.43876         0.72089
| 27>    C       -4.01294        -2.15134         2.48331
| 28>    C       -3.49105        -3.29375         3.02797
| 29>    C       -2.42380        -3.95237         2.40011
| 30>    C       -1.90283        -3.46699         1.23090
| 31>    C       -2.03812         0.11364        -2.30559
| 32>    O       -1.20520        -0.19589        -3.12861
| 33>    C       -2.82746         1.36824        -2.25536
| 34>    C       -2.46218         2.46487        -3.00022
| 35>    C       -2.76530         3.79866        -2.64614
| 36>    C       -3.03624         4.13390        -1.33227
| 37>    C       -3.50115         5.35249        -0.89166
| 38>    C       -3.68176         6.48109        -1.80427
| 39>    C       -3.35495         6.42780        -3.11653
| 40>    S       -2.76737         5.02278        -3.90971
| 41>    C       -4.23309         7.51168        -0.99595
| 42>    C       -4.42317         7.05270         0.31703
| 43>    C       -4.98698         8.05025         1.14462
| 44>    C       -5.20528         9.20432         0.46379
| 45>    S       -4.74292         9.13662        -1.20461
| 46>    C       -3.96513         5.69786         0.40499
| 47>    C       -4.00830         4.75502         1.44716
| 48>    C       -4.61080         4.81021         2.66739
| 49>    C       -4.61350         3.68759         3.52885
| 50>    N       -5.21883         3.70617         4.76896
| 51>    C       -5.07116         2.48419         5.34716
| 52>    C       -5.33379         1.73262         6.48360
| 53>    C       -4.77405         0.46395         6.25284
| 54>    N       -4.18753         0.44451         5.00233
| 55>    C       -4.34626         1.66656         4.43684
| 56>    C       -4.05712         2.41447         3.30863
| 57>    C       -4.76645        -0.63348         7.13993
| 58>    C       -4.27447        -1.87104         6.85500
| 59>    C       -4.19740        -2.96618         7.75700
| 60>    C       -4.43749        -2.89493         9.11350
| 61>    C       -4.31762        -3.95499        10.00122
| 62>    C       -3.92550        -5.29301         9.55544
| 63>    C       -3.64392        -5.60835         8.27159
| 64>    S       -3.70851        -4.47212         6.98879
| 65>    C       -3.89547        -6.08839        10.73414
| 66>    C       -4.22648        -5.31473        11.84842
| 67>    C       -4.20052        -6.07532        13.03915
| 68>    C       -3.85767        -7.36847        12.80042
| 69>    S       -3.55339        -7.72379        11.13485
| 70>    C       -4.49636        -3.96539        11.40795
| 71>    C       -4.84472        -2.84300        12.16886
| 72>    C       -4.94509        -2.77367        13.53492
| 73>    C       -5.27080        -1.57162        14.17035
| 74>    C       -5.34382        -1.38469        15.53286
| 75>    C       -5.65297        -0.15071        16.21105
| 76>    C       -5.97845         1.05763        15.63736
| 77>    C       -6.27298         2.22611        16.36609
| 78>    N       -6.52886         3.21577        16.89151
| 79>    C       -6.06911         1.31846        14.25718
| 80>    N       -6.16039         1.62298        13.15157
| 81>    C       -5.56247        -0.39756        17.64844
| 82>    C       -5.22038        -1.76458        17.85144
| 83>    C       -5.08297        -2.43083        16.54129
| 84>    O       -4.80856        -3.60251        16.35516
| 85>    C       -5.05486        -2.28916        19.09919
| 86>    C       -5.22400        -1.45349        20.22711
| 87>    C       -5.56689        -0.08553        20.03308
| 88>    C       -5.73480         0.42868        18.72576
| 89>    C       -5.73049         0.74020        21.16324
| 90>    C       -5.56218         0.24094        22.42622
| 91>    C       -5.22368        -1.10651        22.61625
| 92>    C       -5.05889        -1.93568        21.53976
| 93>    H       -1.08841        -2.28834        -1.07206
| 94>    H       -4.83529         0.06176         1.23411
| 95>    H       -4.84935        -1.64726         2.94813
| 96>    H       -3.90077        -3.70478         3.93970
| 97>    H       -2.02199        -4.85022         2.84496
| 98>    H       -1.08694        -3.97681         0.73987
| 99>    H       -1.84714         2.28346        -3.87296
|100>    H       -2.87520         3.35015        -0.60537
|101>    H       -3.46536         7.27321        -3.77723
|102>    H       -5.21514         7.93217         2.18785
|103>    H       -5.61944        10.11949         0.83974
|104>    H       -3.52219         3.81922         1.21310
|105>    H       -5.12997         5.69932         2.99370
|106>    H       -5.70867         4.49609         5.15252
|107>    H       -5.85582         2.02431         7.37264
|108>    H       -3.69289        -0.33522         4.60544
|109>    H       -3.52211         2.09116         2.43934
|110>    H       -5.19656        -0.43296         8.10963
|111>    H       -3.90742        -2.07651         5.85797
|112>    H       -4.71536        -1.92859         9.50696
|113>    H       -3.34978        -6.59884         7.96327
|114>    H       -4.41923        -5.70871        14.02483
|115>    H       -3.76087        -8.16264        13.51464
|116>    H       -5.03556        -1.92953        11.61703
|117>    H       -4.75327        -3.63814        14.14651
|118>    H       -5.46464        -0.72152        13.52849
|119>    H       -4.79404        -3.32952        19.22675
|120>    H       -5.99305         1.46965        18.61371
|121>    H       -5.99102         1.77758        21.01123
|122>    H       -5.68871         0.88240        23.28573
|123>    H       -5.09381        -1.48464        23.61948
|124>    H       -4.79779        -2.97467        21.68015
|125> *
|126>
|127>                          ****END OF INPUT****

CARTESIAN COORDINATES (ANGSTROEM)
---------------------------------
  C     -3.847650    1.217450   -1.243260
  C     -5.043970    1.894640   -1.161890
  C     -6.005420    1.675010   -0.160400
  N     -6.803410    1.566390    0.659420
  C     -5.444230    2.880240   -2.083570
  N     -5.828960    3.658960   -2.835620
  C     -3.505230    0.042400   -0.447970
  C     -2.432090   -0.638520   -1.091790
  C     -1.898900   -1.780870   -0.570580
  C     -2.419050   -2.296660    0.640760
  C     -3.493260   -1.620020    1.285130
  C     -4.028770   -0.438760    0.720890
  C     -4.012940   -2.151340    2.483310
  C     -3.491050   -3.293750    3.027970
  C     -2.423800   -3.952370    2.400110
  C     -1.902830   -3.466990    1.230900
  C     -2.038120    0.113640   -2.305590
  O     -1.205200   -0.195890   -3.128610
  C     -2.827460    1.368240   -2.255360
  C     -2.462180    2.464870   -3.000220
  C     -2.765300    3.798660   -2.646140
  C     -3.036240    4.133900   -1.332270
  C     -3.501150    5.352490   -0.891660
  C     -3.681760    6.481090   -1.804270
  C     -3.354950    6.427800   -3.116530
  S     -2.767370    5.022780   -3.909710
  C     -4.233090    7.511680   -0.995950
  C     -4.423170    7.052700    0.317030
  C     -4.986980    8.050250    1.144620
  C     -5.205280    9.204320    0.463790
  S     -4.742920    9.136620   -1.204610
  C     -3.965130    5.697860    0.404990
  C     -4.008300    4.755020    1.447160
  C     -4.610800    4.810210    2.667390
  C     -4.613500    3.687590    3.528850
  N     -5.218830    3.706170    4.768960
  C     -5.071160    2.484190    5.347160
  C     -5.333790    1.732620    6.483600
  C     -4.774050    0.463950    6.252840
  N     -4.187530    0.444510    5.002330
  C     -4.346260    1.666560    4.436840
  C     -4.057120    2.414470    3.308630
  C     -4.766450   -0.633480    7.139930
  C     -4.274470   -1.871040    6.855000
  C     -4.197400   -2.966180    7.757000
  C     -4.437490   -2.894930    9.113500
  C     -4.317620   -3.954990   10.001220
  C     -3.925500   -5.293010    9.555440
  C     -3.643920   -5.608350    8.271590
  S     -3.708510   -4.472120    6.988790
  C     -3.895470   -6.088390   10.734140
  C     -4.226480   -5.314730   11.848420
  C     -4.200520   -6.075320   13.039150
  C     -3.857670   -7.368470   12.800420
  S     -3.553390   -7.723790   11.134850
  C     -4.496360   -3.965390   11.407950
  C     -4.844720   -2.843000   12.168860
  C     -4.945090   -2.773670   13.534920
  C     -5.270800   -1.571620   14.170350
  C     -5.343820   -1.384690   15.532860
  C     -5.652970   -0.150710   16.211050
  C     -5.978450    1.057630   15.637360
  C     -6.272980    2.226110   16.366090
  N     -6.528860    3.215770   16.891510
  C     -6.069110    1.318460   14.257180
  N     -6.160390    1.622980   13.151570
  C     -5.562470   -0.397560   17.648440
  C     -5.220380   -1.764580   17.851440
  C     -5.082970   -2.430830   16.541290
  O     -4.808560   -3.602510   16.355160
  C     -5.054860   -2.289160   19.099190
  C     -5.224000   -1.453490   20.227110
  C     -5.566890   -0.085530   20.033080
  C     -5.734800    0.428680   18.725760
  C     -5.730490    0.740200   21.163240
  C     -5.562180    0.240940   22.426220
  C     -5.223680   -1.106510   22.616250
  C     -5.058890   -1.935680   21.539760
  H     -1.088410   -2.288340   -1.072060
  H     -4.835290    0.061760    1.234110
  H     -4.849350   -1.647260    2.948130
  H     -3.900770   -3.704780    3.939700
  H     -2.021990   -4.850220    2.844960
  H     -1.086940   -3.976810    0.739870
  H     -1.847140    2.283460   -3.872960
  H     -2.875200    3.350150   -0.605370
  H     -3.465360    7.273210   -3.777230
  H     -5.215140    7.932170    2.187850
  H     -5.619440   10.119490    0.839740
  H     -3.522190    3.819220    1.213100
  H     -5.129970    5.699320    2.993700
  H     -5.708670    4.496090    5.152520
  H     -5.855820    2.024310    7.372640
  H     -3.692890   -0.335220    4.605440
  H     -3.522110    2.091160    2.439340
  H     -5.196560   -0.432960    8.109630
  H     -3.907420   -2.076510    5.857970
  H     -4.715360   -1.928590    9.506960
  H     -3.349780   -6.598840    7.963270
  H     -4.419230   -5.708710   14.024830
  H     -3.760870   -8.162640   13.514640
  H     -5.035560   -1.929530   11.617030
  H     -4.753270   -3.638140   14.146510
  H     -5.464640   -0.721520   13.528490
  H     -4.794040   -3.329520   19.226750
  H     -5.993050    1.469650   18.613710
  H     -5.991020    1.777580   21.011230
  H     -5.688710    0.882400   23.285730
  H     -5.093810   -1.484640   23.619480
  H     -4.797790   -2.974670   21.680150

 Total Charge           Charge          ....    0
 Multiplicity           Mult            ....    1
 Number of Electrons    NEL             ....  550
 Basis Dimension        Dim             .... 1268

ORBITAL ENERGIES
----------------

  NO   OCC          E(Eh)            E(eV)
   0   2.0000     -88.986538     -2421.4468
   1   2.0000     -88.978073     -2421.2165
   2   2.0000     -88.966811     -2420.9100
   3   2.0000     -88.956751     -2420.6363
   4   2.0000     -19.211168      -522.7624
   5   2.0000     -19.192585      -522.2568
   6   2.0000     -14.466103      -393.6427
   7   2.0000     -14.463822      -393.5806
   8   2.0000     -14.409897      -392.1132
   9   2.0000     -14.409103      -392.0916
  10   2.0000     -14.396250      -391.7419
  11   2.0000     -14.391968      -391.6254
  12   2.0000     -10.364306      -282.0271
  13   2.0000     -10.343044      -281.4485
  14   2.0000     -10.338300      -281.3195
  15   2.0000     -10.335381      -281.2400
  16   2.0000     -10.334969      -281.2288
  17   2.0000     -10.334846      -281.2255
  18   2.0000     -10.333731      -281.1951
  19   2.0000     -10.324427      -280.9419
  20   2.0000     -10.321242      -280.8553
  21   2.0000     -10.317190      -280.7450
  22   2.0000     -10.317146      -280.7438
  23   2.0000     -10.314141      -280.6621
  24   2.0000     -10.313562      -280.6463
  25   2.0000     -10.313435      -280.6428
  26   2.0000     -10.311502      -280.5902
  27   2.0000     -10.309960      -280.5483
  28   2.0000     -10.306432      -280.4523
  29   2.0000     -10.305928      -280.4386
  30   2.0000     -10.305834      -280.4360
  31   2.0000     -10.303923      -280.3840
  32   2.0000     -10.303710      -280.3782
  33   2.0000     -10.303663      -280.3769
  34   2.0000     -10.303294      -280.3669
  35   2.0000     -10.302707      -280.3509
  36   2.0000     -10.301332      -280.3135
  37   2.0000     -10.301131      -280.3080
  38   2.0000     -10.300821      -280.2996
  39   2.0000     -10.300277      -280.2848
  40   2.0000     -10.299493      -280.2634
  41   2.0000     -10.298880      -280.2468
  42   2.0000     -10.297790      -280.2171
  43   2.0000     -10.296841      -280.1913
  44   2.0000     -10.295726      -280.1610
  45   2.0000     -10.295244      -280.1478
  46   2.0000     -10.295227      -280.1474
  47   2.0000     -10.294828      -280.1365
  48   2.0000     -10.294478      -280.1270
  49   2.0000     -10.293275      -280.0943
  50   2.0000     -10.292654      -280.0774
  51   2.0000     -10.292442      -280.0716
  52   2.0000     -10.292123      -280.0629
  53   2.0000     -10.291786      -280.0537
  54   2.0000     -10.291358      -280.0421
  55   2.0000     -10.290253      -280.0120
  56   2.0000     -10.290059      -280.0067
  57   2.0000     -10.288035      -279.9517
  58   2.0000     -10.286727      -279.9161
  59   2.0000     -10.285824      -279.8915
  60   2.0000     -10.284906      -279.8665
  61   2.0000     -10.282690      -279.8062
  62   2.0000     -10.280684      -279.7516
  63   2.0000     -10.280214      -279.7388
  64   2.0000     -10.277700      -279.6704
  65   2.0000     -10.277603      -279.6678
  66   2.0000     -10.277454      -279.6637
  67   2.0000     -10.276526      -279.6385
  68   2.0000     -10.275282      -279.6046
  69   2.0000     -10.272064      -279.5171
  70   2.0000     -10.271388      -279.4987
  71   2.0000     -10.271079      -279.4903
  72   2.0000     -10.270972      -279.4873
  73   2.0000     -10.270517      -279.4750
  74   2.0000     -10.269636      -279.4510
  75   2.0000     -10.268624      -279.4235
  76   2.0000     -10.266794      -279.3737
  77   2.0000     -10.258452      -279.1467
  78   2.0000      -8.081564      -219.9105
  79   2.0000      -8.073262      -219.6846
  80   2.0000      -8.062381      -219.3886
  81   2.0000      -8.052153      -219.1102
  82   2.0000      -6.051006      -164.6562
  83   2.0000      -6.046519      -164.5341
  84   2.0000      -6.043795      -164.4600
  85   2.0000      -6.042854      -164.4344
  86   2.0000      -6.038362      -164.3122
  87   2.0000      -6.035071      -164.2226
  88   2.0000      -6.031789      -164.1333
  89   2.0000      -6.027525      -164.0173
  90   2.0000      -6.024417      -163.9327
  91   2.0000      -6.021579      -163.8555
  92   2.0000      -6.017338      -163.7401
  93   2.0000      -6.014232      -163.6556
  94   2.0000      -1.125928       -30.6381
  95   2.0000      -1.105238       -30.0751
  96   2.0000      -1.097768       -29.8718
  97   2.0000      -1.061298       -28.8794
  98   2.0000      -1.018987       -27.7281
  99   2.0000      -1.013579       -27.5809
 100   2.0000      -1.010412       -27.4947
 101   2.0000      -0.998071       -27.1589
 102   2.0000      -0.996581       -27.1183
 103   2.0000      -0.989363       -26.9219
 104   2.0000      -0.980970       -26.6935
 105   2.0000      -0.979085       -26.6423
 106   2.0000      -0.978128       -26.6162
 107   2.0000      -0.972694       -26.4683
 108   2.0000      -0.972355       -26.4591
 109   2.0000      -0.952403       -25.9162
 110   2.0000      -0.940722       -25.5983
 111   2.0000      -0.934796       -25.4371
 112   2.0000      -0.927976       -25.2515
 113   2.0000      -0.918858       -25.0034
 114   2.0000      -0.911903       -24.8142
 115   2.0000      -0.907431       -24.6925
 116   2.0000      -0.900802       -24.5121
 117   2.0000      -0.894469       -24.3397
 118   2.0000      -0.891070       -24.2472
 119   2.0000      -0.885057       -24.0836
 120   2.0000      -0.883858       -24.0510
 121   2.0000      -0.872909       -23.7531
 122   2.0000      -0.870595       -23.6901
 123   2.0000      -0.863150       -23.4875
 124   2.0000      -0.861515       -23.4430
 125   2.0000      -0.857270       -23.3275
 126   2.0000      -0.849154       -23.1067
 127   2.0000      -0.848785       -23.0966
 128   2.0000      -0.832859       -22.6632
 129   2.0000      -0.827289       -22.5117
 130   2.0000      -0.821217       -22.3465
 131   2.0000      -0.819235       -22.2925
 132   2.0000      -0.810855       -22.0645
 133   2.0000      -0.807593       -21.9757
 134   2.0000      -0.795072       -21.6350
 135   2.0000      -0.788478       -21.4556
 136   2.0000      -0.773708       -21.0537
 137   2.0000      -0.761473       -20.7207
 138   2.0000      -0.755724       -20.5643
 139   2.0000      -0.744902       -20.2698
 140   2.0000      -0.740902       -20.1610
 141   2.0000      -0.734664       -19.9912
 142   2.0000      -0.727776       -19.8038
 143   2.0000      -0.715106       -19.4590
 144   2.0000      -0.708485       -19.2789
 145   2.0000      -0.706906       -19.2359
 146   2.0000      -0.703614       -19.1463
 147   2.0000      -0.699851       -19.0439
 148   2.0000      -0.690613       -18.7925
 149   2.0000      -0.686575       -18.6827
 150   2.0000      -0.682282       -18.5658
 151   2.0000      -0.677394       -18.4328
 152   2.0000      -0.674077       -18.3426
 153   2.0000      -0.671797       -18.2805
 154   2.0000      -0.668892       -18.2015
 155   2.0000      -0.661961       -18.0129
 156   2.0000      -0.660856       -17.9828
 157   2.0000      -0.657263       -17.8850
 158   2.0000      -0.652932       -17.7672
 159   2.0000      -0.645465       -17.5640
 160   2.0000      -0.637994       -17.3607
 161   2.0000      -0.628139       -17.0925
 162   2.0000      -0.627779       -17.0827
 163   2.0000      -0.625239       -17.0136
 164   2.0000      -0.619018       -16.8443
 165   2.0000      -0.613915       -16.7055
 166   2.0000      -0.610476       -16.6119
 167   2.0000      -0.601832       -16.3767
 168   2.0000      -0.599176       -16.3044
 169   2.0000      -0.593592       -16.1524
 170   2.0000      -0.588933       -16.0257
 171   2.0000      -0.582239       -15.8435
 172   2.0000      -0.581653       -15.8276
 173   2.0000      -0.576192       -15.6790
 174   2.0000      -0.571211       -15.5434
 175   2.0000      -0.568940       -15.4816
 176   2.0000      -0.564787       -15.3686
 177   2.0000      -0.563851       -15.3432
 178   2.0000      -0.560228       -15.2446
 179   2.0000      -0.558052       -15.1854
 180   2.0000      -0.551544       -15.0083
 181   2.0000      -0.547840       -14.9075
 182   2.0000      -0.542475       -14.7615
 183   2.0000      -0.541428       -14.7330
 184   2.0000      -0.538339       -14.6489
 185   2.0000      -0.536068       -14.5871
 186   2.0000      -0.531913       -14.4741
 187   2.0000      -0.531341       -14.4585
 188   2.0000      -0.530478       -14.4350
 189   2.0000      -0.529035       -14.3958
 190   2.0000      -0.526567       -14.3286
 191   2.0000      -0.522596       -14.2206
 192   2.0000      -0.521282       -14.1848
 193   2.0000      -0.519728       -14.1425
 194   2.0000      -0.517924       -14.0934
 195   2.0000      -0.517060       -14.0699
 196   2.0000      -0.516037       -14.0421
 197   2.0000      -0.514865       -14.0102
 198   2.0000      -0.514462       -13.9992
 199   2.0000      -0.511878       -13.9289
 200   2.0000      -0.504802       -13.7364
 201   2.0000      -0.502663       -13.6781
 202   2.0000      -0.501279       -13.6405
 203   2.0000      -0.496204       -13.5024
 204   2.0000      -0.495205       -13.4752
 205   2.0000      -0.494858       -13.4658
 206   2.0000      -0.490562       -13.3489
 207   2.0000      -0.488909       -13.3039
 208   2.0000      -0.486702       -13.2438
 209   2.0000      -0.484667       -13.1885
 210   2.0000      -0.482567       -13.1313
 211   2.0000      -0.476966       -12.9789
 212   2.0000      -0.475736       -12.9454
 213   2.0000      -0.471079       -12.8187
 214   2.0000      -0.470133       -12.7930
 215   2.0000      -0.468660       -12.7529
 216   2.0000      -0.468035       -12.7359
 217   2.0000      -0.467250       -12.7145
 218   2.0000      -0.466793       -12.7021
 219   2.0000      -0.458535       -12.4774
 220   2.0000      -0.453479       -12.3398
 221   2.0000      -0.450641       -12.2626
 222   2.0000      -0.448423       -12.2022
 223   2.0000      -0.446461       -12.1488
 224   2.0000      -0.445962       -12.1352
 225   2.0000      -0.444821       -12.1042
 226   2.0000      -0.442039       -12.0285
 227   2.0000      -0.441111       -12.0032
 228   2.0000      -0.438322       -11.9273
 229   2.0000      -0.436795       -11.8858
 230   2.0000      -0.433500       -11.7961
 231   2.0000      -0.433148       -11.7865
 232   2.0000      -0.431235       -11.7345
 233   2.0000      -0.429993       -11.7007
 234   2.0000      -0.428280       -11.6541
 235   2.0000      -0.427506       -11.6330
 236   2.0000      -0.426817       -11.6143
 237   2.0000      -0.424942       -11.5633
 238   2.0000      -0.421964       -11.4822
 239   2.0000      -0.421927       -11.4812
 240   2.0000      -0.421693       -11.4749
 241   2.0000      -0.419903       -11.4262
 242   2.0000      -0.416616       -11.3367
 243   2.0000      -0.415918       -11.3177
 244   2.0000      -0.415690       -11.3115
 245   2.0000      -0.413389       -11.2489
 246   2.0000      -0.412781       -11.2323
 247   2.0000      -0.406698       -11.0668
 248   2.0000      -0.400874       -10.9083
 249   2.0000      -0.400227       -10.8907
 250   2.0000      -0.396493       -10.7891
 251   2.0000      -0.388463       -10.5706
 252   2.0000      -0.385752       -10.4968
 253   2.0000      -0.382610       -10.4114
 254   2.0000      -0.376333       -10.2406
 255   2.0000      -0.372312       -10.1311
 256   2.0000      -0.368856       -10.0371
 257   2.0000      -0.356901        -9.7118
 258   2.0000      -0.348414        -9.4808
 259   2.0000      -0.337756        -9.1908
 260   2.0000      -0.336430        -9.1547
 261   2.0000      -0.330555        -8.9949
 262   2.0000      -0.326690        -8.8897
 263   2.0000      -0.315800        -8.5934
 264   2.0000      -0.312860        -8.5134
 265   2.0000      -0.306079        -8.3288
 266   2.0000      -0.300159        -8.1677
 267   2.0000      -0.297386        -8.0923
 268   2.0000      -0.295978        -8.0540
 269   2.0000      -0.290268        -7.8986
 270   2.0000      -0.283026        -7.7015
 271   2.0000      -0.277071        -7.5395
 272   2.0000      -0.262913        -7.1542
 273   2.0000      -0.235222        -6.4007
 274   2.0000      -0.210984        -5.7412
 275   0.0000      -0.105592        -2.8733
 276   0.0000      -0.086738        -2.3603
 277   0.0000      -0.063268        -1.7216
 278   0.0000      -0.052347        -1.4244
 279   0.0000      -0.046193        -1.2570

MULLIKEN ATOMIC CHARGES
-----------------------
   0 C :    0.217953
   1 C :   -0.355944
   2 C :   -0.171487
   3 N :    0.149341
   4 C :   -0.183497
   5 N :    0.161496
   6 C :    0.037723
   7 C :    0.017021
   8 C :   -0.089336
   9 C :    0.097832
  10 C :    0.091620
  11 C :   -0.092168
  12 C :   -0.057202
  13 C :    0.030107
  14 C :    0.038925
  15 C :   -0.015756
  16 C :    0.139961
  17 O :   -0.144724
  18 C :   -0.139172
  19 C :    0.096209
  20 C :   -0.141738
  21 C :   -0.006424
  22 C :    0.027379
  23 C :    0.087059
  24 C :   -0.119785
  25 S :    0.169780
  26 C :   -0.101979
  27 C :    0.037603
  28 C :    0.005769
  29 C :   -0.065683
  30 S :    0.142712
  31 C :    0.154299
  32 C :   -0.046717
  33 C :    0.025210
  34 C :    0.098102
  35 N :   -0.032595
  36 C :    0.131313
  37 C :   -0.162860
  38 C :    0.073031
  39 N :   -0.046438
  40 C :    0.129772
  41 C :   -0.177894
  42 C :    0.066564
  43 C :   -0.001062
  44 C :   -0.055303
  45 C :   -0.049161
  46 C :    0.082673
  47 C :    0.061863
  48 C :   -0.125476
  49 S :    0.129784
  50 C :   -0.121650
  51 C :    0.061001
  52 C :   -0.009279
  53 C :   -0.065395
  54 S :    0.124909
  55 C :    0.095695
  56 C :   -0.002143
  57 C :   -0.023827
  58 C :   -0.031364
  59 C :   -0.092078
  60 C :    0.347676
  61 C :   -0.374421
  62 C :   -0.188946
  63 N :    0.131688
  64 C :   -0.186675
  65 N :    0.116694
  66 C :    0.040830
  67 C :    0.002603
  68 C :    0.144267
  69 O :   -0.171627
  70 C :   -0.089014
  71 C :    0.098376
  72 C :    0.093931
  73 C :   -0.087377
  74 C :   -0.019441
  75 C :    0.032166
  76 C :    0.033055
  77 C :   -0.017701
  78 H :   -0.011983
  79 H :   -0.002820
  80 H :   -0.006293
  81 H :   -0.004507
  82 H :   -0.006898
  83 H :   -0.014379
  84 H :    0.023285
  85 H :    0.013441
  86 H :    0.039604
  87 H :   -0.016988
  88 H :    0.030159
  89 H :   -0.045893
  90 H :   -0.042394
  91 H :    0.125416
  92 H :   -0.020138
  93 H :    0.128084
  94 H :   -0.034694
  95 H :   -0.004650
  96 H :   -0.054526
  97 H :   -0.019041
  98 H :    0.036647
  99 H :    0.014936
 100 H :    0.028589
 101 H :   -0.021220
 102 H :    0.002497
 103 H :   -0.004363
 104 H :   -0.021600
 105 H :   -0.012970
 106 H :   -0.013243
 107 H :   -0.010370
 108 H :   -0.011648
 109 H :   -0.022694
Sum of atomic charges:   -0.0000000

LOEWDIN ATOMIC CHARGES
----------------------
   0 C :    0.054108
   1 C :   -0.152771
   2 C :   -0.021933
   3 N :   -0.060598
   4 C :   -0.018244
   5 N :   -0.056334
   6 C :   -0.020549
   7 C :   -0.051909
   8 C :    0.028575
   9 C :   -0.009817
  10 C :   -0.008948
  11 C :    0.005849
  12 C :   -0.023118
  13 C :   -0.022777
  14 C :   -0.015861
  15 C :   -0.004765
  16 C :    0.079441
  17 O :   -0.148712
  18 C :   -0.101147
  19 C :    0.050877
  20 C :   -0.195973
  21 C :    0.024949
  22 C :   -0.023836
  23 C :   -0.055845
  24 C :   -0.123528
  25 S :    0.465849
  26 C :   -0.177989
  27 C :   -0.042570
  28 C :   -0.060830
  29 C :   -0.159813
  30 S :    0.435206
  31 C :   -0.014876
  32 C :   -0.019299
  33 C :   -0.028003
  34 C :    0.016075
  35 N :    0.073011
  36 C :   -0.020331
  37 C :   -0.067843
  38 C :   -0.008413
  39 N :    0.067582
  40 C :   -0.001657
  41 C :   -0.095105
  42 C :    0.005083
  43 C :   -0.094587
  44 C :   -0.139935
  45 C :   -0.033795
  46 C :    0.018392
  47 C :   -0.045580
  48 C :   -0.147568
  49 S :    0.460762
  50 C :   -0.207742
  51 C :   -0.028977
  52 C :   -0.058572
  53 C :   -0.160841
  54 S :    0.420628
  55 C :   -0.071682
  56 C :    0.041683
  57 C :   -0.057346
  58 C :    0.065945
  59 C :   -0.120253
  60 C :    0.077860
  61 C :   -0.163080
  62 C :   -0.018341
  63 N :   -0.074763
  64 C :   -0.016944
  65 N :   -0.080670
  66 C :   -0.023109
  67 C :   -0.051022
  68 C :    0.082485
  69 O :   -0.167894
  70 C :    0.023380
  71 C :   -0.010295
  72 C :   -0.008832
  73 C :    0.014152
  74 C :   -0.007252
  75 C :   -0.019618
  76 C :   -0.018104
  77 C :   -0.012688
  78 H :    0.039274
  79 H :    0.038583
  80 H :    0.030857
  81 H :    0.024209
  82 H :    0.032618
  83 H :    0.033108
  84 H :    0.043524
  85 H :    0.039799
  86 H :    0.038628
  87 H :    0.029470
  88 H :    0.025677
  89 H :    0.027090
  90 H :    0.025878
  91 H :    0.091885
  92 H :    0.030855
  93 H :    0.082774
  94 H :    0.020563
  95 H :    0.039596
  96 H :    0.015402
  97 H :    0.036387
  98 H :    0.036689
  99 H :    0.039481
 100 H :    0.025001
 101 H :    0.030437
 102 H :    0.028907
 103 H :    0.037843
 104 H :    0.035483
 105 H :    0.037563
 106 H :    0.033122
 107 H :    0.030680
 108 H :    0.030011
 109 H :    0.029599

  Mayer bond orders larger than 0.100000
B(  0-C ,  1-C ) :   1.6229 B(  0-C ,  6-C ) :   0.9956 B(  0-C , 18-C ) :   1.0669
B(  1-C ,  2-C ) :   1.1476 B(  1-C ,  4-C ) :   1.1571 B(  2-C ,  3-N ) :   2.9637
B(  4-C ,  5-N ) :   3.0058 B(  6-C ,  7-C ) :   1.2235 B(  6-C , 11-C ) :   1.4641
B(  7-C ,  8-C ) :   1.4781 B(  7-C , 16-C ) :   0.9072 B(  8-C ,  9-C ) :   1.1757
B(  8-C , 78-H ) :   1.0153 B(  9-C , 10-C ) :   1.2705 B(  9-C , 15-C ) :   1.2446
B( 10-C , 11-C ) :   1.1950 B( 10-C , 12-C ) :   1.2386 B( 11-C , 79-H ) :   0.9907
B( 12-C , 13-C ) :   1.4745 B( 12-C , 80-H ) :   0.9895 B( 13-C , 14-C ) :   1.2676
B( 13-C , 81-H ) :   0.9780 B( 14-C , 15-C ) :   1.4861 B( 14-C , 82-H ) :   0.9894
B( 15-C , 83-H ) :   0.9973 B( 16-C , 17-O ) :   2.2805 B( 16-C , 18-C ) :   0.9564
B( 18-C , 19-C ) :   1.5826 B( 19-C , 20-C ) :   1.1744 B( 19-C , 84-H ) :   0.9430
B( 20-C , 21-C ) :   1.4370 B( 20-C , 25-S ) :   1.0356 B( 21-C , 22-C ) :   1.3446
B( 21-C , 85-H ) :   0.9564 B( 22-C , 23-C ) :   1.0518 B( 22-C , 31-C ) :   1.2995
B( 23-C , 24-C ) :   1.5919 B( 23-C , 26-C ) :   1.1894 B( 24-C , 25-S ) :   1.1610
B( 24-C , 86-H ) :   0.9371 B( 26-C , 27-C ) :   1.4168 B( 26-C , 30-S ) :   1.0925
B( 27-C , 28-C ) :   1.2113 B( 27-C , 31-C ) :   1.0983 B( 28-C , 29-C ) :   1.5960
B( 28-C , 87-H ) :   1.0011 B( 29-C , 30-S ) :   1.1468 B( 29-C , 88-H ) :   0.9653
B( 31-C , 32-C ) :   1.1957 B( 32-C , 33-C ) :   1.5903 B( 32-C , 89-H ) :   0.9531
B( 33-C , 34-C ) :   1.1361 B( 33-C , 90-H ) :   0.9725 B( 34-C , 35-N ) :   1.1804
B( 34-C , 41-C ) :   1.3660 B( 35-N , 36-C ) :   1.1596 B( 35-N , 91-H ) :   0.9353
B( 36-C , 37-C ) :   1.2673 B( 36-C , 40-C ) :   1.2910 B( 37-C , 38-C ) :   1.3234
B( 37-C , 92-H ) :   1.0402 B( 38-C , 39-N ) :   1.1764 B( 38-C , 42-C ) :   1.2096
B( 39-N , 40-C ) :   1.1781 B( 39-N , 93-H ) :   0.9233 B( 40-C , 41-C ) :   1.2800
B( 41-C , 94-H ) :   1.0225 B( 42-C , 43-C ) :   1.5917 B( 42-C , 95-H ) :   0.9515
B( 43-C , 44-C ) :   1.1402 B( 43-C , 96-H ) :   0.9583 B( 44-C , 45-C ) :   1.4903
B( 44-C , 49-S ) :   1.0755 B( 45-C , 46-C ) :   1.2997 B( 45-C , 97-H ) :   0.9618
B( 46-C , 47-C ) :   1.0628 B( 46-C , 55-C ) :   1.2939 B( 47-C , 48-C ) :   1.6002
B( 47-C , 50-C ) :   1.1761 B( 48-C , 49-S ) :   1.1375 B( 48-C , 98-H ) :   0.9396
B( 50-C , 51-C ) :   1.4573 B( 50-C , 54-S ) :   1.0762 B( 51-C , 52-C ) :   1.2246
B( 51-C , 55-C ) :   1.0661 B( 52-C , 53-C ) :   1.5823 B( 52-C , 99-H ) :   1.0003
B( 53-C , 54-S ) :   1.1554 B( 53-C ,100-H ) :   0.9632 B( 55-C , 56-C ) :   1.2163
B( 56-C , 57-C ) :   1.4249 B( 56-C ,101-H ) :   0.9733 B( 57-C , 58-C ) :   1.2565
B( 57-C ,102-H ) :   0.9955 B( 58-C , 59-C ) :   1.4148 B( 58-C ,103-H ) :   0.9639
B( 59-C , 60-C ) :   1.1103 B( 59-C , 68-C ) :   0.9711 B( 60-C , 61-C ) :   1.5750
B( 60-C , 66-C ) :   0.9757 B( 61-C , 62-C ) :   1.1545 B( 61-C , 64-C ) :   1.1566
B( 62-C , 63-N ) :   2.9563 B( 64-C , 65-N ) :   2.9511 B( 66-C , 67-C ) :   1.2160
B( 66-C , 73-C ) :   1.4626 B( 67-C , 68-C ) :   0.9387 B( 67-C , 70-C ) :   1.4805
B( 68-C , 69-O ) :   2.1830 B( 70-C , 71-C ) :   1.1708 B( 70-C ,104-H ) :   1.0150
B( 71-C , 72-C ) :   1.2617 B( 71-C , 77-C ) :   1.2470 B( 72-C , 73-C ) :   1.1963
B( 72-C , 74-C ) :   1.2450 B( 73-C ,105-H ) :   0.9880 B( 74-C , 75-C ) :   1.4852
B( 74-C ,106-H ) :   0.9962 B( 75-C , 76-C ) :   1.2622 B( 75-C ,107-H ) :   0.9888
B( 76-C , 77-C ) :   1.4853 B( 76-C ,108-H ) :   0.9891 B( 77-C ,109-H ) :   0.9968

-----------------------------------------------------------------------------
         ABSORPTION SPECTRUM VIA TRANSITION ELECTRIC DIPOLE MOMENTS
-----------------------------------------------------------------------------
State   Energy  Wavelength   fosc         T2         TX        TY        TZ
        (cm-1)    (nm)                  (au**2)     (au)      (au)      (au)
-----------------------------------------------------------------------------
   0    8266.2   1209.7   0.418935502  16.68463   0.32534   0.06018  -4.07126
   1   13168.1    759.4   1.198637242  29.96669  -0.65192  -1.59517   5.19588
   2   16993.9    588.4   0.048082807   0.93148   0.08927   0.85072  -0.44698
   3   17801.3    561.8   0.141786369   2.62216  -0.45756  -1.35552   0.75853
   4   19724.3    507.0   0.699291593  11.67164  -0.29213   3.37780   0.42045
   5   20254.4    493.7   0.176644400   2.87115   0.11431  -1.21426  -1.17629
   6   21040.4    475.3   0.097468732   1.52506   0.40658  -1.01040  -0.58210
   7   21660.5    461.7   0.103767555   1.57713   0.32634   0.21215  -1.19400
   8   22601.3    442.5   0.745107723  10.85328   0.14250  -3.13467   1.00339
   9   23437.3    426.7   0.054002512   0.75854  -0.29326   0.75650  -0.31662
  10   24136.8    414.3   0.005755014   0.07849  -0.15086  -0.01173  -0.23579
  11   24816.1    403.0   0.101750989   1.34983   0.15064   0.14320  -1.14308
  12   25229.7    396.4   0.123812239   1.61558   0.75791  -0.84287  -0.57509
  13   25639.0    390.0   0.253007574   3.24869  -0.43001   1.65156   0.57978
  14   25855.8    386.8   0.028646431   0.36474  -0.21526  -0.02944   0.56351
  15   26572.9    376.3   0.010942460   0.13557  -0.09722   0.30644  -0.17947
  16   27195.5    367.7   0.178456913   2.16029   0.00288  -0.10115  -1.46630
  17   27471.5    364.0   0.139552377   1.67236   0.00307   0.97853  -0.84548
  18   27517.1    363.4   0.106157007   1.27005  -0.47387   0.98624  -0.26986
  19   28144.4    355.3   0.008365916   0.09786   0.08173  -0.22881  -0.19704
  20   28491.0    351.0   0.000037635   0.00043   0.00797   0.01036   0.01625
  21   28875.5    346.3   0.074283841   0.84692   0.08589   0.43083  -0.80866
  22   29063.1    344.1   0.032462987   0.36772   0.29573  -0.50626   0.15483
  23   29379.9    340.4   0.080738290   0.90470   0.03566  -0.81431   0.49023
  24   29575.2    338.1   0.009375558   0.10436  -0.03553   0.20017  -0.25106
  25   30188.5    331.3   0.030730384   0.33512  -0.22935   0.47421  -0.24009
  26   30392.9    329.0   0.029158206   0.31584   0.52740  -0.08150  -0.17619
  27   30937.5    323.2   0.083259870   0.88598  -0.18799   0.58096  -0.71633
  28   31288.9    319.6   0.010499962   0.11048   0.10159   0.27555   0.15567
  29   31405.2    318.4   0.023597934   0.24737  -0.00808   0.06879  -0.49252
  30   31685.7    315.6   0.049374357   0.51300   0.64380  -0.18078  -0.25657
  31   32007.9    312.4   0.082185925   0.84531  -0.00033   0.10601  -0.91328
  32   32343.4    309.2   0.098326595   1.00083  -0.02773  -0.03648  -0.99937
  33   32616.9    306.6   0.050265113   0.50734   0.51186  -0.47162  -0.15138
  34   32739.2    305.4   0.016853800   0.16947  -0.08785   0.15070  -0.37289
  35   32961.3    303.4   0.000570127   0.00569  -0.01878   0.01011  -0.07238
  36   33295.0    300.3   0.116946358   1.15633   0.23537  -0.16805   1.03571
  37   33499.3    298.5   0.395331621   3.88509  -0.54956   1.82251   0.51139
  38   33531.9    298.2   0.675035168   6.62741   0.12209  -0.99997   2.36909
  39   33773.4    296.1   0.153979120   1.50094   0.23313  -1.15218   0.34505
  40   34228.5    292.2   0.147915674   1.42266  -0.09883   0.51064  -1.07338
  41   34488.1    290.0   0.126214218   1.20480  -0.16399   0.81962  -0.71142
  42   34667.5    288.5   0.225162700   2.13820   0.41344  -1.17099   0.77205
  43   35064.0    285.2   0.031319278   0.29405  -0.11491  -0.29217   0.44214
  44   35370.5    282.7   0.057365129   0.53393  -0.29136   0.66282   0.09852
  45   35487.5    281.8   0.051976744   0.48218  -0.08614   0.25853  -0.63869
  46   35568.5    281.1   0.095133420   0.88053  -0.03714   0.36809  -0.86236
  47   36111.7    276.9   0.063793832   0.58158  -0.28694   0.70231  -0.07753
  48   36185.2    276.4   0.161134672   1.46600   0.04298  -0.34265   1.16049
  49   36378.4    274.9   0.105231910   0.95231   0.53366  -0.79882   0.17150
  50   36781.0    271.9   0.078697022   0.70439  -0.31604   0.76185   0.15519
  51   37219.3    268.7   0.065543929   0.57975  -0.13629   0.30115  -0.68592
  52   37280.3    268.2   0.063308125   0.55906   0.33673  -0.66470   0.06201
  53   37546.6    266.3   0.056262864   0.49332   0.18044  -0.23239  -0.63777
  54   37845.8    264.2   0.008352845   0.07266   0.01516  -0.05080  -0.26429
  55   38160.8    262.0   0.061461812   0.53023   0.38684  -0.53845  -0.30109
  56   38367.7    260.6   0.129491282   1.11109  -0.36484   0.23879   0.95967
  57   38475.9    259.9   0.013377855   0.11447   0.22645   0.24748   0.04400
  58   38556.4    259.4   0.084222859   0.71913   0.41087  -0.68967  -0.27326
  59   38750.3    258.1   0.014908075   0.12665   0.25211  -0.03814  -0.24828
  60   38861.9    257.3   0.000053297   0.00045   0.01011  -0.01869  -0.00005
  61   38987.5    256.5   0.088870048   0.75042   0.49745  -0.39056  -0.59197
  62   39151.1    255.4   0.044982085   0.37824  -0.46043   0.31122  -0.26342
  63   39356.5    254.1   0.215288797   1.80086   0.58800  -1.20602   0.02494
  64   39405.7    253.8   0.053457703   0.44661  -0.11824  -0.61049   0.24481
  65   39452.9    253.5   0.011774281   0.09825   0.13976  -0.07113  -0.27140
  66   39744.3    251.6   0.020780080   0.17213  -0.25670   0.12206   0.30221
  67   39902.0    250.6   0.019687866   0.16244   0.15924   0.13059   0.34645
  68   40050.0    249.7   0.059170582   0.48638  -0.04775   0.55498  -0.41964
  69   40203.1    248.7   0.048633271   0.39824  -0.18778   0.58859   0.12862

FINAL SINGLE POINT ENERGY     -4601.543020716814

DIPOLE MOMENT
-------------
                                X             Y             Z
Electronic contribution:      0.39975      11.22482     -40.63726
Nuclear contribution   :      1.48664     -11.84166      39.06676
                        -----------------------------------------
Total Dipole Moment    :      1.88639      -0.61684      -1.57049
                        -----------------------------------------
Magnitude (a.u.)       :      2.53089
Magnitude (Debye)      :      6.43302

Rotational constants in cm-1:     0.001211     0.000236     0.000200
Rotational constants in MHz :    36.293311     7.069923     6.004842

                             ****ORCA TERMINATED NORMALLY****
TOTAL RUN TIME: 0 days 0 hours 14 minutes 11 seconds 872 msec
