                         Program Version 4.2.0 -  RELEASE  -
|  1> # ORCA input file
|  2> # SCF done       -195.412294614328          0.000485391557
|  3> ! CAM-B3LYP def2-SVP def2/J RIJCOSX Grid4 TightSCF
|  4> %maxcore 5000
|  5> %tddft
|  6>     Mode sTDDFT
|  7>     Ethresh 5.0
|  8>     maxcore 5000
|  9> end
| 10>
| 11> %pal
| 12>   nprocs 6
| 13>   end
| 14> * xyz 0 1
| 15>    C        0.68634         5.86980        -1.49098
| 16>    C        1.18458         6.76707        -0.59036
| 17>    C        1.80709         7.97769        -0.96077
| 18>    N        2.31071         8.97420        -1.22424
| 19>    C        1.01891         6.63979         0.80630
| 20>    N        0.81881         6.63328         1.93629
| 21>    C        0.58850         6.05876        -2.93356
| 22>    C       -0.39213         5.15832        -3.44938
| 23>    C       -0.70984         5.12782        -4.77813
| 24>    C       -0.04421         6.00173        -5.66551
| 25>    C        0.94471         6.89499        -5.15798
| 26>    C        1.24914         6.91033        -3.77742
| 27>    C        1.60692         7.75536        -6.05713
| 28>    C        1.30958         7.73571        -7.39266
| 29>    C        0.33703         6.85564        -7.89138
| 30>    C       -0.32641         6.00834        -7.04627
| 31>    C       -0.91654         4.32762        -2.35628
| 32>    O       -1.80177         3.50557        -2.38330
| 33>    C       -0.05488         4.66207        -1.17609
| 34>    C        0.03996         3.77861        -0.15350
| 35>    C        1.06955         3.70366         0.82712
| 36>    N        2.21325         4.35376         0.69159
| 37>    C        2.98225         3.96982         1.73490
| 38>    C        2.28119         3.00643         2.58658
| 39>    C        3.13345         2.59489         3.70029
| 40>    O        2.90229         1.78161         4.57638
| 41>    C        4.36016         3.39252         3.48836
| 42>    C        4.22591         4.20978         2.26437
| 43>    N        5.34697         4.94572         2.05325
| 44>    C        6.14070         4.65170         3.05057
| 45>    C        5.58502         3.68787         3.98771
| 46>    C        1.03658         2.83157         2.02410
| 47>    C       -0.06345         2.04526         2.44676
| 48>    C        0.02575         1.25113         3.54173
| 49>    N       -0.98967         0.49644         4.01649
| 50>    C       -0.87088        -0.45017         5.01750
| 51>    C        0.29360        -0.92716         5.55164
| 52>    S        0.01255        -2.14640         6.72420
| 53>    C       -1.68259        -2.02782         6.51822
| 54>    C       -2.02283        -1.08456         5.59134
| 55>    N       -3.32258        -0.69149         5.25936
| 56>    C       -4.40211        -1.49010         5.16615
| 57>    C       -4.39770        -2.84917         5.07759
| 58>    C       -5.61521        -3.55027         4.97277
| 59>    N       -6.79517        -2.94048         5.10020
| 60>    C       -7.72273        -3.89421         4.95297
| 61>    C       -7.11128        -5.20996         4.69416
| 62>    C       -8.15234        -6.25374         4.58936
| 63>    O       -8.00713        -7.44629         4.43809
| 64>    C       -9.39269        -5.48146         4.75314
| 65>    C       -9.09124        -4.05434         4.97363
| 66>    N      -10.22926        -3.34301         5.13500
| 67>    C      -11.20074        -4.22465         5.03079
| 68>    C      -10.75038        -5.57374         4.79580
| 69>    C       -5.75612        -5.00366         4.69940
| 70>    C       -4.68370        -5.90704         4.46241
| 71>    C       -4.83322        -7.11217         3.85652
| 72>    C       -3.71807        -7.95526         3.62372
| 73>    C       -3.73016        -9.07021         2.84005
| 74>    C       -2.63706       -10.00321         2.63389
| 75>    C       -1.32889        -9.83291         3.00932
| 76>    C       -0.30662       -10.77279         2.76161
| 77>    N        0.57144       -11.49342         2.59427
| 78>    C       -0.80623        -8.69139         3.65093
| 79>    N       -0.30582        -7.78960         4.15740
| 80>    C       -3.16502       -11.14691         1.89864
| 81>    C       -4.52240       -10.88316         1.55720
| 82>    C       -4.90986        -9.55595         2.07067
| 83>    O       -5.94899        -8.97191         1.86333
| 84>    C       -5.27512       -11.77432         0.84944
| 85>    C       -4.69625       -12.99893         0.44745
| 86>    C       -3.34145       -13.27494         0.79177
| 87>    C       -2.58552       -12.33075         1.52329
| 88>    C       -2.77424       -14.50036         0.38580
| 89>    C       -3.50732       -15.40891        -0.32763
| 90>    C       -4.84101       -15.13555        -0.66663
| 91>    C       -5.42282       -13.95654        -0.28686
| 92>    H       -1.45686         4.44143        -5.14843
| 93>    H        2.01019         7.58606        -3.41971
| 94>    H        2.35326         8.43236        -5.66865
| 95>    H        1.82269         8.39841        -8.07317
| 96>    H        0.11680         6.85236        -8.94831
| 97>    H       -1.07616         5.32880        -7.42417
| 98>    H       -0.69528         2.98148        -0.15376
| 99>    H        7.11344         5.10602         3.12458
|100>    H        6.07697         3.32038         4.86658
|101>    H       -0.98232         2.09329         1.87853
|102>    H        0.94632         1.20652         4.10589
|103>    H       -1.87510         0.53190         3.52654
|104>    H        1.29871        -0.63809         5.32191
|105>    H       -2.34239        -2.62763         7.11134
|106>    H       -3.47629         0.30655         5.20945
|107>    H       -5.35938        -0.98991         5.11008
|108>    H       -3.47041        -3.39948         5.05547
|109>    H      -12.22626        -3.91155         5.12436
|110>    H      -11.38036        -6.43376         4.68319
|111>    H       -3.68849        -5.57963         4.74039
|112>    H       -5.80727        -7.43925         3.52114
|113>    H       -2.79775        -7.68265         4.12644
|114>    H       -6.30129       -11.54753         0.60116
|115>    H       -1.56389       -12.57152         1.77131
|116>    H       -1.74678       -14.70592         0.64835
|117>    H       -3.06345       -16.34393        -0.63516
|118>    H       -5.40486       -15.86387        -1.23021
|119>    H       -6.44928       -13.74027        -0.54466
|120> *
|121>
|122>                          ****END OF INPUT****

CARTESIAN COORDINATES (ANGSTROEM)
---------------------------------
  C      0.686340    5.869800   -1.490980
  C      1.184580    6.767070   -0.590360
  C      1.807090    7.977690   -0.960770
  N      2.310710    8.974200   -1.224240
  C      1.018910    6.639790    0.806300
  N      0.818810    6.633280    1.936290
  C      0.588500    6.058760   -2.933560
  C     -0.392130    5.158320   -3.449380
  C     -0.709840    5.127820   -4.778130
  C     -0.044210    6.001730   -5.665510
  C      0.944710    6.894990   -5.157980
  C      1.249140    6.910330   -3.777420
  C      1.606920    7.755360   -6.057130
  C      1.309580    7.735710   -7.392660
  C      0.337030    6.855640   -7.891380
  C     -0.326410    6.008340   -7.046270
  C     -0.916540    4.327620   -2.356280
  O     -1.801770    3.505570   -2.383300
  C     -0.054880    4.662070   -1.176090
  C      0.039960    3.778610   -0.153500
  C      1.069550    3.703660    0.827120
  N      2.213250    4.353760    0.691590
  C      2.982250    3.969820    1.734900
  C      2.281190    3.006430    2.586580
  C      3.133450    2.594890    3.700290
  O      2.902290    1.781610    4.576380
  C      4.360160    3.392520    3.488360
  C      4.225910    4.209780    2.264370
  N      5.346970    4.945720    2.053250
  C      6.140700    4.651700    3.050570
  C      5.585020    3.687870    3.987710
  C      1.036580    2.831570    2.024100
  C     -0.063450    2.045260    2.446760
  C      0.025750    1.251130    3.541730
  N     -0.989670    0.496440    4.016490
  C     -0.870880   -0.450170    5.017500
  C      0.293600   -0.927160    5.551640
  S      0.012550   -2.146400    6.724200
  C     -1.682590   -2.027820    6.518220
  C     -2.022830   -1.084560    5.591340
  N     -3.322580   -0.691490    5.259360
  C     -4.402110   -1.490100    5.166150
  C     -4.397700   -2.849170    5.077590
  C     -5.615210   -3.550270    4.972770
  N     -6.795170   -2.940480    5.100200
  C     -7.722730   -3.894210    4.952970
  C     -7.111280   -5.209960    4.694160
  C     -8.152340   -6.253740    4.589360
  O     -8.007130   -7.446290    4.438090
  C     -9.392690   -5.481460    4.753140
  C     -9.091240   -4.054340    4.973630
  N    -10.229260   -3.343010    5.135000
  C    -11.200740   -4.224650    5.030790
  C    -10.750380   -5.573740    4.795800
  C     -5.756120   -5.003660    4.699400
  C     -4.683700   -5.907040    4.462410
  C     -4.833220   -7.112170    3.856520
  C     -3.718070   -7.955260    3.623720
  C     -3.730160   -9.070210    2.840050
  C     -2.637060  -10.003210    2.633890
  C     -1.328890   -9.832910    3.009320
  C     -0.306620  -10.772790    2.761610
  N      0.571440  -11.493420    2.594270
  C     -0.806230   -8.691390    3.650930
  N     -0.305820   -7.789600    4.157400
  C     -3.165020  -11.146910    1.898640
  C     -4.522400  -10.883160    1.557200
  C     -4.909860   -9.555950    2.070670
  O     -5.948990   -8.971910    1.863330
  C     -5.275120  -11.774320    0.849440
  C     -4.696250  -12.998930    0.447450
  C     -3.341450  -13.274940    0.791770
  C     -2.585520  -12.330750    1.523290
  C     -2.774240  -14.500360    0.385800
  C     -3.507320  -15.408910   -0.327630
  C     -4.841010  -15.135550   -0.666630
  C     -5.422820  -13.956540   -0.286860
  H     -1.456860    4.441430   -5.148430
  H      2.010190    7.586060   -3.419710
  H      2.353260    8.432360   -5.668650
  H      1.822690    8.398410   -8.073170
  H      0.116800    6.852360   -8.948310
  H     -1.076160    5.328800   -7.424170
  H     -0.695280    2.981480   -0.153760
  H      7.113440    5.106020    3.124580
  H      6.076970    3.320380    4.866580
  H     -0.982320    2.093290    1.878530
  H      0.946320    1.206520    4.105890
  H     -1.875100    0.531900    3.526540
  H      1.298710   -0.638090    5.321910
  H     -2.342390   -2.627630    7.111340
  H     -3.476290    0.306550    5.209450
  H     -5.359380   -0.989910    5.110080
  H     -3.470410   -3.399480    5.055470
  H    -12.226260   -3.911550    5.124360
  H    -11.380360   -6.433760    4.683190
  H     -3.688490   -5.579630    4.740390
  H     -5.807270   -7.439250    3.521140
  H     -2.797750   -7.682650    4.126440
  H     -6.301290  -11.547530    0.601160
  H     -1.563890  -12.571520    1.771310
  H     -1.746780  -14.705920    0.648350
  H     -3.063450  -16.343930   -0.635160
  H     -5.404860  -15.863870   -1.230210
  H     -6.449280  -13.740270   -0.544660

 Total Charge           Charge          ....    0
 Multiplicity           Mult            ....    1
 Number of Electrons    NEL             ....  518
 Basis Dimension        Dim             .... 1222

ORBITAL ENERGIES
----------------

  NO   OCC          E(Eh)            E(eV)
   0   2.0000     -88.972600     -2421.0675
   1   2.0000     -19.228325      -523.2293
   2   2.0000     -19.214189      -522.8447
   3   2.0000     -19.209313      -522.7120
   4   2.0000     -19.200590      -522.4746
   5   2.0000     -14.492822      -394.3697
   6   2.0000     -14.477491      -393.9526
   7   2.0000     -14.421170      -392.4200
   8   2.0000     -14.420809      -392.4102
   9   2.0000     -14.415819      -392.2744
  10   2.0000     -14.414415      -392.2362
  11   2.0000     -14.411452      -392.1555
  12   2.0000     -14.406498      -392.0207
  13   2.0000     -14.395263      -391.7150
  14   2.0000     -14.391065      -391.6008
  15   2.0000     -10.377976      -282.3991
  16   2.0000     -10.372635      -282.2538
  17   2.0000     -10.361651      -281.9549
  18   2.0000     -10.360045      -281.9111
  19   2.0000     -10.355436      -281.7857
  20   2.0000     -10.351641      -281.6825
  21   2.0000     -10.348470      -281.5962
  22   2.0000     -10.343614      -281.4640
  23   2.0000     -10.339263      -281.3457
  24   2.0000     -10.338878      -281.3352
  25   2.0000     -10.338513      -281.3252
  26   2.0000     -10.338219      -281.3172
  27   2.0000     -10.337273      -281.2915
  28   2.0000     -10.334155      -281.2066
  29   2.0000     -10.332732      -281.1679
  30   2.0000     -10.325386      -280.9680
  31   2.0000     -10.324518      -280.9444
  32   2.0000     -10.323532      -280.9176
  33   2.0000     -10.321863      -280.8722
  34   2.0000     -10.321697      -280.8676
  35   2.0000     -10.320589      -280.8375
  36   2.0000     -10.318682      -280.7856
  37   2.0000     -10.317567      -280.7553
  38   2.0000     -10.314542      -280.6730
  39   2.0000     -10.312843      -280.6267
  40   2.0000     -10.310401      -280.5603
  41   2.0000     -10.309803      -280.5440
  42   2.0000     -10.309166      -280.5267
  43   2.0000     -10.307526      -280.4820
  44   2.0000     -10.306300      -280.4487
  45   2.0000     -10.304467      -280.3988
  46   2.0000     -10.303300      -280.3671
  47   2.0000     -10.302750      -280.3521
  48   2.0000     -10.302240      -280.3382
  49   2.0000     -10.301649      -280.3221
  50   2.0000     -10.301010      -280.3047
  51   2.0000     -10.300349      -280.2867
  52   2.0000     -10.298799      -280.2446
  53   2.0000     -10.297002      -280.1957
  54   2.0000     -10.294173      -280.1187
  55   2.0000     -10.293866      -280.1103
  56   2.0000     -10.293618      -280.1036
  57   2.0000     -10.292989      -280.0865
  58   2.0000     -10.292194      -280.0648
  59   2.0000     -10.291398      -280.0432
  60   2.0000     -10.291065      -280.0341
  61   2.0000     -10.290772      -280.0261
  62   2.0000     -10.290618      -280.0219
  63   2.0000     -10.290273      -280.0126
  64   2.0000     -10.289464      -279.9905
  65   2.0000     -10.288270      -279.9581
  66   2.0000     -10.283449      -279.8269
  67   2.0000     -10.283297      -279.8227
  68   2.0000     -10.282578      -279.8032
  69   2.0000     -10.282411      -279.7986
  70   2.0000     -10.282022      -279.7880
  71   2.0000     -10.281844      -279.7832
  72   2.0000     -10.281699      -279.7792
  73   2.0000     -10.281446      -279.7724
  74   2.0000     -10.278423      -279.6901
  75   2.0000     -10.274315      -279.5783
  76   2.0000     -10.273416      -279.5539
  77   2.0000      -8.068424      -219.5530
  78   2.0000      -6.037774      -164.2962
  79   2.0000      -6.033385      -164.1767
  80   2.0000      -6.030632      -164.1018
  81   2.0000      -1.142880       -31.0993
  82   2.0000      -1.126809       -30.6620
  83   2.0000      -1.124717       -30.6051
  84   2.0000      -1.115706       -30.3599
  85   2.0000      -1.096309       -29.8321
  86   2.0000      -1.082983       -29.4695
  87   2.0000      -1.070515       -29.1302
  88   2.0000      -1.066628       -29.0244
  89   2.0000      -1.061487       -28.8845
  90   2.0000      -1.044990       -28.4356
  91   2.0000      -1.022069       -27.8119
  92   2.0000      -1.014923       -27.6175
  93   2.0000      -1.003434       -27.3048
  94   2.0000      -0.996061       -27.1042
  95   2.0000      -0.994888       -27.0723
  96   2.0000      -0.990970       -26.9657
  97   2.0000      -0.989452       -26.9244
  98   2.0000      -0.977386       -26.5960
  99   2.0000      -0.967667       -26.3315
 100   2.0000      -0.940805       -25.6006
 101   2.0000      -0.931302       -25.3420
 102   2.0000      -0.927860       -25.2484
 103   2.0000      -0.927638       -25.2423
 104   2.0000      -0.917763       -24.9736
 105   2.0000      -0.917086       -24.9552
 106   2.0000      -0.906073       -24.6555
 107   2.0000      -0.895802       -24.3760
 108   2.0000      -0.888598       -24.1800
 109   2.0000      -0.886673       -24.1276
 110   2.0000      -0.879424       -23.9303
 111   2.0000      -0.877396       -23.8752
 112   2.0000      -0.869616       -23.6635
 113   2.0000      -0.858073       -23.3494
 114   2.0000      -0.855693       -23.2846
 115   2.0000      -0.844152       -22.9705
 116   2.0000      -0.835669       -22.7397
 117   2.0000      -0.833598       -22.6833
 118   2.0000      -0.827279       -22.5114
 119   2.0000      -0.824262       -22.4293
 120   2.0000      -0.815830       -22.1999
 121   2.0000      -0.810121       -22.0445
 122   2.0000      -0.785782       -21.3822
 123   2.0000      -0.772115       -21.0103
 124   2.0000      -0.771119       -20.9832
 125   2.0000      -0.766230       -20.8502
 126   2.0000      -0.757165       -20.6035
 127   2.0000      -0.755689       -20.5633
 128   2.0000      -0.746893       -20.3240
 129   2.0000      -0.732855       -19.9420
 130   2.0000      -0.725419       -19.7396
 131   2.0000      -0.723003       -19.6739
 132   2.0000      -0.713561       -19.4170
 133   2.0000      -0.711138       -19.3511
 134   2.0000      -0.705581       -19.1998
 135   2.0000      -0.699728       -19.0406
 136   2.0000      -0.696326       -18.9480
 137   2.0000      -0.691992       -18.8300
 138   2.0000      -0.683338       -18.5946
 139   2.0000      -0.682217       -18.5641
 140   2.0000      -0.680454       -18.5161
 141   2.0000      -0.676745       -18.4152
 142   2.0000      -0.670803       -18.2535
 143   2.0000      -0.663834       -18.0639
 144   2.0000      -0.652638       -17.7592
 145   2.0000      -0.646532       -17.5930
 146   2.0000      -0.642185       -17.4747
 147   2.0000      -0.639380       -17.3984
 148   2.0000      -0.635206       -17.2848
 149   2.0000      -0.634425       -17.2636
 150   2.0000      -0.622651       -16.9432
 151   2.0000      -0.619311       -16.8523
 152   2.0000      -0.614484       -16.7210
 153   2.0000      -0.612655       -16.6712
 154   2.0000      -0.608392       -16.5552
 155   2.0000      -0.603521       -16.4226
 156   2.0000      -0.603039       -16.4095
 157   2.0000      -0.601832       -16.3767
 158   2.0000      -0.596539       -16.2326
 159   2.0000      -0.591648       -16.0996
 160   2.0000      -0.583506       -15.8780
 161   2.0000      -0.573288       -15.6000
 162   2.0000      -0.570970       -15.5369
 163   2.0000      -0.564024       -15.3479
 164   2.0000      -0.558368       -15.1940
 165   2.0000      -0.553027       -15.0486
 166   2.0000      -0.551182       -14.9984
 167   2.0000      -0.550741       -14.9864
 168   2.0000      -0.549527       -14.9534
 169   2.0000      -0.546847       -14.8805
 170   2.0000      -0.543059       -14.7774
 171   2.0000      -0.542352       -14.7581
 172   2.0000      -0.540939       -14.7197
 173   2.0000      -0.537223       -14.6186
 174   2.0000      -0.536818       -14.6075
 175   2.0000      -0.536281       -14.5929
 176   2.0000      -0.530204       -14.4276
 177   2.0000      -0.529580       -14.4106
 178   2.0000      -0.528916       -14.3925
 179   2.0000      -0.527691       -14.3592
 180   2.0000      -0.526297       -14.3213
 181   2.0000      -0.524124       -14.2621
 182   2.0000      -0.518375       -14.1057
 183   2.0000      -0.517069       -14.0702
 184   2.0000      -0.512861       -13.9557
 185   2.0000      -0.512383       -13.9427
 186   2.0000      -0.510522       -13.8920
 187   2.0000      -0.508644       -13.8409
 188   2.0000      -0.507519       -13.8103
 189   2.0000      -0.504741       -13.7347
 190   2.0000      -0.501950       -13.6588
 191   2.0000      -0.497522       -13.5383
 192   2.0000      -0.496548       -13.5118
 193   2.0000      -0.496091       -13.4993
 194   2.0000      -0.493944       -13.4409
 195   2.0000      -0.493060       -13.4168
 196   2.0000      -0.487339       -13.2612
 197   2.0000      -0.485336       -13.2067
 198   2.0000      -0.484889       -13.1945
 199   2.0000      -0.482494       -13.1293
 200   2.0000      -0.481499       -13.1023
 201   2.0000      -0.479819       -13.0565
 202   2.0000      -0.475426       -12.9370
 203   2.0000      -0.471546       -12.8314
 204   2.0000      -0.471087       -12.8189
 205   2.0000      -0.467762       -12.7285
 206   2.0000      -0.463433       -12.6106
 207   2.0000      -0.462046       -12.5729
 208   2.0000      -0.461617       -12.5612
 209   2.0000      -0.461065       -12.5462
 210   2.0000      -0.455222       -12.3872
 211   2.0000      -0.451943       -12.2980
 212   2.0000      -0.450137       -12.2488
 213   2.0000      -0.448621       -12.2076
 214   2.0000      -0.447172       -12.1682
 215   2.0000      -0.446543       -12.1511
 216   2.0000      -0.444276       -12.0894
 217   2.0000      -0.442254       -12.0343
 218   2.0000      -0.441839       -12.0230
 219   2.0000      -0.437513       -11.9053
 220   2.0000      -0.436832       -11.8868
 221   2.0000      -0.435652       -11.8547
 222   2.0000      -0.430722       -11.7205
 223   2.0000      -0.430230       -11.7072
 224   2.0000      -0.428324       -11.6553
 225   2.0000      -0.426956       -11.6180
 226   2.0000      -0.423345       -11.5198
 227   2.0000      -0.422120       -11.4865
 228   2.0000      -0.416091       -11.3224
 229   2.0000      -0.416076       -11.3220
 230   2.0000      -0.406237       -11.0543
 231   2.0000      -0.403644       -10.9837
 232   2.0000      -0.389771       -10.6062
 233   2.0000      -0.387686       -10.5495
 234   2.0000      -0.384034       -10.4501
 235   2.0000      -0.372242       -10.1292
 236   2.0000      -0.371649       -10.1131
 237   2.0000      -0.369284       -10.0487
 238   2.0000      -0.364382        -9.9153
 239   2.0000      -0.355245        -9.6667
 240   2.0000      -0.352009        -9.5786
 241   2.0000      -0.346893        -9.4394
 242   2.0000      -0.346425        -9.4267
 243   2.0000      -0.341138        -9.2828
 244   2.0000      -0.337022        -9.1708
 245   2.0000      -0.333406        -9.0724
 246   2.0000      -0.327642        -8.9156
 247   2.0000      -0.326824        -8.8933
 248   2.0000      -0.322203        -8.7676
 249   2.0000      -0.321607        -8.7514
 250   2.0000      -0.319175        -8.6852
 251   2.0000      -0.318624        -8.6702
 252   2.0000      -0.313050        -8.5185
 253   2.0000      -0.312812        -8.5120
 254   2.0000      -0.297466        -8.0945
 255   2.0000      -0.293062        -7.9746
 256   2.0000      -0.282012        -7.6739
 257   2.0000      -0.269991        -7.3468
 258   2.0000      -0.258669        -7.0387
 259   0.0000      -0.128867        -3.5067
 260   0.0000      -0.108660        -2.9568
 261   0.0000      -0.083143        -2.2624
 262   0.0000      -0.077130        -2.0988
 263   0.0000      -0.058488        -1.5916

MULLIKEN ATOMIC CHARGES
-----------------------
   0 C :    0.263878
   1 C :   -0.261313
   2 C :   -0.187982
   3 N :    0.162485
   4 C :   -0.178204
   5 N :    0.160642
   6 C :    0.043279
   7 C :    0.005968
   8 C :   -0.074461
   9 C :    0.092619
  10 C :    0.093731
  11 C :   -0.078646
  12 C :   -0.016653
  13 C :    0.037808
  14 C :    0.035851
  15 C :   -0.013454
  16 C :    0.136031
  17 O :   -0.133809
  18 C :   -0.067184
  19 C :   -0.011362
  20 C :    0.030365
  21 N :   -0.053144
  22 C :    0.090753
  23 C :   -0.182917
  24 C :    0.222944
  25 O :   -0.170372
  26 C :   -0.000859
  27 C :   -0.035046
  28 N :   -0.054675
  29 C :    0.090997
  30 C :   -0.100054
  31 C :    0.076168
  32 C :   -0.070437
  33 C :    0.078444
  34 N :   -0.031045
  35 C :    0.120691
  36 C :   -0.205288
  37 S :    0.159205
  38 C :   -0.157856
  39 C :    0.102225
  40 N :   -0.053603
  41 C :    0.108529
  42 C :   -0.124309
  43 C :    0.063864
  44 N :   -0.073211
  45 C :    0.063068
  46 C :   -0.144268
  47 C :    0.207516
  48 O :   -0.131579
  49 C :   -0.024942
  50 C :   -0.044350
  51 N :   -0.063660
  52 C :    0.081293
  53 C :   -0.096695
  54 C :    0.051770
  55 C :   -0.029019
  56 C :    0.027929
  57 C :   -0.045289
  58 C :   -0.063098
  59 C :    0.327588
  60 C :   -0.351841
  61 C :   -0.180893
  62 N :    0.144895
  63 C :   -0.192211
  64 N :    0.142829
  65 C :    0.046851
  66 C :   -0.000537
  67 C :    0.143375
  68 O :   -0.132227
  69 C :   -0.080385
  70 C :    0.099226
  71 C :    0.095638
  72 C :   -0.084322
  73 C :   -0.018909
  74 C :    0.036291
  75 C :    0.034397
  76 C :   -0.015340
  77 H :   -0.009573
  78 H :   -0.001383
  79 H :   -0.008329
  80 H :   -0.001900
  81 H :   -0.002625
  82 H :   -0.015610
  83 H :    0.016763
  84 H :    0.010123
  85 H :   -0.004664
  86 H :   -0.035197
  87 H :    0.035838
  88 H :    0.115525
  89 H :    0.046036
  90 H :    0.031644
  91 H :    0.148695
  92 H :    0.046535
  93 H :    0.001946
  94 H :    0.000417
  95 H :   -0.012573
  96 H :   -0.006310
  97 H :    0.049302
  98 H :    0.011876
  99 H :   -0.011570
 100 H :   -0.008943
 101 H :   -0.010154
 102 H :   -0.006654
 103 H :   -0.005212
 104 H :   -0.017696
Sum of atomic charges:   -0.0000000

LOEWDIN ATOMIC CHARGES
----------------------
   0 C :    0.063030
   1 C :   -0.096167
   2 C :   -0.014707
   3 N :   -0.039046
   4 C :   -0.014033
   5 N :   -0.045883
   6 C :   -0.018888
   7 C :   -0.061376
   8 C :    0.037218
   9 C :   -0.009645
  10 C :   -0.002232
  11 C :    0.017509
  12 C :   -0.005660
  13 C :   -0.009381
  14 C :   -0.012013
  15 C :   -0.007744
  16 C :    0.085261
  17 O :   -0.132424
  18 C :   -0.020643
  19 C :    0.027615
  20 C :    0.056981
  21 N :   -0.073974
  22 C :    0.052361
  23 C :   -0.088512
  24 C :    0.075456
  25 O :   -0.163675
  26 C :   -0.038295
  27 C :    0.027387
  28 N :   -0.093525
  29 C :    0.074849
  30 C :   -0.028671
  31 C :    0.000828
  32 C :   -0.119146
  33 C :    0.086445
  34 N :    0.040163
  35 C :   -0.028777
  36 C :   -0.217253
  37 S :    0.479871
  38 C :   -0.195323
  39 C :   -0.049618
  40 N :    0.048438
  41 C :    0.111879
  42 C :   -0.133145
  43 C :    0.080865
  44 N :   -0.140053
  45 C :    0.047115
  46 C :   -0.017463
  47 C :    0.062776
  48 O :   -0.136230
  49 C :   -0.046082
  50 C :    0.003125
  51 N :   -0.103130
  52 C :    0.059486
  53 C :   -0.047123
  54 C :   -0.042301
  55 C :    0.012632
  56 C :    0.003103
  57 C :    0.064935
  58 C :   -0.084171
  59 C :    0.077571
  60 C :   -0.141030
  61 C :   -0.017177
  62 N :   -0.055933
  63 C :   -0.018668
  64 N :   -0.058842
  65 C :   -0.026210
  66 C :   -0.053746
  67 C :    0.082705
  68 O :   -0.127979
  69 C :    0.031588
  70 C :   -0.007491
  71 C :   -0.006919
  72 C :    0.018951
  73 C :   -0.005738
  74 C :   -0.014650
  75 C :   -0.012925
  76 C :   -0.009621
  77 H :    0.040324
  78 H :    0.040336
  79 H :    0.035405
  80 H :    0.034291
  81 H :    0.033701
  82 H :    0.032530
  83 H :    0.045533
  84 H :    0.023959
  85 H :    0.034408
  86 H :    0.021571
  87 H :    0.034399
  88 H :    0.082463
  89 H :    0.033130
  90 H :    0.029947
  91 H :    0.093578
  92 H :    0.044775
  93 H :    0.029560
  94 H :    0.019847
  95 H :    0.031407
  96 H :    0.031712
  97 H :    0.039886
  98 H :    0.040946
  99 H :    0.039566
 100 H :    0.038551
 101 H :    0.034296
 102 H :    0.032553
 103 H :    0.032495
 104 H :    0.031931

  Mayer bond orders larger than 0.100000
B(  0-C ,  1-C ) :   1.7108 B(  0-C ,  6-C ) :   0.9995 B(  0-C , 18-C ) :   1.0100
B(  1-C ,  2-C ) :   1.1404 B(  1-C ,  4-C ) :   1.1490 B(  2-C ,  3-N ) :   2.9855
B(  4-C ,  5-N ) :   2.9844 B(  6-C ,  7-C ) :   1.2068 B(  6-C , 11-C ) :   1.4588
B(  7-C ,  8-C ) :   1.4649 B(  7-C , 16-C ) :   0.9286 B(  8-C ,  9-C ) :   1.1927
B(  8-C , 77-H ) :   1.0162 B(  9-C , 10-C ) :   1.2538 B(  9-C , 15-C ) :   1.2419
B( 10-C , 11-C ) :   1.2063 B( 10-C , 12-C ) :   1.2405 B( 11-C , 78-H ) :   0.9944
B( 12-C , 13-C ) :   1.4912 B( 12-C , 79-H ) :   0.9980 B( 13-C , 14-C ) :   1.2583
B( 13-C , 80-H ) :   0.9888 B( 14-C , 15-C ) :   1.4910 B( 14-C , 81-H ) :   0.9888
B( 15-C , 82-H ) :   0.9983 B( 16-C , 17-O ) :   2.2698 B( 16-C , 18-C ) :   0.9136
B( 18-C , 19-C ) :   1.7198 B( 19-C , 20-C ) :   1.0639 B( 19-C , 83-H ) :   0.9408
B( 20-C , 21-N ) :   1.5805 B( 20-C , 22-C ) :   0.1091 B( 20-C , 31-C ) :   1.0177
B( 21-N , 22-C ) :   1.2993 B( 22-C , 23-C ) :   1.0661 B( 22-C , 27-C ) :   1.4469
B( 23-C , 24-C ) :   0.9283 B( 23-C , 31-C ) :   1.4990 B( 24-C , 25-O ) :   2.1319
B( 24-C , 26-C ) :   0.9359 B( 25-O , 87-H ) :   0.1205 B( 26-C , 27-C ) :   1.0690
B( 26-C , 30-C ) :   1.6185 B( 27-C , 28-N ) :   1.2942 B( 28-N , 29-C ) :   1.6784
B( 29-C , 30-C ) :   1.0499 B( 29-C , 84-H ) :   0.9886 B( 30-C , 85-H ) :   1.0119
B( 31-C , 32-C ) :   1.1930 B( 32-C , 33-C ) :   1.5803 B( 32-C , 86-H ) :   0.9510
B( 33-C , 34-N ) :   1.2053 B( 33-C , 87-H ) :   0.9347 B( 34-N , 35-C ) :   1.1108
B( 34-N , 88-H ) :   0.9163 B( 35-C , 36-C ) :   1.5182 B( 35-C , 39-C ) :   1.2692
B( 36-C , 37-S ) :   1.1577 B( 36-C , 89-H ) :   0.9704 B( 37-S , 38-C ) :   1.1965
B( 38-C , 39-C ) :   1.5239 B( 38-C , 90-H ) :   0.9759 B( 39-C , 40-N ) :   1.0153
B( 40-N , 41-C ) :   1.2618 B( 40-N , 91-H ) :   0.9234 B( 41-C , 42-C ) :   1.5428
B( 41-C , 92-H ) :   0.9489 B( 42-C , 43-C ) :   1.2453 B( 42-C , 93-H ) :   0.9494
B( 43-C , 44-N ) :   1.5195 B( 43-C , 45-C ) :   0.1077 B( 43-C , 54-C ) :   1.0011
B( 44-N , 45-C ) :   1.4110 B( 45-C , 46-C ) :   1.0512 B( 45-C , 50-C ) :   1.3621
B( 46-C , 47-C ) :   0.8817 B( 46-C , 54-C ) :   1.5753 B( 47-C , 48-O ) :   2.2346
B( 47-C , 49-C ) :   0.9242 B( 49-C , 50-C ) :   1.0791 B( 49-C , 53-C ) :   1.5648
B( 50-C , 51-N ) :   1.3445 B( 51-N , 52-C ) :   1.6200 B( 52-C , 53-C ) :   1.1103
B( 52-C , 94-H ) :   0.9899 B( 53-C , 95-H ) :   1.0111 B( 54-C , 55-C ) :   1.0773
B( 55-C , 56-C ) :   1.6163 B( 55-C , 96-H ) :   0.9721 B( 56-C , 57-C ) :   1.1344
B( 56-C , 97-H ) :   0.9671 B( 57-C , 58-C ) :   1.5684 B( 57-C , 98-H ) :   0.9621
B( 58-C , 59-C ) :   1.0568 B( 58-C , 67-C ) :   0.9305 B( 59-C , 60-C ) :   1.6269
B( 59-C , 65-C ) :   0.9914 B( 60-C , 61-C ) :   1.1443 B( 60-C , 63-C ) :   1.1473
B( 61-C , 62-N ) :   2.9659 B( 63-C , 64-N ) :   2.9712 B( 65-C , 66-C ) :   1.2164
B( 65-C , 72-C ) :   1.4453 B( 66-C , 67-C ) :   0.9352 B( 66-C , 69-C ) :   1.4757
B( 67-C , 68-O ) :   2.2287 B( 69-C , 70-C ) :   1.1790 B( 69-C , 99-H ) :   1.0153
B( 70-C , 71-C ) :   1.2585 B( 70-C , 76-C ) :   1.2439 B( 71-C , 72-C ) :   1.2091
B( 71-C , 73-C ) :   1.2381 B( 72-C ,100-H ) :   0.9895 B( 73-C , 74-C ) :   1.4910
B( 73-C ,101-H ) :   0.9971 B( 74-C , 75-C ) :   1.2599 B( 74-C ,102-H ) :   0.9882
B( 75-C , 76-C ) :   1.4891 B( 75-C ,103-H ) :   0.9884 B( 76-C ,104-H ) :   0.9975

-----------------------------------------------------------------------------
         ABSORPTION SPECTRUM VIA TRANSITION ELECTRIC DIPOLE MOMENTS
-----------------------------------------------------------------------------
State   Energy  Wavelength   fosc         T2         TX        TY        TZ
        (cm-1)    (nm)                  (au**2)     (au)      (au)      (au)
-----------------------------------------------------------------------------
   0   11065.9    903.7   0.052677914   1.56718  -1.14509  -0.48483  -0.14450
   1   19522.0    512.2   0.355808795   6.00024  -1.82413  -1.63328   0.07198
   2   19711.7    507.3   0.068072647   1.13690  -0.93411   0.23946  -0.45497
   3   20487.7    488.1   0.639778289  10.28044   2.71457  -1.47774  -0.85313
   4   21261.0    470.3   0.008214263   0.12719  -0.29932   0.17142  -0.09062
   5   21339.7    468.6   0.020253462   0.31245   0.16561  -0.50394   0.17627
   6   21750.9    459.8   0.012540941   0.18981  -0.39301   0.01773   0.18719
   7   22079.2    452.9   0.068388944   1.01971   0.63679  -0.78093   0.06608
   8   22802.5    438.5   0.272381552   3.93253  -0.44337   1.21003  -1.50725
   9   23678.6    422.3   0.116109693   1.61432   0.85115   0.92892  -0.16422
  10   23928.8    417.9   0.059722306   0.82166   0.60292   0.64712   0.19845
  11   24210.2    413.0   0.404248763   5.49699   0.75059   2.12981   0.63050
  12   24862.6    402.2   0.049797679   0.65938   0.11699  -0.49610   0.63213
  13   25007.4    399.9   0.024695900   0.32511   0.09639  -0.53524  -0.17130
  14   25241.0    396.2   0.128246868   1.67269   1.08040   0.68625   0.18570
  15   25304.8    395.2   0.088657879   1.15343  -0.00553  -1.06371   0.14807
  16   25318.0    395.0   0.232257603   3.02006   1.06990   0.03401   1.36902
  17   25672.8    389.5   0.226761277   2.90784   1.38747   0.37730  -0.91674
  18   25913.8    385.9   0.043344873   0.55066   0.37541   0.26650   0.58198
  19   26347.4    379.5   0.328944019   4.11018   1.94312  -0.51159  -0.26969
  20   26443.7    378.2   0.026144463   0.32549  -0.17077  -0.17810   0.51440
  21   26519.2    377.1   0.206205863   2.55986   1.50807  -0.53434   0.00864
  22   26903.8    371.7   0.013609178   0.16653   0.31068  -0.16174  -0.20939
  23   27489.6    363.8   0.204000167   2.44308  -1.37961  -0.28177  -0.67850
  24   27821.6    359.4   0.007995818   0.09461   0.24729  -0.08239  -0.16332
  25   28107.3    355.8   0.127898142   1.49803  -1.19340  -0.26948  -0.03485
  26   28479.6    351.1   0.009535671   0.11023  -0.12596   0.20304   0.23051
  27   29554.6    338.4   0.000227875   0.00254   0.03063   0.02735   0.02919
  28   29854.6    335.0   0.031326053   0.34544  -0.17198  -0.30234   0.47376
  29   30235.7    330.7   0.002714310   0.02955   0.14907   0.06718  -0.05310
  30   31242.0    320.1   0.124693085   1.31395   0.31814  -0.70708   0.84426
  31   31256.7    319.9   0.451144606   4.75169  -0.51343  -1.22295  -1.72988
  32   31471.5    317.7   0.224790982   2.35145  -0.18025  -0.07099  -1.52116
  33   31936.5    313.1   0.095713656   0.98665   0.20575   0.97090  -0.04092
  34   32071.0    311.8   0.297190124   3.05068  -0.48191  -1.29967  -1.06269
  35   32221.2    310.4   0.001381357   0.01411  -0.06645  -0.02625  -0.09491
  36   32307.7    309.5   0.059264368   0.60390  -0.35737  -0.60192  -0.33747
  37   32600.2    306.7   0.003711492   0.03748  -0.03983  -0.18942  -0.00391
  38   32965.8    303.3   0.003306299   0.03302   0.13692   0.07844   0.09011
  39   32977.5    303.2   0.007249119   0.07237  -0.16082   0.02058  -0.21466
  40   33487.1    298.6   0.158095238   1.55424  -0.72249  -0.70775   0.72892
  41   33777.8    296.1   0.000690859   0.00673   0.06457   0.00555   0.05033
  42   33947.1    294.6   0.015008970   0.14555   0.22023  -0.31004   0.03041
  43   34190.8    292.5   0.005259382   0.05064  -0.07593  -0.03418  -0.20907
  44   34364.5    291.0   0.000189722   0.00182  -0.00501  -0.03813   0.01840
  45   34714.0    288.1   0.004626494   0.04388   0.03200  -0.04630  -0.20176
  46   34774.8    287.6   0.083128972   0.78698   0.18314   0.71455   0.49280
  47   35044.2    285.4   0.112101945   1.05311  -0.47739  -0.79802   0.43402
  48   35168.6    284.3   0.141910137   1.32842  -0.46525  -0.87719   0.58523
  49   35330.8    283.0   0.132424828   1.23393  -0.20624   0.01696  -1.09138
  50   35542.0    281.4   0.018390199   0.17034  -0.36108  -0.13476  -0.14766
  51   35835.4    279.1   0.210944656   1.93790   1.01092   0.80094   0.52387
  52   36463.9    274.2   0.003161406   0.02854   0.14206   0.05897   0.06988
  53   36546.1    273.6   0.132088381   1.18987   1.01185   0.29160   0.28461
  54   36633.3    273.0   0.026211934   0.23556   0.40061   0.25102   0.10983
  55   36731.0    272.2   0.192920263   1.72910  -0.54893  -0.44418  -1.10927
  56   36889.1    271.1   0.138072985   1.23221   0.70624   0.72197   0.46065
  57   36985.2    270.4   0.061762623   0.54976  -0.42595  -0.19222  -0.57565
  58   36990.2    270.3   0.012205214   0.10863  -0.19896  -0.23682  -0.11381
  59   37133.2    269.3   0.079052923   0.70086  -0.21658   0.29170  -0.75423
  60   37230.3    268.6   0.160349625   1.41790  -0.92145  -0.64286  -0.39442
  61   37290.9    268.2   0.008735026   0.07711  -0.03032  -0.10642   0.25470
  62   37353.4    267.7   0.060514328   0.53334   0.26843   0.05257   0.67714
  63   37660.1    265.5   0.210282648   1.83822  -0.50041  -0.80756  -0.96729
  64   38020.1    263.0   0.001523680   0.01319  -0.05875   0.01390  -0.09772
  65   38195.3    261.8   0.100016103   0.86206   0.31783   0.68477  -0.54049
  66   38301.7    261.1   0.131899693   1.13371   0.84102   0.45496   0.46841
  67   38672.1    258.6   0.066345448   0.56479   0.11229  -0.43121   0.60518
  68   38758.7    258.0   0.045165163   0.38363   0.51385   0.23908   0.24985
  69   38868.6    257.3   0.041638938   0.35268   0.25590  -0.15657   0.51252
  70   38941.0    256.8   0.101958441   0.86197  -0.80685  -0.19775  -0.41457
  71   39074.6    255.9   0.002669301   0.02249  -0.07729  -0.09056   0.09119
  72   39095.6    255.8   0.136897876   1.15278   0.63682   0.65493  -0.56418
  73   39459.8    253.4   0.064863487   0.54115   0.22300  -0.66635   0.21774
  74   39602.0    252.5   0.002932208   0.02438   0.07406  -0.05205   0.12720
  75   39686.5    252.0   0.102222872   0.84797  -0.33512   0.17885  -0.83885
  76   39763.6    251.5   0.032251973   0.26702   0.03261   0.46381   0.22546
  77   40013.4    249.9   0.010786075   0.08874  -0.09717  -0.28041  -0.02589
  78   40177.4    248.9   0.000329679   0.00270   0.03401  -0.03912  -0.00377
  79   40295.9    248.2   0.040949074   0.33455   0.01895   0.34214  -0.46597

FINAL SINGLE POINT ENERGY     -3621.633410300733

DIPOLE MOMENT
-------------
                                X             Y             Z
Electronic contribution:      8.59903      15.89823      16.57398
Nuclear contribution   :     -8.93110     -15.90614     -18.68385
                        -----------------------------------------
Total Dipole Moment    :     -0.33207      -0.00791      -2.10987
                        -----------------------------------------
Magnitude (a.u.)       :      2.13586
Magnitude (Debye)      :      5.42892

Rotational constants in cm-1:     0.000912     0.000254     0.000248
Rotational constants in MHz :    27.337104     7.602194     7.431223

                             ****ORCA TERMINATED NORMALLY****
TOTAL RUN TIME: 0 days 0 hours 19 minutes 4 seconds 116 msec
