                         Program Version 4.2.0 -  RELEASE  -
|  1> # ORCA input file
|  2> # SCF done       -194.529801817013          0.000440496234
|  3> ! CAM-B3LYP def2-SVP def2/J RIJCOSX Grid4 TightSCF
|  4> %maxcore 5000
|  5> %tddft
|  6>     Mode sTDDFT
|  7>     Ethresh 5.0
|  8>     maxcore 5000
|  9> end
| 10>
| 11> %pal
| 12>   nprocs 6
| 13>   end
| 14> * xyz 0 1
| 15>    C       -0.85637        -2.89460        -0.17983
| 16>    C       -0.06515        -3.76365         0.51758
| 17>    C        0.37577        -4.99948        -0.00431
| 18>    N        0.76385        -6.00879        -0.38631
| 19>    C        0.57789        -3.44725         1.73907
| 20>    N        1.31876        -3.20068         2.58341
| 21>    C       -1.14031        -2.97525        -1.61200
| 22>    C       -1.48837        -1.67135        -2.07873
| 23>    C       -1.64183        -1.40066        -3.41024
| 24>    C       -1.49017        -2.44585        -4.34611
| 25>    C       -1.25055        -3.77154        -3.87712
| 26>    C       -1.06809        -4.01795        -2.49521
| 27>    C       -1.16093        -4.81507        -4.81937
| 28>    C       -1.26597        -4.56030        -6.16025
| 29>    C       -1.46109        -3.25079        -6.62346
| 30>    C       -1.57903        -2.21663        -5.73443
| 31>    C       -1.65287        -0.77497        -0.93379
| 32>    O       -2.04741         0.36997        -0.91766
| 33>    C       -1.33029        -1.60299         0.27496
| 34>    C       -1.65350        -1.10954         1.49887
| 35>    C       -1.71637        -1.79557         2.73710
| 36>    N       -1.42015        -3.08148         2.86450
| 37>    C       -1.63989        -3.38656         4.16143
| 38>    C       -2.14950        -2.22164         4.90000
| 39>    C       -2.40975        -2.57761         6.30578
| 40>    O       -2.85682        -1.88759         7.19069
| 41>    C       -2.00262        -3.99901         6.35616
| 42>    C       -1.55446        -4.45056         5.01865
| 43>    N       -1.23620        -5.76975         5.04009
| 44>    C       -1.43783        -6.14790         6.27798
| 45>    C       -1.91972        -5.09174         7.15222
| 46>    C       -2.21442        -1.19655         3.99976
| 47>    C       -2.76065         0.12144         4.11030
| 48>    C       -3.66895         0.44802         5.03798
| 49>    C       -4.44881         1.69703         4.94493
| 50>    S       -5.27389         2.26602         6.51126
| 51>    C       -6.56742         1.80682         5.44452
| 52>    C       -5.83202         1.43884         4.37526
| 53>    C       -6.16157         0.83004         3.09937
| 54>    O       -7.25972         0.48763         2.73766
| 55>    O       -5.04524         0.70235         2.33939
| 56>    C       -5.15419        -0.08147         1.16871
| 57>    C       -4.83626        -1.50493         1.46236
| 58>    N       -4.83745        -1.94458         2.69413
| 59>    C       -4.43132        -3.24362         2.64002
| 60>    C       -4.08871        -3.61184         1.26510
| 61>    C       -3.56204        -4.98684         1.20030
| 62>    O       -3.07266        -5.55157         0.25078
| 63>    C       -3.76146        -5.45733         2.58464
| 64>    C       -4.27483        -4.34881         3.43109
| 65>    N       -4.50314        -4.78918         4.69733
| 66>    C       -4.19595        -6.06051         4.67914
| 67>    C       -3.72740        -6.54380         3.39119
| 68>    C       -4.41919        -2.53528         0.47889
| 69>    C       -4.38496        -2.52472        -0.94035
| 70>    C       -4.80649        -1.53837        -1.76868
| 71>    C       -4.71437        -1.69238        -3.17445
| 72>    C       -5.00113        -0.71120        -4.07387
| 73>    C       -4.86875        -0.79462        -5.51774
| 74>    C       -4.63550        -1.92987        -6.24865
| 75>    C       -4.47642        -1.94736        -7.65038
| 76>    N       -4.31656        -2.02566        -8.78434
| 77>    C       -4.52919        -3.23651        -5.72596
| 78>    N       -4.44610        -4.33130        -5.38966
| 79>    C       -5.05659         0.54603        -6.05707
| 80>    C       -5.38148         1.42870        -4.98601
| 81>    C       -5.39807         0.68228        -3.71841
| 82>    O       -5.67579         1.11440        -2.62093
| 83>    C       -5.62412         2.75626        -5.19321
| 84>    C       -5.54711         3.27440        -6.50494
| 85>    C       -5.21793         2.39988        -7.58148
| 86>    C       -4.97490         1.02907        -7.33709
| 87>    C       -5.14245         2.92825        -8.88640
| 88>    C       -5.38107         4.25551        -9.11869
| 89>    C       -5.70531         5.11516        -8.05827
| 90>    C       -5.78663         4.63513        -6.77912
| 91>    H       -1.86357        -0.39664        -3.74253
| 92>    H       -0.87587        -5.02658        -2.16597
| 93>    H       -0.99986        -5.82029        -4.46095
| 94>    H       -1.19543        -5.36673        -6.87358
| 95>    H       -1.53095        -3.06615        -7.68502
| 96>    H       -1.73031        -1.20386        -6.08257
| 97>    H       -1.98961        -0.07874         1.50034
| 98>    H       -1.25140        -7.16747         6.56908
| 99>    H       -2.15141        -5.20232         8.19276
|100>    H       -2.50188         0.83611         3.34143
|101>    H       -3.96131        -0.25870         5.80102
|102>    H       -3.91039         2.51464         4.46661
|103>    H       -7.62039         1.84447         5.64414
|104>    H       -4.45180         0.33656         0.44020
|105>    H       -6.18040        -0.00796         0.77364
|106>    H       -4.30039        -6.65451         5.57069
|107>    H       -3.42422        -7.54864         3.17691
|108>    H       -4.00212        -3.44163        -1.37698
|109>    H       -5.20732        -0.61198        -1.39266
|110>    H       -4.36219        -2.65198        -3.53160
|111>    H       -5.87076         3.40295        -4.36436
|112>    H       -4.72763         0.39380        -8.17285
|113>    H       -4.89359         2.26265        -9.69984
|114>    H       -5.32139         4.65058       -10.12158
|115>    H       -5.89031         6.15946        -8.26000
|116>    H       -6.03591         5.29198        -5.95879
|117> *
|118>
|119>                          ****END OF INPUT****

CARTESIAN COORDINATES (ANGSTROEM)
---------------------------------
  C     -0.856370   -2.894600   -0.179830
  C     -0.065150   -3.763650    0.517580
  C      0.375770   -4.999480   -0.004310
  N      0.763850   -6.008790   -0.386310
  C      0.577890   -3.447250    1.739070
  N      1.318760   -3.200680    2.583410
  C     -1.140310   -2.975250   -1.612000
  C     -1.488370   -1.671350   -2.078730
  C     -1.641830   -1.400660   -3.410240
  C     -1.490170   -2.445850   -4.346110
  C     -1.250550   -3.771540   -3.877120
  C     -1.068090   -4.017950   -2.495210
  C     -1.160930   -4.815070   -4.819370
  C     -1.265970   -4.560300   -6.160250
  C     -1.461090   -3.250790   -6.623460
  C     -1.579030   -2.216630   -5.734430
  C     -1.652870   -0.774970   -0.933790
  O     -2.047410    0.369970   -0.917660
  C     -1.330290   -1.602990    0.274960
  C     -1.653500   -1.109540    1.498870
  C     -1.716370   -1.795570    2.737100
  N     -1.420150   -3.081480    2.864500
  C     -1.639890   -3.386560    4.161430
  C     -2.149500   -2.221640    4.900000
  C     -2.409750   -2.577610    6.305780
  O     -2.856820   -1.887590    7.190690
  C     -2.002620   -3.999010    6.356160
  C     -1.554460   -4.450560    5.018650
  N     -1.236200   -5.769750    5.040090
  C     -1.437830   -6.147900    6.277980
  C     -1.919720   -5.091740    7.152220
  C     -2.214420   -1.196550    3.999760
  C     -2.760650    0.121440    4.110300
  C     -3.668950    0.448020    5.037980
  C     -4.448810    1.697030    4.944930
  S     -5.273890    2.266020    6.511260
  C     -6.567420    1.806820    5.444520
  C     -5.832020    1.438840    4.375260
  C     -6.161570    0.830040    3.099370
  O     -7.259720    0.487630    2.737660
  O     -5.045240    0.702350    2.339390
  C     -5.154190   -0.081470    1.168710
  C     -4.836260   -1.504930    1.462360
  N     -4.837450   -1.944580    2.694130
  C     -4.431320   -3.243620    2.640020
  C     -4.088710   -3.611840    1.265100
  C     -3.562040   -4.986840    1.200300
  O     -3.072660   -5.551570    0.250780
  C     -3.761460   -5.457330    2.584640
  C     -4.274830   -4.348810    3.431090
  N     -4.503140   -4.789180    4.697330
  C     -4.195950   -6.060510    4.679140
  C     -3.727400   -6.543800    3.391190
  C     -4.419190   -2.535280    0.478890
  C     -4.384960   -2.524720   -0.940350
  C     -4.806490   -1.538370   -1.768680
  C     -4.714370   -1.692380   -3.174450
  C     -5.001130   -0.711200   -4.073870
  C     -4.868750   -0.794620   -5.517740
  C     -4.635500   -1.929870   -6.248650
  C     -4.476420   -1.947360   -7.650380
  N     -4.316560   -2.025660   -8.784340
  C     -4.529190   -3.236510   -5.725960
  N     -4.446100   -4.331300   -5.389660
  C     -5.056590    0.546030   -6.057070
  C     -5.381480    1.428700   -4.986010
  C     -5.398070    0.682280   -3.718410
  O     -5.675790    1.114400   -2.620930
  C     -5.624120    2.756260   -5.193210
  C     -5.547110    3.274400   -6.504940
  C     -5.217930    2.399880   -7.581480
  C     -4.974900    1.029070   -7.337090
  C     -5.142450    2.928250   -8.886400
  C     -5.381070    4.255510   -9.118690
  C     -5.705310    5.115160   -8.058270
  C     -5.786630    4.635130   -6.779120
  H     -1.863570   -0.396640   -3.742530
  H     -0.875870   -5.026580   -2.165970
  H     -0.999860   -5.820290   -4.460950
  H     -1.195430   -5.366730   -6.873580
  H     -1.530950   -3.066150   -7.685020
  H     -1.730310   -1.203860   -6.082570
  H     -1.989610   -0.078740    1.500340
  H     -1.251400   -7.167470    6.569080
  H     -2.151410   -5.202320    8.192760
  H     -2.501880    0.836110    3.341430
  H     -3.961310   -0.258700    5.801020
  H     -3.910390    2.514640    4.466610
  H     -7.620390    1.844470    5.644140
  H     -4.451800    0.336560    0.440200
  H     -6.180400   -0.007960    0.773640
  H     -4.300390   -6.654510    5.570690
  H     -3.424220   -7.548640    3.176910
  H     -4.002120   -3.441630   -1.376980
  H     -5.207320   -0.611980   -1.392660
  H     -4.362190   -2.651980   -3.531600
  H     -5.870760    3.402950   -4.364360
  H     -4.727630    0.393800   -8.172850
  H     -4.893590    2.262650   -9.699840
  H     -5.321390    4.650580  -10.121580
  H     -5.890310    6.159460   -8.260000
  H     -6.035910    5.291980   -5.958790

 Total Charge           Charge          ....    0
 Multiplicity           Mult            ....    1
 Number of Electrons    NEL             ....  512
 Basis Dimension        Dim             .... 1198

ORBITAL ENERGIES
----------------

  NO   OCC          E(Eh)            E(eV)
   0   2.0000     -88.940111     -2420.1835
   1   2.0000     -19.263359      -524.1826
   2   2.0000     -19.231557      -523.3173
   3   2.0000     -19.224435      -523.1235
   4   2.0000     -19.223893      -523.1087
   5   2.0000     -19.212433      -522.7969
   6   2.0000     -19.201311      -522.4942
   7   2.0000     -14.429315      -392.6416
   8   2.0000     -14.425738      -392.5443
   9   2.0000     -14.424159      -392.5013
  10   2.0000     -14.421659      -392.4333
  11   2.0000     -14.420830      -392.4107
  12   2.0000     -14.417484      -392.3197
  13   2.0000     -14.416228      -392.2855
  14   2.0000     -14.406825      -392.0296
  15   2.0000     -10.401445      -283.0377
  16   2.0000     -10.383362      -282.5456
  17   2.0000     -10.379477      -282.4399
  18   2.0000     -10.374317      -282.2995
  19   2.0000     -10.372264      -282.2437
  20   2.0000     -10.354797      -281.7683
  21   2.0000     -10.351964      -281.6913
  22   2.0000     -10.351959      -281.6911
  23   2.0000     -10.349523      -281.6248
  24   2.0000     -10.346242      -281.5356
  25   2.0000     -10.344811      -281.4966
  26   2.0000     -10.343199      -281.4528
  27   2.0000     -10.340864      -281.3892
  28   2.0000     -10.340468      -281.3785
  29   2.0000     -10.340147      -281.3697
  30   2.0000     -10.340116      -281.3689
  31   2.0000     -10.337077      -281.2862
  32   2.0000     -10.332866      -281.1716
  33   2.0000     -10.326858      -281.0081
  34   2.0000     -10.324371      -280.9404
  35   2.0000     -10.324332      -280.9394
  36   2.0000     -10.321065      -280.8505
  37   2.0000     -10.320959      -280.8476
  38   2.0000     -10.319566      -280.8097
  39   2.0000     -10.318305      -280.7754
  40   2.0000     -10.317896      -280.7642
  41   2.0000     -10.317320      -280.7486
  42   2.0000     -10.315113      -280.6885
  43   2.0000     -10.314155      -280.6624
  44   2.0000     -10.309770      -280.5431
  45   2.0000     -10.309201      -280.5276
  46   2.0000     -10.307572      -280.4833
  47   2.0000     -10.307250      -280.4745
  48   2.0000     -10.305920      -280.4383
  49   2.0000     -10.304047      -280.3874
  50   2.0000     -10.303888      -280.3830
  51   2.0000     -10.303544      -280.3737
  52   2.0000     -10.303381      -280.3693
  53   2.0000     -10.302686      -280.3504
  54   2.0000     -10.301500      -280.3181
  55   2.0000     -10.300188      -280.2824
  56   2.0000     -10.299340      -280.2593
  57   2.0000     -10.298679      -280.2413
  58   2.0000     -10.296941      -280.1940
  59   2.0000     -10.296246      -280.1751
  60   2.0000     -10.296078      -280.1705
  61   2.0000     -10.295263      -280.1483
  62   2.0000     -10.294914      -280.1389
  63   2.0000     -10.294655      -280.1318
  64   2.0000     -10.291978      -280.0590
  65   2.0000     -10.291516      -280.0464
  66   2.0000     -10.291313      -280.0409
  67   2.0000     -10.290941      -280.0307
  68   2.0000     -10.288291      -279.9586
  69   2.0000     -10.288146      -279.9547
  70   2.0000     -10.287868      -279.9471
  71   2.0000     -10.286639      -279.9137
  72   2.0000     -10.284286      -279.8496
  73   2.0000     -10.283606      -279.8311
  74   2.0000     -10.282661      -279.8054
  75   2.0000     -10.281559      -279.7754
  76   2.0000      -8.036570      -218.6862
  77   2.0000      -6.006171      -163.4362
  78   2.0000      -6.003163      -163.3544
  79   2.0000      -5.996575      -163.1751
  80   2.0000      -1.192797       -32.4577
  81   2.0000      -1.145266       -31.1643
  82   2.0000      -1.138864       -30.9901
  83   2.0000      -1.138694       -30.9854
  84   2.0000      -1.127934       -30.6927
  85   2.0000      -1.100895       -29.9569
  86   2.0000      -1.093898       -29.7665
  87   2.0000      -1.085884       -29.5484
  88   2.0000      -1.075011       -29.2525
  89   2.0000      -1.068348       -29.0712
  90   2.0000      -1.025683       -27.9103
  91   2.0000      -1.019371       -27.7385
  92   2.0000      -1.005063       -27.3491
  93   2.0000      -1.002058       -27.2674
  94   2.0000      -1.000191       -27.2166
  95   2.0000      -0.990728       -26.9591
  96   2.0000      -0.989721       -26.9317
  97   2.0000      -0.977851       -26.6087
  98   2.0000      -0.974242       -26.5105
  99   2.0000      -0.950410       -25.8620
 100   2.0000      -0.944634       -25.7048
 101   2.0000      -0.943536       -25.6749
 102   2.0000      -0.928170       -25.2568
 103   2.0000      -0.926260       -25.2048
 104   2.0000      -0.918515       -24.9941
 105   2.0000      -0.907177       -24.6855
 106   2.0000      -0.904136       -24.6028
 107   2.0000      -0.887970       -24.1629
 108   2.0000      -0.885353       -24.0917
 109   2.0000      -0.882189       -24.0056
 110   2.0000      -0.879606       -23.9353
 111   2.0000      -0.878899       -23.9161
 112   2.0000      -0.862946       -23.4820
 113   2.0000      -0.859455       -23.3870
 114   2.0000      -0.853087       -23.2137
 115   2.0000      -0.842583       -22.9279
 116   2.0000      -0.834352       -22.7039
 117   2.0000      -0.829618       -22.5750
 118   2.0000      -0.815859       -22.2006
 119   2.0000      -0.801839       -21.8191
 120   2.0000      -0.796990       -21.6872
 121   2.0000      -0.784187       -21.3388
 122   2.0000      -0.769826       -20.9480
 123   2.0000      -0.768324       -20.9072
 124   2.0000      -0.767275       -20.8786
 125   2.0000      -0.760858       -20.7040
 126   2.0000      -0.759314       -20.6620
 127   2.0000      -0.750879       -20.4325
 128   2.0000      -0.728558       -19.8251
 129   2.0000      -0.727717       -19.8022
 130   2.0000      -0.713360       -19.4115
 131   2.0000      -0.710255       -19.3270
 132   2.0000      -0.709588       -19.3089
 133   2.0000      -0.702554       -19.1175
 134   2.0000      -0.702375       -19.1126
 135   2.0000      -0.689828       -18.7712
 136   2.0000      -0.686463       -18.6796
 137   2.0000      -0.678060       -18.4509
 138   2.0000      -0.675692       -18.3865
 139   2.0000      -0.672257       -18.2931
 140   2.0000      -0.665559       -18.1108
 141   2.0000      -0.665310       -18.1040
 142   2.0000      -0.650858       -17.7108
 143   2.0000      -0.648278       -17.6405
 144   2.0000      -0.641235       -17.4489
 145   2.0000      -0.637540       -17.3484
 146   2.0000      -0.634566       -17.2674
 147   2.0000      -0.631461       -17.1829
 148   2.0000      -0.629542       -17.1307
 149   2.0000      -0.626328       -17.0432
 150   2.0000      -0.615432       -16.7468
 151   2.0000      -0.612887       -16.6775
 152   2.0000      -0.609157       -16.5760
 153   2.0000      -0.603586       -16.4244
 154   2.0000      -0.602199       -16.3867
 155   2.0000      -0.600569       -16.3423
 156   2.0000      -0.596808       -16.2400
 157   2.0000      -0.586332       -15.9549
 158   2.0000      -0.583029       -15.8650
 159   2.0000      -0.580239       -15.7891
 160   2.0000      -0.577065       -15.7027
 161   2.0000      -0.567158       -15.4332
 162   2.0000      -0.562331       -15.3018
 163   2.0000      -0.560552       -15.2534
 164   2.0000      -0.555296       -15.1104
 165   2.0000      -0.553041       -15.0490
 166   2.0000      -0.552683       -15.0393
 167   2.0000      -0.550946       -14.9920
 168   2.0000      -0.550180       -14.9711
 169   2.0000      -0.547765       -14.9055
 170   2.0000      -0.543050       -14.7772
 171   2.0000      -0.541181       -14.7263
 172   2.0000      -0.537900       -14.6370
 173   2.0000      -0.536817       -14.6075
 174   2.0000      -0.535683       -14.5767
 175   2.0000      -0.533629       -14.5208
 176   2.0000      -0.531029       -14.4500
 177   2.0000      -0.527876       -14.3642
 178   2.0000      -0.526776       -14.3343
 179   2.0000      -0.525960       -14.3121
 180   2.0000      -0.525306       -14.2943
 181   2.0000      -0.521005       -14.1773
 182   2.0000      -0.520040       -14.1510
 183   2.0000      -0.514722       -14.0063
 184   2.0000      -0.513647       -13.9771
 185   2.0000      -0.512889       -13.9564
 186   2.0000      -0.510996       -13.9049
 187   2.0000      -0.510432       -13.8896
 188   2.0000      -0.506500       -13.7826
 189   2.0000      -0.503734       -13.7073
 190   2.0000      -0.501978       -13.6595
 191   2.0000      -0.499144       -13.5824
 192   2.0000      -0.492591       -13.4041
 193   2.0000      -0.491939       -13.3863
 194   2.0000      -0.489234       -13.3127
 195   2.0000      -0.487443       -13.2640
 196   2.0000      -0.486294       -13.2327
 197   2.0000      -0.483782       -13.1644
 198   2.0000      -0.482445       -13.1280
 199   2.0000      -0.479913       -13.0591
 200   2.0000      -0.475239       -12.9319
 201   2.0000      -0.472806       -12.8657
 202   2.0000      -0.471249       -12.8233
 203   2.0000      -0.469414       -12.7734
 204   2.0000      -0.466448       -12.6927
 205   2.0000      -0.466354       -12.6901
 206   2.0000      -0.456728       -12.4282
 207   2.0000      -0.451944       -12.2980
 208   2.0000      -0.451858       -12.2957
 209   2.0000      -0.448814       -12.2128
 210   2.0000      -0.446646       -12.1538
 211   2.0000      -0.445687       -12.1278
 212   2.0000      -0.442086       -12.0298
 213   2.0000      -0.440829       -11.9956
 214   2.0000      -0.440331       -11.9820
 215   2.0000      -0.439937       -11.9713
 216   2.0000      -0.437639       -11.9088
 217   2.0000      -0.435910       -11.8617
 218   2.0000      -0.434164       -11.8142
 219   2.0000      -0.431937       -11.7536
 220   2.0000      -0.429284       -11.6814
 221   2.0000      -0.426733       -11.6120
 222   2.0000      -0.425725       -11.5846
 223   2.0000      -0.419817       -11.4238
 224   2.0000      -0.416992       -11.3469
 225   2.0000      -0.414874       -11.2893
 226   2.0000      -0.414178       -11.2704
 227   2.0000      -0.406615       -11.0645
 228   2.0000      -0.399990       -10.8843
 229   2.0000      -0.395168       -10.7531
 230   2.0000      -0.392437       -10.6787
 231   2.0000      -0.384181       -10.4541
 232   2.0000      -0.382819       -10.4170
 233   2.0000      -0.378870       -10.3096
 234   2.0000      -0.370427       -10.0798
 235   2.0000      -0.367936       -10.0120
 236   2.0000      -0.367333        -9.9957
 237   2.0000      -0.364455        -9.9173
 238   2.0000      -0.360375        -9.8063
 239   2.0000      -0.357646        -9.7320
 240   2.0000      -0.352252        -9.5853
 241   2.0000      -0.351255        -9.5581
 242   2.0000      -0.349593        -9.5129
 243   2.0000      -0.342531        -9.3207
 244   2.0000      -0.341566        -9.2945
 245   2.0000      -0.338554        -9.2125
 246   2.0000      -0.332296        -9.0422
 247   2.0000      -0.327412        -8.9093
 248   2.0000      -0.324996        -8.8436
 249   2.0000      -0.320207        -8.7133
 250   2.0000      -0.314717        -8.5639
 251   2.0000      -0.303334        -8.2541
 252   2.0000      -0.302701        -8.2369
 253   2.0000      -0.295944        -8.0531
 254   2.0000      -0.285607        -7.7718
 255   2.0000      -0.283346        -7.7102
 256   0.0000      -0.135224        -3.6796
 257   0.0000      -0.122634        -3.3370
 258   0.0000      -0.097301        -2.6477
 259   0.0000      -0.075911        -2.0656
 260   0.0000      -0.066752        -1.8164

MULLIKEN ATOMIC CHARGES
-----------------------
   0 C :    0.249613
   1 C :   -0.221966
   2 C :   -0.183476
   3 N :    0.167920
   4 C :   -0.177421
   5 N :    0.145138
   6 C :    0.025919
   7 C :   -0.008208
   8 C :   -0.071544
   9 C :    0.060188
  10 C :    0.109599
  11 C :   -0.076233
  12 C :   -0.004997
  13 C :    0.053685
  14 C :    0.020959
  15 C :   -0.001966
  16 C :    0.143874
  17 O :   -0.142329
  18 C :   -0.044973
  19 C :   -0.036166
  20 C :    0.061593
  21 N :   -0.093671
  22 C :    0.107081
  23 C :   -0.142327
  24 C :    0.219217
  25 O :   -0.121457
  26 C :    0.032271
  27 C :   -0.083617
  28 N :   -0.056426
  29 C :    0.081449
  30 C :   -0.100845
  31 C :    0.084749
  32 C :   -0.015120
  33 C :    0.098570
  34 C :   -0.089792
  35 S :    0.059001
  36 C :   -0.013762
  37 C :   -0.068716
  38 C :    0.231802
  39 O :   -0.191172
  40 O :   -0.313183
  41 C :    0.307205
  42 C :   -0.166934
  43 N :   -0.017394
  44 C :    0.030903
  45 C :   -0.110613
  46 C :    0.218061
  47 O :   -0.124638
  48 C :   -0.004793
  49 C :   -0.020550
  50 N :   -0.057308
  51 C :    0.093872
  52 C :   -0.052075
  53 C :    0.059659
  54 C :   -0.042397
  55 C :   -0.002428
  56 C :   -0.028827
  57 C :   -0.084008
  58 C :    0.332610
  59 C :   -0.359303
  60 C :   -0.194012
  61 N :    0.156256
  62 C :   -0.202592
  63 N :    0.168928
  64 C :    0.047144
  65 C :   -0.005425
  66 C :    0.162459
  67 O :   -0.145605
  68 C :   -0.074818
  69 C :    0.095689
  70 C :    0.096397
  71 C :   -0.088634
  72 C :   -0.018785
  73 C :    0.037498
  74 C :    0.037173
  75 C :   -0.014874
  76 H :   -0.014687
  77 H :    0.006614
  78 H :   -0.007949
  79 H :    0.000090
  80 H :    0.007072
  81 H :   -0.019096
  82 H :    0.008163
  83 H :    0.011863
  84 H :   -0.002252
  85 H :   -0.011675
  86 H :    0.029324
  87 H :    0.061080
  88 H :    0.033648
  89 H :    0.067546
  90 H :    0.073684
  91 H :    0.013505
  92 H :    0.000681
  93 H :    0.027539
  94 H :    0.024705
  95 H :    0.020358
  96 H :   -0.010769
  97 H :   -0.010485
  98 H :   -0.008553
  99 H :   -0.003391
 100 H :   -0.002708
 101 H :   -0.015400
Sum of atomic charges:   -0.0000000

LOEWDIN ATOMIC CHARGES
----------------------
   0 C :    0.046581
   1 C :   -0.077950
   2 C :   -0.012260
   3 N :   -0.031115
   4 C :   -0.016209
   5 N :   -0.052137
   6 C :   -0.018945
   7 C :   -0.069193
   8 C :    0.034318
   9 C :   -0.017434
  10 C :   -0.000868
  11 C :    0.019366
  12 C :    0.004067
  13 C :    0.001448
  14 C :   -0.010672
  15 C :   -0.013777
  16 C :    0.084328
  17 O :   -0.139691
  18 C :   -0.014672
  19 C :    0.016831
  20 C :    0.056955
  21 N :   -0.065577
  22 C :    0.047947
  23 C :   -0.051158
  24 C :    0.074605
  25 O :   -0.126409
  26 C :   -0.021144
  27 C :    0.029666
  28 N :   -0.094249
  29 C :    0.079628
  30 C :   -0.033963
  31 C :    0.000489
  32 C :   -0.042595
  33 C :    0.026031
  34 C :   -0.073123
  35 S :    0.301886
  36 C :   -0.066903
  37 C :   -0.128172
  38 C :    0.087547
  39 O :   -0.172623
  40 O :   -0.083800
  41 C :    0.070778
  42 C :    0.062079
  43 N :   -0.085500
  44 C :    0.032277
  45 C :   -0.019954
  46 C :    0.071510
  47 O :   -0.130642
  48 C :   -0.036759
  49 C :    0.033575
  50 N :   -0.095633
  51 C :    0.085729
  52 C :   -0.008847
  53 C :   -0.048373
  54 C :    0.023672
  55 C :   -0.021754
  56 C :    0.072784
  57 C :   -0.085023
  58 C :    0.070166
  59 C :   -0.134211
  60 C :   -0.015372
  61 N :   -0.055787
  62 C :   -0.020608
  63 N :   -0.047021
  64 C :   -0.027532
  65 C :   -0.056809
  66 C :    0.086534
  67 O :   -0.140927
  68 C :    0.035531
  69 C :   -0.007859
  70 C :   -0.005782
  71 C :    0.017128
  72 C :   -0.005807
  73 C :   -0.011353
  74 C :   -0.010476
  75 C :   -0.008174
  76 H :    0.037065
  77 H :    0.043499
  78 H :    0.036809
  79 H :    0.036063
  80 H :    0.035989
  81 H :    0.029496
  82 H :    0.043793
  83 H :    0.024422
  84 H :    0.036039
  85 H :    0.025730
  86 H :    0.036374
  87 H :    0.038374
  88 H :    0.028199
  89 H :    0.042756
  90 H :    0.049985
  91 H :    0.024208
  92 H :    0.039309
  93 H :    0.045299
  94 H :    0.030951
  95 H :    0.043202
  96 H :    0.040218
  97 H :    0.038313
  98 H :    0.034828
  99 H :    0.033893
 100 H :    0.033746
 101 H :    0.032829

  Mayer bond orders larger than 0.100000
B(  0-C ,  1-C ) :   1.7108 B(  0-C ,  6-C ) :   0.9830 B(  0-C , 18-C ) :   1.0247
B(  1-C ,  2-C ) :   1.1460 B(  1-C ,  4-C ) :   1.1308 B(  2-C ,  3-N ) :   2.9839
B(  4-C ,  5-N ) :   2.9621 B(  6-C ,  7-C ) :   1.2128 B(  6-C , 11-C ) :   1.4606
B(  7-C ,  8-C ) :   1.4534 B(  7-C , 16-C ) :   0.9428 B(  8-C ,  9-C ) :   1.1902
B(  8-C , 76-H ) :   1.0173 B(  9-C , 10-C ) :   1.2570 B(  9-C , 15-C ) :   1.2496
B( 10-C , 11-C ) :   1.1905 B( 10-C , 12-C ) :   1.2440 B( 11-C , 77-H ) :   0.9959
B( 12-C , 13-C ) :   1.4775 B( 12-C , 78-H ) :   0.9974 B( 13-C , 14-C ) :   1.2607
B( 13-C , 79-H ) :   0.9904 B( 14-C , 15-C ) :   1.4770 B( 14-C , 80-H ) :   0.9883
B( 15-C , 81-H ) :   0.9861 B( 16-C , 17-O ) :   2.2155 B( 16-C , 18-C ) :   0.9155
B( 18-C , 19-C ) :   1.6622 B( 19-C , 20-C ) :   1.0960 B( 19-C , 82-H ) :   0.9410
B( 20-C , 21-N ) :   1.5109 B( 20-C , 22-C ) :   0.1176 B( 20-C , 31-C ) :   1.0295
B( 21-N , 22-C ) :   1.2792 B( 22-C , 23-C ) :   1.0708 B( 22-C , 27-C ) :   1.4443
B( 23-C , 24-C ) :   0.8889 B( 23-C , 31-C ) :   1.5698 B( 24-C , 25-O ) :   2.2554
B( 24-C , 26-C ) :   0.9028 B( 26-C , 27-C ) :   1.0597 B( 26-C , 30-C ) :   1.6171
B( 27-C , 28-N ) :   1.2697 B( 28-N , 29-C ) :   1.6486 B( 29-C , 30-C ) :   1.0529
B( 29-C , 83-H ) :   0.9900 B( 30-C , 84-H ) :   1.0109 B( 31-C , 32-C ) :   1.1026
B( 32-C , 33-C ) :   1.7915 B( 32-C , 85-H ) :   0.9476 B( 33-C , 34-C ) :   0.9626
B( 33-C , 86-H ) :   0.9533 B( 34-C , 35-S ) :   1.0076 B( 34-C , 37-C ) :   0.9611
B( 34-C , 87-H ) :   0.9155 B( 35-S , 36-C ) :   1.0996 B( 36-C , 37-C ) :   1.6778
B( 36-C , 88-H ) :   1.0076 B( 37-C , 38-C ) :   0.9925 B( 38-C , 39-O ) :   2.1625
B( 38-C , 40-O ) :   1.1356 B( 40-O , 41-C ) :   0.9702 B( 41-C , 42-C ) :   1.0358
B( 41-C , 89-H ) :   0.9221 B( 41-C , 90-H ) :   0.8794 B( 42-C , 43-N ) :   1.7116
B( 42-C , 44-C ) :   0.1097 B( 42-C , 53-C ) :   0.9969 B( 43-N , 44-C ) :   1.2693
B( 44-C , 45-C ) :   1.0646 B( 44-C , 49-C ) :   1.4589 B( 45-C , 46-C ) :   0.8936
B( 45-C , 53-C ) :   1.5361 B( 46-C , 47-O ) :   2.2560 B( 46-C , 48-C ) :   0.8939
B( 48-C , 49-C ) :   1.0581 B( 48-C , 52-C ) :   1.6291 B( 49-C , 50-N ) :   1.2750
B( 50-N , 51-C ) :   1.6483 B( 51-C , 52-C ) :   1.0481 B( 51-C , 91-H ) :   0.9814
B( 52-C , 92-H ) :   1.0117 B( 53-C , 54-C ) :   1.1028 B( 54-C , 55-C ) :   1.5442
B( 54-C , 93-H ) :   0.9722 B( 55-C , 56-C ) :   1.1510 B( 55-C , 94-H ) :   0.9722
B( 56-C , 57-C ) :   1.5658 B( 56-C , 95-H ) :   0.9575 B( 57-C , 58-C ) :   1.0527
B( 57-C , 66-C ) :   0.9313 B( 58-C , 59-C ) :   1.6390 B( 58-C , 64-C ) :   0.9909
B( 59-C , 60-C ) :   1.1571 B( 59-C , 62-C ) :   1.1449 B( 60-C , 61-N ) :   2.9432
B( 62-C , 63-N ) :   2.9369 B( 64-C , 65-C ) :   1.2136 B( 64-C , 71-C ) :   1.4463
B( 65-C , 66-C ) :   0.9476 B( 65-C , 68-C ) :   1.4707 B( 66-C , 67-O ) :   2.1962
B( 68-C , 69-C ) :   1.1803 B( 68-C , 96-H ) :   1.0152 B( 69-C , 70-C ) :   1.2549
B( 69-C , 75-C ) :   1.2441 B( 70-C , 71-C ) :   1.2075 B( 70-C , 72-C ) :   1.2390
B( 71-C , 97-H ) :   0.9900 B( 72-C , 73-C ) :   1.4903 B( 72-C , 98-H ) :   0.9967
B( 73-C , 74-C ) :   1.2602 B( 73-C , 99-H ) :   0.9885 B( 74-C , 75-C ) :   1.4897
B( 74-C ,100-H ) :   0.9885 B( 75-C ,101-H ) :   0.9969

-----------------------------------------------------------------------------
         ABSORPTION SPECTRUM VIA TRANSITION ELECTRIC DIPOLE MOMENTS
-----------------------------------------------------------------------------
State   Energy  Wavelength   fosc         T2         TX        TY        TZ
        (cm-1)    (nm)                  (au**2)     (au)      (au)      (au)
-----------------------------------------------------------------------------
   0   14731.0    678.8   0.018406351   0.41135  -0.02168   0.52878  -0.36232
   1   16895.8    591.9   0.022097804   0.43057   0.19915  -0.27313   0.56242
   2   17831.2    560.8   0.018898936   0.34893   0.48795   0.18168   0.27896
   3   17994.7    555.7   0.039733875   0.72693   0.44046  -0.05148  -0.72820
   4   19444.3    514.3   0.062748668   1.06240   0.12544  -0.42919   0.92869
   5   19653.1    508.8   0.090398831   1.51428   0.57708  -0.55907   0.93204
   6   20671.0    483.8   0.006113740   0.09737   0.19500  -0.17413  -0.17037
   7   21108.7    473.7   0.114061116   1.77890  -0.05317  -0.77938   1.08103
   8   21752.0    459.7   0.023653381   0.35799  -0.09923  -0.30222   0.50676
   9   22029.2    453.9   0.091924714   1.37376   0.10421  -0.37100   1.10691
  10   22396.7    446.5   0.013661589   0.20081  -0.43364   0.11153   0.01825
  11   23360.4    428.1   0.008599196   0.12119   0.18437  -0.05565  -0.28999
  12   23473.3    426.0   0.043736466   0.61340  -0.07010  -0.04406   0.77881
  13   23647.6    422.9   0.056263181   0.78327   0.31308  -0.32796   0.76006
  14   24044.6    415.9   0.050296082   0.68864  -0.82206  -0.10646   0.03912
  15   24282.9    411.8   0.267527093   3.62696  -0.33696   0.55692  -1.78976
  16   24373.2    410.3   0.073357910   0.99086  -0.04474  -0.07435   0.99163
  17   24795.1    403.3   0.031347441   0.41621  -0.04872   0.15904  -0.62333
  18   25002.9    400.0   0.530836545   6.98949   0.06054   1.24699  -2.33042
  19   25161.7    397.4   0.004796770   0.06276  -0.12605   0.03390  -0.21383
  20   25604.6    390.6   0.005797318   0.07454  -0.04624  -0.05540   0.26331
  21   25840.9    387.0   0.003512824   0.04475   0.02273   0.19725  -0.07300
  22   26292.7    380.3   0.032827648   0.41104   0.19914   0.03471  -0.60842
  23   26488.3    377.5   0.115174413   1.43146   0.06170  -0.43204   1.11400
  24   26620.0    375.7   0.167739261   2.07444  -0.12225   0.62092  -1.29381
  25   26953.1    371.0   0.012226513   0.14934   0.17582   0.15280  -0.30835
  26   27011.9    370.2   0.022705172   0.27672   0.25331  -0.09078  -0.45201
  27   27146.7    368.4   0.009709096   0.11774  -0.07253   0.22171  -0.25165
  28   27284.8    366.5   0.092286385   1.11351  -0.10173  -0.28572   1.01070
  29   27935.5    358.0   0.071244691   0.83960   0.02022   0.16477  -0.90113
  30   28108.6    355.8   0.028045931   0.32848  -0.11686  -0.31275   0.46584
  31   28163.8    355.1   0.024312885   0.28420   0.08189  -0.20271  -0.48621
  32   28881.1    346.2   0.036344047   0.41428   0.22170  -0.54947   0.25143
  33   29354.5    340.7   0.131261621   1.47210   0.19081  -0.64389   1.01049
  34   29630.5    337.5   0.111480667   1.23861   0.70468  -0.57039   0.64551
  35   29805.9    335.5   0.145935275   1.61188  -0.35326   0.75031  -0.96132
  36   29917.7    334.3   0.101952508   1.12188  -0.21953  -0.14573  -1.02589
  37   30167.1    331.5   0.091209647   0.99537  -0.01461  -0.64386   0.76197
  38   30484.6    328.0   0.160006964   1.72796   0.39132  -0.99591   0.76353
  39   30516.8    327.7   0.068521719   0.73921  -0.21770  -0.56108   0.61401
  40   30625.1    326.5   0.020760590   0.22317  -0.19146  -0.36274  -0.23439
  41   30673.3    326.0   0.027224350   0.29219   0.10620  -0.40789   0.33844
  42   30999.2    322.6   0.043821086   0.46538  -0.13143   0.21537   0.63382
  43   31049.2    322.1   0.031153400   0.33032   0.18400  -0.29863   0.45528
  44   31160.5    320.9   0.037486821   0.39605  -0.17163   0.43598   0.42014
  45   31361.4    318.9   0.044146244   0.46342  -0.18023   0.64665   0.11304
  46   31588.0    316.6   0.125025195   1.30302   0.16656  -1.12459   0.10284
  47   31806.5    314.4   0.057519510   0.59535   0.24800  -0.72811  -0.06091
  48   31923.7    313.2   0.116907870   1.20561  -0.04617   1.05865  -0.28765
  49   31997.4    312.5   0.151566033   1.55942  -0.19025   0.76067  -0.97190
  50   32168.8    310.9   0.056781876   0.58110   0.39197  -0.59658   0.26749
  51   32289.3    309.7   0.084936008   0.86598  -0.21658   0.74221  -0.51788
  52   32347.2    309.1   0.124029376   1.26230  -0.25274   0.55748  -0.94215
  53   32595.6    306.8   0.027750123   0.28027  -0.29672  -0.30402   0.31591
  54   32861.0    304.3   0.002067070   0.02071   0.06010   0.09253   0.09239
  55   33023.7    302.8   0.057579953   0.57401  -0.16898   0.28358   0.68194
  56   33165.4    301.5   0.008355133   0.08294   0.12420  -0.25838   0.02744
  57   33255.1    300.7   0.000384462   0.00381   0.02771  -0.03341  -0.04384
  58   33606.6    297.6   0.030260126   0.29643   0.40995  -0.16462  -0.31823
  59   33671.5    297.0   0.028614987   0.27977   0.19734  -0.28079  -0.40247
  60   33825.9    295.6   0.079300151   0.77179  -0.08298  -0.06706  -0.87201
  61   33928.1    294.7   0.062613164   0.60755  -0.04940  -0.66799   0.39863
  62   34108.6    293.2   0.016956720   0.16366   0.35776  -0.11900  -0.14668
  63   34419.0    290.5   0.153726826   1.47037  -0.29460   1.01717  -0.59072
  64   34790.1    287.4   0.111362143   1.05380   0.18330  -0.91585   0.42594
  65   34822.2    287.2   0.161982840   1.53140  -0.15629   1.09836  -0.54826
  66   35577.6    281.1   0.037151559   0.34378  -0.30953   0.44309  -0.22724
  67   35706.7    280.1   0.172108578   1.58682   0.29364  -0.55649   1.09129
  68   35860.7    278.9   0.093626408   0.85952  -0.02976   0.73992   0.55781
  69   35950.2    278.2   0.118183571   1.08226  -0.04729   0.03072  -1.03879
  70   36014.7    277.7   0.029252095   0.26739  -0.11377  -0.49199  -0.11135
  71   36308.4    275.4   0.048561943   0.44032  -0.21226   0.49824  -0.38343
  72   36507.1    273.9   0.046243815   0.41702  -0.14127  -0.60213  -0.18572
  73   36622.1    273.1   0.042863035   0.38531   0.08997   0.39766   0.46807
  74   36838.0    271.5   0.098240973   0.87796   0.32469  -0.54406   0.69031
  75   37022.1    270.1   0.111521172   0.99168  -0.24694   0.46268  -0.84654
  76   37129.9    269.3   0.008304361   0.07363  -0.03075  -0.22810  -0.14372
  77   37158.9    269.1   0.061632900   0.54604  -0.11139   0.59235  -0.42749
  78   37351.8    267.7   0.011950043   0.10533   0.23552  -0.17032   0.14439
  79   37593.8    266.0   0.052737858   0.46183  -0.03474  -0.01307  -0.67857
  80   37634.7    265.7   0.018243510   0.15959   0.07443   0.18446   0.34644
  81   37671.6    265.5   0.047789501   0.41763  -0.03018  -0.00782  -0.64549
  82   37803.1    264.5   0.066444991   0.57864   0.14626  -0.23505   0.70852
  83   37859.5    264.1   0.032950738   0.28653   0.30651  -0.36061   0.25007
  84   37961.7    263.4   0.029925565   0.25952  -0.24392  -0.10696   0.43426
  85   38118.5    262.3   0.046581562   0.40230   0.02354  -0.12776  -0.62083
  86   38322.7    260.9   0.030597039   0.26284  -0.04465  -0.05032  -0.50825
  87   38394.2    260.5   0.039616432   0.33969  -0.26825   0.27889  -0.43583
  88   38488.5    259.8   0.036395165   0.31131   0.16859  -0.37327  -0.37889
  89   38656.1    258.7   0.019225612   0.16373  -0.12844   0.21729  -0.31626
  90   38691.0    258.5   0.215293913   1.83188  -0.41968   0.96819  -0.84755
  91   38737.8    258.1   0.087665548   0.74502  -0.30233   0.80622  -0.06026
  92   38939.1    256.8   0.074514081   0.62998  -0.20686   0.76259   0.07516
  93   39185.0    255.2   0.076401911   0.64189  -0.09161   0.15856   0.77997
  94   39294.1    254.5   0.059144452   0.49552   0.13341  -0.20744  -0.65931
  95   39537.1    252.9   0.050325644   0.41904  -0.08392   0.63535   0.09132
  96   39616.4    252.4   0.076264388   0.63376   0.06775  -0.60352   0.51471
  97   39809.5    251.2   0.028641460   0.23686   0.00818   0.46558   0.14150
  98   39888.6    250.7   0.010970817   0.09055   0.17113   0.24094  -0.05665
  99   40029.6    249.8   0.006111048   0.05026  -0.02829  -0.20690   0.08154
 100   40066.4    249.6   0.065564875   0.53872   0.32260  -0.48519  -0.44636
 101   40158.6    249.0   0.037752914   0.30949  -0.19054  -0.06663  -0.51841

FINAL SINGLE POINT ENERGY     -3623.230713087239

DIPOLE MOMENT
-------------
                                X             Y             Z
Electronic contribution:      6.47367     -13.11868      28.69981
Nuclear contribution   :     -7.51017      14.83526     -29.78589
                        -----------------------------------------
Total Dipole Moment    :     -1.03650       1.71658      -1.08608
                        -----------------------------------------
Magnitude (a.u.)       :      2.28047
Magnitude (Debye)      :      5.79649

Rotational constants in cm-1:     0.001604     0.000660     0.000523
Rotational constants in MHz :    48.075422    19.793641    15.676321

                             ****ORCA TERMINATED NORMALLY****
TOTAL RUN TIME: 0 days 0 hours 27 minutes 0 seconds 748 msec
