                         Program Version 4.2.0 -  RELEASE  -
|  1> # ORCA input file
|  2> # SCF done       -194.547129288930          0.000770863099
|  3> ! CAM-B3LYP def2-SVP def2/J RIJCOSX Grid4 TightSCF
|  4> %maxcore 5000
|  5> %tddft
|  6>     Mode sTDDFT
|  7>     Ethresh 5.0
|  8>     maxcore 5000
|  9> end
| 10>
| 11> %pal
| 12>   nprocs 6
| 13>   end
| 14> * xyz 0 1
| 15>    C        4.25390         5.01950         5.74141
| 16>    C        4.55449         4.57700         4.48587
| 17>    C        5.82685         4.72256         3.89273
| 18>    N        6.84297         4.82535         3.37056
| 19>    C        3.66355         3.83222         3.68377
| 20>    N        3.00593         3.16745         3.01865
| 21>    C        5.19840         5.54929         6.71614
| 22>    C        4.63857         5.40208         8.02104
| 23>    C        5.33156         5.75771         9.14325
| 24>    C        6.62770         6.30081         9.00804
| 25>    C        7.18256         6.47249         7.70599
| 26>    C        6.44813         6.08508         6.56217
| 27>    C        8.47442         7.02441         7.58702
| 28>    C        9.18715         7.38596         8.69763
| 29>    C        8.64180         7.21273         9.97896
| 30>    C        7.38999         6.68155        10.13060
| 31>    C        3.29384         4.82363         7.91096
| 32>    O        2.55444         4.44403         8.78971
| 33>    C        2.99769         4.81494         6.44245
| 34>    C        1.72297         4.73605         6.00273
| 35>    C        1.25288         4.99385         4.67859
| 36>    N        1.83821         5.86162         3.87606
| 37>    C        1.08655         5.88958         2.75127
| 38>    C       -0.07062         4.99148         2.86032
| 39>    C       -0.86300         5.01886         1.62100
| 40>    O       -1.89550         4.43798         1.36922
| 41>    C       -0.08955         5.94372         0.76682
| 42>    C        1.08379         6.46282         1.50614
| 43>    N        1.80645         7.30479         0.72530
| 44>    C        1.17975         7.32840        -0.42315
| 45>    C       -0.00853         6.49337        -0.46961
| 46>    C        0.02887         4.39103         4.09156
| 47>    C       -0.74708         3.38485         4.71885
| 48>    C       -1.91976         2.90762         4.22606
| 49>    C       -2.65537         1.89148         4.88016
| 50>    S       -2.06727         1.10037         6.30150
| 51>    C       -3.49105         0.11108         6.42257
| 52>    C       -4.39562         0.40202         5.37824
| 53>    C       -3.91584         1.41131         4.51627
| 54>    O       -4.52610         1.95763         3.43861
| 55>    O       -5.55594        -0.27122         5.35643
| 56>    C       -6.37010        -0.31754         4.20512
| 57>    C       -3.66629        -0.88819         7.39871
| 58>    N       -4.72899        -1.69119         7.38784
| 59>    C       -4.54291        -2.57475         8.37497
| 60>    C       -3.26378        -2.34513         9.07094
| 61>    C       -3.08843        -3.31086        10.17722
| 62>    O       -2.17787        -3.38658        10.96941
| 63>    C       -4.30515        -4.13138        10.07096
| 64>    C       -5.16271        -3.65358         8.96738
| 65>    N       -6.28388        -4.40309         8.87384
| 66>    C       -6.17942        -5.29680         9.83306
| 67>    C       -4.97341        -5.18323        10.61737
| 68>    C       -2.69764        -1.25610         8.47369
| 69>    C       -1.47451        -0.57638         8.73623
| 70>    C       -0.31342        -1.14715         9.14063
| 71>    C        0.86194        -0.35737         9.09583
| 72>    C        2.14650        -0.79095         9.22105
| 73>    C        3.32349         0.01652         8.97677
| 74>    C        3.36179         1.14238         8.19339
| 75>    C        4.51606         1.90266         7.93375
| 76>    N        5.40667         2.58325         7.67940
| 77>    C        2.26046         1.62542         7.46046
| 78>    N        1.42920         2.03508         6.78100
| 79>    C        4.46575        -0.67682         9.54957
| 80>    C        4.03734        -1.96614         9.98197
| 81>    C        2.58850        -2.11918         9.72521
| 82>    O        1.91559        -3.10926         9.89230
| 83>    C        4.90970        -2.86100        10.52900
| 84>    C        6.26863        -2.49861        10.67579
| 85>    C        6.69928        -1.20649        10.25579
| 86>    C        5.77481        -0.30022         9.68860
| 87>    C        8.05704        -0.85958        10.40930
| 88>    C        8.94969        -1.74603        10.94725
| 89>    C        8.52556        -3.01827        11.35856
| 90>    C        7.21384        -3.38602        11.22615
| 91>    H        4.89677         5.62441        10.12292
| 92>    H        6.88874         6.22674         5.58766
| 93>    H        8.89182         7.15255         6.59921
| 94>    H       10.17606         7.80733         8.59576
| 95>    H        9.21859         7.50282        10.84447
| 96>    H        6.96502         6.54599        11.11454
| 97>    H        0.97200         4.49984         6.74831
| 98>    H        1.55060         7.93360        -1.23228
| 99>    H       -0.65175         6.37327        -1.31882
|100>    H       -0.35342         2.96795         5.63661
|101>    H       -2.34335         3.29698         3.30868
|102>    H       -5.41580         1.61162         3.31456
|103>    H       -7.04491        -1.15592         4.37778
|104>    H       -5.79277        -0.51390         3.29637
|105>    H       -6.97569         0.59103         4.09745
|106>    H       -6.95600        -6.02767         9.97756
|107>    H       -4.70121        -5.81171        11.44204
|108>    H       -1.46516         0.48421         8.51669
|109>    H       -0.24549        -2.19606         9.38805
|110>    H        0.70892         0.69398         8.87812
|111>    H        4.56977        -3.83634        10.84393
|112>    H        6.12103         0.67487         9.38062
|113>    H        8.37885         0.12036        10.08795
|114>    H        9.98822        -1.47202        11.05766
|115>    H        9.24327        -3.70574        11.78048
|116>    H        6.88200        -4.36446        11.54107
|117> *
|118>
|119>                          ****END OF INPUT****

CARTESIAN COORDINATES (ANGSTROEM)
---------------------------------
  C      4.253900    5.019500    5.741410
  C      4.554490    4.577000    4.485870
  C      5.826850    4.722560    3.892730
  N      6.842970    4.825350    3.370560
  C      3.663550    3.832220    3.683770
  N      3.005930    3.167450    3.018650
  C      5.198400    5.549290    6.716140
  C      4.638570    5.402080    8.021040
  C      5.331560    5.757710    9.143250
  C      6.627700    6.300810    9.008040
  C      7.182560    6.472490    7.705990
  C      6.448130    6.085080    6.562170
  C      8.474420    7.024410    7.587020
  C      9.187150    7.385960    8.697630
  C      8.641800    7.212730    9.978960
  C      7.389990    6.681550   10.130600
  C      3.293840    4.823630    7.910960
  O      2.554440    4.444030    8.789710
  C      2.997690    4.814940    6.442450
  C      1.722970    4.736050    6.002730
  C      1.252880    4.993850    4.678590
  N      1.838210    5.861620    3.876060
  C      1.086550    5.889580    2.751270
  C     -0.070620    4.991480    2.860320
  C     -0.863000    5.018860    1.621000
  O     -1.895500    4.437980    1.369220
  C     -0.089550    5.943720    0.766820
  C      1.083790    6.462820    1.506140
  N      1.806450    7.304790    0.725300
  C      1.179750    7.328400   -0.423150
  C     -0.008530    6.493370   -0.469610
  C      0.028870    4.391030    4.091560
  C     -0.747080    3.384850    4.718850
  C     -1.919760    2.907620    4.226060
  C     -2.655370    1.891480    4.880160
  S     -2.067270    1.100370    6.301500
  C     -3.491050    0.111080    6.422570
  C     -4.395620    0.402020    5.378240
  C     -3.915840    1.411310    4.516270
  O     -4.526100    1.957630    3.438610
  O     -5.555940   -0.271220    5.356430
  C     -6.370100   -0.317540    4.205120
  C     -3.666290   -0.888190    7.398710
  N     -4.728990   -1.691190    7.387840
  C     -4.542910   -2.574750    8.374970
  C     -3.263780   -2.345130    9.070940
  C     -3.088430   -3.310860   10.177220
  O     -2.177870   -3.386580   10.969410
  C     -4.305150   -4.131380   10.070960
  C     -5.162710   -3.653580    8.967380
  N     -6.283880   -4.403090    8.873840
  C     -6.179420   -5.296800    9.833060
  C     -4.973410   -5.183230   10.617370
  C     -2.697640   -1.256100    8.473690
  C     -1.474510   -0.576380    8.736230
  C     -0.313420   -1.147150    9.140630
  C      0.861940   -0.357370    9.095830
  C      2.146500   -0.790950    9.221050
  C      3.323490    0.016520    8.976770
  C      3.361790    1.142380    8.193390
  C      4.516060    1.902660    7.933750
  N      5.406670    2.583250    7.679400
  C      2.260460    1.625420    7.460460
  N      1.429200    2.035080    6.781000
  C      4.465750   -0.676820    9.549570
  C      4.037340   -1.966140    9.981970
  C      2.588500   -2.119180    9.725210
  O      1.915590   -3.109260    9.892300
  C      4.909700   -2.861000   10.529000
  C      6.268630   -2.498610   10.675790
  C      6.699280   -1.206490   10.255790
  C      5.774810   -0.300220    9.688600
  C      8.057040   -0.859580   10.409300
  C      8.949690   -1.746030   10.947250
  C      8.525560   -3.018270   11.358560
  C      7.213840   -3.386020   11.226150
  H      4.896770    5.624410   10.122920
  H      6.888740    6.226740    5.587660
  H      8.891820    7.152550    6.599210
  H     10.176060    7.807330    8.595760
  H      9.218590    7.502820   10.844470
  H      6.965020    6.545990   11.114540
  H      0.972000    4.499840    6.748310
  H      1.550600    7.933600   -1.232280
  H     -0.651750    6.373270   -1.318820
  H     -0.353420    2.967950    5.636610
  H     -2.343350    3.296980    3.308680
  H     -5.415800    1.611620    3.314560
  H     -7.044910   -1.155920    4.377780
  H     -5.792770   -0.513900    3.296370
  H     -6.975690    0.591030    4.097450
  H     -6.956000   -6.027670    9.977560
  H     -4.701210   -5.811710   11.442040
  H     -1.465160    0.484210    8.516690
  H     -0.245490   -2.196060    9.388050
  H      0.708920    0.693980    8.878120
  H      4.569770   -3.836340   10.843930
  H      6.121030    0.674870    9.380620
  H      8.378850    0.120360   10.087950
  H      9.988220   -1.472020   11.057660
  H      9.243270   -3.705740   11.780480
  H      6.882000   -4.364460   11.541070

 Total Charge           Charge          ....    0
 Multiplicity           Mult            ....    1
 Number of Electrons    NEL             ....  512
 Basis Dimension        Dim             .... 1198

ORBITAL ENERGIES
----------------

  NO   OCC          E(Eh)            E(eV)
   0   2.0000     -88.969246     -2420.9763
   1   2.0000     -19.267434      -524.2935
   2   2.0000     -19.266314      -524.2631
   3   2.0000     -19.220164      -523.0073
   4   2.0000     -19.213951      -522.8382
   5   2.0000     -19.209487      -522.7167
   6   2.0000     -19.201022      -522.4864
   7   2.0000     -14.423543      -392.4846
   8   2.0000     -14.422925      -392.4677
   9   2.0000     -14.413718      -392.2172
  10   2.0000     -14.410285      -392.1238
  11   2.0000     -14.408774      -392.0827
  12   2.0000     -14.404396      -391.9635
  13   2.0000     -14.393769      -391.6744
  14   2.0000     -14.392747      -391.6466
  15   2.0000     -10.368761      -282.1483
  16   2.0000     -10.368759      -282.1483
  17   2.0000     -10.366043      -282.0744
  18   2.0000     -10.365497      -282.0595
  19   2.0000     -10.362212      -281.9701
  20   2.0000     -10.356078      -281.8032
  21   2.0000     -10.347858      -281.5795
  22   2.0000     -10.343464      -281.4600
  23   2.0000     -10.343376      -281.4576
  24   2.0000     -10.342816      -281.4423
  25   2.0000     -10.342557      -281.4353
  26   2.0000     -10.340030      -281.3665
  27   2.0000     -10.334226      -281.2086
  28   2.0000     -10.330414      -281.1049
  29   2.0000     -10.329364      -281.0763
  30   2.0000     -10.326535      -280.9993
  31   2.0000     -10.324641      -280.9478
  32   2.0000     -10.323322      -280.9119
  33   2.0000     -10.323006      -280.9033
  34   2.0000     -10.317392      -280.7505
  35   2.0000     -10.315595      -280.7016
  36   2.0000     -10.313430      -280.6427
  37   2.0000     -10.311833      -280.5992
  38   2.0000     -10.311757      -280.5972
  39   2.0000     -10.311161      -280.5809
  40   2.0000     -10.310120      -280.5526
  41   2.0000     -10.309189      -280.5273
  42   2.0000     -10.307674      -280.4861
  43   2.0000     -10.306033      -280.4414
  44   2.0000     -10.303659      -280.3768
  45   2.0000     -10.302998      -280.3588
  46   2.0000     -10.301411      -280.3156
  47   2.0000     -10.299417      -280.2614
  48   2.0000     -10.298649      -280.2405
  49   2.0000     -10.298333      -280.2319
  50   2.0000     -10.297437      -280.2075
  51   2.0000     -10.296367      -280.1784
  52   2.0000     -10.296296      -280.1764
  53   2.0000     -10.292947      -280.0853
  54   2.0000     -10.292692      -280.0784
  55   2.0000     -10.292311      -280.0680
  56   2.0000     -10.290543      -280.0199
  57   2.0000     -10.289772      -279.9989
  58   2.0000     -10.289323      -279.9867
  59   2.0000     -10.289001      -279.9780
  60   2.0000     -10.288874      -279.9745
  61   2.0000     -10.287759      -279.9442
  62   2.0000     -10.287115      -279.9266
  63   2.0000     -10.286956      -279.9223
  64   2.0000     -10.286871      -279.9200
  65   2.0000     -10.286426      -279.9079
  66   2.0000     -10.286277      -279.9038
  67   2.0000     -10.285621      -279.8860
  68   2.0000     -10.285346      -279.8785
  69   2.0000     -10.283187      -279.8197
  70   2.0000     -10.282620      -279.8043
  71   2.0000     -10.282130      -279.7910
  72   2.0000     -10.281769      -279.7812
  73   2.0000     -10.280814      -279.7552
  74   2.0000     -10.275943      -279.6226
  75   2.0000     -10.275369      -279.6070
  76   2.0000      -8.063914      -219.4303
  77   2.0000      -6.033299      -164.1744
  78   2.0000      -6.029425      -164.0690
  79   2.0000      -6.025568      -163.9640
  80   2.0000      -1.180855       -32.1327
  81   2.0000      -1.156512       -31.4703
  82   2.0000      -1.134273       -30.8651
  83   2.0000      -1.129135       -30.7253
  84   2.0000      -1.123797       -30.5801
  85   2.0000      -1.116354       -30.3775
  86   2.0000      -1.078519       -29.3480
  87   2.0000      -1.068417       -29.0731
  88   2.0000      -1.059100       -28.8196
  89   2.0000      -1.046903       -28.4877
  90   2.0000      -1.024760       -27.8851
  91   2.0000      -1.012319       -27.5466
  92   2.0000      -1.003194       -27.2983
  93   2.0000      -1.001216       -27.2445
  94   2.0000      -0.995445       -27.0874
  95   2.0000      -0.993128       -27.0244
  96   2.0000      -0.987736       -26.8777
  97   2.0000      -0.973355       -26.4863
  98   2.0000      -0.967771       -26.3344
  99   2.0000      -0.936643       -25.4874
 100   2.0000      -0.936145       -25.4738
 101   2.0000      -0.927376       -25.2352
 102   2.0000      -0.923150       -25.1202
 103   2.0000      -0.919177       -25.0121
 104   2.0000      -0.915524       -24.9127
 105   2.0000      -0.898887       -24.4600
 106   2.0000      -0.897872       -24.4323
 107   2.0000      -0.882500       -24.0141
 108   2.0000      -0.879663       -23.9368
 109   2.0000      -0.876360       -23.8470
 110   2.0000      -0.874476       -23.7957
 111   2.0000      -0.869417       -23.6580
 112   2.0000      -0.854386       -23.2490
 113   2.0000      -0.853578       -23.2270
 114   2.0000      -0.845110       -22.9966
 115   2.0000      -0.833209       -22.6728
 116   2.0000      -0.829250       -22.5650
 117   2.0000      -0.827728       -22.5236
 118   2.0000      -0.823747       -22.4153
 119   2.0000      -0.806563       -21.9477
 120   2.0000      -0.792322       -21.5602
 121   2.0000      -0.788945       -21.4683
 122   2.0000      -0.776804       -21.1379
 123   2.0000      -0.762628       -20.7522
 124   2.0000      -0.761386       -20.7184
 125   2.0000      -0.754229       -20.5236
 126   2.0000      -0.750758       -20.4292
 127   2.0000      -0.747283       -20.3346
 128   2.0000      -0.721310       -19.6278
 129   2.0000      -0.718466       -19.5504
 130   2.0000      -0.715564       -19.4715
 131   2.0000      -0.706066       -19.2130
 132   2.0000      -0.704166       -19.1613
 133   2.0000      -0.702172       -19.1071
 134   2.0000      -0.697062       -18.9680
 135   2.0000      -0.696195       -18.9444
 136   2.0000      -0.685507       -18.6536
 137   2.0000      -0.675080       -18.3699
 138   2.0000      -0.671973       -18.2853
 139   2.0000      -0.668455       -18.1896
 140   2.0000      -0.659985       -17.9591
 141   2.0000      -0.657019       -17.8784
 142   2.0000      -0.646780       -17.5998
 143   2.0000      -0.641470       -17.4553
 144   2.0000      -0.638087       -17.3632
 145   2.0000      -0.632637       -17.2149
 146   2.0000      -0.629307       -17.1243
 147   2.0000      -0.628490       -17.1021
 148   2.0000      -0.624415       -16.9912
 149   2.0000      -0.615619       -16.7518
 150   2.0000      -0.609213       -16.5775
 151   2.0000      -0.608372       -16.5547
 152   2.0000      -0.605388       -16.4734
 153   2.0000      -0.603340       -16.4177
 154   2.0000      -0.595223       -16.1968
 155   2.0000      -0.592399       -16.1200
 156   2.0000      -0.588078       -16.0024
 157   2.0000      -0.584140       -15.8953
 158   2.0000      -0.581890       -15.8340
 159   2.0000      -0.570308       -15.5189
 160   2.0000      -0.564305       -15.3555
 161   2.0000      -0.560889       -15.2626
 162   2.0000      -0.555225       -15.1084
 163   2.0000      -0.552687       -15.0394
 164   2.0000      -0.548769       -14.9328
 165   2.0000      -0.548014       -14.9122
 166   2.0000      -0.544111       -14.8060
 167   2.0000      -0.542547       -14.7635
 168   2.0000      -0.540931       -14.7195
 169   2.0000      -0.539471       -14.6797
 170   2.0000      -0.537348       -14.6220
 171   2.0000      -0.534883       -14.5549
 172   2.0000      -0.534359       -14.5407
 173   2.0000      -0.533095       -14.5063
 174   2.0000      -0.531015       -14.4496
 175   2.0000      -0.527955       -14.3664
 176   2.0000      -0.523433       -14.2433
 177   2.0000      -0.521894       -14.2015
 178   2.0000      -0.520095       -14.1525
 179   2.0000      -0.518246       -14.1022
 180   2.0000      -0.517621       -14.0852
 181   2.0000      -0.513652       -13.9772
 182   2.0000      -0.512869       -13.9559
 183   2.0000      -0.510604       -13.8942
 184   2.0000      -0.508310       -13.8318
 185   2.0000      -0.505877       -13.7656
 186   2.0000      -0.504269       -13.7218
 187   2.0000      -0.502259       -13.6672
 188   2.0000      -0.499335       -13.5876
 189   2.0000      -0.497287       -13.5319
 190   2.0000      -0.492211       -13.3937
 191   2.0000      -0.490898       -13.3580
 192   2.0000      -0.488686       -13.2978
 193   2.0000      -0.486657       -13.2426
 194   2.0000      -0.486092       -13.2272
 195   2.0000      -0.485133       -13.2011
 196   2.0000      -0.483341       -13.1524
 197   2.0000      -0.479036       -13.0352
 198   2.0000      -0.475571       -12.9409
 199   2.0000      -0.473211       -12.8767
 200   2.0000      -0.471108       -12.8195
 201   2.0000      -0.466728       -12.7003
 202   2.0000      -0.464882       -12.6501
 203   2.0000      -0.462780       -12.5929
 204   2.0000      -0.461853       -12.5677
 205   2.0000      -0.458434       -12.4746
 206   2.0000      -0.457445       -12.4477
 207   2.0000      -0.456602       -12.4248
 208   2.0000      -0.454376       -12.3642
 209   2.0000      -0.451576       -12.2880
 210   2.0000      -0.445852       -12.1323
 211   2.0000      -0.443897       -12.0790
 212   2.0000      -0.442140       -12.0312
 213   2.0000      -0.439206       -11.9514
 214   2.0000      -0.437847       -11.9144
 215   2.0000      -0.436480       -11.8772
 216   2.0000      -0.435847       -11.8600
 217   2.0000      -0.435070       -11.8389
 218   2.0000      -0.433991       -11.8095
 219   2.0000      -0.430876       -11.7247
 220   2.0000      -0.428812       -11.6686
 221   2.0000      -0.426941       -11.6177
 222   2.0000      -0.422480       -11.4963
 223   2.0000      -0.420363       -11.4386
 224   2.0000      -0.418808       -11.3964
 225   2.0000      -0.415047       -11.2940
 226   2.0000      -0.413880       -11.2622
 227   2.0000      -0.412148       -11.2151
 228   2.0000      -0.406067       -11.0496
 229   2.0000      -0.396626       -10.7927
 230   2.0000      -0.391670       -10.6579
 231   2.0000      -0.390142       -10.6163
 232   2.0000      -0.375550       -10.2192
 233   2.0000      -0.372683       -10.1412
 234   2.0000      -0.362768        -9.8714
 235   2.0000      -0.354555        -9.6479
 236   2.0000      -0.354304        -9.6411
 237   2.0000      -0.352058        -9.5800
 238   2.0000      -0.348800        -9.4913
 239   2.0000      -0.343457        -9.3459
 240   2.0000      -0.337359        -9.1800
 241   2.0000      -0.336879        -9.1669
 242   2.0000      -0.333186        -9.0665
 243   2.0000      -0.332361        -9.0440
 244   2.0000      -0.327928        -8.9234
 245   2.0000      -0.320980        -8.7343
 246   2.0000      -0.318338        -8.6624
 247   2.0000      -0.318072        -8.6552
 248   2.0000      -0.314872        -8.5681
 249   2.0000      -0.310423        -8.4470
 250   2.0000      -0.305993        -8.3265
 251   2.0000      -0.298042        -8.1101
 252   2.0000      -0.294176        -8.0049
 253   2.0000      -0.287543        -7.8245
 254   2.0000      -0.283397        -7.7116
 255   2.0000      -0.252835        -6.8800
 256   0.0000      -0.121260        -3.2996
 257   0.0000      -0.109965        -2.9923
 258   0.0000      -0.094130        -2.5614
 259   0.0000      -0.069804        -1.8995
 260   0.0000      -0.058802        -1.6001

MULLIKEN ATOMIC CHARGES
-----------------------
   0 C :    0.277216
   1 C :   -0.285893
   2 C :   -0.188162
   3 N :    0.159399
   4 C :   -0.180050
   5 N :    0.164920
   6 C :    0.069935
   7 C :    0.048474
   8 C :   -0.088101
   9 C :    0.101296
  10 C :    0.101978
  11 C :   -0.084485
  12 C :   -0.021556
  13 C :    0.039409
  14 C :    0.035396
  15 C :   -0.019455
  16 C :    0.111300
  17 O :   -0.152916
  18 C :   -0.088302
  19 C :    0.045154
  20 C :   -0.014328
  21 N :   -0.033726
  22 C :    0.085779
  23 C :   -0.153521
  24 C :    0.219084
  25 O :   -0.133904
  26 C :   -0.013604
  27 C :   -0.030316
  28 N :   -0.052733
  29 C :    0.094657
  30 C :   -0.098400
  31 C :    0.098318
  32 C :   -0.042013
  33 C :    0.033706
  34 C :   -0.089993
  35 S :    0.113775
  36 C :   -0.180867
  37 C :    0.196745
  38 C :    0.067612
  39 O :   -0.161326
  40 O :   -0.253055
  41 C :    0.135675
  42 C :    0.061562
  43 N :   -0.026889
  44 C :    0.068180
  45 C :   -0.135025
  46 C :    0.196983
  47 O :   -0.123854
  48 C :   -0.039693
  49 C :   -0.039347
  50 N :   -0.060297
  51 C :    0.082071
  52 C :   -0.092671
  53 C :    0.022088
  54 C :   -0.050459
  55 C :    0.041096
  56 C :   -0.044375
  57 C :   -0.077053
  58 C :    0.306405
  59 C :   -0.318363
  60 C :   -0.170574
  61 N :    0.131818
  62 C :   -0.189921
  63 N :    0.152187
  64 C :    0.042222
  65 C :   -0.000998
  66 C :    0.156280
  67 O :   -0.128646
  68 C :   -0.080468
  69 C :    0.097136
  70 C :    0.097556
  71 C :   -0.083561
  72 C :   -0.017977
  73 C :    0.035665
  74 C :    0.037396
  75 C :   -0.015486
  76 H :   -0.017949
  77 H :   -0.004715
  78 H :   -0.011316
  79 H :   -0.006792
  80 H :   -0.007970
  81 H :   -0.020359
  82 H :    0.028925
  83 H :    0.011088
  84 H :   -0.003479
  85 H :   -0.006126
  86 H :    0.021288
  87 H :    0.171299
  88 H :    0.066945
  89 H :    0.041314
  90 H :    0.033113
  91 H :    0.002503
  92 H :   -0.012021
  93 H :    0.031378
  94 H :    0.044738
  95 H :    0.026403
  96 H :   -0.010062
  97 H :   -0.007099
  98 H :   -0.012045
  99 H :   -0.004711
 100 H :   -0.003778
 101 H :   -0.016688
Sum of atomic charges:   -0.0000000

LOEWDIN ATOMIC CHARGES
----------------------
   0 C :    0.074638
   1 C :   -0.105350
   2 C :   -0.012968
   3 N :   -0.045094
   4 C :   -0.013702
   5 N :   -0.048821
   6 C :   -0.011351
   7 C :   -0.052545
   8 C :    0.034637
   9 C :   -0.007191
  10 C :   -0.001168
  11 C :    0.020898
  12 C :   -0.005811
  13 C :   -0.013832
  14 C :   -0.015581
  15 C :   -0.010277
  16 C :    0.086233
  17 O :   -0.141828
  18 C :   -0.029724
  19 C :    0.044069
  20 C :    0.065048
  21 N :   -0.084046
  22 C :    0.049495
  23 C :   -0.042630
  24 C :    0.070701
  25 O :   -0.136258
  26 C :   -0.035707
  27 C :    0.032602
  28 N :   -0.093854
  29 C :    0.079218
  30 C :   -0.032054
  31 C :   -0.014301
  32 C :   -0.022742
  33 C :    0.000555
  34 C :   -0.169170
  35 S :    0.477754
  36 C :   -0.218231
  37 C :    0.032005
  38 C :   -0.009904
  39 O :   -0.036307
  40 O :   -0.057562
  41 C :    0.073960
  42 C :    0.054527
  43 N :   -0.108160
  44 C :    0.042140
  45 C :   -0.019854
  46 C :    0.061186
  47 O :   -0.136241
  48 C :   -0.047026
  49 C :    0.010064
  50 N :   -0.102371
  51 C :    0.062554
  52 C :   -0.044979
  53 C :   -0.043688
  54 C :    0.011858
  55 C :    0.003883
  56 C :    0.072810
  57 C :   -0.090644
  58 C :    0.085793
  59 C :   -0.144640
  60 C :   -0.009646
  61 N :   -0.061367
  62 C :    0.006679
  63 N :   -0.063316
  64 C :   -0.026547
  65 C :   -0.052734
  66 C :    0.083015
  67 O :   -0.129138
  68 C :    0.032912
  69 C :   -0.006657
  70 C :   -0.006702
  71 C :    0.019092
  72 C :   -0.006189
  73 C :   -0.013415
  74 C :   -0.011577
  75 C :   -0.008494
  76 H :    0.037229
  77 H :    0.039289
  78 H :    0.034311
  79 H :    0.032377
  80 H :    0.031599
  81 H :    0.030612
  82 H :    0.049528
  83 H :    0.024396
  84 H :    0.034774
  85 H :    0.019876
  86 H :    0.041713
  87 H :    0.085371
  88 H :    0.044473
  89 H :    0.021475
  90 H :    0.016099
  91 H :    0.020500
  92 H :    0.031880
  93 H :    0.019688
  94 H :    0.043049
  95 H :    0.043674
  96 H :    0.040185
  97 H :    0.038403
  98 H :    0.033705
  99 H :    0.033177
 100 H :    0.033251
 101 H :    0.032432

  Mayer bond orders larger than 0.100000
B(  0-C ,  1-C ) :   1.7054 B(  0-C ,  6-C ) :   1.0034 B(  0-C , 18-C ) :   0.9991
B(  1-C ,  2-C ) :   1.1377 B(  1-C ,  4-C ) :   1.1554 B(  2-C ,  3-N ) :   2.9902
B(  4-C ,  5-N ) :   2.9860 B(  6-C ,  7-C ) :   1.2093 B(  6-C , 11-C ) :   1.4546
B(  7-C ,  8-C ) :   1.4594 B(  7-C , 16-C ) :   0.9365 B(  8-C ,  9-C ) :   1.1886
B(  8-C , 76-H ) :   1.0167 B(  9-C , 10-C ) :   1.2563 B(  9-C , 15-C ) :   1.2403
B( 10-C , 11-C ) :   1.2049 B( 10-C , 12-C ) :   1.2384 B( 11-C , 77-H ) :   0.9931
B( 12-C , 13-C ) :   1.4907 B( 12-C , 78-H ) :   0.9980 B( 13-C , 14-C ) :   1.2585
B( 13-C , 79-H ) :   0.9880 B( 14-C , 15-C ) :   1.4898 B( 14-C , 80-H ) :   0.9889
B( 15-C , 81-H ) :   0.9982 B( 16-C , 17-O ) :   2.2317 B( 16-C , 18-C ) :   0.9158
B( 18-C , 19-C ) :   1.7721 B( 19-C , 20-C ) :   1.0375 B( 19-C , 82-H ) :   0.9151
B( 20-C , 21-N ) :   1.6054 B( 20-C , 22-C ) :   0.1137 B( 20-C , 31-C ) :   1.0131
B( 21-N , 22-C ) :   1.2945 B( 22-C , 23-C ) :   1.0612 B( 22-C , 27-C ) :   1.4423
B( 23-C , 24-C ) :   0.8962 B( 23-C , 31-C ) :   1.5356 B( 24-C , 25-O ) :   2.2094
B( 24-C , 26-C ) :   0.9208 B( 26-C , 27-C ) :   1.0609 B( 26-C , 30-C ) :   1.6246
B( 27-C , 28-N ) :   1.3027 B( 28-N , 29-C ) :   1.6700 B( 29-C , 30-C ) :   1.0557
B( 29-C , 83-H ) :   0.9889 B( 30-C , 84-H ) :   1.0100 B( 31-C , 32-C ) :   1.1509
B( 32-C , 33-C ) :   1.5899 B( 32-C , 85-H ) :   0.9392 B( 33-C , 34-C ) :   1.1633
B( 33-C , 86-H ) :   0.9681 B( 34-C , 35-S ) :   1.1123 B( 34-C , 36-C ) :   0.1194
B( 34-C , 38-C ) :   1.4102 B( 35-S , 36-C ) :   1.0916 B( 36-C , 37-C ) :   1.3685
B( 36-C , 42-C ) :   1.2020 B( 37-C , 38-C ) :   1.1769 B( 37-C , 40-O ) :   1.2527
B( 38-C , 39-O ) :   1.2652 B( 39-O , 87-H ) :   0.9540 B( 40-O , 41-C ) :   0.9448
B( 41-C , 88-H ) :   0.9725 B( 41-C , 89-H ) :   0.9658 B( 41-C , 90-H ) :   0.9616
B( 42-C , 43-N ) :   1.5828 B( 42-C , 44-C ) :   0.1251 B( 42-C , 53-C ) :   1.0220
B( 43-N , 44-C ) :   1.3964 B( 44-C , 45-C ) :   1.0396 B( 44-C , 49-C ) :   1.3610
B( 45-C , 46-C ) :   0.8782 B( 45-C , 53-C ) :   1.6203 B( 46-C , 47-O ) :   2.2806
B( 46-C , 48-C ) :   0.9079 B( 48-C , 49-C ) :   1.0728 B( 48-C , 52-C ) :   1.5735
B( 49-C , 50-N ) :   1.3413 B( 50-N , 51-C ) :   1.6240 B( 51-C , 52-C ) :   1.1032
B( 51-C , 91-H ) :   0.9897 B( 52-C , 92-H ) :   1.0109 B( 53-C , 54-C ) :   1.0318
B( 54-C , 55-C ) :   1.6363 B( 54-C , 93-H ) :   0.9371 B( 55-C , 56-C ) :   1.1553
B( 55-C , 94-H ) :   0.9865 B( 56-C , 57-C ) :   1.5607 B( 56-C , 95-H ) :   0.9642
B( 57-C , 58-C ) :   1.0659 B( 57-C , 66-C ) :   0.9308 B( 58-C , 59-C ) :   1.6135
B( 58-C , 64-C ) :   0.9961 B( 59-C , 60-C ) :   1.1514 B( 59-C , 62-C ) :   1.1554
B( 60-C , 61-N ) :   2.9204 B( 62-C , 63-N ) :   2.9259 B( 64-C , 65-C ) :   1.2142
B( 64-C , 71-C ) :   1.4494 B( 65-C , 66-C ) :   0.9288 B( 65-C , 68-C ) :   1.4797
B( 66-C , 67-O ) :   2.2474 B( 68-C , 69-C ) :   1.1811 B( 68-C , 96-H ) :   1.0148
B( 69-C , 70-C ) :   1.2563 B( 69-C , 75-C ) :   1.2471 B( 70-C , 71-C ) :   1.2074
B( 70-C , 72-C ) :   1.2399 B( 71-C , 97-H ) :   0.9924 B( 72-C , 73-C ) :   1.4905
B( 72-C , 98-H ) :   0.9966 B( 73-C , 74-C ) :   1.2603 B( 73-C , 99-H ) :   0.9885
B( 74-C , 75-C ) :   1.4896 B( 74-C ,100-H ) :   0.9880 B( 75-C ,101-H ) :   0.9970

-----------------------------------------------------------------------------
         ABSORPTION SPECTRUM VIA TRANSITION ELECTRIC DIPOLE MOMENTS
-----------------------------------------------------------------------------
State   Energy  Wavelength   fosc         T2         TX        TY        TZ
        (cm-1)    (nm)                  (au**2)     (au)      (au)      (au)
-----------------------------------------------------------------------------
   0   13435.9    744.3   0.225351712   5.52168  -0.64728  -1.63878   1.55470
   1   16612.9    601.9   0.653100111  12.94226   1.46827   2.73248  -1.82207
   2   19241.6    519.7   0.192545380   3.29434   0.18775  -1.35694   1.19071
   3   20232.4    494.3   0.078827197   1.28264   0.45728  -0.77415   0.68864
   4   20508.3    487.6   0.390286890   6.26513  -1.66886  -1.63588   0.89663
   5   21166.9    472.4   0.015116911   0.23512  -0.25468  -0.28577   0.29764
   6   21378.6    467.8   0.025637151   0.39479   0.30233  -0.39459   0.38430
   7   22630.9    441.9   0.070773512   1.02954  -0.93854  -0.35296  -0.15526
   8   22978.1    435.2   0.109167623   1.56407   0.81223   0.78835  -0.53184
   9   23994.0    416.8   0.155107549   2.12817  -0.69985   0.53444  -1.16308
  10   24339.6    410.9   0.490301035   6.63171  -2.27394  -1.07977   0.54317
  11   24588.6    406.7   0.095422986   1.27760   0.74075   0.64201  -0.56278
  12   24629.4    406.0   0.313709970   4.19324   1.71216   1.00759  -0.49650
  13   25015.8    399.7   0.062126846   0.81760  -0.80669  -0.40847   0.00113
  14   25200.6    396.8   0.141913926   1.85391   0.78687  -0.35279   1.05370
  15   25331.3    394.8   0.130719250   1.69886  -1.20498  -0.41697  -0.27021
  16   25545.9    391.5   0.000859268   0.01107   0.06131   0.01760   0.08370
  17   26056.1    383.8   0.119818056   1.51387   1.19239   0.29471  -0.07232
  18   26163.5    382.2   0.126905453   1.59683   1.14326  -0.16561   0.51220
  19   26497.6    377.4   0.330797977   4.10990  -1.27032   0.11259  -1.57592
  20   26671.7    374.9   0.042532881   0.52499  -0.69316  -0.20163   0.06216
  21   26906.1    371.7   0.007570536   0.09263   0.17403   0.13329   0.21113
  22   26975.6    370.7   0.000691433   0.00844  -0.07048   0.02470  -0.05349
  23   27202.4    367.6   0.005369889   0.06499   0.15208  -0.19849  -0.04964
  24   27371.5    365.3   0.013365264   0.16075   0.18432   0.04068   0.35372
  25   28040.6    356.6   0.079080684   0.92845   0.22969  -0.49994   0.79104
  26   28276.3    353.7   0.060188803   0.70076  -0.09145   0.39337  -0.73325
  27   28353.9    352.7   0.018942502   0.21994  -0.41819   0.07199  -0.19969
  28   28931.3    345.6   0.070897955   0.80675   0.16193  -0.62381   0.62561
  29   29089.6    343.8   0.001018525   0.01153  -0.04196   0.09463  -0.02848
  30   29106.2    343.6   0.037867986   0.42831  -0.20662   0.60897   0.12153
  31   29238.9    342.0   0.007724256   0.08697  -0.08262  -0.03569  -0.28084
  32   29738.4    336.3   0.021738093   0.24065  -0.38183   0.04639  -0.30447
  33   30114.4    332.1   0.002758859   0.03016   0.15889   0.05219  -0.04680
  34   30568.4    327.1   0.045894002   0.49426  -0.18376   0.67578  -0.06175
  35   30687.9    325.9   0.161137676   1.72865   1.00392  -0.29057   0.79772
  36   31099.1    321.6   0.072875162   0.77145   0.35797   0.26812   0.75592
  37   31533.8    317.1   0.055545583   0.57989   0.40235  -0.57077   0.30371
  38   31773.3    314.7   0.102693642   1.06404   0.99230  -0.06279   0.27467
  39   31842.7    314.0   0.057747247   0.59703  -0.57761   0.51042   0.05355
  40   31961.3    312.9   0.110155673   1.13464   0.94710  -0.44292   0.20362
  41   32143.3    311.1   0.438035465   4.48636   1.60654   0.33577   1.33890
  42   32211.5    310.4   0.023606966   0.24127  -0.37911   0.24187  -0.19761
  43   32519.8    307.5   0.011312267   0.11452   0.32828   0.06931  -0.04416
  44   32834.5    304.6   0.016164586   0.16207   0.09784  -0.36593   0.13637
  45   33009.4    302.9   0.030403326   0.30322  -0.26154   0.20413  -0.43949
  46   33369.1    299.7   0.010885457   0.10739   0.25341  -0.03666   0.20453
  47   33474.1    298.7   0.084748380   0.83348  -0.78570   0.34423  -0.31252
  48   33784.1    296.0   0.003437271   0.03349  -0.18001  -0.03304  -0.00023
  49   34187.9    292.5   0.074776706   0.72006  -0.03345   0.84694  -0.04053
  50   34295.5    291.6   0.252276294   2.42167  -0.72661   0.21110  -1.35983
  51   34367.4    291.0   0.093274746   0.89350   0.71062   0.52357   0.33820
  52   34505.8    289.8   0.026895558   0.25660   0.32450   0.29066  -0.25850
  53   34590.2    289.1   0.150506621   1.43245  -1.04894   0.13782  -0.55961
  54   34744.8    287.8   0.098338094   0.93177   0.43376  -0.31259   0.80369
  55   34805.1    287.3   0.006026393   0.05700  -0.00409  -0.02524   0.23738
  56   34943.8    286.2   0.068131364   0.64188   0.38406  -0.53811   0.45256
  57   35236.3    283.8   0.094658836   0.88440  -0.23160   0.31065   0.85689
  58   35552.5    281.3   0.101471479   0.93961  -0.57565  -0.40556   0.66615
  59   35629.2    280.7   0.003636457   0.03360  -0.01783   0.03783  -0.17847
  60   35711.3    280.0   0.074453284   0.68636   0.34676  -0.67318   0.33608
  61   36202.3    276.2   0.087768465   0.79814  -0.25658  -0.35651  -0.77795
  62   36375.3    274.9   0.060276833   0.54553  -0.09885   0.73095  -0.03829
  63   36440.7    274.4   0.002233819   0.02018  -0.07375  -0.06382  -0.10329
  64   36594.3    273.3   0.012472033   0.11220  -0.03570   0.33221   0.02377
  65   36612.6    273.1   0.105769456   0.95105  -0.54018  -0.33930  -0.73766
  66   36745.9    272.1   0.020855639   0.18685   0.13204   0.37974   0.15877
  67   37112.1    269.5   0.023094482   0.20487   0.11224   0.21983   0.37940
  68   37351.8    267.7   0.120798101   1.06469  -0.40359  -0.05519  -0.94803
  69   37387.3    267.5   0.009709676   0.08550   0.06116  -0.18071  -0.22159
  70   37621.2    265.8   0.025940466   0.22700  -0.31200  -0.27739  -0.22957
  71   37701.9    265.2   0.076383736   0.66698  -0.40871  -0.46452   0.53306
  72   37837.9    264.3   0.024440036   0.21264  -0.10168   0.42009   0.16071
  73   37882.8    264.0   0.015885613   0.13805   0.03084   0.30863  -0.20456
  74   37922.7    263.7   0.006888917   0.05980   0.15035   0.05382  -0.18520
  75   38029.3    263.0   0.079547941   0.68863   0.31022   0.21763  -0.73826
  76   38207.3    261.7   0.167491740   1.44319  -0.72398   0.11873  -0.95128
  77   38451.1    260.1   0.042274203   0.36194  -0.09683   0.35747  -0.47411
  78   38521.0    259.6   0.126608391   1.08203  -0.37604  -0.96448   0.10199
  79   38693.9    258.4   0.057252615   0.48711  -0.02732  -0.65103   0.25006
  80   38737.5    258.1   0.073574828   0.62528  -0.24116   0.50893  -0.55508
  81   39125.1    255.6   0.017951176   0.15105  -0.34100  -0.01216  -0.18605
  82   39233.1    254.9   0.027633262   0.23188  -0.29849  -0.30602   0.22166
  83   39322.8    254.3   0.096603248   0.80877   0.56111   0.68014  -0.17700
  84   39391.2    253.9   0.014436771   0.12066   0.05638  -0.19042   0.28499
  85   39676.2    252.0   0.098554419   0.81775   0.81237   0.39459   0.04592
  86   39954.5    250.3   0.064758810   0.53359   0.66875   0.16246   0.24490
  87   40116.2    249.3   0.029202281   0.23965  -0.39072  -0.17445  -0.23781

FINAL SINGLE POINT ENERGY     -3623.257626653622

DIPOLE MOMENT
-------------
                                X             Y             Z
Electronic contribution:    -15.30217       4.49055     -12.18239
Nuclear contribution   :     15.77518      -4.08109      13.48200
                        -----------------------------------------
Total Dipole Moment    :      0.47301       0.40946       1.29961
                        -----------------------------------------
Magnitude (a.u.)       :      1.44235
Magnitude (Debye)      :      3.66617

Rotational constants in cm-1:     0.000909     0.000667     0.000416
Rotational constants in MHz :    27.262358    20.002494    12.459781

                             ****ORCA TERMINATED NORMALLY****
TOTAL RUN TIME: 0 days 0 hours 12 minutes 11 seconds 858 msec
