                         Program Version 4.2.0 -  RELEASE  -
|  1> # ORCA input file
|  2> # SCF done       -179.925464238631          0.000548589795
|  3> ! CAM-B3LYP def2-SVP def2/J RIJCOSX Grid4 TightSCF
|  4> %maxcore 5000
|  5> %tddft
|  6>     Mode sTDDFT
|  7>     Ethresh 5.0
|  8>     maxcore 5000
|  9> end
| 10>
| 11> %pal
| 12>   nprocs 6
| 13>   end
| 14> * xyz 0 1
| 15>    C        6.06744         7.37280         5.18321
| 16>    C        6.15800         7.05308         3.85414
| 17>    C        6.68994         5.83943         3.37521
| 18>    N        7.09718         4.86025         2.93588
| 19>    C        5.81385         7.94911         2.82065
| 20>    N        5.58890         8.67273         1.95828
| 21>    C        6.67406         6.62608         6.27829
| 22>    C        6.83720         7.50632         7.38867
| 23>    C        7.42083         7.09070         8.55073
| 24>    C        7.86574         5.75361         8.65905
| 25>    C        7.69299         4.86662         7.55695
| 26>    C        7.09049         5.32538         6.36300
| 27>    C        8.13795         3.53487         7.68073
| 28>    C        8.72770         3.09817         8.83559
| 29>    C        8.89730         3.97170         9.92015
| 30>    C        8.47606         5.27085         9.83356
| 31>    C        6.28136         8.82924         7.05041
| 32>    O        6.29207         9.83981         7.71395
| 33>    C        5.62726         8.64345         5.72174
| 34>    C        4.70935         9.54611         5.28820
| 35>    C        3.68614         9.37800         4.32183
| 36>    C        3.02033        10.39331         3.66061
| 37>    C        2.03456         9.90887         2.80571
| 38>    C        1.90032         8.50898         2.83836
| 39>    S        3.02962         7.79298         3.92535
| 40>    C        0.91130         8.01675         1.99878
| 41>    C        0.28575         9.04354         1.30760
| 42>    S        0.91558        10.63035         1.70367
| 43>    C       -0.74189         8.93255         0.35435
| 44>    C       -1.32940         9.99240        -0.34452
| 45>    C       -2.33568         9.56784        -1.27624
| 46>    N       -2.99527        10.44834        -2.03041
| 47>    C       -2.67936        11.71574        -1.87687
| 48>    C       -3.41308        12.69862        -2.71546
| 49>    O       -4.27526        12.37320        -3.50241
| 50>    C       -3.01528        14.10439        -2.52046
| 51>    C       -2.08091        14.49846        -1.64971
| 52>    C       -1.33452        13.57492        -0.77724
| 53>    O       -0.50552        13.96174         0.01805
| 54>    C       -1.67626        12.13916        -0.94445
| 55>    N       -1.01904        11.28017        -0.19620
| 56>    C       -2.52364         8.18180        -1.28606
| 57>    S       -1.45227         7.42808        -0.14262
| 58>    C       -3.42579         7.46630        -2.09411
| 59>    C       -3.64729         6.09724        -2.09066
| 60>    C       -4.60232         5.73945        -3.03223
| 61>    C       -5.11520         6.82800        -3.76839
| 62>    S       -4.40530         8.32546        -3.26624
| 63>    C       -6.05994         6.47135        -4.72213
| 64>    C       -6.29212         5.10466        -4.73831
| 65>    S       -5.31948         4.25774        -3.52703
| 66>    C       -7.15217         4.28607        -5.49938
| 67>    C       -7.93407         4.55433        -6.58815
| 68>    C       -8.76870         3.55281        -7.23629
| 69>    C       -9.16142         2.34675        -6.71629
| 70>    C       -9.98849         1.42827        -7.39724
| 71>    N      -10.65150         0.63417        -7.89505
| 72>    C       -8.85198         1.85822        -5.42898
| 73>    N       -8.66975         1.39422        -4.39416
| 74>    C       -9.19335         4.08894        -8.52308
| 75>    C       -8.73966         5.43409        -8.62050
| 76>    C       -7.98904         5.79349        -7.40539
| 77>    O       -7.51455         6.88296        -7.16060
| 78>    C       -8.99675         6.20614        -9.71659
| 79>    C       -9.72662         5.65254       -10.79209
| 80>    C      -10.17518         4.30276       -10.70748
| 81>    C       -9.89908         3.53057        -9.55591
| 82>    C      -10.89572         3.75759       -11.78961
| 83>    C      -11.16246         4.50824       -12.90211
| 84>    C      -10.72160         5.83755       -12.98379
| 85>    C      -10.01949         6.39767       -11.95115
| 86>    H        7.54316         7.77325         9.37855
| 87>    H        6.96162         4.63306         5.54543
| 88>    H        8.00789         2.86716         6.84173
| 89>    H        9.06749         2.07683         8.91959
| 90>    H        9.36344         3.61012        10.82446
| 91>    H        8.60441         5.94786        10.66542
| 92>    H        4.70990        10.49942         5.80860
| 93>    H        3.27470        11.43082         3.77461
| 94>    H        0.65451         6.98043         1.87703
| 95>    H       -3.54304        14.81685        -3.14016
| 96>    H       -1.82182        15.54254        -1.53604
| 97>    H       -3.13484         5.41816        -1.43403
| 98>    H       -6.55685         7.15583        -5.38457
| 99>    H       -7.15413         3.25679        -5.15803
|100>    H       -8.64428         7.22584        -9.76323
|101>    H      -10.24818         2.51082        -9.52531
|102>    H      -11.23427         2.73415       -11.72116
|103>    H      -11.71499         4.08153       -13.72575
|104>    H      -10.94079         6.41535       -13.86921
|105>    H       -9.67732         7.42063       -12.00849
|106> *
|107>
|108>                          ****END OF INPUT****

CARTESIAN COORDINATES (ANGSTROEM)
---------------------------------
  C      6.067440    7.372800    5.183210
  C      6.158000    7.053080    3.854140
  C      6.689940    5.839430    3.375210
  N      7.097180    4.860250    2.935880
  C      5.813850    7.949110    2.820650
  N      5.588900    8.672730    1.958280
  C      6.674060    6.626080    6.278290
  C      6.837200    7.506320    7.388670
  C      7.420830    7.090700    8.550730
  C      7.865740    5.753610    8.659050
  C      7.692990    4.866620    7.556950
  C      7.090490    5.325380    6.363000
  C      8.137950    3.534870    7.680730
  C      8.727700    3.098170    8.835590
  C      8.897300    3.971700    9.920150
  C      8.476060    5.270850    9.833560
  C      6.281360    8.829240    7.050410
  O      6.292070    9.839810    7.713950
  C      5.627260    8.643450    5.721740
  C      4.709350    9.546110    5.288200
  C      3.686140    9.378000    4.321830
  C      3.020330   10.393310    3.660610
  C      2.034560    9.908870    2.805710
  C      1.900320    8.508980    2.838360
  S      3.029620    7.792980    3.925350
  C      0.911300    8.016750    1.998780
  C      0.285750    9.043540    1.307600
  S      0.915580   10.630350    1.703670
  C     -0.741890    8.932550    0.354350
  C     -1.329400    9.992400   -0.344520
  C     -2.335680    9.567840   -1.276240
  N     -2.995270   10.448340   -2.030410
  C     -2.679360   11.715740   -1.876870
  C     -3.413080   12.698620   -2.715460
  O     -4.275260   12.373200   -3.502410
  C     -3.015280   14.104390   -2.520460
  C     -2.080910   14.498460   -1.649710
  C     -1.334520   13.574920   -0.777240
  O     -0.505520   13.961740    0.018050
  C     -1.676260   12.139160   -0.944450
  N     -1.019040   11.280170   -0.196200
  C     -2.523640    8.181800   -1.286060
  S     -1.452270    7.428080   -0.142620
  C     -3.425790    7.466300   -2.094110
  C     -3.647290    6.097240   -2.090660
  C     -4.602320    5.739450   -3.032230
  C     -5.115200    6.828000   -3.768390
  S     -4.405300    8.325460   -3.266240
  C     -6.059940    6.471350   -4.722130
  C     -6.292120    5.104660   -4.738310
  S     -5.319480    4.257740   -3.527030
  C     -7.152170    4.286070   -5.499380
  C     -7.934070    4.554330   -6.588150
  C     -8.768700    3.552810   -7.236290
  C     -9.161420    2.346750   -6.716290
  C     -9.988490    1.428270   -7.397240
  N    -10.651500    0.634170   -7.895050
  C     -8.851980    1.858220   -5.428980
  N     -8.669750    1.394220   -4.394160
  C     -9.193350    4.088940   -8.523080
  C     -8.739660    5.434090   -8.620500
  C     -7.989040    5.793490   -7.405390
  O     -7.514550    6.882960   -7.160600
  C     -8.996750    6.206140   -9.716590
  C     -9.726620    5.652540  -10.792090
  C    -10.175180    4.302760  -10.707480
  C     -9.899080    3.530570   -9.555910
  C    -10.895720    3.757590  -11.789610
  C    -11.162460    4.508240  -12.902110
  C    -10.721600    5.837550  -12.983790
  C    -10.019490    6.397670  -11.951150
  H      7.543160    7.773250    9.378550
  H      6.961620    4.633060    5.545430
  H      8.007890    2.867160    6.841730
  H      9.067490    2.076830    8.919590
  H      9.363440    3.610120   10.824460
  H      8.604410    5.947860   10.665420
  H      4.709900   10.499420    5.808600
  H      3.274700   11.430820    3.774610
  H      0.654510    6.980430    1.877030
  H     -3.543040   14.816850   -3.140160
  H     -1.821820   15.542540   -1.536040
  H     -3.134840    5.418160   -1.434030
  H     -6.556850    7.155830   -5.384570
  H     -7.154130    3.256790   -5.158030
  H     -8.644280    7.225840   -9.763230
  H    -10.248180    2.510820   -9.525310
  H    -11.234270    2.734150  -11.721160
  H    -11.714990    4.081530  -13.725750
  H    -10.940790    6.415350  -13.869210
  H     -9.677320    7.420630  -12.008490

 Total Charge           Charge          ....    0
 Multiplicity           Mult            ....    1
 Number of Electrons    NEL             ....  510
 Basis Dimension        Dim             .... 1114

ORBITAL ENERGIES
----------------

  NO   OCC          E(Eh)            E(eV)
   0   2.0000     -89.006718     -2421.9959
   1   2.0000     -88.969566     -2420.9850
   2   2.0000     -88.969348     -2420.9790
   3   2.0000     -88.968246     -2420.9490
   4   2.0000     -88.967432     -2420.9269
   5   2.0000     -19.231869      -523.3258
   6   2.0000     -19.231848      -523.3252
   7   2.0000     -19.215527      -522.8811
   8   2.0000     -19.212527      -522.7994
   9   2.0000     -14.458329      -393.4311
  10   2.0000     -14.457900      -393.4195
  11   2.0000     -14.414130      -392.2284
  12   2.0000     -14.411804      -392.1651
  13   2.0000     -14.410149      -392.1201
  14   2.0000     -14.409712      -392.1082
  15   2.0000     -10.381649      -282.4990
  16   2.0000     -10.381501      -282.4950
  17   2.0000     -10.366542      -282.0879
  18   2.0000     -10.364339      -282.0280
  19   2.0000     -10.349863      -281.6341
  20   2.0000     -10.349440      -281.6226
  21   2.0000     -10.342979      -281.4468
  22   2.0000     -10.341646      -281.4105
  23   2.0000     -10.341105      -281.3958
  24   2.0000     -10.341046      -281.3942
  25   2.0000     -10.340458      -281.3782
  26   2.0000     -10.338944      -281.3370
  27   2.0000     -10.336892      -281.2811
  28   2.0000     -10.336301      -281.2650
  29   2.0000     -10.333982      -281.2019
  30   2.0000     -10.332710      -281.1673
  31   2.0000     -10.321584      -280.8646
  32   2.0000     -10.321176      -280.8535
  33   2.0000     -10.320393      -280.8322
  34   2.0000     -10.318316      -280.7756
  35   2.0000     -10.318282      -280.7747
  36   2.0000     -10.317212      -280.7456
  37   2.0000     -10.316537      -280.7273
  38   2.0000     -10.314843      -280.6811
  39   2.0000     -10.314008      -280.6584
  40   2.0000     -10.313296      -280.6391
  41   2.0000     -10.312957      -280.6298
  42   2.0000     -10.312494      -280.6172
  43   2.0000     -10.309656      -280.5400
  44   2.0000     -10.308059      -280.4965
  45   2.0000     -10.304103      -280.3889
  46   2.0000     -10.303018      -280.3594
  47   2.0000     -10.302141      -280.3355
  48   2.0000     -10.301860      -280.3279
  49   2.0000     -10.298982      -280.2495
  50   2.0000     -10.297062      -280.1973
  51   2.0000     -10.296850      -280.1915
  52   2.0000     -10.296747      -280.1887
  53   2.0000     -10.296463      -280.1810
  54   2.0000     -10.295942      -280.1668
  55   2.0000     -10.295438      -280.1531
  56   2.0000     -10.294698      -280.1330
  57   2.0000     -10.294371      -280.1241
  58   2.0000     -10.293798      -280.1085
  59   2.0000     -10.293279      -280.0944
  60   2.0000     -10.293095      -280.0894
  61   2.0000     -10.288258      -279.9577
  62   2.0000     -10.285614      -279.8858
  63   2.0000     -10.285202      -279.8746
  64   2.0000     -10.285129      -279.8726
  65   2.0000     -10.284951      -279.8678
  66   2.0000     -10.284455      -279.8543
  67   2.0000     -10.284081      -279.8441
  68   2.0000     -10.283474      -279.8276
  69   2.0000     -10.283198      -279.8201
  70   2.0000     -10.282654      -279.8052
  71   2.0000      -8.100962      -220.4384
  72   2.0000      -8.064533      -219.4471
  73   2.0000      -8.063498      -219.4189
  74   2.0000      -8.062973      -219.4047
  75   2.0000      -8.062510      -219.3920
  76   2.0000      -6.069992      -165.1729
  77   2.0000      -6.065959      -165.0631
  78   2.0000      -6.063676      -165.0010
  79   2.0000      -6.034086      -164.1958
  80   2.0000      -6.033132      -164.1699
  81   2.0000      -6.032340      -164.1483
  82   2.0000      -6.032133      -164.1427
  83   2.0000      -6.030099      -164.0873
  84   2.0000      -6.028890      -164.0544
  85   2.0000      -6.028488      -164.0435
  86   2.0000      -6.027932      -164.0284
  87   2.0000      -6.025984      -163.9754
  88   2.0000      -6.024960      -163.9475
  89   2.0000      -6.024590      -163.9374
  90   2.0000      -6.023942      -163.9198
  91   2.0000      -1.149868       -31.2895
  92   2.0000      -1.145102       -31.1598
  93   2.0000      -1.130427       -30.7605
  94   2.0000      -1.127925       -30.6924
  95   2.0000      -1.109346       -30.1868
  96   2.0000      -1.038481       -28.2585
  97   2.0000      -1.027009       -27.9463
  98   2.0000      -1.020865       -27.7792
  99   2.0000      -1.015591       -27.6356
 100   2.0000      -1.014156       -27.5966
 101   2.0000      -1.007714       -27.4213
 102   2.0000      -0.996321       -27.1113
 103   2.0000      -0.995067       -27.0771
 104   2.0000      -0.990559       -26.9545
 105   2.0000      -0.989305       -26.9204
 106   2.0000      -0.972129       -26.4530
 107   2.0000      -0.969684       -26.3864
 108   2.0000      -0.963415       -26.2159
 109   2.0000      -0.955436       -25.9987
 110   2.0000      -0.944443       -25.6996
 111   2.0000      -0.922615       -25.1056
 112   2.0000      -0.920876       -25.0583
 113   2.0000      -0.903652       -24.5896
 114   2.0000      -0.898174       -24.4406
 115   2.0000      -0.886647       -24.1269
 116   2.0000      -0.883686       -24.0463
 117   2.0000      -0.880435       -23.9579
 118   2.0000      -0.878101       -23.8943
 119   2.0000      -0.875453       -23.8223
 120   2.0000      -0.873504       -23.7693
 121   2.0000      -0.867824       -23.6147
 122   2.0000      -0.860241       -23.4084
 123   2.0000      -0.827667       -22.5220
 124   2.0000      -0.827096       -22.5064
 125   2.0000      -0.825143       -22.4533
 126   2.0000      -0.818491       -22.2723
 127   2.0000      -0.812533       -22.1101
 128   2.0000      -0.811919       -22.0934
 129   2.0000      -0.800418       -21.7805
 130   2.0000      -0.796323       -21.6690
 131   2.0000      -0.791315       -21.5328
 132   2.0000      -0.769858       -20.9489
 133   2.0000      -0.758947       -20.6520
 134   2.0000      -0.758540       -20.6409
 135   2.0000      -0.745448       -20.2847
 136   2.0000      -0.738899       -20.1065
 137   2.0000      -0.712422       -19.3860
 138   2.0000      -0.704886       -19.1809
 139   2.0000      -0.701193       -19.0804
 140   2.0000      -0.700964       -19.0742
 141   2.0000      -0.694861       -18.9081
 142   2.0000      -0.692652       -18.8480
 143   2.0000      -0.686274       -18.6745
 144   2.0000      -0.676649       -18.4126
 145   2.0000      -0.674892       -18.3647
 146   2.0000      -0.672599       -18.3024
 147   2.0000      -0.667832       -18.1726
 148   2.0000      -0.661530       -18.0011
 149   2.0000      -0.657559       -17.8931
 150   2.0000      -0.649088       -17.6626
 151   2.0000      -0.643854       -17.5202
 152   2.0000      -0.634344       -17.2614
 153   2.0000      -0.629697       -17.1349
 154   2.0000      -0.626524       -17.0486
 155   2.0000      -0.621875       -16.9221
 156   2.0000      -0.608141       -16.5483
 157   2.0000      -0.606179       -16.4950
 158   2.0000      -0.604024       -16.4363
 159   2.0000      -0.600802       -16.3486
 160   2.0000      -0.598113       -16.2755
 161   2.0000      -0.591982       -16.1086
 162   2.0000      -0.585955       -15.9446
 163   2.0000      -0.584103       -15.8942
 164   2.0000      -0.577909       -15.7257
 165   2.0000      -0.576049       -15.6751
 166   2.0000      -0.565804       -15.3963
 167   2.0000      -0.564997       -15.3744
 168   2.0000      -0.560294       -15.2464
 169   2.0000      -0.556045       -15.1308
 170   2.0000      -0.549977       -14.9656
 171   2.0000      -0.545856       -14.8535
 172   2.0000      -0.544587       -14.8190
 173   2.0000      -0.543550       -14.7907
 174   2.0000      -0.539342       -14.6763
 175   2.0000      -0.534907       -14.5556
 176   2.0000      -0.533023       -14.5043
 177   2.0000      -0.531824       -14.4717
 178   2.0000      -0.531461       -14.4618
 179   2.0000      -0.530463       -14.4346
 180   2.0000      -0.520874       -14.1737
 181   2.0000      -0.520489       -14.1632
 182   2.0000      -0.518620       -14.1124
 183   2.0000      -0.517043       -14.0695
 184   2.0000      -0.514242       -13.9932
 185   2.0000      -0.512175       -13.9370
 186   2.0000      -0.511699       -13.9240
 187   2.0000      -0.510867       -13.9014
 188   2.0000      -0.509049       -13.8519
 189   2.0000      -0.508334       -13.8325
 190   2.0000      -0.504828       -13.7371
 191   2.0000      -0.504129       -13.7181
 192   2.0000      -0.497645       -13.5416
 193   2.0000      -0.496716       -13.5163
 194   2.0000      -0.495616       -13.4864
 195   2.0000      -0.491826       -13.3833
 196   2.0000      -0.489895       -13.3307
 197   2.0000      -0.488118       -13.2824
 198   2.0000      -0.484625       -13.1873
 199   2.0000      -0.484016       -13.1708
 200   2.0000      -0.482100       -13.1186
 201   2.0000      -0.479957       -13.0603
 202   2.0000      -0.471886       -12.8407
 203   2.0000      -0.469001       -12.7622
 204   2.0000      -0.465007       -12.6535
 205   2.0000      -0.463397       -12.6097
 206   2.0000      -0.461482       -12.5576
 207   2.0000      -0.453102       -12.3295
 208   2.0000      -0.449219       -12.2239
 209   2.0000      -0.447870       -12.1872
 210   2.0000      -0.444518       -12.0960
 211   2.0000      -0.443600       -12.0710
 212   2.0000      -0.441540       -12.0149
 213   2.0000      -0.440438       -11.9849
 214   2.0000      -0.439151       -11.9499
 215   2.0000      -0.438489       -11.9319
 216   2.0000      -0.436948       -11.8900
 217   2.0000      -0.435657       -11.8548
 218   2.0000      -0.433173       -11.7872
 219   2.0000      -0.430807       -11.7229
 220   2.0000      -0.429896       -11.6981
 221   2.0000      -0.429508       -11.6875
 222   2.0000      -0.428028       -11.6472
 223   2.0000      -0.424958       -11.5637
 224   2.0000      -0.421962       -11.4822
 225   2.0000      -0.421710       -11.4753
 226   2.0000      -0.415179       -11.2976
 227   2.0000      -0.414985       -11.2923
 228   2.0000      -0.406332       -11.0569
 229   2.0000      -0.403158       -10.9705
 230   2.0000      -0.399216       -10.8632
 231   2.0000      -0.395798       -10.7702
 232   2.0000      -0.392938       -10.6924
 233   2.0000      -0.377981       -10.2854
 234   2.0000      -0.377472       -10.2715
 235   2.0000      -0.376234       -10.2379
 236   2.0000      -0.375260       -10.2113
 237   2.0000      -0.371792       -10.1170
 238   2.0000      -0.369177       -10.0458
 239   2.0000      -0.363750        -9.8981
 240   2.0000      -0.356172        -9.6919
 241   2.0000      -0.352224        -9.5845
 242   2.0000      -0.349647        -9.5144
 243   2.0000      -0.340583        -9.2677
 244   2.0000      -0.336690        -9.1618
 245   2.0000      -0.333849        -9.0845
 246   2.0000      -0.320625        -8.7246
 247   2.0000      -0.315031        -8.5724
 248   2.0000      -0.311828        -8.4853
 249   2.0000      -0.304821        -8.2946
 250   2.0000      -0.304093        -8.2748
 251   2.0000      -0.294239        -8.0066
 252   2.0000      -0.291763        -7.9393
 253   2.0000      -0.280205        -7.6248
 254   2.0000      -0.243904        -6.6370
 255   0.0000      -0.119247        -3.2449
 256   0.0000      -0.098155        -2.6709
 257   0.0000      -0.085135        -2.3166
 258   0.0000      -0.082559        -2.2465
 259   0.0000      -0.054702        -1.4885

MULLIKEN ATOMIC CHARGES
-----------------------
   0 C :    0.250504
   1 C :   -0.320213
   2 C :   -0.176122
   3 N :    0.153947
   4 C :   -0.206755
   5 N :    0.173681
   6 C :    0.037889
   7 C :    0.013295
   8 C :   -0.086198
   9 C :    0.096154
  10 C :    0.097903
  11 C :   -0.084869
  12 C :   -0.021463
  13 C :    0.037807
  14 C :    0.036612
  15 C :   -0.016689
  16 C :    0.142324
  17 O :   -0.142401
  18 C :   -0.139581
  19 C :    0.057597
  20 C :   -0.108600
  21 C :    0.021958
  22 C :   -0.000258
  23 C :    0.009693
  24 S :    0.155679
  25 C :   -0.068620
  26 C :   -0.076610
  27 S :    0.209777
  28 C :   -0.110536
  29 C :    0.020988
  30 C :    0.024171
  31 N :    0.053291
  32 C :   -0.113324
  33 C :    0.136956
  34 O :   -0.099713
  35 C :   -0.017024
  36 C :   -0.015862
  37 C :    0.139851
  38 O :   -0.102549
  39 C :   -0.115737
  40 N :    0.049718
  41 C :   -0.115849
  42 S :    0.214452
  43 C :   -0.070793
  44 C :   -0.079580
  45 C :    0.019688
  46 C :   -0.027369
  47 S :    0.211388
  48 C :    0.005295
  49 C :   -0.121570
  50 S :    0.150366
  51 C :    0.046620
  52 C :   -0.094633
  53 C :    0.311259
  54 C :   -0.353679
  55 C :   -0.182100
  56 N :    0.142880
  57 C :   -0.203248
  58 N :    0.159360
  59 C :    0.043441
  60 C :    0.003240
  61 C :    0.158184
  62 O :   -0.156891
  63 C :   -0.083599
  64 C :    0.099104
  65 C :    0.095527
  66 C :   -0.080411
  67 C :   -0.017545
  68 C :    0.035519
  69 C :    0.036289
  70 C :   -0.016828
  71 H :   -0.011400
  72 H :   -0.005263
  73 H :   -0.010883
  74 H :   -0.005318
  75 H :   -0.006180
  76 H :   -0.017022
  77 H :    0.028556
  78 H :    0.002854
  79 H :   -0.006088
  80 H :    0.020343
  81 H :    0.019939
  82 H :   -0.006198
  83 H :    0.022013
  84 H :    0.014483
  85 H :   -0.014889
  86 H :   -0.009066
  87 H :   -0.010074
  88 H :   -0.005918
  89 H :   -0.006190
  90 H :   -0.018887
Sum of atomic charges:   -0.0000000

LOEWDIN ATOMIC CHARGES
----------------------
   0 C :    0.059681
   1 C :   -0.140021
   2 C :   -0.018940
   3 N :   -0.052822
   4 C :   -0.034668
   5 N :   -0.048520
   6 C :   -0.022227
   7 C :   -0.056942
   8 C :    0.032129
   9 C :   -0.009457
  10 C :   -0.005310
  11 C :    0.014574
  12 C :   -0.007113
  13 C :   -0.013011
  14 C :   -0.013716
  15 C :   -0.009236
  16 C :    0.083380
  17 O :   -0.143446
  18 C :   -0.095024
  19 C :    0.050177
  20 C :   -0.168901
  21 C :   -0.018368
  22 C :   -0.199412
  23 C :   -0.179302
  24 S :    0.446875
  25 C :   -0.065210
  26 C :   -0.168306
  27 S :    0.484443
  28 C :   -0.183856
  29 C :   -0.051749
  30 C :   -0.049515
  31 N :   -0.002843
  32 C :   -0.036559
  33 C :    0.055454
  34 O :   -0.096134
  35 C :   -0.011780
  36 C :   -0.012250
  37 C :    0.055704
  38 O :   -0.098680
  39 C :   -0.038075
  40 N :   -0.002877
  41 C :   -0.188364
  42 S :    0.516570
  43 C :   -0.163863
  44 C :   -0.072263
  45 C :   -0.181949
  46 C :   -0.203172
  47 S :    0.479853
  48 C :   -0.014604
  49 C :   -0.169697
  50 S :    0.435514
  51 C :    0.045517
  52 C :   -0.095432
  53 C :    0.077015
  54 C :   -0.144063
  55 C :   -0.016925
  56 N :   -0.057323
  57 C :   -0.026310
  58 N :   -0.053170
  59 C :   -0.025971
  60 C :   -0.054412
  61 C :    0.087513
  62 O :   -0.143767
  63 C :    0.030740
  64 C :   -0.008611
  65 C :   -0.006566
  66 C :    0.018892
  67 C :   -0.005432
  68 C :   -0.014360
  69 C :   -0.013234
  70 C :   -0.010033
  71 H :    0.039325
  72 H :    0.038544
  73 H :    0.034071
  74 H :    0.032981
  75 H :    0.032440
  76 H :    0.031849
  77 H :    0.052414
  78 H :    0.041718
  79 H :    0.031567
  80 H :    0.046641
  81 H :    0.046561
  82 H :    0.030658
  83 H :    0.039363
  84 H :    0.043417
  85 H :    0.038289
  86 H :    0.038793
  87 H :    0.034570
  88 H :    0.032754
  89 H :    0.032338
  90 H :    0.031464

  Mayer bond orders larger than 0.100000
B(  0-C ,  1-C ) :   1.6601 B(  0-C ,  6-C ) :   1.0021 B(  0-C , 18-C ) :   1.0323
B(  1-C ,  2-C ) :   1.1383 B(  1-C ,  4-C ) :   1.1502 B(  2-C ,  3-N ) :   2.9898
B(  4-C ,  5-N ) :   3.0278 B(  6-C ,  7-C ) :   1.2146 B(  6-C , 11-C ) :   1.4585
B(  7-C ,  8-C ) :   1.4752 B(  7-C , 16-C ) :   0.9202 B(  8-C ,  9-C ) :   1.1836
B(  8-C , 71-H ) :   1.0160 B(  9-C , 10-C ) :   1.2573 B(  9-C , 15-C ) :   1.2458
B( 10-C , 11-C ) :   1.2030 B( 10-C , 12-C ) :   1.2407 B( 11-C , 72-H ) :   0.9944
B( 12-C , 13-C ) :   1.4902 B( 12-C , 73-H ) :   0.9976 B( 13-C , 14-C ) :   1.2607
B( 13-C , 74-H ) :   0.9883 B( 14-C , 15-C ) :   1.4897 B( 14-C , 75-H ) :   0.9883
B( 15-C , 76-H ) :   0.9973 B( 16-C , 17-O ) :   2.2739 B( 16-C , 18-C ) :   0.9358
B( 18-C , 19-C ) :   1.6530 B( 19-C , 20-C ) :   1.1369 B( 19-C , 77-H ) :   0.9467
B( 20-C , 21-C ) :   1.4497 B( 20-C , 24-S ) :   1.0903 B( 21-C , 22-C ) :   1.2799
B( 21-C , 78-H ) :   1.0053 B( 22-C , 23-C ) :   1.3715 B( 22-C , 27-S ) :   1.0374
B( 23-C , 24-S ) :   1.0800 B( 23-C , 25-C ) :   1.3000 B( 25-C , 26-C ) :   1.4259
B( 25-C , 79-H ) :   1.0013 B( 26-C , 27-S ) :   1.1267 B( 26-C , 28-C ) :   1.2401
B( 28-C , 29-C ) :   1.3175 B( 28-C , 41-C ) :   0.1178 B( 28-C , 42-S ) :   1.1636
B( 29-C , 30-C ) :   1.1896 B( 29-C , 40-N ) :   1.4203 B( 30-C , 31-N ) :   1.4225
B( 30-C , 41-C ) :   1.3227 B( 31-N , 32-C ) :   1.7096 B( 32-C , 33-C ) :   0.8926
B( 32-C , 39-C ) :   1.1036 B( 33-C , 34-O ) :   2.2534 B( 33-C , 35-C ) :   1.0226
B( 35-C , 36-C ) :   1.6802 B( 35-C , 80-H ) :   0.9977 B( 36-C , 37-C ) :   1.0218
B( 36-C , 81-H ) :   0.9977 B( 37-C , 38-O ) :   2.2509 B( 37-C , 39-C ) :   0.8936
B( 39-C , 40-N ) :   1.7085 B( 41-C , 42-S ) :   1.1570 B( 41-C , 43-C ) :   1.2373
B( 43-C , 44-C ) :   1.4323 B( 43-C , 47-S ) :   1.1251 B( 44-C , 45-C ) :   1.2862
B( 44-C , 82-H ) :   1.0019 B( 45-C , 46-C ) :   1.3552 B( 45-C , 50-S ) :   1.0941
B( 46-C , 47-S ) :   1.0368 B( 46-C , 48-C ) :   1.2836 B( 48-C , 49-C ) :   1.4447
B( 48-C , 83-H ) :   0.9800 B( 49-C , 50-S ) :   1.0713 B( 49-C , 51-C ) :   1.2268
B( 51-C , 52-C ) :   1.5896 B( 51-C , 84-H ) :   0.9155 B( 52-C , 53-C ) :   1.0768
B( 52-C , 61-C ) :   0.9401 B( 53-C , 54-C ) :   1.6240 B( 53-C , 59-C ) :   0.9833
B( 54-C , 55-C ) :   1.1474 B( 54-C , 57-C ) :   1.1390 B( 55-C , 56-N ) :   2.9656
B( 57-C , 58-N ) :   2.9882 B( 59-C , 60-C ) :   1.2183 B( 59-C , 66-C ) :   1.4527
B( 60-C , 61-C ) :   0.9526 B( 60-C , 63-C ) :   1.4696 B( 61-C , 62-O ) :   2.1708
B( 63-C , 64-C ) :   1.1782 B( 63-C , 85-H ) :   1.0159 B( 64-C , 65-C ) :   1.2595
B( 64-C , 70-C ) :   1.2431 B( 65-C , 66-C ) :   1.2038 B( 65-C , 67-C ) :   1.2408
B( 66-C , 86-H ) :   0.9895 B( 67-C , 68-C ) :   1.4885 B( 67-C , 87-H ) :   0.9969
B( 68-C , 69-C ) :   1.2610 B( 68-C , 88-H ) :   0.9883 B( 69-C , 70-C ) :   1.4897
B( 69-C , 89-H ) :   0.9882 B( 70-C , 90-H ) :   0.9972

-----------------------------------------------------------------------------
         ABSORPTION SPECTRUM VIA TRANSITION ELECTRIC DIPOLE MOMENTS
-----------------------------------------------------------------------------
State   Energy  Wavelength   fosc         T2         TX        TY        TZ
        (cm-1)    (nm)                  (au**2)     (au)      (au)      (au)
-----------------------------------------------------------------------------
   0   11908.4    839.7   1.256956279  34.74905   4.33778   1.18189   3.81259
   1   17210.8    581.0   0.282294206   5.39977  -0.34902   2.29440  -0.11694
   2   19765.2    505.9   0.625729932  10.42226   2.66863   0.03624   1.81641
   3   21087.0    474.2   0.445343376   6.95274  -0.95500  -2.02155  -1.39788
   4   21580.2    463.4   0.101791773   1.55286  -0.82789   0.17220  -0.91532
   5   23738.2    421.3   0.029395615   0.40767  -0.16528   0.54738  -0.28412
   6   23997.1    416.7   0.016583429   0.22750  -0.11052   0.28629  -0.36514
   7   24480.9    408.5   0.001582496   0.02128  -0.11952   0.04533   0.07030
   8   25415.4    393.5   0.027319617   0.35388  -0.16552  -0.23708   0.51988
   9   25623.5    390.3   0.000033112   0.00043   0.00749   0.01078  -0.01591
  10   25781.8    387.9   0.015452677   0.19732  -0.01086  -0.43015  -0.11032
  11   26543.9    376.7   0.000604396   0.00750   0.06333   0.00824  -0.05846
  12   26934.2    371.3   0.016032534   0.19596  -0.44247   0.01216  -0.00564
  13   27454.3    364.2   0.231795214   2.77951  -0.89319   0.24074  -1.38700
  14   27730.9    360.6   0.006945247   0.08245   0.18127   0.01170  -0.22239
  15   28099.4    355.9   0.156282032   1.83100  -0.68617  -0.01559  -1.16616
  16   28395.0    352.2   0.115795471   1.34253  -0.63952  -0.03342  -0.96562
  17   28715.7    348.2   0.016038109   0.18387   0.04124   0.42632  -0.02041
  18   28935.6    345.6   0.025843056   0.29403  -0.48590   0.02558  -0.23932
  19   29442.8    339.6   0.000234899   0.00263   0.04485  -0.02449   0.00389
  20   29706.6    336.6   0.251477107   2.78689   0.94947  -0.44834   1.29784
  21   30112.4    332.1   0.041685091   0.45573  -0.09074   0.46795   0.47805
  22   30393.3    329.0   0.020709571   0.22432   0.44952  -0.06044   0.13638
  23   30560.2    327.2   0.002984935   0.03216  -0.12666   0.05481  -0.11449
  24   30708.1    325.6   0.022764313   0.24405   0.35009  -0.20810   0.27960
  25   31093.2    321.6   0.002319208   0.02456  -0.14177  -0.01961  -0.06382
  26   31473.5    317.7   0.003354860   0.03509   0.03991  -0.09574  -0.15599
  27   31979.6    312.7   0.022667809   0.23335  -0.13306   0.35128  -0.30373
  28   32203.1    310.5   0.141214004   1.44363  -0.20784  -0.97161   0.67557
  29   32462.1    308.1   0.655475728   6.64746  -1.14707   0.58758  -2.23303
  30   32959.4    303.4   0.045351061   0.45298  -0.23464   0.46746  -0.42356
  31   33362.4    299.7   0.273795350   2.70175   0.29716  -0.68843   1.46271
  32   33688.4    296.8   0.002064336   0.02017   0.03691  -0.10070   0.09312
  33   33751.4    296.3   0.093037674   0.90749  -0.15576   0.87487  -0.34327
  34   34000.8    294.1   0.011691445   0.11320   0.07592  -0.32705   0.02188
  35   34083.5    293.4   0.002586349   0.02498  -0.05915  -0.00116   0.14657
  36   34278.5    291.7   0.002086370   0.02004   0.06366   0.12066  -0.03778
  37   34623.5    288.8   0.000699586   0.00665  -0.02431   0.06228  -0.04672
  38   35282.4    283.4   0.322311509   3.00742   0.33557  -1.49952   0.80390
  39   35474.9    281.9   0.091699786   0.85099  -0.00222   0.91283   0.13310
  40   35958.5    278.1   0.164826309   1.50904   0.46811  -0.28515   1.09936
  41   36213.6    276.1   0.281922430   2.56291  -0.16183   0.87111  -1.33337
  42   36404.3    274.7   0.364793925   3.29891  -0.39881   0.83319  -1.56386
  43   37074.0    269.7   0.004182187   0.03714  -0.08680  -0.16356   0.05341
  44   37222.6    268.7   0.242065786   2.14093  -0.04702   1.43803  -0.26607
  45   37299.9    268.1   0.006049148   0.05339   0.16201  -0.00199   0.16474
  46   37674.2    265.4   0.057372906   0.50135   0.47766   0.03302   0.52163
  47   37857.2    264.2   0.032854274   0.28571   0.06849  -0.24505   0.47007
  48   37939.4    263.6   0.002517243   0.02184  -0.01014   0.04488   0.14045
  49   38063.8    262.7   0.011455266   0.09908  -0.18299   0.08223  -0.24254
  50   38185.9    261.9   0.053636358   0.46242  -0.38794   0.19628  -0.52287
  51   38318.9    261.0   0.056341766   0.48405   0.12488   0.27048  -0.62873
  52   38669.6    258.6   0.004017728   0.03420  -0.07220   0.16090   0.05571
  53   38751.3    258.1   0.018151847   0.15421  -0.12496  -0.36612   0.06746
  54   38928.3    256.9   0.020133123   0.17026  -0.12216   0.21378  -0.33112
  55   39004.1    256.4   0.076813739   0.64834  -0.09309  -0.75719   0.25758
  56   39152.3    255.4   0.003096030   0.02603   0.07849  -0.11335   0.08381
  57   39292.5    254.5   0.012635202   0.10586  -0.18913   0.09980   0.24522
  58   39331.9    254.2   0.014199431   0.11885  -0.17317  -0.24449  -0.17055
  59   39355.6    254.1   0.027145599   0.22707  -0.17401  -0.44359  -0.00423
  60   39805.1    251.2   0.011668152   0.09650  -0.29458  -0.09703  -0.01761
  61   39904.4    250.6   0.056049518   0.46241   0.11144   0.36847   0.56055
  62   39905.7    250.6   0.016756534   0.13824  -0.03062   0.30678  -0.20781
  63   40194.1    248.8   0.048439491   0.39675   0.41043   0.28502   0.38348

FINAL SINGLE POINT ENERGY     -4762.182411350841

DIPOLE MOMENT
-------------
                                X             Y             Z
Electronic contribution:     -1.95391      13.12239       5.61105
Nuclear contribution   :      2.28549     -11.81007      -5.03248
                        -----------------------------------------
Total Dipole Moment    :      0.33158       1.31232       0.57857
                        -----------------------------------------
Magnitude (a.u.)       :      1.47203
Magnitude (Debye)      :      3.74160

Rotational constants in cm-1:     0.001646     0.000228     0.000205
Rotational constants in MHz :    49.353419     6.822909     6.144087

                             ****ORCA TERMINATED NORMALLY****
TOTAL RUN TIME: 0 days 0 hours 9 minutes 4 seconds 79 msec
