                         Program Version 4.2.0 -  RELEASE  -
|  1> # ORCA input file
|  2> # SCF done       -184.886138036556          0.000765901367
|  3> ! CAM-B3LYP def2-SVP def2/J RIJCOSX Grid4 TightSCF
|  4> %maxcore 5000
|  5> %tddft
|  6>     Mode sTDDFT
|  7>     Ethresh 5.0
|  8>     maxcore 5000
|  9> end
| 10>
| 11> %pal
| 12>   nprocs 6
| 13>   end
| 14> * xyz 0 1
| 15>    C       -4.02236         8.13575        -5.39674
| 16>    C       -3.37651         8.49886        -4.24192
| 17>    C       -3.12121         9.82065        -3.83546
| 18>    N       -2.90161        10.86643        -3.41240
| 19>    C       -2.82216         7.57674        -3.33517
| 20>    N       -2.31428         6.88920        -2.56604
| 21>    C       -4.33635         9.01556        -6.51262
| 22>    C       -4.58473         8.21325        -7.66604
| 23>    C       -4.86143         8.77326        -8.87912
| 24>    C       -4.91227        10.18177        -8.99369
| 25>    C       -4.67776        10.98745        -7.84179
| 26>    C       -4.38589        10.38072        -6.59835
| 27>    C       -4.73693        12.38974        -7.97106
| 28>    C       -5.01106        12.97103        -9.17923
| 29>    C       -5.23957        12.17741       -10.31282
| 30>    C       -5.19100        10.81249       -10.22175
| 31>    C       -4.49572         6.78644        -7.29971
| 32>    O       -4.59547         5.82101        -8.01978
| 33>    C       -4.30909         6.78275        -5.82064
| 34>    C       -4.56061         5.66870        -5.08590
| 35>    C       -4.76428         5.65660        -3.67853
| 36>    N       -5.45005         6.64576        -3.03773
| 37>    N       -5.16940         6.77815        -1.80302
| 38>    C       -4.43620         5.90675        -1.14020
| 39>    N       -4.43433         4.64563        -1.67114
| 40>    N       -4.49522         4.59050        -2.92948
| 41>    C       -3.74221         6.25050         0.06572
| 42>    C       -3.54760         7.58436         0.34464
| 43>    C       -2.73314         7.94962         1.42872
| 44>    C       -2.31221         9.20098         1.85933
| 45>    C       -2.63964        10.48681         1.18369
| 46>    C       -2.94167        11.65032         2.14256
| 47>    N       -3.87927        12.54991         1.49705
| 48>    C       -1.50551        10.85223         0.19778
| 49>    N       -1.88314        12.00181        -0.60706
| 50>    C       -1.42613         8.96874         2.97976
| 51>    C       -0.70653         9.81132         3.74249
| 52>    C        0.18158         9.31437         4.83732
| 53>    C        0.17364         7.83251         5.02727
| 54>    C       -0.54296         7.00203         4.24987
| 55>    C       -1.35318         7.51445         3.20782
| 56>    C       -2.14345         6.90486         2.25720
| 57>    C       -2.40291         5.54359         1.95955
| 58>    C       -3.16650         5.22701         0.88467
| 59>    C       -0.14374        10.07665         6.09367
| 60>    C       -0.78027         9.54904         7.14057
| 61>    C       -1.04136        10.29150         8.34260
| 62>    N       -0.54290        11.48839         8.57684
| 63>    N       -0.88452        12.20265         9.56792
| 64>    C       -2.00855        11.78616        10.22039
| 65>    N       -2.21595        10.47572        10.22590
| 66>    N       -1.66636         9.69452         9.39475
| 67>    C       -2.78238        12.65578        11.05049
| 68>    C       -3.22661        13.86705        10.63587
| 69>    C       -3.89106        14.90251        11.40790
| 70>    C       -4.25619        14.83286        12.72598
| 71>    C       -4.90495        15.87325        13.42445
| 72>    N       -5.43236        16.68082        14.04699
| 73>    C       -4.04978        13.71657        13.56360
| 74>    N       -3.90934        12.84882        14.30200
| 75>    C       -4.09052        16.04398        10.52307
| 76>    C       -3.63048        15.70561         9.21625
| 77>    C       -3.12981        14.32395         9.21995
| 78>    O       -2.78268        13.65401         8.27085
| 79>    C       -3.69794        16.58960         8.17770
| 80>    C       -4.22926        17.87938         8.40223
| 81>    C       -4.68613        18.22713         9.70646
| 82>    C       -4.60952        17.28957        10.76144
| 83>    C       -5.21450        19.51654         9.92010
| 84>    C       -5.28998        20.42044         8.89547
| 85>    C       -4.84083        20.07693         7.61158
| 86>    C       -4.32126        18.83385         7.37026
| 87>    H       -5.03879         8.15102        -9.74366
| 88>    H       -4.21788        11.00994        -5.73749
| 89>    H       -4.55859        12.99707        -7.09574
| 90>    H       -5.05309        14.04632        -9.26777
| 91>    H       -5.45464        12.65219       -11.25839
| 92>    H       -5.36649        10.19625       -11.09136
| 93>    H       -4.67581         4.72931        -5.61117
| 94>    H       -3.99680         8.33410        -0.28945
| 95>    H       -3.54926        10.34094         0.59252
| 96>    H       -2.00030        12.14913         2.42749
| 97>    H       -3.41351        11.26330         3.05205
| 98>    H       -3.45838        12.87942         0.63179
| 99>    H       -4.06684        13.35195         2.08899
|100>    H       -1.27250         9.95786        -0.40454
|101>    H       -0.60827        11.11154         0.76892
|102>    H       -2.57405        11.72772        -1.30114
|103>    H       -1.07888        12.35019        -1.11785
|104>    H       -0.73551        10.88145         3.60212
|105>    H        1.20836         9.61018         4.56001
|106>    H        0.80043         7.45820         5.82214
|107>    H       -0.50804         5.93384         4.40542
|108>    H       -1.97151         4.77264         2.58033
|109>    H       -3.36107         4.20182         0.61169
|110>    H        0.16022        11.11423         6.12340
|111>    H       -1.12805         8.52669         7.14539
|112>    H       -2.99182        12.28401        12.04356
|113>    H       -3.34626        16.30898         7.19600
|114>    H       -4.96421        17.58315        11.73655
|115>    H       -5.55976        19.77556        10.91019
|116>    H       -5.69693        21.40531         9.06876
|117>    H       -4.90821        20.80238         6.81473
|118>    H       -3.97365        18.56441         6.38369
|119> *
|120>
|121>                          ****END OF INPUT****

CARTESIAN COORDINATES (ANGSTROEM)
---------------------------------
  C     -4.022360    8.135750   -5.396740
  C     -3.376510    8.498860   -4.241920
  C     -3.121210    9.820650   -3.835460
  N     -2.901610   10.866430   -3.412400
  C     -2.822160    7.576740   -3.335170
  N     -2.314280    6.889200   -2.566040
  C     -4.336350    9.015560   -6.512620
  C     -4.584730    8.213250   -7.666040
  C     -4.861430    8.773260   -8.879120
  C     -4.912270   10.181770   -8.993690
  C     -4.677760   10.987450   -7.841790
  C     -4.385890   10.380720   -6.598350
  C     -4.736930   12.389740   -7.971060
  C     -5.011060   12.971030   -9.179230
  C     -5.239570   12.177410  -10.312820
  C     -5.191000   10.812490  -10.221750
  C     -4.495720    6.786440   -7.299710
  O     -4.595470    5.821010   -8.019780
  C     -4.309090    6.782750   -5.820640
  C     -4.560610    5.668700   -5.085900
  C     -4.764280    5.656600   -3.678530
  N     -5.450050    6.645760   -3.037730
  N     -5.169400    6.778150   -1.803020
  C     -4.436200    5.906750   -1.140200
  N     -4.434330    4.645630   -1.671140
  N     -4.495220    4.590500   -2.929480
  C     -3.742210    6.250500    0.065720
  C     -3.547600    7.584360    0.344640
  C     -2.733140    7.949620    1.428720
  C     -2.312210    9.200980    1.859330
  C     -2.639640   10.486810    1.183690
  C     -2.941670   11.650320    2.142560
  N     -3.879270   12.549910    1.497050
  C     -1.505510   10.852230    0.197780
  N     -1.883140   12.001810   -0.607060
  C     -1.426130    8.968740    2.979760
  C     -0.706530    9.811320    3.742490
  C      0.181580    9.314370    4.837320
  C      0.173640    7.832510    5.027270
  C     -0.542960    7.002030    4.249870
  C     -1.353180    7.514450    3.207820
  C     -2.143450    6.904860    2.257200
  C     -2.402910    5.543590    1.959550
  C     -3.166500    5.227010    0.884670
  C     -0.143740   10.076650    6.093670
  C     -0.780270    9.549040    7.140570
  C     -1.041360   10.291500    8.342600
  N     -0.542900   11.488390    8.576840
  N     -0.884520   12.202650    9.567920
  C     -2.008550   11.786160   10.220390
  N     -2.215950   10.475720   10.225900
  N     -1.666360    9.694520    9.394750
  C     -2.782380   12.655780   11.050490
  C     -3.226610   13.867050   10.635870
  C     -3.891060   14.902510   11.407900
  C     -4.256190   14.832860   12.725980
  C     -4.904950   15.873250   13.424450
  N     -5.432360   16.680820   14.046990
  C     -4.049780   13.716570   13.563600
  N     -3.909340   12.848820   14.302000
  C     -4.090520   16.043980   10.523070
  C     -3.630480   15.705610    9.216250
  C     -3.129810   14.323950    9.219950
  O     -2.782680   13.654010    8.270850
  C     -3.697940   16.589600    8.177700
  C     -4.229260   17.879380    8.402230
  C     -4.686130   18.227130    9.706460
  C     -4.609520   17.289570   10.761440
  C     -5.214500   19.516540    9.920100
  C     -5.289980   20.420440    8.895470
  C     -4.840830   20.076930    7.611580
  C     -4.321260   18.833850    7.370260
  H     -5.038790    8.151020   -9.743660
  H     -4.217880   11.009940   -5.737490
  H     -4.558590   12.997070   -7.095740
  H     -5.053090   14.046320   -9.267770
  H     -5.454640   12.652190  -11.258390
  H     -5.366490   10.196250  -11.091360
  H     -4.675810    4.729310   -5.611170
  H     -3.996800    8.334100   -0.289450
  H     -3.549260   10.340940    0.592520
  H     -2.000300   12.149130    2.427490
  H     -3.413510   11.263300    3.052050
  H     -3.458380   12.879420    0.631790
  H     -4.066840   13.351950    2.088990
  H     -1.272500    9.957860   -0.404540
  H     -0.608270   11.111540    0.768920
  H     -2.574050   11.727720   -1.301140
  H     -1.078880   12.350190   -1.117850
  H     -0.735510   10.881450    3.602120
  H      1.208360    9.610180    4.560010
  H      0.800430    7.458200    5.822140
  H     -0.508040    5.933840    4.405420
  H     -1.971510    4.772640    2.580330
  H     -3.361070    4.201820    0.611690
  H      0.160220   11.114230    6.123400
  H     -1.128050    8.526690    7.145390
  H     -2.991820   12.284010   12.043560
  H     -3.346260   16.308980    7.196000
  H     -4.964210   17.583150   11.736550
  H     -5.559760   19.775560   10.910190
  H     -5.696930   21.405310    9.068760
  H     -4.908210   20.802380    6.814730
  H     -3.973650   18.564410    6.383690

 Total Charge           Charge          ....    0
 Multiplicity           Mult            ....    1
 Number of Electrons    NEL             ....  482
 Basis Dimension        Dim             .... 1168

ORBITAL ENERGIES
----------------

  NO   OCC          E(Eh)            E(eV)
   0   2.0000     -19.226875      -523.1899
   1   2.0000     -19.224270      -523.1190
   2   2.0000     -14.470721      -393.7683
   3   2.0000     -14.470320      -393.7574
   4   2.0000     -14.467603      -393.6835
   5   2.0000     -14.465883      -393.6367
   6   2.0000     -14.465060      -393.6143
   7   2.0000     -14.462276      -393.5385
   8   2.0000     -14.460788      -393.4981
   9   2.0000     -14.459714      -393.4688
  10   2.0000     -14.432501      -392.7283
  11   2.0000     -14.426633      -392.5686
  12   2.0000     -14.425691      -392.5430
  13   2.0000     -14.425595      -392.5404
  14   2.0000     -14.374689      -391.1552
  15   2.0000     -14.352997      -390.5649
  16   2.0000     -10.377723      -282.3922
  17   2.0000     -10.375515      -282.3321
  18   2.0000     -10.360212      -281.9157
  19   2.0000     -10.357905      -281.8529
  20   2.0000     -10.356252      -281.8079
  21   2.0000     -10.355210      -281.7796
  22   2.0000     -10.354142      -281.7505
  23   2.0000     -10.353038      -281.7205
  24   2.0000     -10.352468      -281.7050
  25   2.0000     -10.351776      -281.6862
  26   2.0000     -10.336451      -281.2691
  27   2.0000     -10.330398      -281.1044
  28   2.0000     -10.327280      -281.0196
  29   2.0000     -10.327036      -281.0129
  30   2.0000     -10.326787      -281.0062
  31   2.0000     -10.326069      -280.9866
  32   2.0000     -10.318923      -280.7922
  33   2.0000     -10.313831      -280.6536
  34   2.0000     -10.312757      -280.6244
  35   2.0000     -10.312714      -280.6232
  36   2.0000     -10.309268      -280.5294
  37   2.0000     -10.306911      -280.4653
  38   2.0000     -10.306372      -280.4506
  39   2.0000     -10.306096      -280.4431
  40   2.0000     -10.305961      -280.4394
  41   2.0000     -10.305886      -280.4374
  42   2.0000     -10.305695      -280.4322
  43   2.0000     -10.305501      -280.4269
  44   2.0000     -10.305229      -280.4195
  45   2.0000     -10.302971      -280.3581
  46   2.0000     -10.302832      -280.3543
  47   2.0000     -10.298337      -280.2320
  48   2.0000     -10.298139      -280.2266
  49   2.0000     -10.293900      -280.1113
  50   2.0000     -10.293801      -280.1086
  51   2.0000     -10.293507      -280.1006
  52   2.0000     -10.293378      -280.0970
  53   2.0000     -10.293175      -280.0915
  54   2.0000     -10.293038      -280.0878
  55   2.0000     -10.292971      -280.0860
  56   2.0000     -10.292561      -280.0748
  57   2.0000     -10.287792      -279.9451
  58   2.0000     -10.281924      -279.7854
  59   2.0000     -10.281100      -279.7630
  60   2.0000     -10.280036      -279.7340
  61   2.0000     -10.278826      -279.7011
  62   2.0000     -10.273635      -279.5598
  63   2.0000     -10.271690      -279.5069
  64   2.0000     -10.270260      -279.4680
  65   2.0000     -10.270141      -279.4647
  66   2.0000     -10.267029      -279.3801
  67   2.0000     -10.265672      -279.3431
  68   2.0000     -10.264879      -279.3215
  69   2.0000     -10.263448      -279.2826
  70   2.0000     -10.261498      -279.2295
  71   2.0000     -10.259834      -279.1843
  72   2.0000      -1.199001       -32.6265
  73   2.0000      -1.197237       -32.5785
  74   2.0000      -1.140963       -31.0472
  75   2.0000      -1.138889       -30.9908
  76   2.0000      -1.097016       -29.8513
  77   2.0000      -1.094569       -29.7847
  78   2.0000      -1.031719       -28.0745
  79   2.0000      -1.028369       -27.9834
  80   2.0000      -1.010656       -27.5013
  81   2.0000      -1.008423       -27.4406
  82   2.0000      -1.008102       -27.4318
  83   2.0000      -1.003424       -27.3045
  84   2.0000      -0.994099       -27.0508
  85   2.0000      -0.993351       -27.0304
  86   2.0000      -0.984133       -26.7796
  87   2.0000      -0.978745       -26.6330
  88   2.0000      -0.977160       -26.5899
  89   2.0000      -0.962674       -26.1957
  90   2.0000      -0.947578       -25.7849
  91   2.0000      -0.933515       -25.4022
  92   2.0000      -0.932517       -25.3751
  93   2.0000      -0.932294       -25.3690
  94   2.0000      -0.920267       -25.0417
  95   2.0000      -0.912548       -24.8317
  96   2.0000      -0.904614       -24.6158
  97   2.0000      -0.890786       -24.2395
  98   2.0000      -0.889906       -24.2156
  99   2.0000      -0.888294       -24.1717
 100   2.0000      -0.878637       -23.9089
 101   2.0000      -0.873489       -23.7689
 102   2.0000      -0.858613       -23.3640
 103   2.0000      -0.843434       -22.9510
 104   2.0000      -0.836995       -22.7758
 105   2.0000      -0.836699       -22.7677
 106   2.0000      -0.835128       -22.7250
 107   2.0000      -0.829241       -22.5648
 108   2.0000      -0.820506       -22.3271
 109   2.0000      -0.815554       -22.1923
 110   2.0000      -0.810200       -22.0467
 111   2.0000      -0.800483       -21.7823
 112   2.0000      -0.783139       -21.3103
 113   2.0000      -0.772241       -21.0138
 114   2.0000      -0.771594       -20.9961
 115   2.0000      -0.766113       -20.8470
 116   2.0000      -0.754857       -20.5407
 117   2.0000      -0.732068       -19.9206
 118   2.0000      -0.722236       -19.6531
 119   2.0000      -0.719672       -19.5833
 120   2.0000      -0.715048       -19.4574
 121   2.0000      -0.712125       -19.3779
 122   2.0000      -0.710929       -19.3454
 123   2.0000      -0.703668       -19.1478
 124   2.0000      -0.701108       -19.0781
 125   2.0000      -0.696186       -18.9442
 126   2.0000      -0.688759       -18.7421
 127   2.0000      -0.685616       -18.6566
 128   2.0000      -0.683897       -18.6098
 129   2.0000      -0.681560       -18.5462
 130   2.0000      -0.663804       -18.0630
 131   2.0000      -0.659812       -17.9544
 132   2.0000      -0.653793       -17.7906
 133   2.0000      -0.648590       -17.6490
 134   2.0000      -0.647691       -17.6246
 135   2.0000      -0.635491       -17.2926
 136   2.0000      -0.633556       -17.2399
 137   2.0000      -0.631278       -17.1780
 138   2.0000      -0.617068       -16.7913
 139   2.0000      -0.615648       -16.7526
 140   2.0000      -0.614670       -16.7260
 141   2.0000      -0.608929       -16.5698
 142   2.0000      -0.604424       -16.4472
 143   2.0000      -0.598688       -16.2911
 144   2.0000      -0.593489       -16.1496
 145   2.0000      -0.584585       -15.9074
 146   2.0000      -0.583399       -15.8751
 147   2.0000      -0.573341       -15.6014
 148   2.0000      -0.571742       -15.5579
 149   2.0000      -0.569955       -15.5093
 150   2.0000      -0.558180       -15.1888
 151   2.0000      -0.556636       -15.1468
 152   2.0000      -0.555916       -15.1272
 153   2.0000      -0.555153       -15.1065
 154   2.0000      -0.554494       -15.0885
 155   2.0000      -0.554350       -15.0846
 156   2.0000      -0.547453       -14.8970
 157   2.0000      -0.546474       -14.8703
 158   2.0000      -0.542251       -14.7554
 159   2.0000      -0.541822       -14.7437
 160   2.0000      -0.540474       -14.7071
 161   2.0000      -0.528565       -14.3830
 162   2.0000      -0.527859       -14.3638
 163   2.0000      -0.526474       -14.3261
 164   2.0000      -0.524491       -14.2721
 165   2.0000      -0.522224       -14.2104
 166   2.0000      -0.521103       -14.1799
 167   2.0000      -0.519568       -14.1382
 168   2.0000      -0.517469       -14.0811
 169   2.0000      -0.514925       -14.0118
 170   2.0000      -0.514279       -13.9942
 171   2.0000      -0.511496       -13.9185
 172   2.0000      -0.509497       -13.8641
 173   2.0000      -0.508411       -13.8346
 174   2.0000      -0.506160       -13.7733
 175   2.0000      -0.503788       -13.7088
 176   2.0000      -0.502927       -13.6853
 177   2.0000      -0.500913       -13.6305
 178   2.0000      -0.494289       -13.4503
 179   2.0000      -0.493022       -13.4158
 180   2.0000      -0.482958       -13.1420
 181   2.0000      -0.478381       -13.0174
 182   2.0000      -0.475115       -12.9285
 183   2.0000      -0.474757       -12.9188
 184   2.0000      -0.473431       -12.8827
 185   2.0000      -0.469612       -12.7788
 186   2.0000      -0.464942       -12.6517
 187   2.0000      -0.460779       -12.5384
 188   2.0000      -0.458505       -12.4766
 189   2.0000      -0.457586       -12.4515
 190   2.0000      -0.456322       -12.4172
 191   2.0000      -0.452698       -12.3186
 192   2.0000      -0.452594       -12.3157
 193   2.0000      -0.450859       -12.2685
 194   2.0000      -0.449475       -12.2308
 195   2.0000      -0.448029       -12.1915
 196   2.0000      -0.445635       -12.1264
 197   2.0000      -0.444013       -12.0822
 198   2.0000      -0.442383       -12.0378
 199   2.0000      -0.442118       -12.0307
 200   2.0000      -0.441372       -12.0103
 201   2.0000      -0.439075       -11.9478
 202   2.0000      -0.437858       -11.9147
 203   2.0000      -0.437263       -11.8985
 204   2.0000      -0.435892       -11.8612
 205   2.0000      -0.435069       -11.8388
 206   2.0000      -0.433888       -11.8067
 207   2.0000      -0.431362       -11.7380
 208   2.0000      -0.428239       -11.6530
 209   2.0000      -0.427511       -11.6332
 210   2.0000      -0.427254       -11.6262
 211   2.0000      -0.419584       -11.4175
 212   2.0000      -0.416300       -11.3281
 213   2.0000      -0.409599       -11.1458
 214   2.0000      -0.408412       -11.1135
 215   2.0000      -0.407734       -11.0950
 216   2.0000      -0.405643       -11.0381
 217   2.0000      -0.397018       -10.8034
 218   2.0000      -0.390768       -10.6333
 219   2.0000      -0.387245       -10.5375
 220   2.0000      -0.385026       -10.4771
 221   2.0000      -0.381217       -10.3735
 222   2.0000      -0.370723       -10.0879
 223   2.0000      -0.367983       -10.0133
 224   2.0000      -0.366285        -9.9671
 225   2.0000      -0.356613        -9.7039
 226   2.0000      -0.348471        -9.4824
 227   2.0000      -0.346377        -9.4254
 228   2.0000      -0.338898        -9.2219
 229   2.0000      -0.330240        -8.9863
 230   2.0000      -0.325471        -8.8565
 231   2.0000      -0.322177        -8.7669
 232   2.0000      -0.313673        -8.5355
 233   2.0000      -0.303263        -8.2522
 234   2.0000      -0.303139        -8.2488
 235   2.0000      -0.301470        -8.2034
 236   2.0000      -0.296159        -8.0589
 237   2.0000      -0.286641        -7.7999
 238   2.0000      -0.286498        -7.7960
 239   2.0000      -0.279901        -7.6165
 240   2.0000      -0.225133        -6.1262
 241   0.0000      -0.108789        -2.9603
 242   0.0000      -0.106473        -2.8973
 243   0.0000      -0.074465        -2.0263
 244   0.0000      -0.067007        -1.8234
 245   0.0000      -0.062852        -1.7103

MULLIKEN ATOMIC CHARGES
-----------------------
   0 C :    0.307827
   1 C :   -0.333457
   2 C :   -0.143472
   3 N :    0.131477
   4 C :   -0.175319
   5 N :    0.156554
   6 C :    0.038141
   7 C :    0.003523
   8 C :   -0.074100
   9 C :    0.092882
  10 C :    0.095944
  11 C :   -0.078525
  12 C :   -0.016499
  13 C :    0.034251
  14 C :    0.038714
  15 C :   -0.013518
  16 C :    0.139799
  17 O :   -0.127775
  18 C :   -0.112882
  19 C :    0.094834
  20 C :   -0.081320
  21 N :   -0.048844
  22 N :   -0.041897
  23 C :   -0.008002
  24 N :   -0.047882
  25 N :   -0.014506
  26 C :    0.115644
  27 C :   -0.071855
  28 C :    0.044472
  29 C :   -0.008481
  30 C :   -0.071569
  31 C :    0.135501
  32 N :   -0.213180
  33 C :    0.147323
  34 N :   -0.220727
  35 C :    0.085032
  36 C :   -0.110593
  37 C :    0.174569
  38 C :   -0.063932
  39 C :    0.024509
  40 C :    0.001038
  41 C :    0.046196
  42 C :    0.005846
  43 C :   -0.001786
  44 C :   -0.068612
  45 C :    0.058284
  46 C :    0.014130
  47 N :   -0.045982
  48 N :   -0.034151
  49 C :   -0.010737
  50 N :   -0.035706
  51 N :   -0.054873
  52 C :    0.013543
  53 C :   -0.067423
  54 C :    0.319910
  55 C :   -0.335228
  56 C :   -0.178943
  57 N :    0.158945
  58 C :   -0.191402
  59 N :    0.169317
  60 C :    0.051133
  61 C :   -0.005727
  62 C :    0.154338
  63 O :   -0.141852
  64 C :   -0.073462
  65 C :    0.098061
  66 C :    0.096693
  67 C :   -0.083997
  68 C :   -0.017821
  69 C :    0.040123
  70 C :    0.036360
  71 C :   -0.015240
  72 H :   -0.007843
  73 H :   -0.004702
  74 H :   -0.010414
  75 H :   -0.000847
  76 H :   -0.002868
  77 H :   -0.013965
  78 H :    0.042244
  79 H :   -0.011438
  80 H :   -0.007687
  81 H :   -0.020726
  82 H :   -0.002633
  83 H :    0.081606
  84 H :    0.077973
  85 H :   -0.004111
  86 H :   -0.019958
  87 H :    0.106882
  88 H :    0.094868
  89 H :   -0.008016
  90 H :    0.048286
  91 H :   -0.005022
  92 H :   -0.031668
  93 H :   -0.034142
  94 H :   -0.005414
  95 H :    0.027558
  96 H :    0.015811
  97 H :    0.055130
  98 H :   -0.011098
  99 H :   -0.005998
 100 H :   -0.006859
 101 H :   -0.002022
 102 H :   -0.000816
 103 H :   -0.015743
Sum of atomic charges:   -0.0000000

LOEWDIN ATOMIC CHARGES
----------------------
   0 C :    0.084249
   1 C :   -0.134462
   2 C :    0.001439
   3 N :   -0.059326
   4 C :   -0.014636
   5 N :   -0.047804
   6 C :   -0.022593
   7 C :   -0.056273
   8 C :    0.036305
   9 C :   -0.006715
  10 C :   -0.004562
  11 C :    0.019884
  12 C :   -0.005646
  13 C :   -0.010795
  14 C :   -0.009607
  15 C :   -0.007533
  16 C :    0.085032
  17 O :   -0.129644
  18 C :   -0.059943
  19 C :    0.066712
  20 C :   -0.050233
  21 N :   -0.038679
  22 N :   -0.020382
  23 C :    0.019750
  24 N :   -0.035391
  25 N :    0.004045
  26 C :   -0.053530
  27 C :    0.050001
  28 C :   -0.027247
  29 C :    0.001602
  30 C :   -0.042727
  31 C :    0.028487
  32 N :   -0.125723
  33 C :    0.029765
  34 N :   -0.105744
  35 C :   -0.016533
  36 C :    0.076885
  37 C :   -0.031018
  38 C :   -0.040499
  39 C :   -0.010650
  40 C :   -0.043257
  41 C :   -0.022529
  42 C :   -0.009177
  43 C :   -0.010032
  44 C :    0.047010
  45 C :   -0.045605
  46 C :   -0.001011
  47 N :   -0.012425
  48 N :   -0.021192
  49 C :   -0.022317
  50 N :   -0.007569
  51 N :   -0.040457
  52 C :    0.058733
  53 C :   -0.051122
  54 C :    0.071782
  55 C :   -0.120693
  56 C :   -0.015912
  57 N :   -0.041748
  58 C :   -0.020777
  59 N :   -0.034194
  60 C :   -0.025444
  61 C :   -0.056617
  62 C :    0.086611
  63 O :   -0.134341
  64 C :    0.037194
  65 C :   -0.006711
  66 C :   -0.004347
  67 C :    0.022293
  68 C :   -0.003888
  69 C :   -0.009910
  70 C :   -0.009080
  71 C :   -0.008013
  72 H :    0.041118
  73 H :    0.039216
  74 H :    0.034422
  75 H :    0.034511
  76 H :    0.033985
  77 H :    0.033258
  78 H :    0.058367
  79 H :    0.031471
  80 H :    0.029224
  81 H :   -0.005989
  82 H :    0.015377
  83 H :    0.036433
  84 H :    0.048161
  85 H :    0.003760
  86 H :    0.011020
  87 H :    0.048024
  88 H :    0.057158
  89 H :    0.029177
  90 H :    0.066961
  91 H :    0.026424
  92 H :    0.032000
  93 H :    0.028359
  94 H :    0.033373
  95 H :    0.034884
  96 H :    0.043036
  97 H :    0.057299
  98 H :    0.040283
  99 H :    0.039809
 100 H :    0.035723
 101 H :    0.034599
 102 H :    0.034346
 103 H :    0.032704

  Mayer bond orders larger than 0.100000
B(  0-C ,  1-C ) :   1.6435 B(  0-C ,  6-C ) :   1.0196 B(  0-C , 18-C ) :   1.0180
B(  1-C ,  2-C ) :   1.1513 B(  1-C ,  4-C ) :   1.1660 B(  2-C ,  3-N ) :   2.9111
B(  4-C ,  5-N ) :   2.9262 B(  6-C ,  7-C ) :   1.2053 B(  6-C , 11-C ) :   1.4515
B(  7-C ,  8-C ) :   1.4744 B(  7-C , 16-C ) :   0.9205 B(  8-C ,  9-C ) :   1.1887
B(  8-C , 72-H ) :   1.0155 B(  9-C , 10-C ) :   1.2532 B(  9-C , 15-C ) :   1.2455
B( 10-C , 11-C ) :   1.2099 B( 10-C , 12-C ) :   1.2397 B( 11-C , 73-H ) :   0.9925
B( 12-C , 13-C ) :   1.4904 B( 12-C , 74-H ) :   0.9973 B( 13-C , 14-C ) :   1.2589
B( 13-C , 75-H ) :   0.9893 B( 14-C , 15-C ) :   1.4897 B( 14-C , 76-H ) :   0.9889
B( 15-C , 77-H ) :   0.9978 B( 16-C , 17-O ) :   2.2955 B( 16-C , 18-C ) :   0.9205
B( 18-C , 19-C ) :   1.7067 B( 19-C , 20-C ) :   1.0278 B( 19-C , 78-H ) :   0.9554
B( 20-C , 21-N ) :   1.3412 B( 20-C , 25-N ) :   1.4321 B( 21-N , 22-N ) :   1.3932
B( 22-N , 23-C ) :   1.4815 B( 23-C , 24-N ) :   1.3623 B( 23-C , 26-C ) :   1.0429
B( 24-N , 25-N ) :   1.4377 B( 26-C , 27-C ) :   1.4919 B( 26-C , 43-C ) :   1.1273
B( 27-C , 28-C ) :   1.1386 B( 27-C , 79-H ) :   0.9916 B( 28-C , 29-C ) :   1.4928
B( 28-C , 41-C ) :   1.1077 B( 29-C , 30-C ) :   1.0389 B( 29-C , 35-C ) :   1.0803
B( 30-C , 31-C ) :   1.0167 B( 30-C , 33-C ) :   1.0456 B( 30-C , 80-H ) :   0.8758
B( 31-C , 32-N ) :   1.1175 B( 31-C , 81-H ) :   0.9166 B( 31-C , 82-H ) :   0.9524
B( 32-N , 83-H ) :   0.9432 B( 32-N , 84-H ) :   0.9664 B( 33-C , 34-N ) :   1.0976
B( 33-C , 85-H ) :   0.9440 B( 33-C , 86-H ) :   0.9326 B( 34-N , 87-H ) :   0.9498
B( 34-N , 88-H ) :   0.9677 B( 35-C , 36-C ) :   1.6931 B( 35-C , 40-C ) :   1.0464
B( 36-C , 37-C ) :   0.9559 B( 36-C , 89-H ) :   0.9581 B( 37-C , 38-C ) :   1.0045
B( 37-C , 44-C ) :   0.9449 B( 37-C , 90-H ) :   0.8458 B( 38-C , 39-C ) :   1.7165
B( 38-C , 91-H ) :   0.9705 B( 39-C , 40-C ) :   1.1263 B( 39-C , 92-H ) :   0.9919
B( 40-C , 41-C ) :   1.4578 B( 41-C , 42-C ) :   1.1345 B( 42-C , 43-C ) :   1.5951
B( 42-C , 93-H ) :   0.9932 B( 43-C , 94-H ) :   0.9897 B( 44-C , 45-C ) :   1.8216
B( 44-C , 95-H ) :   0.9695 B( 45-C , 46-C ) :   1.0683 B( 45-C , 96-H ) :   0.9471
B( 46-C , 47-N ) :   1.4852 B( 46-C , 51-N ) :   1.3814 B( 47-N , 48-N ) :   1.4144
B( 48-N , 49-C ) :   1.3374 B( 48-N , 51-N ) :   0.1009 B( 49-C , 50-N ) :   1.4761
B( 49-C , 52-C ) :   1.0233 B( 50-N , 51-N ) :   1.3977 B( 52-C , 53-C ) :   1.7491
B( 52-C , 97-H ) :   0.9354 B( 53-C , 54-C ) :   1.0272 B( 53-C , 62-C ) :   0.9200
B( 54-C , 55-C ) :   1.6648 B( 54-C , 60-C ) :   1.0021 B( 55-C , 56-C ) :   1.1439
B( 55-C , 58-C ) :   1.1420 B( 56-C , 57-N ) :   2.9650 B( 58-C , 59-N ) :   2.9726
B( 60-C , 61-C ) :   1.2098 B( 60-C , 67-C ) :   1.4429 B( 61-C , 62-C ) :   0.9433
B( 61-C , 64-C ) :   1.4690 B( 62-C , 63-O ) :   2.2375 B( 64-C , 65-C ) :   1.1860
B( 64-C , 98-H ) :   1.0158 B( 65-C , 66-C ) :   1.2518 B( 65-C , 71-C ) :   1.2429
B( 66-C , 67-C ) :   1.2135 B( 66-C , 68-C ) :   1.2386 B( 67-C , 99-H ) :   0.9886
B( 68-C , 69-C ) :   1.4920 B( 68-C ,100-H ) :   0.9972 B( 69-C , 70-C ) :   1.2575
B( 69-C ,101-H ) :   0.9881 B( 70-C , 71-C ) :   1.4907 B( 70-C ,102-H ) :   0.9892
B( 71-C ,103-H ) :   0.9976

-----------------------------------------------------------------------------
         ABSORPTION SPECTRUM VIA TRANSITION ELECTRIC DIPOLE MOMENTS
-----------------------------------------------------------------------------
State   Energy  Wavelength   fosc         T2         TX        TY        TZ
        (cm-1)    (nm)                  (au**2)     (au)      (au)      (au)
-----------------------------------------------------------------------------
   0   10815.2    924.6   0.089133739   2.71320  -0.28124  -0.53379  -1.53270
   1   14269.7    700.8   0.060071489   1.38589  -0.56396   0.55800  -0.86975
   2   15476.9    646.1   0.010431962   0.22190   0.21082   0.13828   0.39791
   3   15801.4    632.9   0.115753924   2.41166  -0.19481   0.53709  -1.44404
   4   16349.4    611.6   0.028357598   0.57101  -0.26662   0.52407   0.47463
   5   21437.7    466.5   0.016962712   0.26049   0.39179  -0.26902   0.18607
   6   21833.4    458.0   0.006462159   0.09744  -0.26021  -0.06137   0.16112
   7   22658.3    441.3   0.005739243   0.08339  -0.07269   0.10185   0.26025
   8   22692.8    440.7   0.153609744   2.22847   0.30067   0.32068   1.42661
   9   23032.0    434.2   0.053145376   0.75964   0.44387   0.14940  -0.73505
  10   23927.2    417.9   0.018167624   0.24997  -0.08363  -0.11744  -0.47873
  11   24957.7    400.7   0.033345528   0.43985   0.19831  -0.19247  -0.60289
  12   25041.1    399.3   0.227122197   2.98595   0.50020  -0.92624  -1.37033
  13   25373.8    394.1   0.078290923   1.01578  -0.53921   0.25166  -0.81345
  14   25386.1    393.9   0.169054918   2.19234   0.36761  -0.77512   1.20681
  15   26216.6    381.4   0.007359579   0.09242   0.06011  -0.24964   0.16275
  16   26546.7    376.7   0.001477238   0.01832  -0.00739   0.07871   0.10986
  17   26696.8    374.6   0.014817808   0.18273   0.02200   0.18171   0.38629
  18   26766.0    373.6   0.017465680   0.21482   0.00959  -0.08452   0.45562
  19   27160.4    368.2   0.029753741   0.36065  -0.25867  -0.08763  -0.53484
  20   27331.6    365.9   0.052334095   0.63037  -0.19619   0.52777   0.55977
  21   27407.3    364.9   0.003707532   0.04453  -0.01266   0.03461  -0.20779
  22   27780.1    360.0   0.050417340   0.59748   0.38322   0.06982   0.66764
  23   28106.4    355.8   0.013141007   0.15392   0.16117   0.10570   0.34172
  24   28346.9    352.8   0.089614494   1.04075   0.27201  -0.10551  -0.97756
  25   28610.5    349.5   0.074698106   0.85953  -0.37660   0.12294  -0.83820
  26   29616.3    337.7   0.149345384   1.66011  -0.20628   0.81690   0.97480
  27   29872.0    334.8   0.406733975   4.48251  -0.20720   1.70601   1.23658
  28   30333.2    329.7   0.127200275   1.38053   0.80938   0.06198   0.84946
  29   30562.7    327.2   0.014389214   0.15500  -0.12437   0.37311  -0.01791
  30   31001.2    322.6   0.327087617   3.47345   1.22288   0.73304   1.20028
  31   31367.3    318.8   0.007415740   0.07783   0.25526   0.09190   0.06503
  32   31521.6    317.2   0.049295941   0.51485  -0.43335  -0.01728  -0.57162
  33   31798.3    314.5   0.078012767   0.80768  -0.25803  -0.29670  -0.80813
  34   32551.8    307.2   0.029964410   0.30304  -0.12257   0.18680  -0.50312
  35   32592.2    306.8   0.092851748   0.93789  -0.31081  -0.59885  -0.69474
  36   32821.7    304.7   0.095012193   0.95300   0.51655  -0.63193   0.53558
  37   33061.3    302.5   0.173339968   1.72606  -0.27599   0.63663  -1.11561
  38   33127.6    301.9   0.704864745   7.00473   0.25156  -1.94902   1.77278
  39   33256.6    300.7   0.039046238   0.38652   0.14134  -0.52219   0.30638
  40   33558.9    298.0   0.019395032   0.19026   0.02802  -0.29456   0.32049
  41   33767.2    296.1   0.430855498   4.20061   0.39363  -1.17631   1.63156
  42   34523.0    289.7   0.568290304   5.41923  -0.59183   0.95561  -2.03857
  43   34690.8    288.3   0.000025471   0.00024   0.00489  -0.01189  -0.00875
  44   34764.4    287.7   0.020111468   0.19045  -0.02151   0.42431  -0.09974
  45   34919.3    286.4   0.117641382   1.10910   0.44585   0.94882   0.10027
  46   35297.1    283.3   0.076343539   0.71205  -0.10597  -0.74189  -0.38784
  47   35446.6    282.1   0.004592126   0.04265   0.06941   0.19450   0.00159
  48   35592.9    281.0   0.030718899   0.28413   0.24863   0.42628  -0.20149
  49   35808.4    279.3   0.008857663   0.08143  -0.05912   0.23856   0.14502
  50   35987.1    277.9   0.053657510   0.49086  -0.29312  -0.52121  -0.36508
  51   36127.2    276.8   0.012359256   0.11262  -0.24115  -0.23034   0.03761
  52   36400.5    274.7   0.011935966   0.10795   0.16475   0.07472   0.27427
  53   36773.2    271.9   0.004030579   0.03608   0.00928   0.18812  -0.02464
  54   36945.9    270.7   0.010445270   0.09307  -0.12185   0.26457  -0.09072
  55   37317.9    268.0   0.017103082   0.15088  -0.00292   0.04100   0.38625
  56   37532.4    266.4   0.151759357   1.33114   0.21801  -0.80835   0.79385
  57   37993.7    263.2   0.040271755   0.34895  -0.16527  -0.35183  -0.44481
  58   38608.2    259.0   0.037332722   0.31834  -0.06845   0.10976   0.54918
  59   38710.6    258.3   0.029462810   0.25056  -0.03960   0.12318   0.48355
  60   38872.1    257.3   0.061559679   0.52135  -0.24359   0.01912  -0.67945
  61   39012.0    256.3   0.079847239   0.67381  -0.14866   0.80639   0.03808
  62   39239.1    254.8   0.028092032   0.23569  -0.12494   0.35447  -0.30729
  63   39338.9    254.2   0.000480579   0.00402  -0.00209   0.04358   0.04603
  64   39884.8    250.7   0.729278121   6.01951   0.86164   1.44348   1.78702
  65   40115.3    249.3   0.288443646   2.36715  -0.75459   1.25479   0.47249
  66   40242.2    248.5   0.001251635   0.01024   0.05100   0.03664   0.07935

FINAL SINGLE POINT ENERGY     -3065.983692306846

DIPOLE MOMENT
-------------
                                X             Y             Z
Electronic contribution:     -8.54275     -23.09363      23.31315
Nuclear contribution   :      9.21119      26.81535     -27.12665
                        -----------------------------------------
Total Dipole Moment    :      0.66844       3.72172      -3.81349
                        -----------------------------------------
Magnitude (a.u.)       :      5.37036
Magnitude (Debye)      :     13.65037

Rotational constants in cm-1:     0.001558     0.000306     0.000267
Rotational constants in MHz :    46.716229     9.180286     8.005433

                             ****ORCA TERMINATED NORMALLY****
TOTAL RUN TIME: 0 days 0 hours 10 minutes 47 seconds 949 msec
