                         Program Version 4.2.0 -  RELEASE  -
|  1> # ORCA input file
|  2> # SCF done       -155.731464328083          0.000568031692
|  3> ! CAM-B3LYP def2-SVP def2/J RIJCOSX Grid4 TightSCF
|  4> %maxcore 5000
|  5> %tddft
|  6>     Mode sTDDFT
|  7>     Ethresh 5.0
|  8>     maxcore 5000
|  9> end
| 10>
| 11> %pal
| 12>   nprocs 6
| 13>   end
| 14> * xyz 0 1
| 15>    C        1.30445         1.62360        -1.78334
| 16>    C        2.07655         2.65032        -2.25775
| 17>    C        2.52194         2.74016        -3.59120
| 18>    N        2.89399         2.85798        -4.67062
| 19>    C        2.58274         3.66814        -1.42250
| 20>    N        3.04513         4.47670        -0.75196
| 21>    C        0.98936         0.39141        -2.49587
| 22>    C        0.67857        -0.61579        -1.53494
| 23>    C        0.36493        -1.89000        -1.91085
| 24>    C        0.33339        -2.21457        -3.28604
| 25>    C        0.63215        -1.20870        -4.25051
| 26>    C        0.96569         0.10041        -3.83247
| 27>    C        0.58703        -1.54554        -5.61851
| 28>    C        0.26262        -2.81363        -6.01733
| 29>    C       -0.03170        -3.80302        -5.06738
| 30>    C        0.00456        -3.51023        -3.73110
| 31>    C        0.72989        -0.03373        -0.18108
| 32>    O        0.58999        -0.59211         0.88196
| 33>    C        0.91209         1.43099        -0.40297
| 34>    C        0.55542         2.29821         0.57974
| 35>    C        0.16712         3.65723         0.49353
| 36>    C       -0.08115         4.47862         1.57839
| 37>    C       -0.59354         5.71449         1.19300
| 38>    C       -0.76208         5.85345        -0.19022
| 39>    S       -0.26657         4.43302        -1.02610
| 40>    C       -1.32000         7.07486        -0.57581
| 41>    C       -1.59899         7.87206         0.50977
| 42>    S       -1.14711         7.12062         2.02886
| 43>    C       -2.25751         9.14845         0.49659
| 44>    C       -2.94531         9.65057         1.61252
| 45>    N       -3.66097        10.74667         1.56712
| 46>    C       -3.71090        11.40513         0.40595
| 47>    N       -3.01269        11.07623        -0.68494
| 48>    C       -2.30179         9.97559        -0.63789
| 49>    C       -4.60939        12.52128         0.32391
| 50>    C       -4.77732        13.38552        -0.73449
| 51>    C       -5.81684        14.28285        -0.48854
| 52>    C       -6.44851        14.09103         0.75351
| 53>    S       -5.71144        12.80576         1.64285
| 54>    C       -7.53520        14.93201         0.97793
| 55>    C       -7.75589        15.78382        -0.08861
| 56>    S       -6.55799        15.56092        -1.36947
| 57>    C       -8.73922        16.77227        -0.32161
| 58>    C       -9.95695        16.95676         0.26651
| 59>    C      -10.88042        18.01695        -0.11124
| 60>    C      -10.55338        19.19993        -0.71856
| 61>    C      -11.49183        20.20433        -1.03599
| 62>    N      -12.20992        21.05305        -1.32182
| 63>    C       -9.24340        19.60108        -1.05783
| 64>    N       -8.20568        20.00523        -1.33697
| 65>    C      -12.20793        17.63848         0.35358
| 66>    C      -12.08753        16.45290         1.13177
| 67>    C      -10.67679        16.03001         1.17875
| 68>    O      -10.23324        15.10118         1.81962
| 69>    C      -13.17104        15.85207         1.70464
| 70>    C      -14.45205        16.41545         1.51110
| 71>    C      -14.58242        17.59760         0.72614
| 72>    C      -13.44004        18.20231         0.15301
| 73>    C      -15.86714        18.14473         0.53227
| 74>    C      -16.97057        17.55441         1.08570
| 75>    C      -16.84085        16.39090         1.85864
| 76>    C      -15.60825        15.83435         2.06785
| 77>    H        0.13839        -2.64157        -1.16926
| 78>    H        1.17862         0.84863        -4.58041
| 79>    H        0.81695        -0.78117        -6.34617
| 80>    H        0.23082        -3.06144        -7.06772
| 81>    H       -0.28765        -4.79798        -5.39954
| 82>    H       -0.22099        -4.26794        -2.99500
| 83>    H        0.43654         1.85320         1.56354
| 84>    H        0.11216         4.18424         2.59348
| 85>    H       -1.53634         7.34764        -1.59185
| 86>    H       -2.92605         9.12712         2.56085
| 87>    H       -1.73658         9.73901        -1.52982
| 88>    H       -4.17690        13.34348        -1.62336
| 89>    H       -8.14466        14.92077         1.86109
| 90>    H       -8.49385        17.43418        -1.14519
| 91>    H      -13.05263        14.95455         2.29346
| 92>    H      -13.57113        19.09188        -0.44257
| 93>    H      -15.96206        19.04126        -0.06260
| 94>    H      -17.95028        17.98078         0.93045
| 95>    H      -17.72229        15.93764         2.28699
| 96>    H      -15.50181        14.93850         2.66201
| 97> *
| 98>
| 99>                          ****END OF INPUT****

CARTESIAN COORDINATES (ANGSTROEM)
---------------------------------
  C      1.304450    1.623600   -1.783340
  C      2.076550    2.650320   -2.257750
  C      2.521940    2.740160   -3.591200
  N      2.893990    2.857980   -4.670620
  C      2.582740    3.668140   -1.422500
  N      3.045130    4.476700   -0.751960
  C      0.989360    0.391410   -2.495870
  C      0.678570   -0.615790   -1.534940
  C      0.364930   -1.890000   -1.910850
  C      0.333390   -2.214570   -3.286040
  C      0.632150   -1.208700   -4.250510
  C      0.965690    0.100410   -3.832470
  C      0.587030   -1.545540   -5.618510
  C      0.262620   -2.813630   -6.017330
  C     -0.031700   -3.803020   -5.067380
  C      0.004560   -3.510230   -3.731100
  C      0.729890   -0.033730   -0.181080
  O      0.589990   -0.592110    0.881960
  C      0.912090    1.430990   -0.402970
  C      0.555420    2.298210    0.579740
  C      0.167120    3.657230    0.493530
  C     -0.081150    4.478620    1.578390
  C     -0.593540    5.714490    1.193000
  C     -0.762080    5.853450   -0.190220
  S     -0.266570    4.433020   -1.026100
  C     -1.320000    7.074860   -0.575810
  C     -1.598990    7.872060    0.509770
  S     -1.147110    7.120620    2.028860
  C     -2.257510    9.148450    0.496590
  C     -2.945310    9.650570    1.612520
  N     -3.660970   10.746670    1.567120
  C     -3.710900   11.405130    0.405950
  N     -3.012690   11.076230   -0.684940
  C     -2.301790    9.975590   -0.637890
  C     -4.609390   12.521280    0.323910
  C     -4.777320   13.385520   -0.734490
  C     -5.816840   14.282850   -0.488540
  C     -6.448510   14.091030    0.753510
  S     -5.711440   12.805760    1.642850
  C     -7.535200   14.932010    0.977930
  C     -7.755890   15.783820   -0.088610
  S     -6.557990   15.560920   -1.369470
  C     -8.739220   16.772270   -0.321610
  C     -9.956950   16.956760    0.266510
  C    -10.880420   18.016950   -0.111240
  C    -10.553380   19.199930   -0.718560
  C    -11.491830   20.204330   -1.035990
  N    -12.209920   21.053050   -1.321820
  C     -9.243400   19.601080   -1.057830
  N     -8.205680   20.005230   -1.336970
  C    -12.207930   17.638480    0.353580
  C    -12.087530   16.452900    1.131770
  C    -10.676790   16.030010    1.178750
  O    -10.233240   15.101180    1.819620
  C    -13.171040   15.852070    1.704640
  C    -14.452050   16.415450    1.511100
  C    -14.582420   17.597600    0.726140
  C    -13.440040   18.202310    0.153010
  C    -15.867140   18.144730    0.532270
  C    -16.970570   17.554410    1.085700
  C    -16.840850   16.390900    1.858640
  C    -15.608250   15.834350    2.067850
  H      0.138390   -2.641570   -1.169260
  H      1.178620    0.848630   -4.580410
  H      0.816950   -0.781170   -6.346170
  H      0.230820   -3.061440   -7.067720
  H     -0.287650   -4.797980   -5.399540
  H     -0.220990   -4.267940   -2.995000
  H      0.436540    1.853200    1.563540
  H      0.112160    4.184240    2.593480
  H     -1.536340    7.347640   -1.591850
  H     -2.926050    9.127120    2.560850
  H     -1.736580    9.739010   -1.529820
  H     -4.176900   13.343480   -1.623360
  H     -8.144660   14.920770    1.861090
  H     -8.493850   17.434180   -1.145190
  H    -13.052630   14.954550    2.293460
  H    -13.571130   19.091880   -0.442570
  H    -15.962060   19.041260   -0.062600
  H    -17.950280   17.980780    0.930450
  H    -17.722290   15.937640    2.286990
  H    -15.501810   14.938500    2.662010

 Total Charge           Charge          ....    0
 Multiplicity           Mult            ....    1
 Number of Electrons    NEL             ....  442
 Basis Dimension        Dim             ....  984

ORBITAL ENERGIES
----------------

  NO   OCC          E(Eh)            E(eV)
   0   2.0000     -88.978115     -2421.2176
   1   2.0000     -88.974669     -2421.1238
   2   2.0000     -88.965675     -2420.8791
   3   2.0000     -88.964547     -2420.8484
   4   2.0000     -19.216831      -522.9166
   5   2.0000     -19.214154      -522.8437
   6   2.0000     -14.428829      -392.6284
   7   2.0000     -14.428754      -392.6264
   8   2.0000     -14.416318      -392.2880
   9   2.0000     -14.412343      -392.1798
  10   2.0000     -14.411700      -392.1623
  11   2.0000     -14.411566      -392.1586
  12   2.0000     -10.368224      -282.1337
  13   2.0000     -10.366421      -282.0847
  14   2.0000     -10.363068      -281.9934
  15   2.0000     -10.343899      -281.4718
  16   2.0000     -10.341346      -281.4023
  17   2.0000     -10.340125      -281.3691
  18   2.0000     -10.339894      -281.3628
  19   2.0000     -10.338723      -281.3310
  20   2.0000     -10.337526      -281.2984
  21   2.0000     -10.333373      -281.1854
  22   2.0000     -10.325335      -280.9666
  23   2.0000     -10.323285      -280.9109
  24   2.0000     -10.322816      -280.8981
  25   2.0000     -10.322449      -280.8881
  26   2.0000     -10.318594      -280.7832
  27   2.0000     -10.318042      -280.7682
  28   2.0000     -10.317350      -280.7494
  29   2.0000     -10.315204      -280.6910
  30   2.0000     -10.314531      -280.6727
  31   2.0000     -10.314470      -280.6710
  32   2.0000     -10.314349      -280.6677
  33   2.0000     -10.313627      -280.6480
  34   2.0000     -10.313506      -280.6448
  35   2.0000     -10.310600      -280.5657
  36   2.0000     -10.307144      -280.4717
  37   2.0000     -10.304061      -280.3878
  38   2.0000     -10.303940      -280.3845
  39   2.0000     -10.300688      -280.2960
  40   2.0000     -10.298754      -280.2433
  41   2.0000     -10.298506      -280.2366
  42   2.0000     -10.298303      -280.2311
  43   2.0000     -10.298053      -280.2243
  44   2.0000     -10.297527      -280.2099
  45   2.0000     -10.297348      -280.2051
  46   2.0000     -10.296277      -280.1760
  47   2.0000     -10.296004      -280.1685
  48   2.0000     -10.295092      -280.1437
  49   2.0000     -10.294924      -280.1391
  50   2.0000     -10.294061      -280.1156
  51   2.0000     -10.293892      -280.1110
  52   2.0000     -10.290056      -280.0067
  53   2.0000     -10.287018      -279.9240
  54   2.0000     -10.287005      -279.9236
  55   2.0000     -10.286607      -279.9128
  56   2.0000     -10.286373      -279.9064
  57   2.0000     -10.285885      -279.8932
  58   2.0000     -10.285464      -279.8817
  59   2.0000     -10.284907      -279.8666
  60   2.0000     -10.284566      -279.8573
  61   2.0000     -10.284063      -279.8436
  62   2.0000      -8.073385      -219.6880
  63   2.0000      -8.069574      -219.5843
  64   2.0000      -8.061248      -219.3577
  65   2.0000      -8.059532      -219.3110
  66   2.0000      -6.042922      -164.4363
  67   2.0000      -6.039106      -164.3324
  68   2.0000      -6.038892      -164.3266
  69   2.0000      -6.035075      -164.2228
  70   2.0000      -6.034908      -164.2182
  71   2.0000      -6.031099      -164.1145
  72   2.0000      -6.030662      -164.1027
  73   2.0000      -6.028978      -164.0568
  74   2.0000      -6.026773      -163.9968
  75   2.0000      -6.024955      -163.9474
  76   2.0000      -6.022801      -163.8888
  77   2.0000      -6.021186      -163.8448
  78   2.0000      -1.131964       -30.8023
  79   2.0000      -1.129758       -30.7423
  80   2.0000      -1.103244       -30.0208
  81   2.0000      -1.028685       -27.9919
  82   2.0000      -1.017745       -27.6942
  83   2.0000      -1.016977       -27.6734
  84   2.0000      -1.014435       -27.6042
  85   2.0000      -0.998220       -27.1630
  86   2.0000      -0.997568       -27.1452
  87   2.0000      -0.996144       -27.1064
  88   2.0000      -0.992868       -27.0173
  89   2.0000      -0.990336       -26.9484
  90   2.0000      -0.976365       -26.5682
  91   2.0000      -0.971074       -26.4243
  92   2.0000      -0.968465       -26.3533
  93   2.0000      -0.957572       -26.0569
  94   2.0000      -0.926163       -25.2022
  95   2.0000      -0.922616       -25.1057
  96   2.0000      -0.915701       -24.9175
  97   2.0000      -0.901236       -24.5239
  98   2.0000      -0.896218       -24.3873
  99   2.0000      -0.882856       -24.0237
 100   2.0000      -0.880314       -23.9546
 101   2.0000      -0.879792       -23.9404
 102   2.0000      -0.874157       -23.7870
 103   2.0000      -0.870584       -23.6898
 104   2.0000      -0.864156       -23.5149
 105   2.0000      -0.835130       -22.7250
 106   2.0000      -0.828807       -22.5530
 107   2.0000      -0.826651       -22.4943
 108   2.0000      -0.821466       -22.3532
 109   2.0000      -0.816253       -22.2114
 110   2.0000      -0.808020       -21.9874
 111   2.0000      -0.800454       -21.7815
 112   2.0000      -0.773636       -21.0517
 113   2.0000      -0.761073       -20.7098
 114   2.0000      -0.760031       -20.6815
 115   2.0000      -0.759453       -20.6658
 116   2.0000      -0.751091       -20.4382
 117   2.0000      -0.721531       -19.6339
 118   2.0000      -0.713471       -19.4145
 119   2.0000      -0.704391       -19.1675
 120   2.0000      -0.702430       -19.1141
 121   2.0000      -0.699769       -19.0417
 122   2.0000      -0.695810       -18.9340
 123   2.0000      -0.678800       -18.4711
 124   2.0000      -0.677704       -18.4413
 125   2.0000      -0.672568       -18.3015
 126   2.0000      -0.668013       -18.1776
 127   2.0000      -0.663979       -18.0678
 128   2.0000      -0.656739       -17.8708
 129   2.0000      -0.656242       -17.8572
 130   2.0000      -0.640390       -17.4259
 131   2.0000      -0.633766       -17.2456
 132   2.0000      -0.629599       -17.1323
 133   2.0000      -0.619533       -16.8583
 134   2.0000      -0.616723       -16.7819
 135   2.0000      -0.608225       -16.5506
 136   2.0000      -0.605378       -16.4732
 137   2.0000      -0.603100       -16.4112
 138   2.0000      -0.597607       -16.2617
 139   2.0000      -0.594422       -16.1751
 140   2.0000      -0.590315       -16.0633
 141   2.0000      -0.581430       -15.8215
 142   2.0000      -0.569866       -15.5068
 143   2.0000      -0.561203       -15.2711
 144   2.0000      -0.555148       -15.1064
 145   2.0000      -0.551176       -14.9983
 146   2.0000      -0.548129       -14.9154
 147   2.0000      -0.547104       -14.8874
 148   2.0000      -0.545072       -14.8322
 149   2.0000      -0.542239       -14.7551
 150   2.0000      -0.539541       -14.6817
 151   2.0000      -0.535241       -14.5646
 152   2.0000      -0.533564       -14.5190
 153   2.0000      -0.532297       -14.4845
 154   2.0000      -0.523694       -14.2504
 155   2.0000      -0.522572       -14.2199
 156   2.0000      -0.520659       -14.1678
 157   2.0000      -0.519282       -14.1304
 158   2.0000      -0.516082       -14.0433
 159   2.0000      -0.514627       -14.0037
 160   2.0000      -0.513466       -13.9721
 161   2.0000      -0.511188       -13.9101
 162   2.0000      -0.508496       -13.8369
 163   2.0000      -0.508092       -13.8259
 164   2.0000      -0.501760       -13.6536
 165   2.0000      -0.499499       -13.5920
 166   2.0000      -0.496593       -13.5130
 167   2.0000      -0.494977       -13.4690
 168   2.0000      -0.489415       -13.3177
 169   2.0000      -0.488902       -13.3037
 170   2.0000      -0.485086       -13.1999
 171   2.0000      -0.483812       -13.1652
 172   2.0000      -0.479029       -13.0350
 173   2.0000      -0.475938       -12.9509
 174   2.0000      -0.465486       -12.6665
 175   2.0000      -0.464295       -12.6341
 176   2.0000      -0.461110       -12.5475
 177   2.0000      -0.460786       -12.5386
 178   2.0000      -0.453110       -12.3297
 179   2.0000      -0.449014       -12.2183
 180   2.0000      -0.446983       -12.1630
 181   2.0000      -0.444816       -12.1041
 182   2.0000      -0.443087       -12.0570
 183   2.0000      -0.441256       -12.0072
 184   2.0000      -0.439988       -11.9727
 185   2.0000      -0.439325       -11.9546
 186   2.0000      -0.437998       -11.9185
 187   2.0000      -0.433210       -11.7882
 188   2.0000      -0.431430       -11.7398
 189   2.0000      -0.430738       -11.7210
 190   2.0000      -0.430433       -11.7127
 191   2.0000      -0.429741       -11.6938
 192   2.0000      -0.423146       -11.5144
 193   2.0000      -0.422290       -11.4911
 194   2.0000      -0.421996       -11.4831
 195   2.0000      -0.418528       -11.3887
 196   2.0000      -0.416603       -11.3364
 197   2.0000      -0.413021       -11.2389
 198   2.0000      -0.411417       -11.1952
 199   2.0000      -0.406483       -11.0610
 200   2.0000      -0.403373       -10.9763
 201   2.0000      -0.396666       -10.7938
 202   2.0000      -0.395619       -10.7653
 203   2.0000      -0.383455       -10.4343
 204   2.0000      -0.380948       -10.3661
 205   2.0000      -0.376145       -10.2354
 206   2.0000      -0.372229       -10.1289
 207   2.0000      -0.368149       -10.0178
 208   2.0000      -0.352272        -9.5858
 209   2.0000      -0.340742        -9.2721
 210   2.0000      -0.338782        -9.2187
 211   2.0000      -0.335672        -9.1341
 212   2.0000      -0.328989        -8.9522
 213   2.0000      -0.316399        -8.6097
 214   2.0000      -0.315134        -8.5752
 215   2.0000      -0.310881        -8.4595
 216   2.0000      -0.301044        -8.1918
 217   2.0000      -0.296272        -8.0620
 218   2.0000      -0.293930        -7.9982
 219   2.0000      -0.281902        -7.6709
 220   2.0000      -0.262443        -7.1414
 221   0.0000      -0.101639        -2.7657
 222   0.0000      -0.091119        -2.4795
 223   0.0000      -0.060331        -1.6417
 224   0.0000      -0.055214        -1.5024
 225   0.0000      -0.046123        -1.2551

MULLIKEN ATOMIC CHARGES
-----------------------
   0 C :    0.243060
   1 C :   -0.312515
   2 C :   -0.174695
   3 N :    0.154481
   4 C :   -0.213412
   5 N :    0.173902
   6 C :    0.037110
   7 C :    0.010705
   8 C :   -0.078628
   9 C :    0.091555
  10 C :    0.093370
  11 C :   -0.077236
  12 C :   -0.016610
  13 C :    0.033193
  14 C :    0.037109
  15 C :   -0.014569
  16 C :    0.142795
  17 O :   -0.143746
  18 C :   -0.133955
  19 C :    0.050631
  20 C :   -0.083225
  21 C :    0.001088
  22 C :   -0.007639
  23 C :   -0.002975
  24 S :    0.159293
  25 C :   -0.030045
  26 C :   -0.062235
  27 S :    0.149671
  28 C :    0.021590
  29 C :    0.031672
  30 N :   -0.059597
  31 C :   -0.063526
  32 N :   -0.045948
  33 C :    0.036676
  34 C :   -0.040180
  35 C :   -0.030869
  36 C :    0.000466
  37 C :   -0.042582
  38 S :    0.198399
  39 C :    0.026767
  40 C :   -0.124524
  41 S :    0.151368
  42 C :    0.044608
  43 C :   -0.095450
  44 C :    0.291443
  45 C :   -0.343069
  46 C :   -0.182109
  47 N :    0.147139
  48 C :   -0.207206
  49 N :    0.163679
  50 C :    0.048312
  51 C :   -0.001277
  52 C :    0.157093
  53 O :   -0.156636
  54 C :   -0.081012
  55 C :    0.096944
  56 C :    0.094590
  57 C :   -0.080357
  58 C :   -0.017336
  59 C :    0.034461
  60 C :    0.037880
  61 C :   -0.017510
  62 H :   -0.011586
  63 H :   -0.006414
  64 H :   -0.011228
  65 H :   -0.004212
  66 H :   -0.005944
  67 H :   -0.016823
  68 H :    0.024341
  69 H :    0.002621
  70 H :   -0.005776
  71 H :    0.018315
  72 H :    0.012184
  73 H :    0.003098
  74 H :    0.018466
  75 H :    0.023368
  76 H :   -0.014375
  77 H :   -0.007303
  78 H :   -0.009203
  79 H :   -0.005483
  80 H :   -0.006033
  81 H :   -0.018393
Sum of atomic charges:   -0.0000000

LOEWDIN ATOMIC CHARGES
----------------------
   0 C :    0.060323
   1 C :   -0.141475
   2 C :   -0.019261
   3 N :   -0.050764
   4 C :   -0.038659
   5 N :   -0.046235
   6 C :   -0.022073
   7 C :   -0.056553
   8 C :    0.032393
   9 C :   -0.009384
  10 C :   -0.005427
  11 C :    0.015130
  12 C :   -0.006871
  13 C :   -0.013060
  14 C :   -0.013306
  15 C :   -0.009178
  16 C :    0.084293
  17 O :   -0.144419
  18 C :   -0.095802
  19 C :    0.050636
  20 C :   -0.169623
  21 C :   -0.019610
  22 C :   -0.203769
  23 C :   -0.178599
  24 S :    0.459280
  25 C :   -0.063191
  26 C :   -0.144542
  27 S :    0.433712
  28 C :   -0.088736
  29 C :    0.051032
  30 N :   -0.084438
  31 C :    0.014614
  32 N :   -0.073050
  33 C :    0.059685
  34 C :   -0.170497
  35 C :   -0.039740
  36 C :   -0.186817
  37 C :   -0.201313
  38 S :    0.464482
  39 C :   -0.013637
  40 C :   -0.171034
  41 S :    0.433832
  42 C :    0.048164
  43 C :   -0.092227
  44 C :    0.076187
  45 C :   -0.141373
  46 C :   -0.017333
  47 N :   -0.054965
  48 C :   -0.027413
  49 N :   -0.050171
  50 C :   -0.025783
  51 C :   -0.054342
  52 C :    0.086771
  53 O :   -0.141463
  54 C :    0.030595
  55 C :   -0.008511
  56 C :   -0.006525
  57 C :    0.019136
  58 C :   -0.005509
  59 C :   -0.014034
  60 C :   -0.012722
  61 C :   -0.010202
  62 H :    0.039435
  63 H :    0.038500
  64 H :    0.034093
  65 H :    0.033198
  66 H :    0.032562
  67 H :    0.031983
  68 H :    0.052031
  69 H :    0.041071
  70 H :    0.036051
  71 H :    0.023314
  72 H :    0.028366
  73 H :    0.040484
  74 H :    0.038803
  75 H :    0.044818
  76 H :    0.038240
  77 H :    0.038947
  78 H :    0.034660
  79 H :    0.032911
  80 H :    0.032439
  81 H :    0.031468

  Mayer bond orders larger than 0.100000
B(  0-C ,  1-C ) :   1.6639 B(  0-C ,  6-C ) :   1.0011 B(  0-C , 18-C ) :   1.0281
B(  1-C ,  2-C ) :   1.1357 B(  1-C ,  4-C ) :   1.1459 B(  2-C ,  3-N ) :   2.9926
B(  4-C ,  5-N ) :   3.0315 B(  6-C ,  7-C ) :   1.2147 B(  6-C , 11-C ) :   1.4626
B(  7-C ,  8-C ) :   1.4769 B(  7-C , 16-C ) :   0.9209 B(  8-C ,  9-C ) :   1.1868
B(  8-C , 62-H ) :   1.0147 B(  9-C , 10-C ) :   1.2578 B(  9-C , 15-C ) :   1.2447
B( 10-C , 11-C ) :   1.2018 B( 10-C , 12-C ) :   1.2423 B( 11-C , 63-H ) :   0.9947
B( 12-C , 13-C ) :   1.4891 B( 12-C , 64-H ) :   0.9970 B( 13-C , 14-C ) :   1.2611
B( 13-C , 65-H ) :   0.9891 B( 14-C , 15-C ) :   1.4899 B( 14-C , 66-H ) :   0.9884
B( 15-C , 67-H ) :   0.9970 B( 16-C , 17-O ) :   2.2681 B( 16-C , 18-C ) :   0.9367
B( 18-C , 19-C ) :   1.6463 B( 19-C , 20-C ) :   1.1605 B( 19-C , 68-H ) :   0.9455
B( 20-C , 21-C ) :   1.4542 B( 20-C , 24-S ) :   1.0865 B( 21-C , 22-C ) :   1.2710
B( 21-C , 69-H ) :   1.0086 B( 22-C , 23-C ) :   1.3966 B( 22-C , 27-S ) :   1.0586
B( 23-C , 24-S ) :   1.0995 B( 23-C , 25-C ) :   1.2534 B( 25-C , 26-C ) :   1.5372
B( 25-C , 70-H ) :   1.0002 B( 26-C , 27-S ) :   1.1173 B( 26-C , 28-C ) :   1.0594
B( 28-C , 29-C ) :   1.3172 B( 28-C , 33-C ) :   1.3175 B( 29-C , 30-N ) :   1.5820
B( 29-C , 71-H ) :   0.9814 B( 30-N , 31-C ) :   1.5667 B( 31-C , 32-N ) :   1.5745
B( 31-C , 34-C ) :   1.0349 B( 32-N , 33-C ) :   1.5813 B( 33-C , 72-H ) :   0.9856
B( 34-C , 35-C ) :   1.5312 B( 34-C , 38-S ) :   1.1179 B( 35-C , 36-C ) :   1.2324
B( 35-C , 73-H ) :   1.0097 B( 36-C , 37-C ) :   1.3838 B( 36-C , 41-S ) :   1.0916
B( 37-C , 38-S ) :   1.0629 B( 37-C , 39-C ) :   1.2754 B( 39-C , 40-C ) :   1.4713
B( 39-C , 74-H ) :   0.9823 B( 40-C , 41-S ) :   1.0756 B( 40-C , 42-C ) :   1.2009
B( 42-C , 43-C ) :   1.6109 B( 42-C , 75-H ) :   0.9283 B( 43-C , 44-C ) :   1.0624
B( 43-C , 52-C ) :   0.9387 B( 44-C , 45-C ) :   1.6437 B( 44-C , 50-C ) :   0.9886
B( 45-C , 46-C ) :   1.1440 B( 45-C , 48-C ) :   1.1340 B( 46-C , 47-N ) :   2.9721
B( 48-C , 49-N ) :   3.0039 B( 50-C , 51-C ) :   1.2145 B( 50-C , 57-C ) :   1.4543
B( 51-C , 52-C ) :   0.9517 B( 51-C , 54-C ) :   1.4721 B( 52-C , 53-O ) :   2.1839
B( 54-C , 55-C ) :   1.1804 B( 54-C , 76-H ) :   1.0158 B( 55-C , 56-C ) :   1.2568
B( 55-C , 61-C ) :   1.2441 B( 56-C , 57-C ) :   1.2040 B( 56-C , 58-C ) :   1.2414
B( 57-C , 77-H ) :   0.9911 B( 58-C , 59-C ) :   1.4877 B( 58-C , 78-H ) :   0.9974
B( 59-C , 60-C ) :   1.2600 B( 59-C , 79-H ) :   0.9891 B( 60-C , 61-C ) :   1.4889
B( 60-C , 80-H ) :   0.9891 B( 61-C , 81-H ) :   0.9976

-----------------------------------------------------------------------------
         ABSORPTION SPECTRUM VIA TRANSITION ELECTRIC DIPOLE MOMENTS
-----------------------------------------------------------------------------
State   Energy  Wavelength   fosc         T2         TX        TY        TZ
        (cm-1)    (nm)                  (au**2)     (au)      (au)      (au)
-----------------------------------------------------------------------------
   0   19859.1    503.5   2.464864682  40.86099  -3.84050   5.02621   0.92131
   1   22490.7    444.6   0.285923527   4.18526  -1.59816   0.71579  -1.05773
   2   26522.9    377.0   0.066781730   0.82892   0.48658   0.60579   0.47453
   3   27000.9    370.4   0.119732339   1.45985   1.03948  -0.56998  -0.23333
   4   27722.8    360.7   0.040408560   0.47986   0.15266  -0.42428  -0.52587
   5   27907.1    358.3   0.054912233   0.64778   0.33449  -0.55546  -0.47683
   6   28274.1    353.7   0.022880485   0.26641   0.18342  -0.20811  -0.43527
   7   28311.9    353.2   0.086191414   1.00224   0.90968  -0.40294   0.11117
   8   28777.8    347.5   0.102305561   1.17035   0.07045  -0.81693   0.70570
   9   28917.2    345.8   0.056171304   0.63949  -0.23363   0.73894   0.19716
  10   29947.5    333.9   0.018524268   0.20364  -0.19146  -0.40581  -0.04797
  11   30165.5    331.5   0.022343348   0.24384  -0.25267   0.28701   0.31246
  12   30733.9    325.4   0.501599193   5.37297   1.50729   1.73511  -0.30074
  13   31678.2    315.7   0.204209735   2.12222  -0.56243   1.14812   0.69836
  14   32405.1    308.6   0.002637012   0.02679   0.14129   0.06684  -0.04858
  15   33313.6    300.2   0.190418234   1.88175  -0.97576   0.96361  -0.03306
  16   33944.5    294.6   0.339414544   3.29182   0.44248   1.67248   0.54667
  17   34133.4    293.0   0.679440012   6.55311   1.92199   1.62494  -0.46758
  18   34178.4    292.6   0.173938937   1.67541  -1.08283   0.03138   0.70846
  19   34741.6    287.8   0.034122443   0.32335   0.37860   0.15161  -0.39626
  20   34900.5    286.5   0.206632962   1.94914  -0.45933  -1.07824  -0.75866
  21   35561.9    281.2   0.024714703   0.22879   0.09359   0.07257  -0.46343
  22   36265.3    275.7   0.070623395   0.64111  -0.07003   0.02219   0.79732
  23   36413.5    274.6   0.000775529   0.00701   0.00390   0.00570   0.08345
  24   36666.8    272.7   0.019936669   0.17900  -0.16392   0.07150   0.38343
  25   37296.2    268.1   0.026600779   0.23480   0.00382  -0.37979   0.30091
  26   37670.6    265.5   0.049028802   0.42847   0.04420   0.40680  -0.51092
  27   38024.7    263.0   0.045847922   0.39694   0.05604   0.30559  -0.54810
  28   38631.0    258.9   0.054140200   0.46138  -0.48027  -0.48024  -0.00946
  29   39039.7    256.1   0.164045476   1.38336   0.42682   1.03454  -0.36180
  30   39218.5    255.0   0.041626384   0.34942   0.18144   0.56232  -0.01744
  31   39491.5    253.2   0.012942386   0.10789  -0.30368  -0.10775  -0.06373
  32   39947.6    250.3   0.237875064   1.96035   0.20189   1.13969  -0.78785
  33   40072.0    249.6   0.087572684   0.71945  -0.52596  -0.01359   0.66531

FINAL SINGLE POINT ENERGY     -3985.507952157154

DIPOLE MOMENT
-------------
                                X             Y             Z
Electronic contribution:     21.01409      17.58287       7.42549
Nuclear contribution   :    -23.20021     -21.09713      -7.16363
                        -----------------------------------------
Total Dipole Moment    :     -2.18611      -3.51426       0.26186
                        -----------------------------------------
Magnitude (a.u.)       :      4.14701
Magnitude (Debye)      :     10.54086

Rotational constants in cm-1:     0.002513     0.000227     0.000221
Rotational constants in MHz :    75.337841     6.803176     6.621304

                             ****ORCA TERMINATED NORMALLY****
TOTAL RUN TIME: 0 days 0 hours 6 minutes 32 seconds 621 msec
