                         Program Version 4.2.0 -  RELEASE  -
|  1> # ORCA input file
|  2> # SCF done       -173.709529481071          0.000289244365
|  3> ! CAM-B3LYP def2-SVP def2/J RIJCOSX Grid4 TightSCF
|  4> %maxcore 5000
|  5> %tddft
|  6>     Mode sTDDFT
|  7>     Ethresh 5.0
|  8>     maxcore 5000
|  9> end
| 10>
| 11> %pal
| 12>   nprocs 6
| 13>   end
| 14> * xyz 0 1
| 15>    C        2.56843         2.01665        -2.42068
| 16>    C        2.50352         2.50672        -3.69850
| 17>    C        3.01565         1.82936        -4.82511
| 18>    N        3.41115         1.32486        -5.77739
| 19>    C        1.98700         3.76902        -4.06175
| 20>    N        1.61825         4.79189        -4.43114
| 21>    C        3.22978         0.78221        -2.02033
| 22>    C        3.29225         0.75072        -0.59890
| 23>    C        3.86691        -0.28793         0.07519
| 24>    C        4.40816        -1.36809        -0.65713
| 25>    C        4.34241        -1.34770        -2.08037
| 26>    C        3.74627        -0.25485        -2.75071
| 27>    C        4.88031        -2.43384        -2.80023
| 28>    C        5.45581        -3.49003        -2.14784
| 29>    C        5.51968        -3.50926        -0.74658
| 30>    C        5.00777        -2.47056        -0.01723
| 31>    C        2.65413         1.95856        -0.04610
| 32>    O        2.60225         2.25852         1.12834
| 33>    C        2.08961         2.67912        -1.21635
| 34>    C        1.14032         3.66211        -1.23139
| 35>    C        0.58386         4.42855        -0.18515
| 36>    C        0.93863         4.60748         1.14284
| 37>    C        0.12856         5.50257         1.83730
| 38>    C        0.31258         5.76165         3.29323
| 39>    C       -0.88499         6.03151         1.03595
| 40>    S       -0.82381         5.38289        -0.56918
| 41>    C       -1.92832         6.95588         1.36535
| 42>    C       -3.20316         6.84115         0.76324
| 43>    C       -4.28846         7.72495         1.09356
| 44>    N       -5.46011         7.59201         0.46292
| 45>    C       -5.64108         6.63531        -0.40811
| 46>    C       -4.58218         5.70244        -0.67564
| 47>    N       -3.41454         5.83916        -0.10353
| 48>    C       -4.79187         4.61723        -1.56355
| 49>    N       -4.99512         3.74830        -2.28124
| 50>    C       -6.88372         6.52131        -1.08125
| 51>    N       -7.86444         6.37660        -1.65442
| 52>    C       -4.17070         8.75884         2.05385
| 53>    C       -2.87826         8.91967         2.60175
| 54>    C       -1.78040         8.03741         2.25744
| 55>    N       -0.64503         8.42112         2.84672
| 56>    S       -0.92189         9.71471         3.74553
| 57>    N       -2.48751         9.87795         3.44394
| 58>    C       -5.29281         9.55621         2.40436
| 59>    C       -5.31645        10.64243         3.27780
| 60>    C       -6.57310        11.19450         3.43774
| 61>    C       -6.85117        12.36811         4.31404
| 62>    C       -7.55688        10.52108         2.68053
| 63>    S       -6.86441         9.20846         1.76620
| 64>    C       -8.90950        10.89544         2.69090
| 65>    C       -9.98183        10.36697         2.01817
| 66>    C      -11.35216        10.83730         2.11245
| 67>    C      -11.83412        11.83464         2.92347
| 68>    C      -13.18714        12.23156         2.96777
| 69>    N      -14.26871        12.60629         3.05790
| 70>    C      -11.07720        12.60145         3.83223
| 71>    N      -10.53579        13.26788         4.59658
| 72>    C      -12.15826        10.04044         1.19220
| 73>    C      -11.31119         9.08808         0.55680
| 74>    C       -9.94201         9.24588         1.06272
| 75>    O       -8.97745         8.57149         0.75280
| 76>    C      -11.77670         8.19706        -0.36602
| 77>    C      -13.14935         8.21510        -0.70079
| 78>    C      -14.00816         9.16015        -0.06818
| 79>    C      -13.49189        10.07332         0.88103
| 80>    C      -15.37648         9.16511        -0.40666
| 81>    C      -15.87391         8.28065        -1.32511
| 82>    C      -15.02680         7.35240        -1.94828
| 83>    C      -13.69282         7.32036        -1.64293
| 84>    H        3.90462        -0.28740         1.15452
| 85>    H        3.70444        -0.27162        -3.82822
| 86>    H        4.82980        -2.41384        -3.87898
| 87>    H        5.86508        -4.31714        -2.70833
| 88>    H        5.97604        -4.35130        -0.24797
| 89>    H        5.05385        -2.47994         1.06202
| 90>    H        0.70125         3.88647        -2.19753
| 91>    H        1.76345         4.08745         1.59390
| 92>    H        0.84093         4.92625         3.74548
| 93>    H       -0.64538         5.89090         3.79131
| 94>    H        0.89567         6.66806         3.44534
| 95>    H       -4.43019        11.00340         3.76740
| 96>    H       -5.93625        12.69009         4.80338
| 97>    H       -7.58658        12.12123         5.07875
| 98>    H       -7.24621        13.20150         3.73410
| 99>    H       -9.11914        11.73770         3.33709
|100>    H      -11.10500         7.49122        -0.83195
|101>    H      -14.17027        10.77687         1.33672
|102>    H      -16.02547         9.88171         0.07522
|103>    H      -16.92396         8.29217        -1.57638
|104>    H      -15.43622         6.66278        -2.67121
|105>    H      -13.03411         6.60875        -2.11845
|106> *
|107>
|108>                          ****END OF INPUT****

CARTESIAN COORDINATES (ANGSTROEM)
---------------------------------
  C      2.568430    2.016650   -2.420680
  C      2.503520    2.506720   -3.698500
  C      3.015650    1.829360   -4.825110
  N      3.411150    1.324860   -5.777390
  C      1.987000    3.769020   -4.061750
  N      1.618250    4.791890   -4.431140
  C      3.229780    0.782210   -2.020330
  C      3.292250    0.750720   -0.598900
  C      3.866910   -0.287930    0.075190
  C      4.408160   -1.368090   -0.657130
  C      4.342410   -1.347700   -2.080370
  C      3.746270   -0.254850   -2.750710
  C      4.880310   -2.433840   -2.800230
  C      5.455810   -3.490030   -2.147840
  C      5.519680   -3.509260   -0.746580
  C      5.007770   -2.470560   -0.017230
  C      2.654130    1.958560   -0.046100
  O      2.602250    2.258520    1.128340
  C      2.089610    2.679120   -1.216350
  C      1.140320    3.662110   -1.231390
  C      0.583860    4.428550   -0.185150
  C      0.938630    4.607480    1.142840
  C      0.128560    5.502570    1.837300
  C      0.312580    5.761650    3.293230
  C     -0.884990    6.031510    1.035950
  S     -0.823810    5.382890   -0.569180
  C     -1.928320    6.955880    1.365350
  C     -3.203160    6.841150    0.763240
  C     -4.288460    7.724950    1.093560
  N     -5.460110    7.592010    0.462920
  C     -5.641080    6.635310   -0.408110
  C     -4.582180    5.702440   -0.675640
  N     -3.414540    5.839160   -0.103530
  C     -4.791870    4.617230   -1.563550
  N     -4.995120    3.748300   -2.281240
  C     -6.883720    6.521310   -1.081250
  N     -7.864440    6.376600   -1.654420
  C     -4.170700    8.758840    2.053850
  C     -2.878260    8.919670    2.601750
  C     -1.780400    8.037410    2.257440
  N     -0.645030    8.421120    2.846720
  S     -0.921890    9.714710    3.745530
  N     -2.487510    9.877950    3.443940
  C     -5.292810    9.556210    2.404360
  C     -5.316450   10.642430    3.277800
  C     -6.573100   11.194500    3.437740
  C     -6.851170   12.368110    4.314040
  C     -7.556880   10.521080    2.680530
  S     -6.864410    9.208460    1.766200
  C     -8.909500   10.895440    2.690900
  C     -9.981830   10.366970    2.018170
  C    -11.352160   10.837300    2.112450
  C    -11.834120   11.834640    2.923470
  C    -13.187140   12.231560    2.967770
  N    -14.268710   12.606290    3.057900
  C    -11.077200   12.601450    3.832230
  N    -10.535790   13.267880    4.596580
  C    -12.158260   10.040440    1.192200
  C    -11.311190    9.088080    0.556800
  C     -9.942010    9.245880    1.062720
  O     -8.977450    8.571490    0.752800
  C    -11.776700    8.197060   -0.366020
  C    -13.149350    8.215100   -0.700790
  C    -14.008160    9.160150   -0.068180
  C    -13.491890   10.073320    0.881030
  C    -15.376480    9.165110   -0.406660
  C    -15.873910    8.280650   -1.325110
  C    -15.026800    7.352400   -1.948280
  C    -13.692820    7.320360   -1.642930
  H      3.904620   -0.287400    1.154520
  H      3.704440   -0.271620   -3.828220
  H      4.829800   -2.413840   -3.878980
  H      5.865080   -4.317140   -2.708330
  H      5.976040   -4.351300   -0.247970
  H      5.053850   -2.479940    1.062020
  H      0.701250    3.886470   -2.197530
  H      1.763450    4.087450    1.593900
  H      0.840930    4.926250    3.745480
  H     -0.645380    5.890900    3.791310
  H      0.895670    6.668060    3.445340
  H     -4.430190   11.003400    3.767400
  H     -5.936250   12.690090    4.803380
  H     -7.586580   12.121230    5.078750
  H     -7.246210   13.201500    3.734100
  H     -9.119140   11.737700    3.337090
  H    -11.105000    7.491220   -0.831950
  H    -14.170270   10.776870    1.336720
  H    -16.025470    9.881710    0.075220
  H    -16.923960    8.292170   -1.576380
  H    -15.436220    6.662780   -2.671210
  H    -13.034110    6.608750   -2.118450

 Total Charge           Charge          ....    0
 Multiplicity           Mult            ....    1
 Number of Electrons    NEL             ....  480
 Basis Dimension        Dim             .... 1088

ORBITAL ENERGIES
----------------

  NO   OCC          E(Eh)            E(eV)
   0   2.0000     -89.060316     -2423.4544
   1   2.0000     -88.968688     -2420.9611
   2   2.0000     -88.959732     -2420.7174
   3   2.0000     -19.218914      -522.9733
   4   2.0000     -19.216305      -522.9022
   5   2.0000     -14.472728      -393.8229
   6   2.0000     -14.471722      -393.7956
   7   2.0000     -14.466813      -393.6620
   8   2.0000     -14.466745      -393.6602
   9   2.0000     -14.436797      -392.8452
  10   2.0000     -14.435504      -392.8100
  11   2.0000     -14.416908      -392.3040
  12   2.0000     -14.413388      -392.2082
  13   2.0000     -14.412795      -392.1921
  14   2.0000     -14.411186      -392.1483
  15   2.0000     -10.393358      -282.8177
  16   2.0000     -10.392920      -282.8057
  17   2.0000     -10.370472      -282.1949
  18   2.0000     -10.364813      -282.0409
  19   2.0000     -10.361156      -281.9414
  20   2.0000     -10.358976      -281.8821
  21   2.0000     -10.358455      -281.8679
  22   2.0000     -10.358230      -281.8618
  23   2.0000     -10.340656      -281.3836
  24   2.0000     -10.339106      -281.3414
  25   2.0000     -10.338906      -281.3359
  26   2.0000     -10.338291      -281.3192
  27   2.0000     -10.334184      -281.2074
  28   2.0000     -10.332977      -281.1746
  29   2.0000     -10.329696      -281.0853
  30   2.0000     -10.328231      -281.0455
  31   2.0000     -10.324635      -280.9476
  32   2.0000     -10.324168      -280.9349
  33   2.0000     -10.320181      -280.8264
  34   2.0000     -10.319024      -280.7949
  35   2.0000     -10.316268      -280.7199
  36   2.0000     -10.316203      -280.7181
  37   2.0000     -10.315645      -280.7030
  38   2.0000     -10.314733      -280.6781
  39   2.0000     -10.314599      -280.6745
  40   2.0000     -10.305930      -280.4386
  41   2.0000     -10.301914      -280.3293
  42   2.0000     -10.301592      -280.3206
  43   2.0000     -10.298762      -280.2436
  44   2.0000     -10.297487      -280.2089
  45   2.0000     -10.297204      -280.2012
  46   2.0000     -10.297186      -280.2007
  47   2.0000     -10.296913      -280.1933
  48   2.0000     -10.296492      -280.1818
  49   2.0000     -10.296449      -280.1806
  50   2.0000     -10.296113      -280.1715
  51   2.0000     -10.293405      -280.0978
  52   2.0000     -10.292917      -280.0845
  53   2.0000     -10.292810      -280.0816
  54   2.0000     -10.291173      -280.0371
  55   2.0000     -10.288434      -279.9625
  56   2.0000     -10.286553      -279.9113
  57   2.0000     -10.286028      -279.8971
  58   2.0000     -10.285616      -279.8858
  59   2.0000     -10.285069      -279.8710
  60   2.0000     -10.283467      -279.8274
  61   2.0000     -10.282195      -279.7927
  62   2.0000     -10.281910      -279.7850
  63   2.0000     -10.281412      -279.7714
  64   2.0000     -10.281261      -279.7673
  65   2.0000     -10.280902      -279.7576
  66   2.0000     -10.280360      -279.7428
  67   2.0000     -10.273170      -279.5472
  68   2.0000     -10.270566      -279.4763
  69   2.0000      -8.151553      -221.8150
  70   2.0000      -8.063651      -219.4231
  71   2.0000      -8.052146      -219.1100
  72   2.0000      -6.122531      -166.6025
  73   2.0000      -6.114684      -166.3890
  74   2.0000      -6.114606      -166.3869
  75   2.0000      -6.032854      -164.1623
  76   2.0000      -6.028547      -164.0451
  77   2.0000      -6.026019      -163.9763
  78   2.0000      -6.021497      -163.8533
  79   2.0000      -6.016878      -163.7276
  80   2.0000      -6.014338      -163.6584
  81   2.0000      -1.156807       -31.4783
  82   2.0000      -1.134470       -30.8705
  83   2.0000      -1.133593       -30.8466
  84   2.0000      -1.132527       -30.8176
  85   2.0000      -1.061481       -28.8844
  86   2.0000      -1.022240       -27.8166
  87   2.0000      -1.017147       -27.6780
  88   2.0000      -1.016640       -27.6642
  89   2.0000      -1.014291       -27.6003
  90   2.0000      -1.008925       -27.4542
  91   2.0000      -1.004686       -27.3389
  92   2.0000      -0.997617       -27.1466
  93   2.0000      -0.996561       -27.1178
  94   2.0000      -0.993483       -27.0341
  95   2.0000      -0.991635       -26.9838
  96   2.0000      -0.991204       -26.9720
  97   2.0000      -0.979929       -26.6652
  98   2.0000      -0.970658       -26.4129
  99   2.0000      -0.967237       -26.3199
 100   2.0000      -0.926892       -25.2220
 101   2.0000      -0.922691       -25.1077
 102   2.0000      -0.919893       -25.0316
 103   2.0000      -0.916479       -24.9387
 104   2.0000      -0.904431       -24.6108
 105   2.0000      -0.896589       -24.3974
 106   2.0000      -0.883853       -24.0509
 107   2.0000      -0.879932       -23.9442
 108   2.0000      -0.877378       -23.8747
 109   2.0000      -0.874687       -23.8014
 110   2.0000      -0.868786       -23.6409
 111   2.0000      -0.860146       -23.4058
 112   2.0000      -0.847211       -23.0538
 113   2.0000      -0.830853       -22.6086
 114   2.0000      -0.827988       -22.5307
 115   2.0000      -0.826840       -22.4995
 116   2.0000      -0.824028       -22.4230
 117   2.0000      -0.809163       -22.0184
 118   2.0000      -0.796711       -21.6796
 119   2.0000      -0.786288       -21.3960
 120   2.0000      -0.780152       -21.2290
 121   2.0000      -0.761189       -20.7130
 122   2.0000      -0.759406       -20.6645
 123   2.0000      -0.759172       -20.6581
 124   2.0000      -0.750122       -20.4119
 125   2.0000      -0.734308       -19.9815
 126   2.0000      -0.716335       -19.4925
 127   2.0000      -0.714706       -19.4481
 128   2.0000      -0.706863       -19.2347
 129   2.0000      -0.703536       -19.1442
 130   2.0000      -0.701017       -19.0756
 131   2.0000      -0.697249       -18.9731
 132   2.0000      -0.694930       -18.9100
 133   2.0000      -0.686846       -18.6900
 134   2.0000      -0.677223       -18.4282
 135   2.0000      -0.672529       -18.3005
 136   2.0000      -0.669198       -18.2098
 137   2.0000      -0.662111       -18.0169
 138   2.0000      -0.654031       -17.7971
 139   2.0000      -0.641370       -17.4526
 140   2.0000      -0.634439       -17.2640
 141   2.0000      -0.633937       -17.2503
 142   2.0000      -0.630114       -17.1463
 143   2.0000      -0.625809       -17.0291
 144   2.0000      -0.617303       -16.7977
 145   2.0000      -0.608711       -16.5639
 146   2.0000      -0.607008       -16.5175
 147   2.0000      -0.605924       -16.4880
 148   2.0000      -0.601689       -16.3728
 149   2.0000      -0.594246       -16.1703
 150   2.0000      -0.590376       -16.0649
 151   2.0000      -0.576105       -15.6766
 152   2.0000      -0.573438       -15.6041
 153   2.0000      -0.570608       -15.5270
 154   2.0000      -0.568793       -15.4777
 155   2.0000      -0.554340       -15.0844
 156   2.0000      -0.553029       -15.0487
 157   2.0000      -0.546701       -14.8765
 158   2.0000      -0.545465       -14.8429
 159   2.0000      -0.542538       -14.7632
 160   2.0000      -0.539273       -14.6744
 161   2.0000      -0.538336       -14.6489
 162   2.0000      -0.537313       -14.6210
 163   2.0000      -0.535068       -14.5600
 164   2.0000      -0.528551       -14.3826
 165   2.0000      -0.525171       -14.2906
 166   2.0000      -0.523817       -14.2538
 167   2.0000      -0.520435       -14.1617
 168   2.0000      -0.518988       -14.1224
 169   2.0000      -0.517586       -14.0842
 170   2.0000      -0.516055       -14.0426
 171   2.0000      -0.514690       -14.0054
 172   2.0000      -0.512569       -13.9477
 173   2.0000      -0.508911       -13.8482
 174   2.0000      -0.508193       -13.8286
 175   2.0000      -0.500735       -13.6257
 176   2.0000      -0.498804       -13.5731
 177   2.0000      -0.497247       -13.5308
 178   2.0000      -0.495177       -13.4745
 179   2.0000      -0.494650       -13.4601
 180   2.0000      -0.493270       -13.4226
 181   2.0000      -0.491461       -13.3733
 182   2.0000      -0.490215       -13.3394
 183   2.0000      -0.486146       -13.2287
 184   2.0000      -0.484044       -13.1715
 185   2.0000      -0.474128       -12.9017
 186   2.0000      -0.469698       -12.7811
 187   2.0000      -0.466578       -12.6962
 188   2.0000      -0.464738       -12.6462
 189   2.0000      -0.463074       -12.6009
 190   2.0000      -0.462434       -12.5835
 191   2.0000      -0.460196       -12.5226
 192   2.0000      -0.459493       -12.5034
 193   2.0000      -0.457650       -12.4533
 194   2.0000      -0.456044       -12.4096
 195   2.0000      -0.451252       -12.2792
 196   2.0000      -0.448100       -12.1934
 197   2.0000      -0.446738       -12.1564
 198   2.0000      -0.446402       -12.1472
 199   2.0000      -0.443243       -12.0613
 200   2.0000      -0.442940       -12.0530
 201   2.0000      -0.441944       -12.0259
 202   2.0000      -0.439330       -11.9548
 203   2.0000      -0.438970       -11.9450
 204   2.0000      -0.436486       -11.8774
 205   2.0000      -0.433423       -11.7941
 206   2.0000      -0.432236       -11.7617
 207   2.0000      -0.431747       -11.7484
 208   2.0000      -0.431067       -11.7299
 209   2.0000      -0.430268       -11.7082
 210   2.0000      -0.427514       -11.6332
 211   2.0000      -0.425117       -11.5680
 212   2.0000      -0.424324       -11.5464
 213   2.0000      -0.423565       -11.5258
 214   2.0000      -0.420079       -11.4309
 215   2.0000      -0.418156       -11.3786
 216   2.0000      -0.416891       -11.3442
 217   2.0000      -0.407805       -11.0969
 218   2.0000      -0.404893       -11.0177
 219   2.0000      -0.403930       -10.9915
 220   2.0000      -0.402145       -10.9429
 221   2.0000      -0.392206       -10.6725
 222   2.0000      -0.389630       -10.6024
 223   2.0000      -0.379117       -10.3163
 224   2.0000      -0.376479       -10.2445
 225   2.0000      -0.366898        -9.9838
 226   2.0000      -0.360646        -9.8137
 227   2.0000      -0.359724        -9.7886
 228   2.0000      -0.357940        -9.7400
 229   2.0000      -0.340556        -9.2670
 230   2.0000      -0.329042        -8.9537
 231   2.0000      -0.324403        -8.8274
 232   2.0000      -0.321136        -8.7386
 233   2.0000      -0.317759        -8.6467
 234   2.0000      -0.316279        -8.6064
 235   2.0000      -0.313281        -8.5248
 236   2.0000      -0.299038        -8.1372
 237   2.0000      -0.291868        -7.9421
 238   2.0000      -0.286525        -7.7968
 239   2.0000      -0.256775        -6.9872
 240   0.0000      -0.139627        -3.7994
 241   0.0000      -0.089792        -2.4434
 242   0.0000      -0.086378        -2.3505
 243   0.0000      -0.060998        -1.6598
 244   0.0000      -0.056965        -1.5501

MULLIKEN ATOMIC CHARGES
-----------------------
   0 C :    0.293546
   1 C :   -0.344420
   2 C :   -0.182950
   3 N :    0.148869
   4 C :   -0.206325
   5 N :    0.164637
   6 C :    0.050940
   7 C :    0.000763
   8 C :   -0.085568
   9 C :    0.100842
  10 C :    0.098465
  11 C :   -0.085600
  12 C :   -0.021923
  13 C :    0.036950
  14 C :    0.037514
  15 C :   -0.019680
  16 C :    0.159836
  17 O :   -0.155373
  18 C :   -0.088325
  19 C :    0.053299
  20 C :   -0.083188
  21 C :   -0.033473
  22 C :   -0.038770
  23 C :    0.154165
  24 C :   -0.205363
  25 S :    0.197969
  26 C :    0.121888
  27 C :   -0.056889
  28 C :   -0.063882
  29 N :    0.022170
  30 C :   -0.108346
  31 C :   -0.129099
  32 N :    0.041865
  33 C :   -0.213802
  34 N :    0.242288
  35 C :   -0.198280
  36 N :    0.239236
  37 C :    0.207851
  38 C :   -0.022732
  39 C :   -0.014728
  40 N :   -0.271461
  41 S :    0.560630
  42 N :   -0.284009
  43 C :   -0.146591
  44 C :   -0.026710
  45 C :   -0.057634
  46 C :    0.143761
  47 C :   -0.047226
  48 S :    0.202476
  49 C :   -0.048496
  50 C :   -0.086158
  51 C :    0.329079
  52 C :   -0.358302
  53 C :   -0.185348
  54 N :    0.148046
  55 C :   -0.181301
  56 N :    0.137018
  57 C :    0.045316
  58 C :   -0.003981
  59 C :    0.162395
  60 O :   -0.168732
  61 C :   -0.081640
  62 C :    0.096672
  63 C :    0.098326
  64 C :   -0.084966
  65 C :   -0.021214
  66 C :    0.035605
  67 C :    0.035681
  68 C :   -0.016767
  69 H :   -0.013725
  70 H :   -0.006181
  71 H :   -0.007773
  72 H :   -0.004831
  73 H :   -0.005632
  74 H :   -0.017239
  75 H :    0.021296
  76 H :    0.007374
  77 H :    0.017711
  78 H :    0.005908
  79 H :    0.039784
  80 H :   -0.012662
  81 H :    0.011446
  82 H :    0.046090
  83 H :    0.041864
  84 H :   -0.017413
  85 H :   -0.002682
  86 H :   -0.009649
  87 H :   -0.010176
  88 H :   -0.005484
  89 H :   -0.005126
  90 H :   -0.011744
Sum of atomic charges:   -0.0000000

LOEWDIN ATOMIC CHARGES
----------------------
   0 C :    0.075910
   1 C :   -0.139220
   2 C :   -0.017020
   3 N :   -0.053464
   4 C :   -0.027040
   5 N :   -0.049921
   6 C :   -0.025675
   7 C :   -0.054811
   8 C :    0.030817
   9 C :   -0.008479
  10 C :   -0.005983
  11 C :    0.019276
  12 C :   -0.005479
  13 C :   -0.013404
  14 C :   -0.012644
  15 C :   -0.010266
  16 C :    0.088209
  17 O :   -0.142026
  18 C :   -0.088713
  19 C :    0.049971
  20 C :   -0.176920
  21 C :   -0.017761
  22 C :   -0.034634
  23 C :   -0.047541
  24 C :   -0.159373
  25 S :    0.499558
  26 C :   -0.037469
  27 C :   -0.008799
  28 C :   -0.010668
  29 N :   -0.005445
  30 C :   -0.015691
  31 C :   -0.020689
  32 N :   -0.009143
  33 C :   -0.036557
  34 N :    0.001831
  35 C :   -0.030470
  36 N :    0.001068
  37 C :   -0.028552
  38 C :   -0.035662
  39 C :   -0.040996
  40 N :   -0.264356
  41 S :    0.690585
  42 N :   -0.277492
  43 C :   -0.163687
  44 C :   -0.045899
  45 C :   -0.021799
  46 C :   -0.046614
  47 C :   -0.192107
  48 S :    0.550176
  49 C :    0.052197
  50 C :   -0.098153
  51 C :    0.078266
  52 C :   -0.145402
  53 C :   -0.017418
  54 N :   -0.056524
  55 C :   -0.019500
  56 N :   -0.059860
  57 C :   -0.026791
  58 C :   -0.055912
  59 C :    0.083288
  60 O :   -0.159849
  61 C :    0.035711
  62 C :   -0.008157
  63 C :   -0.006637
  64 C :    0.018946
  65 C :   -0.006433
  66 C :   -0.014130
  67 C :   -0.012593
  68 C :   -0.007725
  69 H :    0.038299
  70 H :    0.039291
  71 H :    0.035112
  72 H :    0.033237
  73 H :    0.032649
  74 H :    0.031694
  75 H :    0.044681
  76 H :    0.032681
  77 H :    0.034561
  78 H :    0.028877
  79 H :    0.037245
  80 H :    0.026736
  81 H :    0.035506
  82 H :    0.044644
  83 H :    0.044074
  84 H :    0.046831
  85 H :    0.043356
  86 H :    0.038517
  87 H :    0.034209
  88 H :    0.032799
  89 H :    0.032737
  90 H :    0.034011

  Mayer bond orders larger than 0.100000
B(  0-C ,  1-C ) :   1.6401 B(  0-C ,  6-C ) :   0.9873 B(  0-C , 18-C ) :   1.0640
B(  1-C ,  2-C ) :   1.1460 B(  1-C ,  4-C ) :   1.1364 B(  2-C ,  3-N ) :   2.9714
B(  4-C ,  5-N ) :   3.0029 B(  6-C ,  7-C ) :   1.2145 B(  6-C , 11-C ) :   1.4491
B(  7-C ,  8-C ) :   1.4693 B(  7-C , 16-C ) :   0.9530 B(  8-C ,  9-C ) :   1.1783
B(  8-C , 69-H ) :   1.0170 B(  9-C , 10-C ) :   1.2562 B(  9-C , 15-C ) :   1.2437
B( 10-C , 11-C ) :   1.2043 B( 10-C , 12-C ) :   1.2389 B( 11-C , 70-H ) :   0.9927
B( 12-C , 13-C ) :   1.4892 B( 12-C , 71-H ) :   0.9982 B( 13-C , 14-C ) :   1.2599
B( 13-C , 72-H ) :   0.9881 B( 14-C , 15-C ) :   1.4890 B( 14-C , 73-H ) :   0.9882
B( 15-C , 74-H ) :   0.9982 B( 16-C , 17-O ) :   2.1770 B( 16-C , 18-C ) :   0.9364
B( 18-C , 19-C ) :   1.6076 B( 19-C , 20-C ) :   1.1916 B( 19-C , 75-H ) :   0.9248
B( 20-C , 21-C ) :   1.4097 B( 20-C , 25-S ) :   1.1153 B( 21-C , 22-C ) :   1.2993
B( 21-C , 76-H ) :   0.9825 B( 22-C , 23-C ) :   1.1211 B( 22-C , 24-C ) :   1.4451
B( 23-C , 77-H ) :   0.9413 B( 23-C , 78-H ) :   0.9417 B( 23-C , 79-H ) :   0.9241
B( 24-C , 25-S ) :   1.1673 B( 24-C , 26-C ) :   1.0806 B( 26-C , 27-C ) :   1.2811
B( 26-C , 37-C ) :   0.1256 B( 26-C , 39-C ) :   1.2422 B( 27-C , 28-C ) :   1.1214
B( 27-C , 32-N ) :   1.4165 B( 28-C , 29-N ) :   1.4083 B( 28-C , 37-C ) :   1.2423
B( 29-N , 30-C ) :   1.7202 B( 30-C , 31-C ) :   1.1998 B( 30-C , 35-C ) :   1.1564
B( 31-C , 32-N ) :   1.7339 B( 31-C , 33-C ) :   1.1548 B( 33-C , 34-N ) :   3.0474
B( 35-C , 36-N ) :   3.0155 B( 37-C , 38-C ) :   1.1993 B( 37-C , 43-C ) :   1.2020
B( 38-C , 39-C ) :   1.0874 B( 38-C , 42-N ) :   1.5166 B( 39-C , 40-N ) :   1.5067
B( 40-N , 41-S ) :   1.2967 B( 40-N , 42-N ) :   0.1532 B( 41-S , 42-N ) :   1.2839
B( 43-C , 44-C ) :   1.3586 B( 43-C , 48-S ) :   1.1193 B( 44-C , 45-C ) :   1.3543
B( 44-C , 80-H ) :   0.9900 B( 45-C , 46-C ) :   1.1083 B( 45-C , 47-C ) :   1.3306
B( 46-C , 81-H ) :   0.9466 B( 46-C , 82-H ) :   0.9306 B( 46-C , 83-H ) :   0.9318
B( 47-C , 48-S ) :   1.0643 B( 47-C , 49-C ) :   1.2681 B( 49-C , 50-C ) :   1.5171
B( 49-C , 84-H ) :   0.9292 B( 50-C , 51-C ) :   1.0819 B( 50-C , 59-C ) :   0.9584
B( 51-C , 52-C ) :   1.6103 B( 51-C , 57-C ) :   0.9857 B( 52-C , 53-C ) :   1.1505
B( 52-C , 55-C ) :   1.1506 B( 53-C , 54-N ) :   2.9616 B( 55-C , 56-N ) :   2.9511
B( 57-C , 58-C ) :   1.2133 B( 57-C , 64-C ) :   1.4535 B( 58-C , 59-C ) :   0.9600
B( 58-C , 61-C ) :   1.4727 B( 59-C , 60-O ) :   2.1380 B( 61-C , 62-C ) :   1.1712
B( 61-C , 85-H ) :   1.0177 B( 62-C , 63-C ) :   1.2565 B( 62-C , 68-C ) :   1.2463
B( 63-C , 64-C ) :   1.2034 B( 63-C , 65-C ) :   1.2417 B( 64-C , 86-H ) :   0.9895
B( 65-C , 66-C ) :   1.4880 B( 65-C , 87-H ) :   0.9968 B( 66-C , 67-C ) :   1.2612
B( 66-C , 88-H ) :   0.9880 B( 67-C , 68-C ) :   1.4858 B( 67-C , 89-H ) :   0.9891
B( 68-C , 90-H ) :   0.9985

-----------------------------------------------------------------------------
         ABSORPTION SPECTRUM VIA TRANSITION ELECTRIC DIPOLE MOMENTS
-----------------------------------------------------------------------------
State   Energy  Wavelength   fosc         T2         TX        TY        TZ
        (cm-1)    (nm)                  (au**2)     (au)      (au)      (au)
-----------------------------------------------------------------------------
   0    9918.8   1008.2   0.725636441  24.08445   4.10877  -2.49974  -0.97661
   1   17938.7    557.5   0.025363978   0.46548   0.04657   0.55603   0.39261
   2   19046.5    525.0   0.001535552   0.02654   0.12508   0.00852   0.10404
   3   20803.2    480.7   0.060065525   0.95054   0.58584  -0.53923  -0.56265
   4   20976.1    476.7   0.049486071   0.77667  -0.69403   0.52286   0.14701
   5   21462.0    465.9   0.859386348  13.18238   3.29788  -1.43223  -0.50504
   6   22188.6    450.7   0.194397297   2.88428  -0.99431   1.01660   0.92852
   7   22294.5    448.5   0.073043094   1.07859  -0.20740   0.77280   0.66209
   8   23288.1    429.4   0.013284139   0.18779  -0.05011   0.42563  -0.06416
   9   25285.2    395.5   0.046154118   0.60092  -0.42701   0.52719   0.37504
  10   25862.1    386.7   0.057583397   0.73301   0.67527   0.16285   0.50050
  11   26029.4    384.2   0.003775056   0.04775   0.16408   0.14161   0.02772
  12   26220.8    381.4   0.003758449   0.04719  -0.14653  -0.02195   0.15886
  13   26955.8    371.0   0.010293107   0.12571  -0.07783   0.07895  -0.33678
  14   27546.4    363.0   0.017015927   0.20336   0.32906  -0.30791  -0.01653
  15   27590.0    362.4   0.018927185   0.22584  -0.37427   0.22622   0.18599
  16   28180.5    354.9   0.029998559   0.35045   0.45808   0.14509   0.34577
  17   28924.9    345.7   0.125684319   1.43049   0.79064   0.37110   0.81711
  18   28962.2    345.3   0.018686840   0.21241   0.28931   0.34331   0.10416
  19   29327.5    341.0   0.229969648   2.58150  -0.78514   1.09256  -0.87827
  20   29901.9    334.4   0.018531994   0.20403   0.43436   0.10083   0.07210
  21   30535.9    327.5   0.199301267   2.14870  -0.69840   1.18375   0.50958
  22   30982.0    322.8   0.028427806   0.30207   0.35755   0.29036   0.29987
  23   31105.1    321.5   0.021180880   0.22418   0.30404   0.24846   0.26459
  24   31507.0    317.4   0.253212484   2.64578   0.13336   1.43259   0.75874
  25   31778.4    314.7   0.637928669   6.60870  -1.85595  -1.05719  -1.43056
  26   32189.6    310.7   0.006816863   0.06972   0.18930   0.13219   0.12810
  27   32366.4    309.0   0.156409689   1.59091   0.88721   0.55209   0.70638
  28   32454.1    308.1   0.060192287   0.61059  -0.51069  -0.22825  -0.54560
  29   32774.8    305.1   0.086006424   0.86391  -0.48345  -0.67527  -0.41737
  30   32947.7    303.5   0.038084966   0.38054  -0.52875   0.29567  -0.11636
  31   33633.1    297.3   0.022661323   0.22182   0.16608  -0.37561  -0.23054
  32   34222.7    292.2   0.128341247   1.23460   0.54099   0.67637   0.69603
  33   34425.1    290.5   0.407919825   3.90099   0.83114  -1.58748   0.83073
  34   34824.3    287.2   0.312868923   2.95771  -0.94141   1.17048  -0.83752
  35   34929.6    286.3   0.458519842   4.32155   0.25039   1.85925   0.89556
  36   35049.1    285.3   0.190491039   1.78926  -0.74333  -0.79068  -0.78201
  37   35277.4    283.5   0.245022029   2.28657   0.42502   0.28341   1.42324
  38   35765.1    279.6   0.022496766   0.20708  -0.34543   0.20793   0.21100
  39   36016.7    277.6   0.016419957   0.15009   0.27589  -0.14567  -0.22968
  40   36229.7    276.0   0.083729808   0.76084   0.14370  -0.76434  -0.39493
  41   36406.3    274.7   0.090003563   0.81388   0.61524  -0.34417  -0.56294
  42   36818.8    271.6   0.023919040   0.21387  -0.39511  -0.18897  -0.14850
  43   37664.0    265.5   0.103573506   0.90531  -0.44854  -0.63666  -0.54661
  44   37818.2    264.4   0.019005477   0.16544   0.03875  -0.20874  -0.34694
  45   38090.9    262.5   0.111404429   0.96285   0.53338  -0.82322   0.02568
  46   38213.2    261.7   0.031113373   0.26805   0.23969   0.02330   0.45831
  47   38464.6    260.0   0.028505805   0.24398  -0.48148   0.10976   0.01034
  48   38820.1    257.6   0.025128791   0.21310   0.27067   0.05756  -0.36950
  49   38849.1    257.4   0.034512987   0.29247  -0.25083   0.31093  -0.36452
  50   38969.1    256.6   0.108459582   0.91627   0.93117  -0.17743  -0.13312
  51   39049.2    256.1   0.027018891   0.22779  -0.42602   0.21042  -0.04491
  52   39318.7    254.3   0.036138499   0.30258  -0.52671   0.02788  -0.15616
  53   39596.4    252.5   0.108667756   0.90349  -0.04496   0.73328   0.60313
  54   39741.2    251.6   0.122667091   1.01616   1.00213  -0.05613   0.09348
  55   39912.8    250.5   0.209605790   1.72889  -0.16647  -0.79636  -1.03295
  56   40081.3    249.5   0.206527359   1.69633   0.09045   0.54087   1.18136
  57   40155.2    249.0   0.005535412   0.04538   0.10951  -0.05456   0.17440

FINAL SINGLE POINT ENERGY     -3959.541920543729

DIPOLE MOMENT
-------------
                                X             Y             Z
Electronic contribution:      1.66160      15.63320      -5.66254
Nuclear contribution   :      0.13077     -16.97159       7.92654
                        -----------------------------------------
Total Dipole Moment    :      1.79237      -1.33840       2.26399
                        -----------------------------------------
Magnitude (a.u.)       :      3.18270
Magnitude (Debye)      :      8.08978

Rotational constants in cm-1:     0.002007     0.000332     0.000297
Rotational constants in MHz :    60.162280     9.944382     8.912920

                             ****ORCA TERMINATED NORMALLY****
TOTAL RUN TIME: 0 days 0 hours 9 minutes 22 seconds 798 msec
