                         Program Version 4.2.0 -  RELEASE  -
|  1> # ORCA input file
|  2> # SCF done       -208.661354523509          0.000448455524
|  3> ! CAM-B3LYP def2-SVP def2/J RIJCOSX Grid4 TightSCF
|  4> %maxcore 5000
|  5> %tddft
|  6>     Mode sTDDFT
|  7>     Ethresh 5.0
|  8>     maxcore 5000
|  9> end
| 10>
| 11> %pal
| 12>   nprocs 6
| 13>   end
| 14> * xyz 0 1
| 15>    C       -0.54362         3.92480        -6.41773
| 16>    C       -1.19230         2.93445        -7.10919
| 17>    C       -0.70754         2.35644        -8.30158
| 18>    N       -0.37422         1.84525        -9.27397
| 19>    C       -2.41480         2.33627        -6.73940
| 20>    N       -3.40122         1.79518        -6.50734
| 21>    C        0.73610         4.51749        -6.79402
| 22>    C        1.11597         5.45510        -5.79034
| 23>    C        2.27212         6.17597        -5.87279
| 24>    C        3.11773         5.99380        -6.99011
| 25>    C        2.74518         5.06057        -8.00014
| 26>    C        1.54304         4.32450        -7.88351
| 27>    C        3.59303         4.89044        -9.11306
| 28>    C        4.75325         5.60774        -9.22551
| 29>    C        5.11889         6.52637        -8.23068
| 30>    C        4.31880         6.71482        -7.13611
| 31>    C        0.08100         5.48889        -4.74870
| 32>    O        0.09401         6.15884        -3.72997
| 33>    C       -0.97198         4.56072        -5.18466
| 34>    C       -2.17937         4.38837        -4.56256
| 35>    C       -2.69087         4.99665        -3.40311
| 36>    C       -3.99469         4.76489        -2.96720
| 37>    C       -4.33136         5.47833        -1.83246
| 38>   Cl       -5.88098         5.39004        -1.10484
| 39>    C       -3.28953         6.27052        -1.33848
| 40>    S       -1.87493         6.11099        -2.33996
| 41>    C       -3.32995         7.13458        -0.22249
| 42>    C       -2.28098         7.87594         0.32473
| 43>   Cl       -0.68180         7.82038        -0.28263
| 44>    C       -2.64711         8.67294         1.40319
| 45>    C       -3.99363         8.58252         1.71135
| 46>    S       -4.80022         7.46173         0.65366
| 47>    C       -4.74722         9.29316         2.68650
| 48>    C       -4.20712        10.20975         3.62227
| 49>    C       -5.03730        10.98620         4.50808
| 50>    N       -4.45201        11.84687         5.36868
| 51>    C       -3.16519        11.95859         5.39135
| 52>    C       -2.34848        11.19287         4.52183
| 53>    N       -2.86678        10.36178         3.67938
| 54>    F       -1.02227        11.30304         4.54415
| 55>    F       -2.63536        12.81553         6.26090
| 56>    C       -6.45037        10.89384         4.49489
| 57>    C       -6.97837         9.92953         3.61013
| 58>    C       -6.15019         9.14424         2.73735
| 59>    N       -6.87509         8.31173         1.98928
| 60>    S       -8.42866         8.49177         2.34539
| 61>    N       -8.27043         9.63591         3.45851
| 62>    C       -7.33118        11.71790         5.25046
| 63>    C       -7.03941        12.70373         6.17619
| 64>    C       -8.17249        13.35695         6.64787
| 65>   Cl       -8.09500        14.62679         7.79419
| 66>    C       -9.36961        12.89920         6.09747
| 67>    S       -9.04718        11.59313         4.99097
| 68>    C      -10.67318        13.39861         6.31354
| 69>    C      -11.86826        12.95718         5.73752
| 70>   Cl      -11.94547        11.61648         4.67646
| 71>    C      -12.99100        13.69534         6.09040
| 72>    C      -12.70157        14.73632         6.95482
| 73>    S      -10.99399        14.75625         7.34220
| 74>    C      -13.49299        15.73549         7.55951
| 75>    C      -14.79234        16.10492         7.34994
| 76>    C      -15.44104        17.19292         8.06873
| 77>    C      -15.02197        17.77092         9.23863
| 78>    C      -15.71242        18.81473         9.89074
| 79>    N      -16.22050        19.66757        10.46723
| 80>    C      -13.88782        17.39352         9.98900
| 81>    N      -13.00178        17.13650        10.67309
| 82>    C      -16.67564        17.52055         7.36664
| 83>    C      -16.85529        16.58025         6.31407
| 84>    C      -15.72963        15.63132         6.29873
| 85>    O      -15.62030        14.67569         5.55911
| 86>    C      -17.93550        16.62426         5.48058
| 87>    C      -18.90220        17.63837         5.66055
| 88>    C      -18.72602        18.58978         6.70652
| 89>    C      -17.59911        18.51441         7.55715
| 90>    C      -19.69399        19.60096         6.87383
| 91>    C      -20.78407        19.67007         6.04959
| 92>    C      -20.95652        18.73251         5.02033
| 93>    C      -20.03577        17.73804         4.83020
| 94>    H        2.53610         6.87995        -5.09764
| 95>    H        1.28971         3.62886        -8.66745
| 96>    H        3.30737         4.18173        -9.87644
| 97>    H        5.39544         5.47096       -10.08257
| 98>    H        6.03722         7.08440        -8.33570
| 99>    H        4.59511         7.42101        -6.36687
|100>    H       -2.88193         3.70811        -5.02861
|101>    H       -4.67129         4.10182        -3.47555
|102>    H       -1.96464         9.30323         1.93937
|103>    H       -6.03993        12.93881         6.48676
|104>    H      -13.97987        13.49132         5.72284
|105>    H      -12.93951        16.32418         8.28263
|106>    H      -18.04864        15.89551         4.69166
|107>    H      -17.49281        19.25327         8.33524
|108>    H      -19.55768        20.31980         7.66840
|109>    H      -21.52008        20.44810         6.18630
|110>    H      -21.82226        18.80238         4.37886
|111>    H      -20.16286        17.01324         4.03936
|112> *
|113>
|114>                          ****END OF INPUT****

CARTESIAN COORDINATES (ANGSTROEM)
---------------------------------
  C     -0.543620    3.924800   -6.417730
  C     -1.192300    2.934450   -7.109190
  C     -0.707540    2.356440   -8.301580
  N     -0.374220    1.845250   -9.273970
  C     -2.414800    2.336270   -6.739400
  N     -3.401220    1.795180   -6.507340
  C      0.736100    4.517490   -6.794020
  C      1.115970    5.455100   -5.790340
  C      2.272120    6.175970   -5.872790
  C      3.117730    5.993800   -6.990110
  C      2.745180    5.060570   -8.000140
  C      1.543040    4.324500   -7.883510
  C      3.593030    4.890440   -9.113060
  C      4.753250    5.607740   -9.225510
  C      5.118890    6.526370   -8.230680
  C      4.318800    6.714820   -7.136110
  C      0.081000    5.488890   -4.748700
  O      0.094010    6.158840   -3.729970
  C     -0.971980    4.560720   -5.184660
  C     -2.179370    4.388370   -4.562560
  C     -2.690870    4.996650   -3.403110
  C     -3.994690    4.764890   -2.967200
  C     -4.331360    5.478330   -1.832460
  Cl    -5.880980    5.390040   -1.104840
  C     -3.289530    6.270520   -1.338480
  S     -1.874930    6.110990   -2.339960
  C     -3.329950    7.134580   -0.222490
  C     -2.280980    7.875940    0.324730
  Cl    -0.681800    7.820380   -0.282630
  C     -2.647110    8.672940    1.403190
  C     -3.993630    8.582520    1.711350
  S     -4.800220    7.461730    0.653660
  C     -4.747220    9.293160    2.686500
  C     -4.207120   10.209750    3.622270
  C     -5.037300   10.986200    4.508080
  N     -4.452010   11.846870    5.368680
  C     -3.165190   11.958590    5.391350
  C     -2.348480   11.192870    4.521830
  N     -2.866780   10.361780    3.679380
  F     -1.022270   11.303040    4.544150
  F     -2.635360   12.815530    6.260900
  C     -6.450370   10.893840    4.494890
  C     -6.978370    9.929530    3.610130
  C     -6.150190    9.144240    2.737350
  N     -6.875090    8.311730    1.989280
  S     -8.428660    8.491770    2.345390
  N     -8.270430    9.635910    3.458510
  C     -7.331180   11.717900    5.250460
  C     -7.039410   12.703730    6.176190
  C     -8.172490   13.356950    6.647870
  Cl    -8.095000   14.626790    7.794190
  C     -9.369610   12.899200    6.097470
  S     -9.047180   11.593130    4.990970
  C    -10.673180   13.398610    6.313540
  C    -11.868260   12.957180    5.737520
  Cl   -11.945470   11.616480    4.676460
  C    -12.991000   13.695340    6.090400
  C    -12.701570   14.736320    6.954820
  S    -10.993990   14.756250    7.342200
  C    -13.492990   15.735490    7.559510
  C    -14.792340   16.104920    7.349940
  C    -15.441040   17.192920    8.068730
  C    -15.021970   17.770920    9.238630
  C    -15.712420   18.814730    9.890740
  N    -16.220500   19.667570   10.467230
  C    -13.887820   17.393520    9.989000
  N    -13.001780   17.136500   10.673090
  C    -16.675640   17.520550    7.366640
  C    -16.855290   16.580250    6.314070
  C    -15.729630   15.631320    6.298730
  O    -15.620300   14.675690    5.559110
  C    -17.935500   16.624260    5.480580
  C    -18.902200   17.638370    5.660550
  C    -18.726020   18.589780    6.706520
  C    -17.599110   18.514410    7.557150
  C    -19.693990   19.600960    6.873830
  C    -20.784070   19.670070    6.049590
  C    -20.956520   18.732510    5.020330
  C    -20.035770   17.738040    4.830200
  H      2.536100    6.879950   -5.097640
  H      1.289710    3.628860   -8.667450
  H      3.307370    4.181730   -9.876440
  H      5.395440    5.470960  -10.082570
  H      6.037220    7.084400   -8.335700
  H      4.595110    7.421010   -6.366870
  H     -2.881930    3.708110   -5.028610
  H     -4.671290    4.101820   -3.475550
  H     -1.964640    9.303230    1.939370
  H     -6.039930   12.938810    6.486760
  H    -13.979870   13.491320    5.722840
  H    -12.939510   16.324180    8.282630
  H    -18.048640   15.895510    4.691660
  H    -17.492810   19.253270    8.335240
  H    -19.557680   20.319800    7.668400
  H    -21.520080   20.448100    6.186300
  H    -21.822260   18.802380    4.378860
  H    -20.162860   17.013240    4.039360

 Total Charge           Charge          ....    0
 Multiplicity           Mult            ....    1
 Number of Electrons    NEL             ....  604
 Basis Dimension        Dim             .... 1232

ORBITAL ENERGIES
----------------

  NO   OCC          E(Eh)            E(eV)
   0   2.0000    -101.601701     -2764.7228
   1   2.0000    -101.601371     -2764.7139
   2   2.0000    -101.600651     -2764.6943
   3   2.0000    -101.597096     -2764.5975
   4   2.0000     -89.054079     -2423.2847
   5   2.0000     -88.973528     -2421.0928
   6   2.0000     -88.968473     -2420.9552
   7   2.0000     -88.967705     -2420.9343
   8   2.0000     -88.965802     -2420.8825
   9   2.0000     -24.823245      -675.4748
  10   2.0000     -24.823046      -675.4694
  11   2.0000     -19.220681      -523.0213
  12   2.0000     -19.217461      -522.9337
  13   2.0000     -14.462553      -393.5461
  14   2.0000     -14.462408      -393.5421
  15   2.0000     -14.461885      -393.5279
  16   2.0000     -14.461777      -393.5250
  17   2.0000     -14.416014      -392.2797
  18   2.0000     -14.413178      -392.2025
  19   2.0000     -14.412387      -392.1810
  20   2.0000     -14.411320      -392.1520
  21   2.0000     -10.439588      -284.0756
  22   2.0000     -10.439174      -284.0644
  23   2.0000     -10.368580      -282.1434
  24   2.0000     -10.368574      -282.1433
  25   2.0000     -10.356446      -281.8132
  26   2.0000     -10.356149      -281.8051
  27   2.0000     -10.348089      -281.5858
  28   2.0000     -10.347830      -281.5788
  29   2.0000     -10.340141      -281.3695
  30   2.0000     -10.339514      -281.3525
  31   2.0000     -10.338803      -281.3331
  32   2.0000     -10.338771      -281.3323
  33   2.0000     -10.338106      -281.3142
  34   2.0000     -10.337817      -281.3063
  35   2.0000     -10.336895      -281.2812
  36   2.0000     -10.336522      -281.2711
  37   2.0000     -10.335462      -281.2422
  38   2.0000     -10.325785      -280.9789
  39   2.0000     -10.325528      -280.9719
  40   2.0000     -10.325176      -280.9623
  41   2.0000     -10.323708      -280.9224
  42   2.0000     -10.323599      -280.9194
  43   2.0000     -10.323067      -280.9049
  44   2.0000     -10.320392      -280.8322
  45   2.0000     -10.320351      -280.8310
  46   2.0000     -10.319596      -280.8105
  47   2.0000     -10.318973      -280.7935
  48   2.0000     -10.316376      -280.7229
  49   2.0000     -10.316357      -280.7223
  50   2.0000     -10.316061      -280.7143
  51   2.0000     -10.315642      -280.7029
  52   2.0000     -10.314495      -280.6717
  53   2.0000     -10.302075      -280.3337
  54   2.0000     -10.300595      -280.2934
  55   2.0000     -10.299667      -280.2682
  56   2.0000     -10.299545      -280.2649
  57   2.0000     -10.297411      -280.2068
  58   2.0000     -10.297366      -280.2056
  59   2.0000     -10.297092      -280.1981
  60   2.0000     -10.296774      -280.1895
  61   2.0000     -10.296168      -280.1730
  62   2.0000     -10.295941      -280.1668
  63   2.0000     -10.295878      -280.1651
  64   2.0000     -10.294959      -280.1401
  65   2.0000     -10.294753      -280.1345
  66   2.0000     -10.291350      -280.0419
  67   2.0000     -10.288541      -279.9654
  68   2.0000     -10.287404      -279.9345
  69   2.0000     -10.286686      -279.9150
  70   2.0000     -10.286582      -279.9121
  71   2.0000     -10.286519      -279.9104
  72   2.0000     -10.286061      -279.8980
  73   2.0000     -10.285692      -279.8879
  74   2.0000     -10.285464      -279.8817
  75   2.0000     -10.285133      -279.8727
  76   2.0000     -10.284932      -279.8672
  77   2.0000     -10.284548      -279.8568
  78   2.0000     -10.284024      -279.8425
  79   2.0000      -9.556465      -260.0446
  80   2.0000      -9.556200      -260.0374
  81   2.0000      -9.555473      -260.0176
  82   2.0000      -9.551886      -259.9200
  83   2.0000      -8.144889      -221.6337
  84   2.0000      -8.068437      -219.5533
  85   2.0000      -8.061441      -219.3630
  86   2.0000      -8.061215      -219.3568
  87   2.0000      -8.059688      -219.3153
  88   2.0000      -7.326472      -199.3634
  89   2.0000      -7.326301      -199.3588
  90   2.0000      -7.325595      -199.3396
  91   2.0000      -7.321996      -199.2416
  92   2.0000      -7.316628      -199.0956
  93   2.0000      -7.316481      -199.0916
  94   2.0000      -7.316300      -199.0866
  95   2.0000      -7.316159      -199.0828
  96   2.0000      -7.315552      -199.0663
  97   2.0000      -7.315451      -199.0636
  98   2.0000      -7.312038      -198.9707
  99   2.0000      -7.311785      -198.9638
 100   2.0000      -6.115977      -166.4242
 101   2.0000      -6.108249      -166.2139
 102   2.0000      -6.107683      -166.1985
 103   2.0000      -6.037795      -164.2967
 104   2.0000      -6.033547      -164.1812
 105   2.0000      -6.031067      -164.1137
 106   2.0000      -6.030819      -164.1069
 107   2.0000      -6.030372      -164.0948
 108   2.0000      -6.029285      -164.0652
 109   2.0000      -6.026419      -163.9872
 110   2.0000      -6.026075      -163.9778
 111   2.0000      -6.024649      -163.9390
 112   2.0000      -6.023174      -163.8989
 113   2.0000      -6.023073      -163.8961
 114   2.0000      -6.021444      -163.8518
 115   2.0000      -1.350937       -36.7609
 116   2.0000      -1.337087       -36.3840
 117   2.0000      -1.151523       -31.3345
 118   2.0000      -1.136015       -30.9125
 119   2.0000      -1.132400       -30.8142
 120   2.0000      -1.121953       -30.5299
 121   2.0000      -1.047124       -28.4937
 122   2.0000      -1.030044       -28.0289
 123   2.0000      -1.026917       -27.9438
 124   2.0000      -1.017463       -27.6866
 125   2.0000      -1.015945       -27.6453
 126   2.0000      -1.011782       -27.5320
 127   2.0000      -1.006487       -27.3879
 128   2.0000      -0.999666       -27.2023
 129   2.0000      -0.998462       -27.1695
 130   2.0000      -0.996520       -27.1167
 131   2.0000      -0.992536       -27.0083
 132   2.0000      -0.990778       -26.9604
 133   2.0000      -0.984066       -26.7778
 134   2.0000      -0.971879       -26.4462
 135   2.0000      -0.970945       -26.4208
 136   2.0000      -0.962327       -26.1863
 137   2.0000      -0.959853       -26.1189
 138   2.0000      -0.952871       -25.9289
 139   2.0000      -0.947095       -25.7718
 140   2.0000      -0.923779       -25.1373
 141   2.0000      -0.923183       -25.1211
 142   2.0000      -0.908563       -24.7233
 143   2.0000      -0.904490       -24.6124
 144   2.0000      -0.897677       -24.4270
 145   2.0000      -0.894781       -24.3482
 146   2.0000      -0.885613       -24.0988
 147   2.0000      -0.881200       -23.9787
 148   2.0000      -0.879698       -23.9378
 149   2.0000      -0.877694       -23.8833
 150   2.0000      -0.862112       -23.4593
 151   2.0000      -0.854106       -23.2414
 152   2.0000      -0.831852       -22.6359
 153   2.0000      -0.829065       -22.5600
 154   2.0000      -0.827916       -22.5287
 155   2.0000      -0.826658       -22.4945
 156   2.0000      -0.826020       -22.4771
 157   2.0000      -0.824410       -22.4333
 158   2.0000      -0.821096       -22.3432
 159   2.0000      -0.815587       -22.1932
 160   2.0000      -0.805641       -21.9226
 161   2.0000      -0.783052       -21.3079
 162   2.0000      -0.776550       -21.1310
 163   2.0000      -0.766104       -20.8468
 164   2.0000      -0.762370       -20.7451
 165   2.0000      -0.760165       -20.6851
 166   2.0000      -0.759100       -20.6562
 167   2.0000      -0.736163       -20.0320
 168   2.0000      -0.723829       -19.6964
 169   2.0000      -0.717718       -19.5301
 170   2.0000      -0.705096       -19.1866
 171   2.0000      -0.703182       -19.1346
 172   2.0000      -0.701238       -19.0816
 173   2.0000      -0.697046       -18.9676
 174   2.0000      -0.696292       -18.9471
 175   2.0000      -0.686949       -18.6928
 176   2.0000      -0.682667       -18.5763
 177   2.0000      -0.680399       -18.5146
 178   2.0000      -0.679653       -18.4943
 179   2.0000      -0.676060       -18.3965
 180   2.0000      -0.665239       -18.1021
 181   2.0000      -0.663057       -18.0427
 182   2.0000      -0.658890       -17.9293
 183   2.0000      -0.649704       -17.6793
 184   2.0000      -0.641355       -17.4522
 185   2.0000      -0.639015       -17.3885
 186   2.0000      -0.632607       -17.2141
 187   2.0000      -0.628848       -17.1118
 188   2.0000      -0.626443       -17.0464
 189   2.0000      -0.625588       -17.0231
 190   2.0000      -0.622771       -16.9465
 191   2.0000      -0.613220       -16.6866
 192   2.0000      -0.611080       -16.6283
 193   2.0000      -0.606136       -16.4938
 194   2.0000      -0.605617       -16.4797
 195   2.0000      -0.604894       -16.4600
 196   2.0000      -0.596882       -16.2420
 197   2.0000      -0.586766       -15.9667
 198   2.0000      -0.584290       -15.8993
 199   2.0000      -0.578737       -15.7482
 200   2.0000      -0.578266       -15.7354
 201   2.0000      -0.576115       -15.6769
 202   2.0000      -0.570892       -15.5348
 203   2.0000      -0.565272       -15.3818
 204   2.0000      -0.556006       -15.1297
 205   2.0000      -0.548844       -14.9348
 206   2.0000      -0.547691       -14.9034
 207   2.0000      -0.547511       -14.8985
 208   2.0000      -0.545993       -14.8572
 209   2.0000      -0.541141       -14.7252
 210   2.0000      -0.540090       -14.6966
 211   2.0000      -0.539279       -14.6745
 212   2.0000      -0.535862       -14.5815
 213   2.0000      -0.535495       -14.5716
 214   2.0000      -0.532143       -14.4803
 215   2.0000      -0.529887       -14.4190
 216   2.0000      -0.527642       -14.3579
 217   2.0000      -0.527021       -14.3410
 218   2.0000      -0.526245       -14.3198
 219   2.0000      -0.524679       -14.2772
 220   2.0000      -0.523271       -14.2389
 221   2.0000      -0.521757       -14.1977
 222   2.0000      -0.519832       -14.1454
 223   2.0000      -0.519441       -14.1347
 224   2.0000      -0.517070       -14.0702
 225   2.0000      -0.513808       -13.9814
 226   2.0000      -0.511025       -13.9057
 227   2.0000      -0.510240       -13.8843
 228   2.0000      -0.507012       -13.7965
 229   2.0000      -0.502721       -13.6797
 230   2.0000      -0.499252       -13.5854
 231   2.0000      -0.499032       -13.5793
 232   2.0000      -0.496427       -13.5085
 233   2.0000      -0.495074       -13.4717
 234   2.0000      -0.494056       -13.4440
 235   2.0000      -0.492228       -13.3942
 236   2.0000      -0.491094       -13.3633
 237   2.0000      -0.487644       -13.2695
 238   2.0000      -0.486818       -13.2470
 239   2.0000      -0.485352       -13.2071
 240   2.0000      -0.483412       -13.1543
 241   2.0000      -0.470844       -12.8123
 242   2.0000      -0.466197       -12.6859
 243   2.0000      -0.464530       -12.6405
 244   2.0000      -0.463903       -12.6234
 245   2.0000      -0.462480       -12.5847
 246   2.0000      -0.461736       -12.5645
 247   2.0000      -0.459896       -12.5144
 248   2.0000      -0.448677       -12.2091
 249   2.0000      -0.447983       -12.1902
 250   2.0000      -0.446194       -12.1416
 251   2.0000      -0.445704       -12.1282
 252   2.0000      -0.444646       -12.0994
 253   2.0000      -0.441718       -12.0198
 254   2.0000      -0.441348       -12.0097
 255   2.0000      -0.439153       -11.9500
 256   2.0000      -0.438279       -11.9262
 257   2.0000      -0.436770       -11.8851
 258   2.0000      -0.435572       -11.8525
 259   2.0000      -0.433657       -11.8004
 260   2.0000      -0.433487       -11.7958
 261   2.0000      -0.431849       -11.7512
 262   2.0000      -0.431123       -11.7315
 263   2.0000      -0.431108       -11.7310
 264   2.0000      -0.425559       -11.5801
 265   2.0000      -0.423289       -11.5183
 266   2.0000      -0.420180       -11.4337
 267   2.0000      -0.417597       -11.3634
 268   2.0000      -0.416963       -11.3461
 269   2.0000      -0.414094       -11.2681
 270   2.0000      -0.413355       -11.2479
 271   2.0000      -0.410830       -11.1792
 272   2.0000      -0.406163       -11.0523
 273   2.0000      -0.405729       -11.0404
 274   2.0000      -0.404109       -10.9964
 275   2.0000      -0.402167       -10.9435
 276   2.0000      -0.397319       -10.8116
 277   2.0000      -0.387118       -10.5340
 278   2.0000      -0.384425       -10.4607
 279   2.0000      -0.381586       -10.3835
 280   2.0000      -0.379219       -10.3191
 281   2.0000      -0.374808       -10.1990
 282   2.0000      -0.373853       -10.1730
 283   2.0000      -0.370437       -10.0801
 284   2.0000      -0.364259        -9.9120
 285   2.0000      -0.354253        -9.6397
 286   2.0000      -0.352119        -9.5816
 287   2.0000      -0.349279        -9.5044
 288   2.0000      -0.339297        -9.2327
 289   2.0000      -0.333646        -9.0790
 290   2.0000      -0.329810        -8.9746
 291   2.0000      -0.328229        -8.9316
 292   2.0000      -0.326008        -8.8711
 293   2.0000      -0.319081        -8.6826
 294   2.0000      -0.318508        -8.6670
 295   2.0000      -0.315430        -8.5833
 296   2.0000      -0.313991        -8.5441
 297   2.0000      -0.304015        -8.2727
 298   2.0000      -0.294031        -8.0010
 299   2.0000      -0.290822        -7.9137
 300   2.0000      -0.269903        -7.3444
 301   2.0000      -0.241656        -6.5758
 302   0.0000      -0.127296        -3.4639
 303   0.0000      -0.093482        -2.5438
 304   0.0000      -0.090159        -2.4533
 305   0.0000      -0.058721        -1.5979
 306   0.0000      -0.057115        -1.5542

MULLIKEN ATOMIC CHARGES
-----------------------
   0 C :    0.330612
   1 C :   -0.359484
   2 C :   -0.183084
   3 N :    0.149836
   4 C :   -0.192061
   5 N :    0.147964
   6 C :    0.047792
   7 C :   -0.000222
   8 C :   -0.083367
   9 C :    0.097979
  10 C :    0.097887
  11 C :   -0.086648
  12 C :   -0.020499
  13 C :    0.037428
  14 C :    0.036434
  15 C :   -0.018017
  16 C :    0.171485
  17 O :   -0.180693
  18 C :   -0.098268
  19 C :   -0.011508
  20 C :   -0.042492
  21 C :    0.002936
  22 C :    0.087180
  23 Cl:   -0.062825
  24 C :   -0.081538
  25 S :    0.214085
  26 C :   -0.074246
  27 C :    0.082115
  28 Cl:   -0.049775
  29 C :   -0.000157
  30 C :   -0.155920
  31 S :    0.170454
  32 C :    0.211932
  33 C :   -0.081113
  34 C :   -0.078241
  35 N :   -0.000818
  36 C :    0.147555
  37 C :    0.146925
  38 N :   -0.001301
  39 F :   -0.138634
  40 F :   -0.138103
  41 C :    0.209145
  42 C :   -0.020095
  43 C :   -0.017852
  44 N :   -0.319575
  45 S :    0.567034
  46 N :   -0.321155
  47 C :   -0.153761
  48 C :   -0.002722
  49 C :    0.080342
  50 Cl:   -0.053467
  51 C :   -0.066776
  52 S :    0.172633
  53 C :   -0.081398
  54 C :    0.053414
  55 Cl:   -0.056143
  56 C :    0.031564
  57 C :   -0.103437
  58 S :    0.171824
  59 C :    0.054167
  60 C :   -0.092540
  61 C :    0.304037
  62 C :   -0.351683
  63 C :   -0.179067
  64 N :    0.145248
  65 C :   -0.202763
  66 N :    0.158015
  67 C :    0.049350
  68 C :   -0.000535
  69 C :    0.159957
  70 O :   -0.156226
  71 C :   -0.084199
  72 C :    0.099140
  73 C :    0.096262
  74 C :   -0.084107
  75 C :   -0.020210
  76 C :    0.035283
  77 C :    0.035566
  78 C :   -0.018011
  79 H :   -0.013575
  80 H :   -0.008885
  81 H :   -0.008317
  82 H :   -0.004680
  83 H :   -0.005675
  84 H :   -0.018079
  85 H :    0.009123
  86 H :    0.002335
  87 H :   -0.004005
  88 H :    0.000211
  89 H :    0.013696
  90 H :    0.014231
  91 H :   -0.013219
  92 H :   -0.006546
  93 H :   -0.007994
  94 H :   -0.004450
  95 H :   -0.005318
  96 H :   -0.017694
Sum of atomic charges:    0.0000000

LOEWDIN ATOMIC CHARGES
----------------------
   0 C :    0.077443
   1 C :   -0.143688
   2 C :   -0.017365
   3 N :   -0.056072
   4 C :   -0.021290
   5 N :   -0.055451
   6 C :   -0.024788
   7 C :   -0.054700
   8 C :    0.031534
   9 C :   -0.008808
  10 C :   -0.006326
  11 C :    0.019543
  12 C :   -0.005352
  13 C :   -0.013454
  14 C :   -0.012447
  15 C :   -0.009950
  16 C :    0.085045
  17 O :   -0.167023
  18 C :   -0.106261
  19 C :    0.057641
  20 C :   -0.190157
  21 C :   -0.031892
  22 C :   -0.177659
  23 Cl:    0.156929
  24 C :   -0.194097
  25 S :    0.523553
  26 C :   -0.214398
  27 C :   -0.163833
  28 Cl:    0.169222
  29 C :   -0.053446
  30 C :   -0.166461
  31 S :    0.489394
  32 C :   -0.039463
  33 C :   -0.006110
  34 C :   -0.005213
  35 N :   -0.030745
  36 C :    0.060632
  37 C :    0.059753
  38 N :   -0.029866
  39 F :   -0.027547
  40 F :   -0.027113
  41 C :   -0.041921
  42 C :   -0.047445
  43 C :   -0.047754
  44 N :   -0.295154
  45 S :    0.685765
  46 N :   -0.296193
  47 C :   -0.165111
  48 C :   -0.054263
  49 C :   -0.165237
  50 Cl:    0.165945
  51 C :   -0.216061
  52 S :    0.491355
  53 C :   -0.186127
  54 C :   -0.175544
  55 Cl:    0.164647
  56 C :   -0.024015
  57 C :   -0.185082
  58 S :    0.470961
  59 C :    0.047137
  60 C :   -0.093717
  61 C :    0.076638
  62 C :   -0.142508
  63 C :   -0.016773
  64 N :   -0.056110
  65 C :   -0.026328
  66 N :   -0.051574
  67 C :   -0.025843
  68 C :   -0.054798
  69 C :    0.087910
  70 O :   -0.142772
  71 C :    0.030681
  72 C :   -0.008605
  73 C :   -0.006408
  74 C :    0.018891
  75 C :   -0.005580
  76 C :   -0.014083
  77 C :   -0.012970
  78 C :   -0.010208
  79 H :    0.038749
  80 H :    0.039025
  81 H :    0.034968
  82 H :    0.033168
  83 H :    0.032655
  84 H :    0.031592
  85 H :    0.050803
  86 H :    0.040763
  87 H :    0.032579
  88 H :    0.033335
  89 H :    0.037699
  90 H :    0.043644
  91 H :    0.038366
  92 H :    0.039028
  93 H :    0.034879
  94 H :    0.033113
  95 H :    0.032592
  96 H :    0.031583

  Mayer bond orders larger than 0.100000
B(  0-C ,  1-C ) :   1.6231 B(  0-C ,  6-C ) :   0.9849 B(  0-C , 18-C ) :   1.0763
B(  1-C ,  2-C ) :   1.1493 B(  1-C ,  4-C ) :   1.1457 B(  2-C ,  3-N ) :   2.9627
B(  4-C ,  5-N ) :   2.9616 B(  6-C ,  7-C ) :   1.2141 B(  6-C , 11-C ) :   1.4547
B(  7-C ,  8-C ) :   1.4701 B(  7-C , 16-C ) :   0.9602 B(  8-C ,  9-C ) :   1.1757
B(  8-C , 79-H ) :   1.0170 B(  9-C , 10-C ) :   1.2581 B(  9-C , 15-C ) :   1.2454
B( 10-C , 11-C ) :   1.2015 B( 10-C , 12-C ) :   1.2414 B( 11-C , 80-H ) :   0.9900
B( 12-C , 13-C ) :   1.4861 B( 12-C , 81-H ) :   0.9976 B( 13-C , 14-C ) :   1.2627
B( 13-C , 82-H ) :   0.9884 B( 14-C , 15-C ) :   1.4868 B( 14-C , 83-H ) :   0.9886
B( 15-C , 84-H ) :   0.9978 B( 16-C , 17-O ) :   2.1254 B( 16-C , 18-C ) :   0.9757
B( 18-C , 19-C ) :   1.5029 B( 19-C , 20-C ) :   1.2565 B( 19-C , 85-H ) :   0.9403
B( 20-C , 21-C ) :   1.3366 B( 20-C , 25-S ) :   1.0815 B( 21-C , 22-C ) :   1.3365
B( 21-C , 86-H ) :   1.0146 B( 22-C , 23-Cl) :   1.0383 B( 22-C , 24-C ) :   1.3660
B( 24-C , 25-S ) :   1.1191 B( 24-C , 26-C ) :   1.2195 B( 26-C , 27-C ) :   1.4179
B( 26-C , 31-S ) :   1.0935 B( 27-C , 28-Cl) :   1.0520 B( 27-C , 29-C ) :   1.2747
B( 29-C , 30-C ) :   1.4111 B( 29-C , 87-H ) :   0.9994 B( 30-C , 31-S ) :   1.1157
B( 30-C , 32-C ) :   1.1794 B( 32-C , 33-C ) :   1.2934 B( 32-C , 41-C ) :   0.1238
B( 32-C , 43-C ) :   1.1918 B( 33-C , 34-C ) :   1.1096 B( 33-C , 38-N ) :   1.4325
B( 34-C , 35-N ) :   1.4310 B( 34-C , 41-C ) :   1.2970 B( 35-N , 36-C ) :   1.6670
B( 36-C , 37-C ) :   1.1043 B( 36-C , 40-F ) :   1.1782 B( 37-C , 38-N ) :   1.6677
B( 37-C , 39-F ) :   1.1767 B( 41-C , 42-C ) :   1.1924 B( 41-C , 47-C ) :   1.1787
B( 42-C , 43-C ) :   1.1266 B( 42-C , 46-N ) :   1.4690 B( 43-C , 44-N ) :   1.4707
B( 44-N , 45-S ) :   1.2796 B( 44-N , 46-N ) :   0.1543 B( 45-S , 46-N ) :   1.2789
B( 47-C , 48-C ) :   1.4175 B( 47-C , 52-S ) :   1.1142 B( 48-C , 49-C ) :   1.2710
B( 48-C , 88-H ) :   0.9990 B( 49-C , 50-Cl) :   1.0414 B( 49-C , 51-C ) :   1.4222
B( 51-C , 52-S ) :   1.0966 B( 51-C , 53-C ) :   1.1999 B( 53-C , 54-C ) :   1.4036
B( 53-C , 58-S ) :   1.1643 B( 54-C , 55-Cl) :   1.0472 B( 54-C , 56-C ) :   1.2963
B( 56-C , 57-C ) :   1.4102 B( 56-C , 89-H ) :   0.9856 B( 57-C , 58-S ) :   1.0804
B( 57-C , 59-C ) :   1.2146 B( 59-C , 60-C ) :   1.5895 B( 59-C , 90-H ) :   0.9179
B( 60-C , 61-C ) :   1.0750 B( 60-C , 69-C ) :   0.9386 B( 61-C , 62-C ) :   1.6283
B( 61-C , 67-C ) :   0.9850 B( 62-C , 63-C ) :   1.1471 B( 62-C , 65-C ) :   1.1370
B( 63-C , 64-N ) :   2.9659 B( 65-C , 66-N ) :   2.9886 B( 67-C , 68-C ) :   1.2152
B( 67-C , 74-C ) :   1.4516 B( 68-C , 69-C ) :   0.9536 B( 68-C , 71-C ) :   1.4718
B( 69-C , 70-O ) :   2.1727 B( 71-C , 72-C ) :   1.1794 B( 71-C , 91-H ) :   1.0161
B( 72-C , 73-C ) :   1.2560 B( 72-C , 78-C ) :   1.2448 B( 73-C , 74-C ) :   1.2061
B( 73-C , 75-C ) :   1.2402 B( 74-C , 92-H ) :   0.9904 B( 75-C , 76-C ) :   1.4893
B( 75-C , 93-H ) :   0.9976 B( 76-C , 77-C ) :   1.2597 B( 76-C , 94-H ) :   0.9886
B( 77-C , 78-C ) :   1.4898 B( 77-C , 95-H ) :   0.9886 B( 78-C , 96-H ) :   0.9977

-----------------------------------------------------------------------------
         ABSORPTION SPECTRUM VIA TRANSITION ELECTRIC DIPOLE MOMENTS
-----------------------------------------------------------------------------
State   Energy  Wavelength   fosc         T2         TX        TY        TZ
        (cm-1)    (nm)                  (au**2)     (au)      (au)      (au)
-----------------------------------------------------------------------------
   0   10181.7    982.2   1.214630921  39.27336   3.82200  -3.33002  -3.68464
   1   17502.5    571.3   0.159765694   3.00510   1.13631  -0.02508   1.30892
   2   19409.8    515.2   1.246925308  21.14925  -2.68271   2.24393   2.98616
   3   19853.5    503.7   0.342518358   5.67966   2.07059  -1.09960   0.42801
   4   24156.4    414.0   0.009305326   0.12682   0.16815  -0.24728  -0.19338
   5   24528.5    407.7   0.031312079   0.42026   0.40693  -0.26764  -0.42783
   6   24948.3    400.8   0.009833466   0.12976   0.02543   0.24270   0.26497
   7   25735.1    388.6   0.009517289   0.12175   0.00566   0.13865  -0.32015
   8   26013.7    384.4   0.037982424   0.48068  -0.63906   0.26207   0.06001
   9   26566.4    376.4   0.053135299   0.65846   0.76164   0.24791  -0.13002
  10   26877.9    372.1   0.010778907   0.13202  -0.32316   0.06219   0.15402
  11   27045.9    369.7   0.017569905   0.21387  -0.18223  -0.01973   0.42458
  12   27495.4    363.7   0.059166103   0.70842   0.81118   0.05439   0.21783
  13   27780.5    360.0   0.088318383   1.04661   0.96491  -0.24099  -0.23975
  14   27853.7    359.0   0.036926385   0.43645   0.22709  -0.44143   0.43591
  15   28299.6    353.4   0.017591911   0.20465  -0.29464   0.04153   0.34075
  16   28567.9    350.0   0.023925228   0.27571   0.27412  -0.28740  -0.34347
  17   28682.4    348.6   0.070140681   0.80506  -0.83968   0.12979  -0.28837
  18   29023.8    344.5   0.009782890   0.11097   0.27083   0.15105   0.12165
  19   29413.7    340.0   0.010472899   0.11722  -0.19939  -0.03980  -0.27546
  20   29915.6    334.3   0.139839735   1.53889   0.97604  -0.66832  -0.37361
  21   30029.0    333.0   0.054246724   0.59471  -0.31646  -0.69941   0.07342
  22   30614.6    326.6   0.206205124   2.21741  -1.37726   0.26165  -0.50211
  23   30728.7    325.4   0.132190796   1.41623   0.98562   0.09371  -0.66031
  24   31042.4    322.1   0.318651827   3.37937  -0.12789   1.09621   1.47015
  25   31253.2    320.0   0.004963349   0.05228   0.02818   0.21505  -0.07240
  26   31831.4    314.2   0.029150148   0.30148  -0.38159  -0.39424  -0.02101
  27   32608.5    306.7   0.080385917   0.81157   0.86038   0.20256   0.17404
  28   32723.6    305.6   0.048551843   0.48845   0.63648   0.20495   0.20333
  29   32900.2    303.9   0.055819424   0.55855   0.60878   0.18997  -0.38968
  30   33023.0    302.8   0.293893555   2.92988   1.29735  -0.06371   1.11477
  31   33290.1    300.4   0.041647767   0.41186   0.60873  -0.09636   0.17894
  32   33395.8    299.4   0.291734966   2.87589  -1.15291  -1.21994   0.24175
  33   33626.1    297.4   0.228561543   2.23770   1.48210   0.02556  -0.20109
  34   33951.5    294.5   0.123841000   1.20083  -0.96553  -0.31047  -0.41495
  35   34003.3    294.1   0.029914569   0.28963   0.45065  -0.24803  -0.15817
  36   34285.0    291.7   0.024954679   0.23962   0.46503  -0.15117  -0.02280
  37   34921.4    286.4   0.533036789   5.02505   1.89300   0.72262   0.95888
  38   35009.8    285.6   0.063449625   0.59664   0.22145  -0.32205   0.66625
  39   35421.7    282.3   0.039635890   0.36838  -0.38603   0.19241  -0.42701
  40   35596.4    280.9   0.063134100   0.58389   0.46673   0.02974   0.60430
  41   35693.5    280.2   0.073407288   0.67706   0.04594  -0.81190   0.12556
  42   35940.5    278.2   0.076696078   0.70253  -0.53811   0.29104  -0.57294
  43   36118.6    276.9   0.042439556   0.38683   0.52533   0.21459   0.25458
  44   36229.0    276.0   0.316020769   2.87167  -1.52222  -0.73600   0.11323
  45   36445.2    274.4   0.182696734   1.65031  -1.04872  -0.56025  -0.48643
  46   36908.6    270.9   0.158389216   1.41278  -0.93388  -0.47402  -0.56210
  47   37274.9    268.3   0.012732262   0.11245  -0.20876  -0.19257  -0.17828
  48   37423.4    267.2   0.086461037   0.76059  -0.78699  -0.28297  -0.24732
  49   38234.6    261.5   0.004103952   0.03534  -0.03769  -0.18397  -0.00835
  50   38700.0    258.4   0.074219281   0.63137  -0.40464  -0.50203  -0.46432
  51   38870.9    257.3   0.124853359   1.05743  -0.97115  -0.33576   0.03956
  52   38968.4    256.6   0.042276377   0.35716   0.28741   0.23223   0.46971
  53   39209.0    255.0   0.195429432   1.64089   0.38215   0.76002   0.95771
  54   39484.6    253.3   0.142010542   1.18404  -0.02134  -0.70827  -0.82580
  55   39836.9    251.0   0.008892544   0.07349   0.11435   0.08858  -0.22927
  56   40062.4    249.6   0.012708686   0.10443  -0.25715  -0.06987   0.18282
  57   40231.1    248.6   0.051076685   0.41796   0.10585   0.47199   0.42893

FINAL SINGLE POINT ENERGY     -6835.932142527793

DIPOLE MOMENT
-------------
                                X             Y             Z
Electronic contribution:     23.80201     -16.01393      40.83034
Nuclear contribution   :    -23.33316      16.94621     -42.33118
                        -----------------------------------------
Total Dipole Moment    :      0.46885       0.93228      -1.50083
                        -----------------------------------------
Magnitude (a.u.)       :      1.82796
Magnitude (Debye)      :      4.64632

Rotational constants in cm-1:     0.001435     0.000155     0.000146
Rotational constants in MHz :    43.027482     4.635015     4.373934

                             ****ORCA TERMINATED NORMALLY****
TOTAL RUN TIME: 0 days 0 hours 10 minutes 59 seconds 442 msec
