                         Program Version 4.2.0 -  RELEASE  -
|  1> # ORCA input file
|  2> # SCF done       -183.602910656116          0.000313490286
|  3> ! CAM-B3LYP def2-SVP def2/J RIJCOSX Grid4 TightSCF
|  4> %maxcore 5000
|  5> %tddft
|  6>     Mode sTDDFT
|  7>     Ethresh 5.0
|  8>     maxcore 5000
|  9> end
| 10>
| 11> %pal
| 12>   nprocs 6
| 13>   end
| 14> * xyz 0 1
| 15>    C        0.15270         5.01981         5.01544
| 16>    C        1.01280         5.97826         4.54246
| 17>    C        1.11748         7.27709         5.07090
| 18>    N        1.21271         8.36216         5.43610
| 19>    C        1.92332         5.73490         3.49296
| 20>    N        2.72039         5.54019         2.68968
| 21>    C       -0.56083         5.07012         6.28539
| 22>    C       -0.90290         3.73741         6.66080
| 23>    C       -1.54596         3.46858         7.83383
| 24>    C       -1.89232         4.53777         8.69174
| 25>    C       -1.56482         5.87213         8.31467
| 26>    C       -0.88862         6.12092         7.09783
| 27>    C       -1.92316         6.92825         9.17667
| 28>    C       -2.57111         6.68119        10.35622
| 29>    C       -2.89188         5.36712        10.72743
| 30>    C       -2.55917         4.31872         9.91313
| 31>    C       -0.47307         2.80289         5.60014
| 32>    O       -0.55324         1.59531         5.59489
| 33>    C        0.01387         3.67464         4.49923
| 34>    C        0.11316         3.19346         3.22725
| 35>    C        0.10203         3.94031         2.03087
| 36>    C        0.53901         3.52296         0.77724
| 37>    C        0.37503         4.49848        -0.22920
| 38>    O        0.79949         4.40342        -1.50904
| 39>    C        1.06828         3.09907        -1.97342
| 40>    C        2.06815         2.36632        -1.09313
| 41>    S        1.31099         1.97799         0.52028
| 42>    C       -0.21726         5.66017         0.24825
| 43>    S       -0.54262         5.55475         1.94229
| 44>    C       -0.49895         6.88608        -0.43421
| 45>    C       -0.92502         6.96662        -1.77592
| 46>    C       -1.14360         8.23533        -2.40879
| 47>    N       -1.50045         8.27615        -3.70703
| 48>    C       -1.74185         7.16224        -4.33185
| 49>    C       -1.64728         5.91871        -3.66665
| 50>    N       -1.22562         5.82902        -2.43956
| 51>    C       -0.98852         9.46831        -1.72801
| 52>    C       -0.64828         9.37984        -0.36599
| 53>    C       -0.41652         8.10296         0.26608
| 54>    N       -0.14609         8.23686         1.56844
| 55>    S       -0.19574         9.78818         1.95714
| 56>    N       -0.56458        10.38022         0.51710
| 57>    C       -1.27923        10.69150        -2.40740
| 58>    C       -0.72286        11.95528        -2.22576
| 59>    C       -1.31968        12.91573        -3.04875
| 60>    O       -1.00888        14.22478        -3.14436
| 61>    C        0.23033        14.63414        -2.60268
| 62>    C        0.44197        14.12852        -1.18669
| 63>    S        0.65149        12.31479        -1.19383
| 64>    C       -2.36928        12.40291        -3.83996
| 65>    S       -2.52385        10.68218        -3.61383
| 66>    C       -3.10609        13.24052        -4.68386
| 67>    C       -4.14697        12.94084        -5.52693
| 68>    C       -4.86818        13.88451        -6.35572
| 69>    C       -4.62202        15.22725        -6.49795
| 70>    C       -5.37556        16.08295        -7.32766
| 71>    N       -5.94534        16.83510        -7.98250
| 72>    C       -3.59640        15.95710        -5.86225
| 73>    N       -2.79372        16.63723        -5.39980
| 74>    C       -5.92692        13.14705        -7.04199
| 75>    C       -5.84314        11.77707        -6.66189
| 76>    C       -4.72909        11.60789        -5.71489
| 77>    O       -4.37604        10.56202        -5.19575
| 78>    C       -6.70825        10.83763        -7.14162
| 79>    C       -7.72252        11.23257        -8.04304
| 80>    C       -7.81491        12.60023        -8.42906
| 81>    C       -6.90133        13.55048        -7.91505
| 82>    C       -8.83090        12.98420        -9.32718
| 83>    C       -9.71469        12.06313        -9.82083
| 84>    C       -9.62298        10.71664        -9.43939
| 85>    C       -8.64763        10.31026        -8.56940
| 86>    H       -1.78955         2.45243         8.10650
| 87>    H       -0.65601         7.13976         6.82865
| 88>    H       -1.67147         7.93817         8.88747
| 89>    H       -2.83974         7.49728        11.01033
| 90>    H       -3.40396         5.18966        11.66141
| 91>    H       -2.80397         3.30468        10.19388
| 92>    H        0.12561         2.11299         3.12025
| 93>    H        1.47541         3.23799        -2.97817
| 94>    H        0.13514         2.52352        -2.04009
| 95>    H        2.94941         2.98265        -0.91361
| 96>    H        2.35940         1.41546        -1.53336
| 97>    H       -2.01039         7.23616        -5.37609
| 98>    H       -1.90573         4.99196        -4.16121
| 99>    H        0.19471        15.72638        -2.62577
|100>    H        1.04894        14.28696        -3.24697
|101>    H       -0.41194        14.37250        -0.55451
|102>    H        1.35274        14.53951        -0.75814
|103>    H       -2.79105        14.27554        -4.62445
|104>    H       -6.62210         9.80559        -6.83522
|105>    H       -7.00137        14.57766        -8.22723
|106>    H       -8.89773        14.02236        -9.61794
|107>    H      -10.48976        12.36771       -10.50810
|108>    H      -10.32873        10.00295        -9.83777
|109>    H       -8.57195         9.27450        -8.27152
|110> *
|111>
|112>                          ****END OF INPUT****

CARTESIAN COORDINATES (ANGSTROEM)
---------------------------------
  C      0.152700    5.019810    5.015440
  C      1.012800    5.978260    4.542460
  C      1.117480    7.277090    5.070900
  N      1.212710    8.362160    5.436100
  C      1.923320    5.734900    3.492960
  N      2.720390    5.540190    2.689680
  C     -0.560830    5.070120    6.285390
  C     -0.902900    3.737410    6.660800
  C     -1.545960    3.468580    7.833830
  C     -1.892320    4.537770    8.691740
  C     -1.564820    5.872130    8.314670
  C     -0.888620    6.120920    7.097830
  C     -1.923160    6.928250    9.176670
  C     -2.571110    6.681190   10.356220
  C     -2.891880    5.367120   10.727430
  C     -2.559170    4.318720    9.913130
  C     -0.473070    2.802890    5.600140
  O     -0.553240    1.595310    5.594890
  C      0.013870    3.674640    4.499230
  C      0.113160    3.193460    3.227250
  C      0.102030    3.940310    2.030870
  C      0.539010    3.522960    0.777240
  C      0.375030    4.498480   -0.229200
  O      0.799490    4.403420   -1.509040
  C      1.068280    3.099070   -1.973420
  C      2.068150    2.366320   -1.093130
  S      1.310990    1.977990    0.520280
  C     -0.217260    5.660170    0.248250
  S     -0.542620    5.554750    1.942290
  C     -0.498950    6.886080   -0.434210
  C     -0.925020    6.966620   -1.775920
  C     -1.143600    8.235330   -2.408790
  N     -1.500450    8.276150   -3.707030
  C     -1.741850    7.162240   -4.331850
  C     -1.647280    5.918710   -3.666650
  N     -1.225620    5.829020   -2.439560
  C     -0.988520    9.468310   -1.728010
  C     -0.648280    9.379840   -0.365990
  C     -0.416520    8.102960    0.266080
  N     -0.146090    8.236860    1.568440
  S     -0.195740    9.788180    1.957140
  N     -0.564580   10.380220    0.517100
  C     -1.279230   10.691500   -2.407400
  C     -0.722860   11.955280   -2.225760
  C     -1.319680   12.915730   -3.048750
  O     -1.008880   14.224780   -3.144360
  C      0.230330   14.634140   -2.602680
  C      0.441970   14.128520   -1.186690
  S      0.651490   12.314790   -1.193830
  C     -2.369280   12.402910   -3.839960
  S     -2.523850   10.682180   -3.613830
  C     -3.106090   13.240520   -4.683860
  C     -4.146970   12.940840   -5.526930
  C     -4.868180   13.884510   -6.355720
  C     -4.622020   15.227250   -6.497950
  C     -5.375560   16.082950   -7.327660
  N     -5.945340   16.835100   -7.982500
  C     -3.596400   15.957100   -5.862250
  N     -2.793720   16.637230   -5.399800
  C     -5.926920   13.147050   -7.041990
  C     -5.843140   11.777070   -6.661890
  C     -4.729090   11.607890   -5.714890
  O     -4.376040   10.562020   -5.195750
  C     -6.708250   10.837630   -7.141620
  C     -7.722520   11.232570   -8.043040
  C     -7.814910   12.600230   -8.429060
  C     -6.901330   13.550480   -7.915050
  C     -8.830900   12.984200   -9.327180
  C     -9.714690   12.063130   -9.820830
  C     -9.622980   10.716640   -9.439390
  C     -8.647630   10.310260   -8.569400
  H     -1.789550    2.452430    8.106500
  H     -0.656010    7.139760    6.828650
  H     -1.671470    7.938170    8.887470
  H     -2.839740    7.497280   11.010330
  H     -3.403960    5.189660   11.661410
  H     -2.803970    3.304680   10.193880
  H      0.125610    2.112990    3.120250
  H      1.475410    3.237990   -2.978170
  H      0.135140    2.523520   -2.040090
  H      2.949410    2.982650   -0.913610
  H      2.359400    1.415460   -1.533360
  H     -2.010390    7.236160   -5.376090
  H     -1.905730    4.991960   -4.161210
  H      0.194710   15.726380   -2.625770
  H      1.048940   14.286960   -3.246970
  H     -0.411940   14.372500   -0.554510
  H      1.352740   14.539510   -0.758140
  H     -2.791050   14.275540   -4.624450
  H     -6.622100    9.805590   -6.835220
  H     -7.001370   14.577660   -8.227230
  H     -8.897730   14.022360   -9.617940
  H    -10.489760   12.367710  -10.508100
  H    -10.328730   10.002950   -9.837770
  H     -8.571950    9.274500   -8.271520

 Total Charge           Charge          ....    0
 Multiplicity           Mult            ....    1
 Number of Electrons    NEL             ....  516
 Basis Dimension        Dim             .... 1134

ORBITAL ENERGIES
----------------

  NO   OCC          E(Eh)            E(eV)
   0   2.0000     -89.036453     -2422.8051
   1   2.0000     -88.959387     -2420.7080
   2   2.0000     -88.952262     -2420.5141
   3   2.0000     -88.941687     -2420.2264
   4   2.0000     -88.927210     -2419.8324
   5   2.0000     -19.262263      -524.1528
   6   2.0000     -19.255747      -523.9755
   7   2.0000     -19.208533      -522.6907
   8   2.0000     -19.205146      -522.5986
   9   2.0000     -14.443459      -393.0265
  10   2.0000     -14.440963      -392.9586
  11   2.0000     -14.431332      -392.6965
  12   2.0000     -14.430065      -392.6620
  13   2.0000     -14.410666      -392.1342
  14   2.0000     -14.403868      -391.9492
  15   2.0000     -14.403193      -391.9308
  16   2.0000     -14.401851      -391.8943
  17   2.0000     -10.357565      -281.8437
  18   2.0000     -10.356641      -281.8185
  19   2.0000     -10.349285      -281.6184
  20   2.0000     -10.346980      -281.5556
  21   2.0000     -10.341655      -281.4107
  22   2.0000     -10.336569      -281.2723
  23   2.0000     -10.333194      -281.1805
  24   2.0000     -10.333120      -281.1785
  25   2.0000     -10.332637      -281.1654
  26   2.0000     -10.332228      -281.1542
  27   2.0000     -10.331089      -281.1232
  28   2.0000     -10.330135      -281.0973
  29   2.0000     -10.328340      -281.0484
  30   2.0000     -10.328315      -281.0477
  31   2.0000     -10.327153      -281.0161
  32   2.0000     -10.326775      -281.0058
  33   2.0000     -10.317363      -280.7497
  34   2.0000     -10.314636      -280.6755
  35   2.0000     -10.314163      -280.6626
  36   2.0000     -10.313405      -280.6420
  37   2.0000     -10.313340      -280.6402
  38   2.0000     -10.311223      -280.5826
  39   2.0000     -10.310664      -280.5674
  40   2.0000     -10.310027      -280.5501
  41   2.0000     -10.308731      -280.5148
  42   2.0000     -10.308166      -280.4995
  43   2.0000     -10.307053      -280.4692
  44   2.0000     -10.306136      -280.4442
  45   2.0000     -10.306009      -280.4408
  46   2.0000     -10.305804      -280.4352
  47   2.0000     -10.304995      -280.4132
  48   2.0000     -10.297946      -280.2213
  49   2.0000     -10.296944      -280.1941
  50   2.0000     -10.292898      -280.0840
  51   2.0000     -10.292446      -280.0717
  52   2.0000     -10.291952      -280.0582
  53   2.0000     -10.290740      -280.0253
  54   2.0000     -10.290588      -280.0211
  55   2.0000     -10.289879      -280.0018
  56   2.0000     -10.289383      -279.9883
  57   2.0000     -10.288576      -279.9664
  58   2.0000     -10.288311      -279.9592
  59   2.0000     -10.287216      -279.9294
  60   2.0000     -10.282833      -279.8101
  61   2.0000     -10.281948      -279.7860
  62   2.0000     -10.281791      -279.7818
  63   2.0000     -10.281430      -279.7719
  64   2.0000     -10.281168      -279.7648
  65   2.0000     -10.280789      -279.7545
  66   2.0000     -10.280293      -279.7410
  67   2.0000     -10.279762      -279.7265
  68   2.0000     -10.279325      -279.7147
  69   2.0000     -10.279167      -279.7104
  70   2.0000     -10.278601      -279.6950
  71   2.0000      -8.127499      -221.1605
  72   2.0000      -8.053607      -219.1498
  73   2.0000      -8.044749      -218.9088
  74   2.0000      -8.037495      -218.7113
  75   2.0000      -8.022799      -218.3115
  76   2.0000      -6.098437      -165.9469
  77   2.0000      -6.090648      -165.7350
  78   2.0000      -6.090591      -165.7334
  79   2.0000      -6.023121      -163.8974
  80   2.0000      -6.018903      -163.7827
  81   2.0000      -6.015283      -163.6842
  82   2.0000      -6.014261      -163.6564
  83   2.0000      -6.009786      -163.5346
  84   2.0000      -6.007797      -163.4805
  85   2.0000      -6.006593      -163.4477
  86   2.0000      -6.003898      -163.3744
  87   2.0000      -5.997111      -163.1897
  88   2.0000      -5.993318      -163.0865
  89   2.0000      -5.989354      -162.9786
  90   2.0000      -5.981977      -162.7779
  91   2.0000      -1.171656       -31.8824
  92   2.0000      -1.168040       -31.7840
  93   2.0000      -1.133085       -30.8328
  94   2.0000      -1.123460       -30.5709
  95   2.0000      -1.120160       -30.4811
  96   2.0000      -1.090594       -29.6766
  97   2.0000      -1.017371       -27.6841
  98   2.0000      -1.012243       -27.5445
  99   2.0000      -1.006219       -27.3806
 100   2.0000      -0.999459       -27.1967
 101   2.0000      -0.991899       -26.9910
 102   2.0000      -0.991366       -26.9764
 103   2.0000      -0.988518       -26.8989
 104   2.0000      -0.984692       -26.7948
 105   2.0000      -0.981455       -26.7067
 106   2.0000      -0.980024       -26.6678
 107   2.0000      -0.965269       -26.2663
 108   2.0000      -0.962698       -26.1963
 109   2.0000      -0.959032       -26.0966
 110   2.0000      -0.926519       -25.2119
 111   2.0000      -0.922065       -25.0907
 112   2.0000      -0.918536       -24.9946
 113   2.0000      -0.912377       -24.8271
 114   2.0000      -0.898456       -24.4482
 115   2.0000      -0.891565       -24.2607
 116   2.0000      -0.883614       -24.0444
 117   2.0000      -0.876183       -23.8421
 118   2.0000      -0.875235       -23.8164
 119   2.0000      -0.873091       -23.7580
 120   2.0000      -0.870137       -23.6776
 121   2.0000      -0.864739       -23.5307
 122   2.0000      -0.860529       -23.4162
 123   2.0000      -0.849188       -23.1076
 124   2.0000      -0.826840       -22.4994
 125   2.0000      -0.822563       -22.3831
 126   2.0000      -0.820069       -22.3152
 127   2.0000      -0.812430       -22.1073
 128   2.0000      -0.795931       -21.6584
 129   2.0000      -0.783023       -21.3071
 130   2.0000      -0.773897       -21.0588
 131   2.0000      -0.770650       -20.9705
 132   2.0000      -0.766201       -20.8494
 133   2.0000      -0.753344       -20.4995
 134   2.0000      -0.752252       -20.4698
 135   2.0000      -0.750850       -20.4317
 136   2.0000      -0.743673       -20.2364
 137   2.0000      -0.724602       -19.7174
 138   2.0000      -0.720820       -19.6145
 139   2.0000      -0.707109       -19.2414
 140   2.0000      -0.705935       -19.2095
 141   2.0000      -0.697839       -18.9892
 142   2.0000      -0.695869       -18.9355
 143   2.0000      -0.694713       -18.9041
 144   2.0000      -0.690359       -18.7856
 145   2.0000      -0.671709       -18.2781
 146   2.0000      -0.668923       -18.2023
 147   2.0000      -0.666250       -18.1296
 148   2.0000      -0.659202       -17.9378
 149   2.0000      -0.653938       -17.7945
 150   2.0000      -0.649020       -17.6607
 151   2.0000      -0.644009       -17.5244
 152   2.0000      -0.633953       -17.2507
 153   2.0000      -0.625732       -17.0270
 154   2.0000      -0.624819       -17.0022
 155   2.0000      -0.621533       -16.9128
 156   2.0000      -0.615281       -16.7426
 157   2.0000      -0.604918       -16.4607
 158   2.0000      -0.601499       -16.3676
 159   2.0000      -0.601233       -16.3604
 160   2.0000      -0.598316       -16.2810
 161   2.0000      -0.597815       -16.2674
 162   2.0000      -0.596254       -16.2249
 163   2.0000      -0.582208       -15.8427
 164   2.0000      -0.577088       -15.7034
 165   2.0000      -0.569875       -15.5071
 166   2.0000      -0.567730       -15.4487
 167   2.0000      -0.567585       -15.4448
 168   2.0000      -0.564577       -15.3629
 169   2.0000      -0.561688       -15.2843
 170   2.0000      -0.555131       -15.1059
 171   2.0000      -0.547795       -14.9063
 172   2.0000      -0.542534       -14.7631
 173   2.0000      -0.541318       -14.7300
 174   2.0000      -0.539219       -14.6729
 175   2.0000      -0.539006       -14.6671
 176   2.0000      -0.536566       -14.6007
 177   2.0000      -0.533822       -14.5260
 178   2.0000      -0.528742       -14.3878
 179   2.0000      -0.528330       -14.3766
 180   2.0000      -0.526309       -14.3216
 181   2.0000      -0.525726       -14.3057
 182   2.0000      -0.522021       -14.2049
 183   2.0000      -0.515628       -14.0309
 184   2.0000      -0.514705       -14.0058
 185   2.0000      -0.513515       -13.9735
 186   2.0000      -0.511974       -13.9315
 187   2.0000      -0.509645       -13.8682
 188   2.0000      -0.508163       -13.8278
 189   2.0000      -0.506339       -13.7782
 190   2.0000      -0.504056       -13.7160
 191   2.0000      -0.502708       -13.6794
 192   2.0000      -0.497027       -13.5248
 193   2.0000      -0.494400       -13.4533
 194   2.0000      -0.491876       -13.3846
 195   2.0000      -0.488996       -13.3063
 196   2.0000      -0.486351       -13.2343
 197   2.0000      -0.486038       -13.2258
 198   2.0000      -0.483321       -13.1518
 199   2.0000      -0.478661       -13.0250
 200   2.0000      -0.477735       -12.9998
 201   2.0000      -0.476395       -12.9634
 202   2.0000      -0.471957       -12.8426
 203   2.0000      -0.466674       -12.6988
 204   2.0000      -0.458972       -12.4893
 205   2.0000      -0.457921       -12.4607
 206   2.0000      -0.457684       -12.4542
 207   2.0000      -0.453684       -12.3454
 208   2.0000      -0.450564       -12.2605
 209   2.0000      -0.444969       -12.1082
 210   2.0000      -0.440241       -11.9796
 211   2.0000      -0.437240       -11.8979
 212   2.0000      -0.437011       -11.8917
 213   2.0000      -0.436425       -11.8757
 214   2.0000      -0.435382       -11.8473
 215   2.0000      -0.434962       -11.8359
 216   2.0000      -0.431409       -11.7392
 217   2.0000      -0.431325       -11.7370
 218   2.0000      -0.428232       -11.6528
 219   2.0000      -0.426100       -11.5948
 220   2.0000      -0.424657       -11.5555
 221   2.0000      -0.424018       -11.5381
 222   2.0000      -0.422617       -11.5000
 223   2.0000      -0.418731       -11.3943
 224   2.0000      -0.418214       -11.3802
 225   2.0000      -0.415196       -11.2981
 226   2.0000      -0.410659       -11.1746
 227   2.0000      -0.410225       -11.1628
 228   2.0000      -0.409613       -11.1461
 229   2.0000      -0.405206       -11.0262
 230   2.0000      -0.401551       -10.9268
 231   2.0000      -0.400775       -10.9056
 232   2.0000      -0.399778       -10.8785
 233   2.0000      -0.395178       -10.7533
 234   2.0000      -0.393957       -10.7201
 235   2.0000      -0.386266       -10.5108
 236   2.0000      -0.384403       -10.4601
 237   2.0000      -0.380451       -10.3526
 238   2.0000      -0.375478       -10.2173
 239   2.0000      -0.373032       -10.1507
 240   2.0000      -0.369490       -10.0543
 241   2.0000      -0.363621        -9.8946
 242   2.0000      -0.351293        -9.5592
 243   2.0000      -0.345591        -9.4040
 244   2.0000      -0.338772        -9.2185
 245   2.0000      -0.334248        -9.0953
 246   2.0000      -0.327117        -8.9013
 247   2.0000      -0.323364        -8.7992
 248   2.0000      -0.315795        -8.5932
 249   2.0000      -0.312137        -8.4937
 250   2.0000      -0.309493        -8.4217
 251   2.0000      -0.303593        -8.2612
 252   2.0000      -0.290214        -7.8971
 253   2.0000      -0.286183        -7.7874
 254   2.0000      -0.276791        -7.5319
 255   2.0000      -0.270628        -7.3642
 256   2.0000      -0.265080        -7.2132
 257   2.0000      -0.242551        -6.6001
 258   0.0000      -0.111475        -3.0334
 259   0.0000      -0.081800        -2.2259
 260   0.0000      -0.072247        -1.9659
 261   0.0000      -0.047571        -1.2945
 262   0.0000      -0.047294        -1.2869

MULLIKEN ATOMIC CHARGES
-----------------------
   0 C :    0.239943
   1 C :   -0.314365
   2 C :   -0.170642
   3 N :    0.135773
   4 C :   -0.195687
   5 N :    0.157788
   6 C :    0.046182
   7 C :    0.009241
   8 C :   -0.088818
   9 C :    0.098248
  10 C :    0.100129
  11 C :   -0.090690
  12 C :   -0.021109
  13 C :    0.035823
  14 C :    0.037327
  15 C :   -0.019007
  16 C :    0.141251
  17 O :   -0.146106
  18 C :   -0.139957
  19 C :    0.052324
  20 C :   -0.169758
  21 C :   -0.011065
  22 C :    0.227140
  23 O :   -0.283162
  24 C :    0.225910
  25 C :   -0.102697
  26 S :    0.030767
  27 C :   -0.239019
  28 S :    0.200385
  29 C :    0.141541
  30 C :   -0.080818
  31 C :   -0.042013
  32 N :   -0.036450
  33 C :    0.042669
  34 C :    0.019991
  35 N :    0.006156
  36 C :    0.092464
  37 C :   -0.010426
  38 C :   -0.008890
  39 N :   -0.301969
  40 S :    0.562442
  41 N :   -0.256707
  42 C :   -0.226986
  43 C :    0.007371
  44 C :    0.177275
  45 O :   -0.289237
  46 C :    0.228489
  47 C :   -0.111414
  48 S :    0.043099
  49 C :   -0.122243
  50 S :    0.244353
  51 C :   -0.032926
  52 C :   -0.101514
  53 C :    0.338163
  54 C :   -0.366782
  55 C :   -0.186816
  56 N :    0.140757
  57 C :   -0.194311
  58 N :    0.144127
  59 C :    0.044854
  60 C :    0.000575
  61 C :    0.164888
  62 O :   -0.184315
  63 C :   -0.088193
  64 C :    0.099707
  65 C :    0.095667
  66 C :   -0.086704
  67 C :   -0.019435
  68 C :    0.034863
  69 C :    0.034159
  70 C :   -0.017936
  71 H :   -0.013825
  72 H :   -0.009724
  73 H :   -0.013862
  74 H :   -0.006807
  75 H :   -0.007661
  76 H :   -0.019204
  77 H :    0.027923
  78 H :    0.030489
  79 H :    0.030296
  80 H :    0.085549
  81 H :    0.062702
  82 H :    0.020507
  83 H :    0.011717
  84 H :    0.044091
  85 H :    0.034535
  86 H :    0.073554
  87 H :    0.061212
  88 H :    0.025112
  89 H :   -0.020291
  90 H :   -0.011043
  91 H :   -0.010496
  92 H :   -0.007731
  93 H :   -0.008421
  94 H :   -0.022294
Sum of atomic charges:   -0.0000000

LOEWDIN ATOMIC CHARGES
----------------------
   0 C :    0.059754
   1 C :   -0.146329
   2 C :   -0.015806
   3 N :   -0.068984
   4 C :   -0.032311
   5 N :   -0.055675
   6 C :   -0.020775
   7 C :   -0.055282
   8 C :    0.029907
   9 C :   -0.009779
  10 C :   -0.006031
  11 C :    0.011732
  12 C :   -0.008120
  13 C :   -0.015148
  14 C :   -0.015428
  15 C :   -0.009740
  16 C :    0.081724
  17 O :   -0.147941
  18 C :   -0.099050
  19 C :    0.052380
  20 C :   -0.210431
  21 C :   -0.186070
  22 C :    0.008619
  23 O :   -0.082252
  24 C :    0.071847
  25 C :   -0.137549
  26 S :    0.313141
  27 C :   -0.166232
  28 S :    0.518116
  29 C :   -0.035981
  30 C :   -0.007698
  31 C :   -0.007614
  32 N :   -0.042738
  33 C :    0.018388
  34 C :    0.006900
  35 N :   -0.021784
  36 C :   -0.047173
  37 C :   -0.050697
  38 C :   -0.045658
  39 N :   -0.303882
  40 S :    0.695110
  41 N :   -0.282986
  42 C :   -0.166729
  43 C :   -0.220239
  44 C :    0.030875
  45 O :   -0.078988
  46 C :    0.073730
  47 C :   -0.142476
  48 S :    0.312541
  49 C :   -0.219991
  50 S :    0.552708
  51 C :    0.064834
  52 C :   -0.117332
  53 C :    0.077501
  54 C :   -0.150284
  55 C :   -0.016862
  56 N :   -0.065146
  57 C :   -0.022846
  58 N :   -0.058537
  59 C :   -0.023736
  60 C :   -0.052910
  61 C :    0.082391
  62 O :   -0.173767
  63 C :    0.026074
  64 C :   -0.009884
  65 C :   -0.007605
  66 C :    0.017245
  67 C :   -0.005854
  68 C :   -0.016657
  69 C :   -0.015738
  70 C :   -0.012034
  71 H :    0.038452
  72 H :    0.037271
  73 H :    0.032947
  74 H :    0.032248
  75 H :    0.031801
  76 H :    0.031160
  77 H :    0.046828
  78 H :    0.030825
  79 H :    0.019560
  80 H :    0.036365
  81 H :    0.036965
  82 H :    0.030184
  83 H :    0.025543
  84 H :    0.035282
  85 H :    0.021418
  86 H :    0.031595
  87 H :    0.037258
  88 H :    0.049867
  89 H :    0.035979
  90 H :    0.038338
  91 H :    0.034188
  92 H :    0.031928
  93 H :    0.031341
  94 H :    0.029904

  Mayer bond orders larger than 0.100000
B(  0-C ,  1-C ) :   1.6458 B(  0-C ,  6-C ) :   1.0091 B(  0-C , 18-C ) :   1.0418
B(  1-C ,  2-C ) :   1.1474 B(  1-C ,  4-C ) :   1.1455 B(  2-C ,  3-N ) :   2.9733
B(  4-C ,  5-N ) :   3.0185 B(  6-C ,  7-C ) :   1.2141 B(  6-C , 11-C ) :   1.4586
B(  7-C ,  8-C ) :   1.4769 B(  7-C , 16-C ) :   0.9162 B(  8-C ,  9-C ) :   1.1806
B(  8-C , 71-H ) :   1.0167 B(  9-C , 10-C ) :   1.2594 B(  9-C , 15-C ) :   1.2457
B( 10-C , 11-C ) :   1.1985 B( 10-C , 12-C ) :   1.2405 B( 11-C , 72-H ) :   0.9951
B( 12-C , 13-C ) :   1.4892 B( 12-C , 73-H ) :   0.9978 B( 13-C , 14-C ) :   1.2595
B( 13-C , 74-H ) :   0.9889 B( 14-C , 15-C ) :   1.4898 B( 14-C , 75-H ) :   0.9883
B( 15-C , 76-H ) :   0.9977 B( 16-C , 17-O ) :   2.2742 B( 16-C , 18-C ) :   0.9442
B( 18-C , 19-C ) :   1.6347 B( 19-C , 20-C ) :   1.1589 B( 19-C , 77-H ) :   0.9451
B( 20-C , 21-C ) :   1.4548 B( 20-C , 27-C ) :   0.1166 B( 20-C , 28-S ) :   1.1040
B( 21-C , 22-C ) :   1.2606 B( 21-C , 26-S ) :   1.0261 B( 22-C , 23-O ) :   1.1788
B( 22-C , 27-C ) :   1.4846 B( 23-O , 24-C ) :   0.9633 B( 24-C , 25-C ) :   1.0419
B( 24-C , 78-H ) :   0.9515 B( 24-C , 79-H ) :   0.9498 B( 25-C , 26-S ) :   1.0057
B( 25-C , 80-H ) :   0.9420 B( 25-C , 81-H ) :   0.9482 B( 27-C , 28-S ) :   1.1535
B( 27-C , 29-C ) :   1.0601 B( 29-C , 30-C ) :   1.3164 B( 29-C , 36-C ) :   0.1366
B( 29-C , 38-C ) :   1.2376 B( 30-C , 31-C ) :   1.1170 B( 30-C , 35-N ) :   1.4545
B( 31-C , 32-N ) :   1.4196 B( 31-C , 36-C ) :   1.2993 B( 32-N , 33-C ) :   1.6956
B( 33-C , 34-C ) :   1.1686 B( 33-C , 82-H ) :   0.9735 B( 34-C , 35-N ) :   1.7073
B( 34-C , 83-H ) :   0.9740 B( 36-C , 37-C ) :   1.2337 B( 36-C , 42-C ) :   1.1087
B( 37-C , 38-C ) :   1.1064 B( 37-C , 41-N ) :   1.5001 B( 38-C , 39-N ) :   1.4741
B( 39-N , 40-S ) :   1.2849 B( 39-N , 41-N ) :   0.1562 B( 40-S , 41-N ) :   1.3019
B( 42-C , 43-C ) :   1.4466 B( 42-C , 49-C ) :   0.1053 B( 42-C , 50-S ) :   1.1461
B( 43-C , 44-C ) :   1.3055 B( 43-C , 48-S ) :   1.0071 B( 44-C , 45-O ) :   1.1758
B( 44-C , 49-C ) :   1.3454 B( 45-O , 46-C ) :   0.9450 B( 46-C , 47-C ) :   1.0391
B( 46-C , 84-H ) :   0.9504 B( 46-C , 85-H ) :   0.9526 B( 47-C , 48-S ) :   1.0202
B( 47-C , 86-H ) :   0.9431 B( 47-C , 87-H ) :   0.9489 B( 49-C , 50-S ) :   1.0662
B( 49-C , 51-C ) :   1.3066 B( 51-C , 52-C ) :   1.4526 B( 51-C , 88-H ) :   0.9317
B( 52-C , 53-C ) :   1.0942 B( 52-C , 61-C ) :   0.9852 B( 53-C , 54-C ) :   1.6070
B( 53-C , 59-C ) :   0.9770 B( 54-C , 55-C ) :   1.1529 B( 54-C , 57-C ) :   1.1470
B( 55-C , 56-N ) :   2.9600 B( 57-C , 58-N ) :   2.9604 B( 59-C , 60-C ) :   1.2163
B( 59-C , 66-C ) :   1.4594 B( 60-C , 61-C ) :   0.9540 B( 60-C , 63-C ) :   1.4738
B( 61-C , 62-O ) :   2.1308 B( 63-C , 64-C ) :   1.1730 B( 63-C , 89-H ) :   1.0161
B( 64-C , 65-C ) :   1.2608 B( 64-C , 70-C ) :   1.2453 B( 65-C , 66-C ) :   1.1978
B( 65-C , 67-C ) :   1.2433 B( 66-C , 90-H ) :   0.9894 B( 67-C , 68-C ) :   1.4865
B( 67-C , 91-H ) :   0.9970 B( 68-C , 69-C ) :   1.2621 B( 68-C , 92-H ) :   0.9885
B( 69-C , 70-C ) :   1.4868 B( 69-C , 93-H ) :   0.9884 B( 70-C , 94-H ) :   0.9971

-----------------------------------------------------------------------------
         ABSORPTION SPECTRUM VIA TRANSITION ELECTRIC DIPOLE MOMENTS
-----------------------------------------------------------------------------
State   Energy  Wavelength   fosc         T2         TX        TY        TZ
        (cm-1)    (nm)                  (au**2)     (au)      (au)      (au)
-----------------------------------------------------------------------------
   0   12378.4    807.9   0.787975893  20.95675   1.38558  -2.95037   3.21438
   1   15695.8    637.1   0.121340792   2.54506   0.77333  -0.56405   1.27627
   2   18506.6    540.3   0.036394602   0.64742  -0.54108   0.56840   0.17772
   3   19010.6    526.0   0.139796313   2.42089  -0.48168   0.68883   1.30935
   4   19684.6    508.0   0.085403659   1.42832   0.29900   0.04717   1.15615
   5   21567.5    463.7   0.466691079   7.12368  -1.56952   1.36907  -1.66911
   6   22762.1    439.3   0.006741415   0.09750   0.23213  -0.20853   0.01158
   7   23871.7    418.9   0.059625385   0.82229  -0.57213   0.30476   0.63409
   8   24236.4    412.6   0.067384175   0.91531   0.22589   0.90282   0.22181
   9   24505.7    408.1   0.013305008   0.17874  -0.26466  -0.32475   0.05685
  10   25921.0    385.8   0.012371550   0.15713   0.13940  -0.36705  -0.05445
  11   26042.8    384.0   0.027237563   0.34432  -0.05340  -0.55505  -0.18270
  12   26847.5    372.5   0.076289778   0.93549   0.24637   0.90210   0.24700
  13   26909.8    371.6   0.085248775   1.04293  -0.74029  -0.56793  -0.41516
  14   27212.8    367.5   0.007661275   0.09268  -0.01167  -0.06657  -0.29684
  15   27764.4    360.2   0.051506737   0.61073   0.36952   0.50077  -0.47267
  16   28081.3    356.1   0.017640264   0.20681   0.09574   0.07939  -0.43742
  17   28300.9    353.3   0.091573673   1.06524  -0.26815  -0.22675   0.97052
  18   28544.1    350.3   0.026836978   0.30952  -0.18782   0.33701  -0.40084
  19   29107.1    343.6   0.024425036   0.27626  -0.02726   0.23295  -0.47037
  20   29505.5    338.9   0.014888101   0.16612  -0.09899  -0.32154  -0.23006
  21   29869.1    334.8   0.026591708   0.29309  -0.44797   0.09113  -0.29001
  22   30738.0    325.3   0.066715247   0.71454   0.69285   0.41552   0.24866
  23   30889.8    323.7   0.363320201   3.87214  -0.36981   0.31040   1.90762
  24   31077.2    321.8   0.052197001   0.55294   0.37337   0.17384   0.61912
  25   31318.6    319.3   0.030498807   0.32059  -0.54406   0.15521  -0.02242
  26   31912.4    313.4   0.345161697   3.56073  -0.92771  -0.51970  -1.55885
  27   32103.5    311.5   0.249355007   2.55706  -1.26517  -0.93632   0.28232
  28   32503.7    307.7   0.037692563   0.38177  -0.54981   0.14849   0.23965
  29   32813.4    304.8   0.025017272   0.25099   0.49588  -0.03367   0.06294
  30   33104.4    302.1   0.092034277   0.91525   0.29528  -0.70798   0.57169
  31   33336.7    300.0   0.050604636   0.49974  -0.27344  -0.64708  -0.07913
  32   33373.9    299.6   0.076185332   0.75152   0.81562   0.16165   0.24525
  33   33492.3    298.6   0.006202881   0.06097  -0.09452  -0.08759  -0.21063
  34   33974.1    294.3   0.016048986   0.15552  -0.30526   0.23005  -0.09698
  35   34208.9    292.3   0.010020266   0.09643  -0.24024  -0.19601   0.01719
  36   34490.3    289.9   0.066401256   0.63380  -0.03738  -0.75310   0.25543
  37   34889.5    286.6   0.032672050   0.30829   0.37364  -0.35061   0.21389
  38   35207.4    284.0   0.507452012   4.74501   1.07314   0.01684  -1.89555
  39   35636.8    280.6   0.029091714   0.26875  -0.09814   0.37736   0.34164
  40   35744.2    279.8   0.158110866   1.45623   0.50852  -0.14330  -1.08495
  41   36189.3    276.3   0.240021427   2.18346  -0.93206  -1.14660   0.00460
  42   36332.0    275.2   0.257396158   2.33232  -0.77704  -1.11400  -0.69824
  43   36537.3    273.7   0.046889424   0.42249   0.52895   0.00311   0.37774
  44   36595.0    273.3   0.092625088   0.83326  -0.43695  -0.77797  -0.19263
  45   36837.3    271.5   0.152420044   1.36217   0.40417   1.07322   0.21683
  46   36900.9    271.0   0.047601735   0.42468  -0.47988  -0.43370  -0.07935
  47   36982.9    270.4   0.090500472   0.80561   0.66112   0.52264   0.30884
  48   37575.3    266.1   0.036353462   0.31851   0.14512   0.26056  -0.47912
  49   37609.0    265.9   0.080120555   0.70134  -0.38131  -0.18840   0.72142
  50   37886.4    263.9   0.003887001   0.03378   0.06101   0.13743  -0.10567
  51   38162.5    262.0   0.126317908   1.08969  -0.27247  -0.12005  -1.00052
  52   38480.4    259.9   0.104255587   0.89194   0.32917   0.51322   0.72124
  53   39076.2    255.9   0.148154732   1.24818  -0.60792  -0.10397  -0.93156
  54   39178.0    255.2   0.092114907   0.77404  -0.70798  -0.25986  -0.45308
  55   39564.4    252.8   0.112034709   0.93223  -0.63336   0.53428  -0.49561
  56   39804.5    251.2   0.033912369   0.28048  -0.49353  -0.12326  -0.14736
  57   39877.4    250.8   0.015437129   0.12744   0.20444   0.09164   0.27794
  58   40197.5    248.8   0.103477907   0.84747   0.36411   0.28883   0.79465

FINAL SINGLE POINT ENERGY     -4797.817520278936

DIPOLE MOMENT
-------------
                                X             Y             Z
Electronic contribution:     16.17829       2.78987       5.73039
Nuclear contribution   :    -17.07063      -5.32407      -5.70126
                        -----------------------------------------
Total Dipole Moment    :     -0.89235      -2.53420       0.02914
                        -----------------------------------------
Magnitude (a.u.)       :      2.68687
Magnitude (Debye)      :      6.82949

Rotational constants in cm-1:     0.001525     0.000361     0.000344
Rotational constants in MHz :    45.711042    10.815434    10.306605

                             ****ORCA TERMINATED NORMALLY****
TOTAL RUN TIME: 0 days 0 hours 10 minutes 33 seconds 873 msec
