                         Program Version 4.2.0 -  RELEASE  -
|  1> # ORCA input file
|  2> # SCF done       -176.809406143739          0.000614374119
|  3> ! CAM-B3LYP def2-SVP def2/J RIJCOSX Grid4 TightSCF
|  4> %maxcore 5000
|  5> %tddft
|  6>     Mode sTDDFT
|  7>     Ethresh 5.0
|  8>     maxcore 5000
|  9> end
| 10>
| 11> %pal
| 12>   nprocs 6
| 13>   end
| 14> * xyz 0 1
| 15>    C       -1.23151         0.84219         0.52374
| 16>    C       -2.12205         0.18502         1.34204
| 17>    C       -2.43637        -1.18328         1.22788
| 18>    N       -2.74115        -2.29069         1.19396
| 19>    C       -2.84378         0.76085         2.40444
| 20>    N       -3.46687         1.15578         3.28736
| 21>    C       -0.48866         0.22412        -0.57359
| 22>    C        0.33863         1.21764        -1.17181
| 23>    C        1.15261         0.94084        -2.23007
| 24>    C        1.17674        -0.37223        -2.75455
| 25>    C        0.35210        -1.37147        -2.16467
| 26>    C       -0.48041        -1.05246        -1.06493
| 27>    C        0.38112        -2.67563        -2.69666
| 28>    C        1.18589        -2.98078        -3.76121
| 29>    C        1.99807        -1.99601        -4.34091
| 30>    C        1.99355        -0.71894        -3.84766
| 31>    C        0.13484         2.49267        -0.46597
| 32>    O        0.69359         3.55460        -0.71258
| 33>    C       -0.85361         2.23325         0.57301
| 34>    C       -1.35816         3.16932         1.45787
| 35>    C       -1.10051         4.52476         1.58429
| 36>    S       -0.01717         5.46322         0.59275
| 37>    C       -0.40877         6.93537         1.41615
| 38>    C       -1.32388         6.72006         2.46919
| 39>    C       -1.72075         5.35875         2.55833
| 40>    C       -2.62690         4.96141         3.55024
| 41>    C       -3.11514         5.87843         4.45200
| 42>    C       -4.08225         5.47393         5.51793
| 43>    C       -2.68289         7.21703         4.38129
| 44>    C       -1.80689         7.63720         3.41832
| 45>    C        0.17254         8.14063         0.95944
| 46>    N        1.27974         8.10781         0.13224
| 47>    C        1.61407         9.37835        -0.20176
| 48>    C        2.51970        10.15315        -0.91516
| 49>    C        2.11693        11.48543        -0.73771
| 50>    N        0.99107        11.51750         0.06440
| 51>    C        0.67218        10.24568         0.41576
| 52>    C       -0.22289         9.47560         1.14570
| 53>    C        2.66550        12.68274        -1.25155
| 54>    C        3.85564        12.77587        -1.90646
| 55>    C        4.41309        13.96276        -2.42937
| 56>    S        6.13109        14.06164        -2.60500
| 57>    C        6.08848        15.75498        -3.01450
| 58>    C        4.75168        16.18033        -3.16583
| 59>    C        3.80340        15.17273        -2.83102
| 60>    C        2.43287        15.42452        -3.01543
| 61>    C        2.01005        16.64161        -3.48920
| 62>    C        0.55612        16.93796        -3.68833
| 63>    C        2.96244        17.62160        -3.83534
| 64>    C        4.30449        17.39869        -3.70136
| 65>    C        7.29392        16.44492        -3.16011
| 66>    C        7.49779        17.79080        -2.93641
| 67>    C        8.68277        18.53207        -3.28582
| 68>    C        9.67168        18.12543        -4.15068
| 69>    C       10.80714        18.89466        -4.46810
| 70>    N       11.75751        19.47147        -4.75876
| 71>    C        9.66543        16.90642        -4.85612
| 72>    N        9.71259        15.94408        -5.48272
| 73>    C        8.60647        19.83601        -2.63349
| 74>    C        7.38359        19.90178        -1.90775
| 75>    C        6.64936        18.63069        -2.06546
| 76>    O        5.61156        18.32407        -1.50971
| 77>    C        7.02607        21.00873        -1.19617
| 78>    C        7.89012        22.12802        -1.18262
| 79>    C        9.11673        22.06895        -1.90313
| 80>    C        9.46227        20.90359        -2.62798
| 81>    C        9.97176        23.18875        -1.87972
| 82>    C        9.63264        24.31530        -1.18033
| 83>    C        8.42397        24.37270        -0.47183
| 84>    C        7.57114        23.30205        -0.47350
| 85>    H        1.77048         1.71237        -2.66544
| 86>    H       -1.09266        -1.83313        -0.64247
| 87>    H       -0.24627        -3.43108        -2.24651
| 88>    H        1.20017        -3.98347        -4.16176
| 89>    H        2.62729        -2.25295        -5.18013
| 90>    H        2.61712         0.04427        -4.29044
| 91>    H       -2.08508         2.79843         2.16615
| 92>    H       -2.94297         3.93171         3.62226
| 93>    H       -3.68309         5.71637         6.50240
| 94>    H       -4.28666         4.40752         5.47449
| 95>    H       -5.02052         6.01564         5.39930
| 96>    H       -3.05165         7.91931         5.11471
| 97>    H       -1.46606         8.65874         3.40231
| 98>    H        1.73932         7.26022        -0.15556
| 99>    H        3.35253         9.82310        -1.50126
|100>    H        0.52256        12.35850         0.35424
|101>    H       -1.07894         9.81185         1.69236
|102>    H        2.10431        13.58466        -1.05018
|103>    H        4.47770        11.89400        -1.97511
|104>    H        1.71488        14.64040        -2.83266
|105>    H        0.36786        17.24143        -4.71716
|106>    H        0.25011        17.75871        -3.04027
|107>    H       -0.05715        16.06915        -3.46307
|108>    H        2.61318        18.55769        -4.24591
|109>    H        5.01901        18.13342        -4.03544
|110>    H        8.15664        15.83689        -3.40717
|111>    H        6.09277        21.03389        -0.65314
|112>    H       10.40126        20.88648        -3.15827
|113>    H       10.90138        23.13995        -2.42779
|114>    H       10.29451        25.16848        -1.16984
|115>    H        8.17153        25.26878         0.07561
|116>    H        6.63860        23.34019         0.07090
|117> *
|118>
|119>                          ****END OF INPUT****

CARTESIAN COORDINATES (ANGSTROEM)
---------------------------------
  C     -1.231510    0.842190    0.523740
  C     -2.122050    0.185020    1.342040
  C     -2.436370   -1.183280    1.227880
  N     -2.741150   -2.290690    1.193960
  C     -2.843780    0.760850    2.404440
  N     -3.466870    1.155780    3.287360
  C     -0.488660    0.224120   -0.573590
  C      0.338630    1.217640   -1.171810
  C      1.152610    0.940840   -2.230070
  C      1.176740   -0.372230   -2.754550
  C      0.352100   -1.371470   -2.164670
  C     -0.480410   -1.052460   -1.064930
  C      0.381120   -2.675630   -2.696660
  C      1.185890   -2.980780   -3.761210
  C      1.998070   -1.996010   -4.340910
  C      1.993550   -0.718940   -3.847660
  C      0.134840    2.492670   -0.465970
  O      0.693590    3.554600   -0.712580
  C     -0.853610    2.233250    0.573010
  C     -1.358160    3.169320    1.457870
  C     -1.100510    4.524760    1.584290
  S     -0.017170    5.463220    0.592750
  C     -0.408770    6.935370    1.416150
  C     -1.323880    6.720060    2.469190
  C     -1.720750    5.358750    2.558330
  C     -2.626900    4.961410    3.550240
  C     -3.115140    5.878430    4.452000
  C     -4.082250    5.473930    5.517930
  C     -2.682890    7.217030    4.381290
  C     -1.806890    7.637200    3.418320
  C      0.172540    8.140630    0.959440
  N      1.279740    8.107810    0.132240
  C      1.614070    9.378350   -0.201760
  C      2.519700   10.153150   -0.915160
  C      2.116930   11.485430   -0.737710
  N      0.991070   11.517500    0.064400
  C      0.672180   10.245680    0.415760
  C     -0.222890    9.475600    1.145700
  C      2.665500   12.682740   -1.251550
  C      3.855640   12.775870   -1.906460
  C      4.413090   13.962760   -2.429370
  S      6.131090   14.061640   -2.605000
  C      6.088480   15.754980   -3.014500
  C      4.751680   16.180330   -3.165830
  C      3.803400   15.172730   -2.831020
  C      2.432870   15.424520   -3.015430
  C      2.010050   16.641610   -3.489200
  C      0.556120   16.937960   -3.688330
  C      2.962440   17.621600   -3.835340
  C      4.304490   17.398690   -3.701360
  C      7.293920   16.444920   -3.160110
  C      7.497790   17.790800   -2.936410
  C      8.682770   18.532070   -3.285820
  C      9.671680   18.125430   -4.150680
  C     10.807140   18.894660   -4.468100
  N     11.757510   19.471470   -4.758760
  C      9.665430   16.906420   -4.856120
  N      9.712590   15.944080   -5.482720
  C      8.606470   19.836010   -2.633490
  C      7.383590   19.901780   -1.907750
  C      6.649360   18.630690   -2.065460
  O      5.611560   18.324070   -1.509710
  C      7.026070   21.008730   -1.196170
  C      7.890120   22.128020   -1.182620
  C      9.116730   22.068950   -1.903130
  C      9.462270   20.903590   -2.627980
  C      9.971760   23.188750   -1.879720
  C      9.632640   24.315300   -1.180330
  C      8.423970   24.372700   -0.471830
  C      7.571140   23.302050   -0.473500
  H      1.770480    1.712370   -2.665440
  H     -1.092660   -1.833130   -0.642470
  H     -0.246270   -3.431080   -2.246510
  H      1.200170   -3.983470   -4.161760
  H      2.627290   -2.252950   -5.180130
  H      2.617120    0.044270   -4.290440
  H     -2.085080    2.798430    2.166150
  H     -2.942970    3.931710    3.622260
  H     -3.683090    5.716370    6.502400
  H     -4.286660    4.407520    5.474490
  H     -5.020520    6.015640    5.399300
  H     -3.051650    7.919310    5.114710
  H     -1.466060    8.658740    3.402310
  H      1.739320    7.260220   -0.155560
  H      3.352530    9.823100   -1.501260
  H      0.522560   12.358500    0.354240
  H     -1.078940    9.811850    1.692360
  H      2.104310   13.584660   -1.050180
  H      4.477700   11.894000   -1.975110
  H      1.714880   14.640400   -2.832660
  H      0.367860   17.241430   -4.717160
  H      0.250110   17.758710   -3.040270
  H     -0.057150   16.069150   -3.463070
  H      2.613180   18.557690   -4.245910
  H      5.019010   18.133420   -4.035440
  H      8.156640   15.836890   -3.407170
  H      6.092770   21.033890   -0.653140
  H     10.401260   20.886480   -3.158270
  H     10.901380   23.139950   -2.427790
  H     10.294510   25.168480   -1.169840
  H      8.171530   25.268780    0.075610
  H      6.638600   23.340190    0.070900

 Total Charge           Charge          ....    0
 Multiplicity           Mult            ....    1
 Number of Electrons    NEL             ....  482
 Basis Dimension        Dim             .... 1148

ORBITAL ENERGIES
----------------

  NO   OCC          E(Eh)            E(eV)
   0   2.0000     -88.976338     -2421.1692
   1   2.0000     -88.972336     -2421.0603
   2   2.0000     -19.207604      -522.6655
   3   2.0000     -19.199466      -522.4440
   4   2.0000     -14.477816      -393.9614
   5   2.0000     -14.474755      -393.8781
   6   2.0000     -14.406262      -392.0143
   7   2.0000     -14.401449      -391.8833
   8   2.0000     -14.400806      -391.8658
   9   2.0000     -14.398525      -391.8038
  10   2.0000     -10.355452      -281.7862
  11   2.0000     -10.351093      -281.6676
  12   2.0000     -10.331148      -281.1248
  13   2.0000     -10.330860      -281.1170
  14   2.0000     -10.327689      -281.0307
  15   2.0000     -10.326908      -281.0095
  16   2.0000     -10.326142      -280.9886
  17   2.0000     -10.325830      -280.9801
  18   2.0000     -10.324611      -280.9469
  19   2.0000     -10.322345      -280.8853
  20   2.0000     -10.315572      -280.7010
  21   2.0000     -10.314208      -280.6639
  22   2.0000     -10.311179      -280.5814
  23   2.0000     -10.310867      -280.5730
  24   2.0000     -10.310097      -280.5520
  25   2.0000     -10.308492      -280.5083
  26   2.0000     -10.307890      -280.4920
  27   2.0000     -10.307189      -280.4729
  28   2.0000     -10.305358      -280.4230
  29   2.0000     -10.304684      -280.4047
  30   2.0000     -10.303231      -280.3652
  31   2.0000     -10.301342      -280.3138
  32   2.0000     -10.296234      -280.1748
  33   2.0000     -10.292763      -280.0803
  34   2.0000     -10.292456      -280.0720
  35   2.0000     -10.290952      -280.0310
  36   2.0000     -10.290640      -280.0225
  37   2.0000     -10.290622      -280.0221
  38   2.0000     -10.289136      -279.9816
  39   2.0000     -10.288776      -279.9718
  40   2.0000     -10.287885      -279.9476
  41   2.0000     -10.287762      -279.9442
  42   2.0000     -10.287383      -279.9339
  43   2.0000     -10.287189      -279.9286
  44   2.0000     -10.286530      -279.9107
  45   2.0000     -10.286513      -279.9103
  46   2.0000     -10.286086      -279.8986
  47   2.0000     -10.285458      -279.8815
  48   2.0000     -10.285247      -279.8758
  49   2.0000     -10.284992      -279.8689
  50   2.0000     -10.283886      -279.8388
  51   2.0000     -10.282133      -279.7911
  52   2.0000     -10.279786      -279.7272
  53   2.0000     -10.279485      -279.7190
  54   2.0000     -10.278530      -279.6930
  55   2.0000     -10.278462      -279.6912
  56   2.0000     -10.278446      -279.6907
  57   2.0000     -10.278382      -279.6890
  58   2.0000     -10.277910      -279.6762
  59   2.0000     -10.277873      -279.6751
  60   2.0000     -10.277741      -279.6716
  61   2.0000     -10.277676      -279.6698
  62   2.0000     -10.277534      -279.6659
  63   2.0000     -10.277220      -279.6574
  64   2.0000     -10.277125      -279.6548
  65   2.0000     -10.276967      -279.6505
  66   2.0000     -10.276689      -279.6429
  67   2.0000     -10.274338      -279.5789
  68   2.0000     -10.272162      -279.5197
  69   2.0000     -10.266166      -279.3566
  70   2.0000      -8.071893      -219.6474
  71   2.0000      -8.065298      -219.4679
  72   2.0000      -6.040830      -164.3793
  73   2.0000      -6.036840      -164.2708
  74   2.0000      -6.034764      -164.2143
  75   2.0000      -6.034562      -164.2088
  76   2.0000      -6.029901      -164.0820
  77   2.0000      -6.027883      -164.0270
  78   2.0000      -1.121244       -30.5106
  79   2.0000      -1.113935       -30.3117
  80   2.0000      -1.110384       -30.2151
  81   2.0000      -1.074220       -29.2310
  82   2.0000      -1.008267       -27.4363
  83   2.0000      -1.006076       -27.3767
  84   2.0000      -1.003679       -27.3115
  85   2.0000      -1.002176       -27.2706
  86   2.0000      -0.988070       -26.8867
  87   2.0000      -0.986173       -26.8351
  88   2.0000      -0.980288       -26.6750
  89   2.0000      -0.979934       -26.6653
  90   2.0000      -0.960676       -26.1413
  91   2.0000      -0.960602       -26.1393
  92   2.0000      -0.944417       -25.6989
  93   2.0000      -0.942311       -25.6416
  94   2.0000      -0.927508       -25.2388
  95   2.0000      -0.916488       -24.9389
  96   2.0000      -0.912395       -24.8275
  97   2.0000      -0.904652       -24.6168
  98   2.0000      -0.896067       -24.3832
  99   2.0000      -0.885317       -24.0907
 100   2.0000      -0.884135       -24.0585
 101   2.0000      -0.877897       -23.8888
 102   2.0000      -0.871585       -23.7170
 103   2.0000      -0.870401       -23.6848
 104   2.0000      -0.867952       -23.6182
 105   2.0000      -0.864016       -23.5111
 106   2.0000      -0.858917       -23.3723
 107   2.0000      -0.848111       -23.0783
 108   2.0000      -0.843432       -22.9510
 109   2.0000      -0.831053       -22.6141
 110   2.0000      -0.818505       -22.2727
 111   2.0000      -0.818049       -22.2603
 112   2.0000      -0.815400       -22.1882
 113   2.0000      -0.800439       -21.7810
 114   2.0000      -0.786206       -21.3937
 115   2.0000      -0.782873       -21.3031
 116   2.0000      -0.778767       -21.1913
 117   2.0000      -0.751093       -20.4383
 118   2.0000      -0.750668       -20.4267
 119   2.0000      -0.748381       -20.3645
 120   2.0000      -0.737391       -20.0654
 121   2.0000      -0.714610       -19.4455
 122   2.0000      -0.712289       -19.3824
 123   2.0000      -0.708662       -19.2837
 124   2.0000      -0.707244       -19.2451
 125   2.0000      -0.705256       -19.1910
 126   2.0000      -0.694426       -18.8963
 127   2.0000      -0.693670       -18.8757
 128   2.0000      -0.692497       -18.8438
 129   2.0000      -0.689480       -18.7617
 130   2.0000      -0.686625       -18.6840
 131   2.0000      -0.677460       -18.4346
 132   2.0000      -0.668017       -18.1777
 133   2.0000      -0.666912       -18.1476
 134   2.0000      -0.662280       -18.0216
 135   2.0000      -0.653365       -17.7790
 136   2.0000      -0.644559       -17.5393
 137   2.0000      -0.637621       -17.3505
 138   2.0000      -0.634939       -17.2776
 139   2.0000      -0.624109       -16.9829
 140   2.0000      -0.621611       -16.9149
 141   2.0000      -0.610103       -16.6018
 142   2.0000      -0.607417       -16.5287
 143   2.0000      -0.597886       -16.2693
 144   2.0000      -0.596473       -16.2308
 145   2.0000      -0.596182       -16.2229
 146   2.0000      -0.592283       -16.1168
 147   2.0000      -0.582930       -15.8623
 148   2.0000      -0.572501       -15.5785
 149   2.0000      -0.572173       -15.5696
 150   2.0000      -0.569339       -15.4925
 151   2.0000      -0.560564       -15.2537
 152   2.0000      -0.558624       -15.2009
 153   2.0000      -0.556140       -15.1334
 154   2.0000      -0.554815       -15.0973
 155   2.0000      -0.547292       -14.8926
 156   2.0000      -0.542775       -14.7696
 157   2.0000      -0.540433       -14.7059
 158   2.0000      -0.537154       -14.6167
 159   2.0000      -0.536380       -14.5957
 160   2.0000      -0.535277       -14.5656
 161   2.0000      -0.531737       -14.4693
 162   2.0000      -0.529266       -14.4021
 163   2.0000      -0.528307       -14.3760
 164   2.0000      -0.527716       -14.3599
 165   2.0000      -0.521273       -14.1846
 166   2.0000      -0.520372       -14.1600
 167   2.0000      -0.518495       -14.1090
 168   2.0000      -0.516338       -14.0503
 169   2.0000      -0.514709       -14.0060
 170   2.0000      -0.513194       -13.9647
 171   2.0000      -0.510275       -13.8853
 172   2.0000      -0.509676       -13.8690
 173   2.0000      -0.506372       -13.7791
 174   2.0000      -0.504309       -13.7230
 175   2.0000      -0.503313       -13.6958
 176   2.0000      -0.501942       -13.6585
 177   2.0000      -0.500307       -13.6140
 178   2.0000      -0.498231       -13.5575
 179   2.0000      -0.492357       -13.3977
 180   2.0000      -0.489958       -13.3324
 181   2.0000      -0.485285       -13.2053
 182   2.0000      -0.484956       -13.1963
 183   2.0000      -0.483657       -13.1610
 184   2.0000      -0.482799       -13.1376
 185   2.0000      -0.479633       -13.0515
 186   2.0000      -0.479178       -13.0391
 187   2.0000      -0.478038       -13.0081
 188   2.0000      -0.473849       -12.8941
 189   2.0000      -0.472136       -12.8475
 190   2.0000      -0.466349       -12.6900
 191   2.0000      -0.463535       -12.6134
 192   2.0000      -0.461336       -12.5536
 193   2.0000      -0.455148       -12.3852
 194   2.0000      -0.454924       -12.3791
 195   2.0000      -0.441370       -12.0103
 196   2.0000      -0.440255       -11.9799
 197   2.0000      -0.439870       -11.9695
 198   2.0000      -0.435967       -11.8633
 199   2.0000      -0.435843       -11.8599
 200   2.0000      -0.434968       -11.8361
 201   2.0000      -0.433165       -11.7870
 202   2.0000      -0.430289       -11.7088
 203   2.0000      -0.429967       -11.7000
 204   2.0000      -0.426831       -11.6147
 205   2.0000      -0.424595       -11.5538
 206   2.0000      -0.424026       -11.5383
 207   2.0000      -0.423256       -11.5174
 208   2.0000      -0.422162       -11.4876
 209   2.0000      -0.421743       -11.4762
 210   2.0000      -0.419101       -11.4043
 211   2.0000      -0.416775       -11.3410
 212   2.0000      -0.414646       -11.2831
 213   2.0000      -0.414235       -11.2719
 214   2.0000      -0.413419       -11.2497
 215   2.0000      -0.409360       -11.1392
 216   2.0000      -0.407199       -11.0805
 217   2.0000      -0.404341       -11.0027
 218   2.0000      -0.401225       -10.9179
 219   2.0000      -0.395974       -10.7750
 220   2.0000      -0.393206       -10.6997
 221   2.0000      -0.387874       -10.5546
 222   2.0000      -0.381110       -10.3705
 223   2.0000      -0.374309       -10.1855
 224   2.0000      -0.366177        -9.9642
 225   2.0000      -0.362028        -9.8513
 226   2.0000      -0.344849        -9.3838
 227   2.0000      -0.332395        -9.0449
 228   2.0000      -0.328828        -8.9479
 229   2.0000      -0.324702        -8.8356
 230   2.0000      -0.323383        -8.7997
 231   2.0000      -0.318415        -8.6645
 232   2.0000      -0.311094        -8.4653
 233   2.0000      -0.309347        -8.4178
 234   2.0000      -0.307000        -8.3539
 235   2.0000      -0.301706        -8.2098
 236   2.0000      -0.291725        -7.9382
 237   2.0000      -0.285494        -7.7687
 238   2.0000      -0.281630        -7.6635
 239   2.0000      -0.254027        -6.9124
 240   2.0000      -0.224755        -6.1159
 241   0.0000      -0.105717        -2.8767
 242   0.0000      -0.083336        -2.2677
 243   0.0000      -0.053936        -1.4677
 244   0.0000      -0.049549        -1.3483
 245   0.0000      -0.037379        -1.0171

MULLIKEN ATOMIC CHARGES
-----------------------
   0 C :    0.338704
   1 C :   -0.371468
   2 C :   -0.187318
   3 N :    0.135611
   4 C :   -0.184513
   5 N :    0.129026
   6 C :    0.040339
   7 C :    0.006298
   8 C :   -0.091015
   9 C :    0.100078
  10 C :    0.096240
  11 C :   -0.086434
  12 C :   -0.020782
  13 C :    0.034914
  14 C :    0.034514
  15 C :   -0.020298
  16 C :    0.158999
  17 O :   -0.211111
  18 C :   -0.116466
  19 C :   -0.025498
  20 C :   -0.079086
  21 S :    0.181355
  22 C :   -0.070031
  23 C :    0.105085
  24 C :    0.131663
  25 C :   -0.087381
  26 C :   -0.037357
  27 C :    0.086916
  28 C :   -0.000527
  29 C :   -0.029023
  30 C :    0.071975
  31 N :   -0.042622
  32 C :    0.125235
  33 C :   -0.161853
  34 C :    0.097367
  35 N :   -0.031684
  36 C :    0.112006
  37 C :   -0.163766
  38 C :    0.004894
  39 C :    0.021984
  40 C :   -0.103318
  41 S :    0.185509
  42 C :   -0.144601
  43 C :    0.140491
  44 C :    0.109934
  45 C :   -0.088861
  46 C :   -0.036689
  47 C :    0.088215
  48 C :   -0.006806
  49 C :    0.021346
  50 C :    0.027494
  51 C :   -0.137376
  52 C :    0.311798
  53 C :   -0.353537
  54 C :   -0.182142
  55 N :    0.134818
  56 C :   -0.212036
  57 N :    0.150526
  58 C :    0.050327
  59 C :   -0.001302
  60 C :    0.124085
  61 O :   -0.155417
  62 C :   -0.090576
  63 C :    0.098819
  64 C :    0.096373
  65 C :   -0.089734
  66 C :   -0.020639
  67 C :    0.033531
  68 C :    0.035219
  69 C :   -0.018329
  70 H :   -0.021674
  71 H :   -0.012206
  72 H :   -0.011114
  73 H :   -0.008930
  74 H :   -0.009169
  75 H :   -0.022349
  76 H :   -0.020320
  77 H :   -0.010757
  78 H :    0.029244
  79 H :    0.031206
  80 H :    0.030306
  81 H :   -0.028281
  82 H :   -0.033701
  83 H :    0.138325
  84 H :   -0.022760
  85 H :    0.125707
  86 H :   -0.023417
  87 H :   -0.011337
  88 H :   -0.005441
  89 H :   -0.042213
  90 H :    0.029967
  91 H :    0.032432
  92 H :    0.005239
  93 H :   -0.023982
  94 H :   -0.015589
  95 H :    0.024624
  96 H :   -0.021466
  97 H :   -0.011650
  98 H :   -0.012148
  99 H :   -0.007933
 100 H :   -0.009971
 101 H :   -0.022731
Sum of atomic charges:   -0.0000000

LOEWDIN ATOMIC CHARGES
----------------------
   0 C :    0.078750
   1 C :   -0.163497
   2 C :   -0.018804
   3 N :   -0.070114
   4 C :   -0.015346
   5 N :   -0.076916
   6 C :   -0.022943
   7 C :   -0.051792
   8 C :    0.024350
   9 C :   -0.010566
  10 C :   -0.008211
  11 C :    0.016238
  12 C :   -0.006299
  13 C :   -0.017323
  14 C :   -0.016321
  15 C :   -0.012447
  16 C :    0.081921
  17 O :   -0.196500
  18 C :   -0.129472
  19 C :    0.046159
  20 C :   -0.198099
  21 S :    0.523291
  22 C :   -0.142673
  23 C :   -0.058932
  24 C :   -0.005361
  25 C :   -0.026910
  26 C :   -0.001970
  27 C :   -0.042911
  28 C :   -0.025994
  29 C :   -0.007080
  30 C :   -0.015741
  31 N :    0.071535
  32 C :   -0.004619
  33 C :   -0.083067
  34 C :    0.003736
  35 N :    0.072158
  36 C :   -0.016561
  37 C :   -0.077400
  38 C :   -0.014945
  39 C :   -0.049203
  40 C :   -0.134817
  41 S :    0.491815
  42 C :   -0.185548
  43 C :   -0.010568
  44 C :   -0.045575
  45 C :   -0.031295
  46 C :   -0.020216
  47 C :   -0.044078
  48 C :   -0.006927
  49 C :    0.009192
  50 C :    0.039338
  51 C :   -0.119682
  52 C :    0.074348
  53 C :   -0.154425
  54 C :   -0.018132
  55 N :   -0.066448
  56 C :   -0.025355
  57 N :   -0.064739
  58 C :   -0.024824
  59 C :   -0.051588
  60 C :    0.070496
  61 O :   -0.152683
  62 C :    0.022984
  63 C :   -0.009974
  64 C :   -0.008696
  65 C :    0.015518
  66 C :   -0.006552
  67 C :   -0.018012
  68 C :   -0.016534
  69 C :   -0.012704
  70 H :    0.035471
  71 H :    0.038279
  72 H :    0.033960
  73 H :    0.031569
  74 H :    0.031047
  75 H :    0.029760
  76 H :    0.046750
  77 H :    0.033275
  78 H :    0.037577
  79 H :    0.037565
  80 H :    0.038475
  81 H :    0.027801
  82 H :    0.027001
  83 H :    0.085930
  84 H :    0.028020
  85 H :    0.091599
  86 H :    0.027394
  87 H :    0.032032
  88 H :    0.032137
  89 H :    0.022754
  90 H :    0.036441
  91 H :    0.037861
  92 H :    0.027365
  93 H :    0.029722
  94 H :    0.032672
  95 H :    0.043457
  96 H :    0.035692
  97 H :    0.038066
  98 H :    0.033736
  99 H :    0.031571
 100 H :    0.030812
 101 H :    0.029773

  Mayer bond orders larger than 0.100000
B(  0-C ,  1-C ) :   1.5765 B(  0-C ,  6-C ) :   0.9727 B(  0-C , 18-C ) :   1.1234
B(  1-C ,  2-C ) :   1.1550 B(  1-C ,  4-C ) :   1.1559 B(  2-C ,  3-N ) :   2.9565
B(  4-C ,  5-N ) :   2.9685 B(  6-C ,  7-C ) :   1.2160 B(  6-C , 11-C ) :   1.4682
B(  7-C ,  8-C ) :   1.4755 B(  7-C , 16-C ) :   0.9595 B(  8-C ,  9-C ) :   1.1679
B(  8-C , 70-H ) :   1.0166 B(  9-C , 10-C ) :   1.2640 B(  9-C , 15-C ) :   1.2465
B( 10-C , 11-C ) :   1.1894 B( 10-C , 12-C ) :   1.2467 B( 11-C , 71-H ) :   0.9900
B( 12-C , 13-C ) :   1.4814 B( 12-C , 72-H ) :   0.9974 B( 13-C , 14-C ) :   1.2647
B( 13-C , 73-H ) :   0.9888 B( 14-C , 15-C ) :   1.4834 B( 14-C , 74-H ) :   0.9893
B( 15-C , 75-H ) :   0.9975 B( 16-C , 17-O ) :   2.0911 B( 16-C , 18-C ) :   1.0043
B( 18-C , 19-C ) :   1.3969 B( 19-C , 20-C ) :   1.3938 B( 19-C , 76-H ) :   0.9315
B( 20-C , 21-S ) :   1.0666 B( 20-C , 24-C ) :   1.1875 B( 21-S , 22-C ) :   1.1523
B( 22-C , 23-C ) :   1.2777 B( 22-C , 30-C ) :   1.1303 B( 23-C , 24-C ) :   1.2557
B( 23-C , 29-C ) :   1.2202 B( 24-C , 25-C ) :   1.2457 B( 25-C , 26-C ) :   1.4974
B( 25-C , 77-H ) :   0.9853 B( 26-C , 27-C ) :   1.0498 B( 26-C , 28-C ) :   1.2523
B( 27-C , 78-H ) :   0.9545 B( 27-C , 79-H ) :   0.9615 B( 27-C , 80-H ) :   0.9527
B( 28-C , 29-C ) :   1.5111 B( 28-C , 81-H ) :   0.9898 B( 29-C , 82-H ) :   0.9909
B( 30-C , 31-N ) :   1.1945 B( 30-C , 37-C ) :   1.3733 B( 31-N , 32-C ) :   1.1797
B( 31-N , 83-H ) :   0.9245 B( 32-C , 33-C ) :   1.2768 B( 32-C , 36-C ) :   1.2864
B( 33-C , 34-C ) :   1.3805 B( 33-C , 84-H ) :   1.0311 B( 34-C , 35-N ) :   1.1677
B( 34-C , 38-C ) :   1.1424 B( 35-N , 36-C ) :   1.1688 B( 35-N , 85-H ) :   0.9351
B( 36-C , 37-C ) :   1.2791 B( 37-C , 86-H ) :   1.0283 B( 38-C , 39-C ) :   1.6344
B( 38-C , 87-H ) :   0.9596 B( 39-C , 40-C ) :   1.1652 B( 39-C , 88-H ) :   0.9536
B( 40-C , 41-S ) :   1.1977 B( 40-C , 44-C ) :   1.2622 B( 41-S , 42-C ) :   1.0970
B( 42-C , 43-C ) :   1.2616 B( 42-C , 50-C ) :   1.2913 B( 43-C , 44-C ) :   1.2600
B( 43-C , 49-C ) :   1.2364 B( 44-C , 45-C ) :   1.2037 B( 45-C , 46-C ) :   1.5203
B( 45-C , 89-H ) :   0.9870 B( 46-C , 47-C ) :   1.0499 B( 46-C , 48-C ) :   1.2426
B( 47-C , 90-H ) :   0.9563 B( 47-C , 91-H ) :   0.9543 B( 47-C , 92-H ) :   0.9613
B( 48-C , 49-C ) :   1.5207 B( 48-C , 93-H ) :   0.9918 B( 49-C , 94-H ) :   0.9830
B( 50-C , 51-C ) :   1.4814 B( 50-C , 95-H ) :   0.9314 B( 51-C , 52-C ) :   1.1066
B( 51-C , 60-C ) :   0.9721 B( 52-C , 53-C ) :   1.6060 B( 52-C , 58-C ) :   0.9823
B( 53-C , 54-C ) :   1.1484 B( 53-C , 56-C ) :   1.1475 B( 54-C , 55-N ) :   2.9595
B( 56-C , 57-N ) :   2.9923 B( 58-C , 59-C ) :   1.2165 B( 58-C , 65-C ) :   1.4585
B( 59-C , 60-C ) :   0.9288 B( 59-C , 62-C ) :   1.4827 B( 60-C , 61-O ) :   2.2082
B( 62-C , 63-C ) :   1.1677 B( 62-C , 96-H ) :   1.0161 B( 63-C , 64-C ) :   1.2652
B( 63-C , 69-C ) :   1.2478 B( 64-C , 65-C ) :   1.1947 B( 64-C , 66-C ) :   1.2427
B( 65-C , 97-H ) :   0.9900 B( 66-C , 67-C ) :   1.4867 B( 66-C , 98-H ) :   0.9966
B( 67-C , 68-C ) :   1.2647 B( 67-C , 99-H ) :   0.9877 B( 68-C , 69-C ) :   1.4853
B( 68-C ,100-H ) :   0.9880 B( 69-C ,101-H ) :   0.9966

-----------------------------------------------------------------------------
         ABSORPTION SPECTRUM VIA TRANSITION ELECTRIC DIPOLE MOMENTS
-----------------------------------------------------------------------------
State   Energy  Wavelength   fosc         T2         TX        TY        TZ
        (cm-1)    (nm)                  (au**2)     (au)      (au)      (au)
-----------------------------------------------------------------------------
   0   12063.7    828.9   2.405680740  65.64996  -3.69920  -7.09040   1.30081
   1   17303.6    577.9   0.272698285   5.18826   1.73603  -1.12824  -0.94949
   2   20206.6    494.9   0.028516014   0.46459   0.64529   0.11873  -0.18465
   3   23274.8    429.6   0.025324624   0.35821   0.53105   0.04813   0.27180
   4   23758.1    420.9   0.008500373   0.11779   0.15201  -0.10863   0.28789
   5   24014.7    416.4   0.126658417   1.73633  -0.28940  -0.20940   1.26836
   6   24805.6    403.1   0.058300955   0.77375   0.31965  -0.37213  -0.73014
   7   25967.9    385.1   0.106487905   1.35002  -0.03053   0.87781   0.76061
   8   26523.8    377.0   0.086361407   1.07191   0.48062  -0.29741  -0.86745
   9   26810.5    373.0   0.079937387   0.98157   0.40185  -0.49649  -0.75735
  10   27657.4    361.6   0.088328587   1.05139   0.49553  -0.04138  -0.89673
  11   28023.8    356.8   0.013648804   0.16034   0.25371  -0.01197  -0.30956
  12   28321.5    353.1   0.018624397   0.21649  -0.07224   0.09721   0.44925
  13   28884.6    346.2   0.018369342   0.20936   0.36784  -0.21339   0.16888
  14   28946.8    345.5   0.089625512   1.01931   0.57568  -0.22439  -0.79847
  15   29514.7    338.8   0.006554401   0.07311   0.13033  -0.23679  -0.00721
  16   30792.0    324.8   0.104870198   1.12122   1.00288  -0.18521   0.28486
  17   31146.6    321.1   0.013806766   0.14593  -0.22903  -0.01369   0.30544
  18   31445.5    318.0   0.068607323   0.71827  -0.26610   0.56806   0.56988
  19   31846.2    314.0   0.040884313   0.42264   0.53459  -0.16625  -0.33047
  20   32356.4    309.1   0.019804514   0.20150   0.19311   0.38281  -0.13292
  21   32421.2    308.4   0.368575191   3.74260   0.94171  -0.27908  -1.66670
  22   32837.9    304.5   0.214001737   2.14544   0.47462  -0.83516  -1.10575
  23   33000.8    303.0   0.057076572   0.56939  -0.58701   0.02953   0.47322
  24   33154.6    301.6   0.052377900   0.52009   0.51886   0.43616   0.24626
  25   33565.9    297.9   0.150260945   1.47375   0.10809   1.10435   0.49242
  26   33720.8    296.6   0.108787426   1.06208  -0.39871  -0.87863   0.36210
  27   33895.5    295.0   0.545568890   5.29886  -0.06561  -2.17854  -0.74064
  28   34547.4    289.5   0.320359787   3.05280  -1.00106   0.62002   1.29083
  29   34918.2    286.4   0.025495892   0.24038   0.20568  -0.08830  -0.43620
  30   35402.1    282.5   0.054038817   0.50252  -0.51335   0.14418   0.46712
  31   35741.8    279.8   0.011490484   0.10584   0.28152  -0.02356  -0.16134
  32   35931.9    278.3   0.040299514   0.36923   0.10791   0.59211   0.08361
  33   36355.5    275.1   0.092133072   0.83430  -0.83384   0.30618   0.21276
  34   36858.2    271.3   0.035670083   0.31860   0.51152  -0.16143  -0.17574
  35   37114.1    269.4   0.094234158   0.83588  -0.48202   0.35756   0.68970
  36   37536.0    266.4   0.062766574   0.55050   0.43560  -0.52228  -0.29660
  37   37736.4    265.0   0.216025119   1.88460  -1.02343   0.18362   0.89637
  38   38269.3    261.3   0.256004083   2.20228  -0.98182  -0.23145   1.08846
  39   39027.6    256.2   0.055325320   0.46669  -0.37159  -0.50868   0.26431
  40   39485.3    253.3   0.008250671   0.06879  -0.20816   0.01560   0.15880
  41   39635.2    252.3   0.044035081   0.36576  -0.39486   0.45808  -0.00203
  42   39830.4    251.1   0.057400587   0.47444   0.14950  -0.58389  -0.33341
  43   40016.2    249.9   0.026236044   0.21584  -0.11654   0.36405   0.26406
  44   40109.1    249.3   0.196767465   1.61505   0.32542  -1.07777  -0.58954
  45   40226.8    248.6   0.065769499   0.53825   0.46176   0.56185  -0.09670

FINAL SINGLE POINT ENERGY     -3577.148651595316

DIPOLE MOMENT
-------------
                                X             Y             Z
Electronic contribution:     20.79339     -16.62924      -7.16364
Nuclear contribution   :    -22.61809      19.14417       8.04174
                        -----------------------------------------
Total Dipole Moment    :     -1.82470       2.51493       0.87809
                        -----------------------------------------
Magnitude (a.u.)       :      3.22884
Magnitude (Debye)      :      8.20707

Rotational constants in cm-1:     0.001930     0.000222     0.000205
Rotational constants in MHz :    57.861671     6.653320     6.146134

                             ****ORCA TERMINATED NORMALLY****
TOTAL RUN TIME: 0 days 0 hours 12 minutes 28 seconds 819 msec
