                         Program Version 4.2.0 -  RELEASE  -
|  1> # ORCA input file
|  2> # SCF done       -211.059094976996          0.000637382324
|  3> ! CAM-B3LYP def2-SVP def2/J RIJCOSX Grid4 TightSCF
|  4> %maxcore 5000
|  5> %tddft
|  6>     Mode sTDDFT
|  7>     Ethresh 5.0
|  8>     maxcore 5000
|  9> end
| 10>
| 11> %pal
| 12>   nprocs 6
| 13>   end
| 14> * xyz 0 1
| 15>    C        1.05922         0.25001        -1.60470
| 16>    C        2.37113         0.08964        -1.94578
| 17>    C        3.02460        -1.16130        -2.01102
| 18>    N        3.60936        -2.14611        -2.07507
| 19>    C        3.25134         1.14061        -2.28739
| 20>    N        4.01372         1.94134        -2.59394
| 21>    C        0.11130        -0.80789        -1.28674
| 22>    C       -1.15353        -0.22616        -0.97277
| 23>    C       -2.24114        -0.99102        -0.65474
| 24>    C       -2.11447        -2.39660        -0.63859
| 25>    C       -0.85437        -2.98657        -0.95130
| 26>    C        0.25386        -2.17162        -1.27350
| 27>    C       -0.74098        -4.39197        -0.93739
| 28>    C       -1.81856        -5.17780        -0.63127
| 29>    C       -3.05801        -4.59606        -0.32326
| 30>    C       -3.20294        -3.23529        -0.32612
| 31>    C       -1.06156         1.23123        -1.07279
| 32>    O       -1.92455         2.05537        -0.85519
| 33>    C        0.34011         1.51658        -1.51034
| 34>    C        0.77830         2.75692        -1.77769
| 35>    C       -0.07462         3.93713        -1.68234
| 36>    C        0.19118         4.93871        -0.74790
| 37>    C        1.29418         4.81630         0.22247
| 38>    O        2.01418         3.87380         0.37356
| 39>    S        1.38582         6.32357         1.17325
| 40>    C       -0.00585         7.08282         0.30836
| 41>    O       -0.32997         8.21222         0.50741
| 42>    C       -0.56332         6.10617        -0.65113
| 43>    C       -1.69907         6.30974        -1.45210
| 44>    C       -1.99762         5.27643        -2.36274
| 45>    C       -1.18744         4.15559        -2.50187
| 46>    C       -1.61944         3.20262        -3.55005
| 47>    O       -1.04469         2.22933        -3.93715
| 48>    S       -3.18635         3.74465        -4.20593
| 49>    C       -3.23808         5.21111        -3.16508
| 50>    O       -4.18127         5.93972        -3.13615
| 51>    C       -2.49798         7.50802        -1.34324
| 52>    S       -2.97082         8.44812        -2.74310
| 53>    C       -3.79489         9.65935        -1.78242
| 54>    C       -3.68672         9.31990        -0.46530
| 55>    C       -2.94691         8.14000        -0.22024
| 56>    O       -2.92104         7.89060         1.10560
| 57>    C       -3.61948         8.96679         1.71022
| 58>    O       -4.07266         9.86229         0.70868
| 59>    C       -4.53344        10.74287        -2.38741
| 60>    C       -5.84995        11.04231        -1.99863
| 61>    C       -6.64873        10.28194        -1.01409
| 62>    O       -6.39000         9.25722        -0.46333
| 63>    S       -8.23230        11.11680        -0.77498
| 64>    C       -7.89171        12.35018        -2.01777
| 65>    O       -8.63530        13.23804        -2.31525
| 66>    C       -6.55826        12.08707        -2.58872
| 67>    C       -6.05233        12.85058        -3.64141
| 68>    C       -4.74999        12.53580        -4.04408
| 69>    C       -4.00125        11.54950        -3.41284
| 70>    C       -2.58727        11.51316        -3.84409
| 71>    O       -1.68717        10.88065        -3.38477
| 72>    S       -2.35580        12.68284        -5.19109
| 73>    C       -4.04918        13.24194        -5.14075
| 74>    O       -4.49962        14.04713        -5.89966
| 75>    C       -6.86544        13.88695        -4.26936
| 76>    C       -6.55510        15.19165        -4.21954
| 77>    C       -7.24672        16.32249        -4.82993
| 78>    C       -8.40702        16.26784        -5.54680
| 79>    C       -9.04275        17.39643        -6.11089
| 80>    N       -9.60455        18.27544        -6.58804
| 81>    C       -9.12636        15.08535        -5.83011
| 82>    N       -9.74889        14.16455        -6.11480
| 83>    C       -6.45937        17.51287        -4.54434
| 84>    C       -5.32703        17.14911        -3.75528
| 85>    C       -5.34937        15.70763        -3.50070
| 86>    O       -4.56818        15.04590        -2.85041
| 87>    C       -4.40114        18.07123        -3.35357
| 88>    C       -4.56473        19.42172        -3.72987
| 89>    C       -5.69304        19.79393        -4.51854
| 90>    C       -6.63570        18.82036        -4.91791
| 91>    C       -5.84397        21.14511        -4.89234
| 92>    C       -4.92592        22.08406        -4.50775
| 93>    C       -3.81614        21.71673        -3.73126
| 94>    C       -3.63938        20.41433        -3.35013
| 95>    H       -3.18807        -0.52593        -0.42374
| 96>    H        1.19212        -2.64862        -1.50842
| 97>    H        0.21459        -4.83536        -1.17532
| 98>    H       -1.72239        -6.25303        -0.62545
| 99>    H       -3.89719        -5.23190        -0.08461
|100>    H       -4.15446        -2.78183        -0.09056
|101>    H        1.80670         2.94329        -2.05772
|102>    H       -4.48476         8.57296         2.26354
|103>    H       -2.94428         9.49887         2.39590
|104>    H       -7.76180        13.53974        -4.76627
|105>    H       -3.55158        17.76987        -2.75879
|106>    H       -7.47632        19.13336        -5.51659
|107>    H       -6.69942        21.42305        -5.49007
|108>    H       -5.04925        23.11588        -4.80024
|109>    H       -3.10200        22.47112        -3.43734
|110>    H       -2.78698        20.12563        -2.75300
|111> *
|112>
|113>                          ****END OF INPUT****

CARTESIAN COORDINATES (ANGSTROEM)
---------------------------------
  C      1.059220    0.250010   -1.604700
  C      2.371130    0.089640   -1.945780
  C      3.024600   -1.161300   -2.011020
  N      3.609360   -2.146110   -2.075070
  C      3.251340    1.140610   -2.287390
  N      4.013720    1.941340   -2.593940
  C      0.111300   -0.807890   -1.286740
  C     -1.153530   -0.226160   -0.972770
  C     -2.241140   -0.991020   -0.654740
  C     -2.114470   -2.396600   -0.638590
  C     -0.854370   -2.986570   -0.951300
  C      0.253860   -2.171620   -1.273500
  C     -0.740980   -4.391970   -0.937390
  C     -1.818560   -5.177800   -0.631270
  C     -3.058010   -4.596060   -0.323260
  C     -3.202940   -3.235290   -0.326120
  C     -1.061560    1.231230   -1.072790
  O     -1.924550    2.055370   -0.855190
  C      0.340110    1.516580   -1.510340
  C      0.778300    2.756920   -1.777690
  C     -0.074620    3.937130   -1.682340
  C      0.191180    4.938710   -0.747900
  C      1.294180    4.816300    0.222470
  O      2.014180    3.873800    0.373560
  S      1.385820    6.323570    1.173250
  C     -0.005850    7.082820    0.308360
  O     -0.329970    8.212220    0.507410
  C     -0.563320    6.106170   -0.651130
  C     -1.699070    6.309740   -1.452100
  C     -1.997620    5.276430   -2.362740
  C     -1.187440    4.155590   -2.501870
  C     -1.619440    3.202620   -3.550050
  O     -1.044690    2.229330   -3.937150
  S     -3.186350    3.744650   -4.205930
  C     -3.238080    5.211110   -3.165080
  O     -4.181270    5.939720   -3.136150
  C     -2.497980    7.508020   -1.343240
  S     -2.970820    8.448120   -2.743100
  C     -3.794890    9.659350   -1.782420
  C     -3.686720    9.319900   -0.465300
  C     -2.946910    8.140000   -0.220240
  O     -2.921040    7.890600    1.105600
  C     -3.619480    8.966790    1.710220
  O     -4.072660    9.862290    0.708680
  C     -4.533440   10.742870   -2.387410
  C     -5.849950   11.042310   -1.998630
  C     -6.648730   10.281940   -1.014090
  O     -6.390000    9.257220   -0.463330
  S     -8.232300   11.116800   -0.774980
  C     -7.891710   12.350180   -2.017770
  O     -8.635300   13.238040   -2.315250
  C     -6.558260   12.087070   -2.588720
  C     -6.052330   12.850580   -3.641410
  C     -4.749990   12.535800   -4.044080
  C     -4.001250   11.549500   -3.412840
  C     -2.587270   11.513160   -3.844090
  O     -1.687170   10.880650   -3.384770
  S     -2.355800   12.682840   -5.191090
  C     -4.049180   13.241940   -5.140750
  O     -4.499620   14.047130   -5.899660
  C     -6.865440   13.886950   -4.269360
  C     -6.555100   15.191650   -4.219540
  C     -7.246720   16.322490   -4.829930
  C     -8.407020   16.267840   -5.546800
  C     -9.042750   17.396430   -6.110890
  N     -9.604550   18.275440   -6.588040
  C     -9.126360   15.085350   -5.830110
  N     -9.748890   14.164550   -6.114800
  C     -6.459370   17.512870   -4.544340
  C     -5.327030   17.149110   -3.755280
  C     -5.349370   15.707630   -3.500700
  O     -4.568180   15.045900   -2.850410
  C     -4.401140   18.071230   -3.353570
  C     -4.564730   19.421720   -3.729870
  C     -5.693040   19.793930   -4.518540
  C     -6.635700   18.820360   -4.917910
  C     -5.843970   21.145110   -4.892340
  C     -4.925920   22.084060   -4.507750
  C     -3.816140   21.716730   -3.731260
  C     -3.639380   20.414330   -3.350130
  H     -3.188070   -0.525930   -0.423740
  H      1.192120   -2.648620   -1.508420
  H      0.214590   -4.835360   -1.175320
  H     -1.722390   -6.253030   -0.625450
  H     -3.897190   -5.231900   -0.084610
  H     -4.154460   -2.781830   -0.090560
  H      1.806700    2.943290   -2.057720
  H     -4.484760    8.572960    2.263540
  H     -2.944280    9.498870    2.395900
  H     -7.761800   13.539740   -4.766270
  H     -3.551580   17.769870   -2.758790
  H     -7.476320   19.133360   -5.516590
  H     -6.699420   21.423050   -5.490070
  H     -5.049250   23.115880   -4.800240
  H     -3.102000   22.471120   -3.437340
  H     -2.786980   20.125630   -2.753000

 Total Charge           Charge          ....    0
 Multiplicity           Mult            ....    1
 Number of Electrons    NEL             ....  574
 Basis Dimension        Dim             .... 1220

ORBITAL ENERGIES
----------------

  NO   OCC          E(Eh)            E(eV)
   0   2.0000     -88.960630     -2420.7418
   1   2.0000     -88.957922     -2420.6681
   2   2.0000     -88.957455     -2420.6554
   3   2.0000     -88.956639     -2420.6332
   4   2.0000     -88.956576     -2420.6315
   5   2.0000     -19.281403      -524.6736
   6   2.0000     -19.281276      -524.6702
   7   2.0000     -19.251695      -523.8652
   8   2.0000     -19.251668      -523.8645
   9   2.0000     -19.249899      -523.8164
  10   2.0000     -19.249516      -523.8060
  11   2.0000     -19.248578      -523.7804
  12   2.0000     -19.248378      -523.7750
  13   2.0000     -19.247793      -523.7591
  14   2.0000     -19.247743      -523.7577
  15   2.0000     -19.228568      -523.2359
  16   2.0000     -19.228487      -523.2337
  17   2.0000     -14.421664      -392.4334
  18   2.0000     -14.421659      -392.4333
  19   2.0000     -14.421557      -392.4305
  20   2.0000     -14.421547      -392.4302
  21   2.0000     -10.412618      -283.3417
  22   2.0000     -10.412149      -283.3290
  23   2.0000     -10.412000      -283.3249
  24   2.0000     -10.411962      -283.3239
  25   2.0000     -10.411871      -283.3214
  26   2.0000     -10.411835      -283.3204
  27   2.0000     -10.410927      -283.2957
  28   2.0000     -10.410798      -283.2922
  29   2.0000     -10.401551      -283.0406
  30   2.0000     -10.378309      -282.4082
  31   2.0000     -10.378068      -282.4016
  32   2.0000     -10.352010      -281.6925
  33   2.0000     -10.351711      -281.6844
  34   2.0000     -10.351354      -281.6747
  35   2.0000     -10.351324      -281.6738
  36   2.0000     -10.349244      -281.6173
  37   2.0000     -10.349043      -281.6118
  38   2.0000     -10.347026      -281.5569
  39   2.0000     -10.347026      -281.5569
  40   2.0000     -10.343176      -281.4521
  41   2.0000     -10.343001      -281.4474
  42   2.0000     -10.337091      -281.2865
  43   2.0000     -10.337028      -281.2848
  44   2.0000     -10.334935      -281.2279
  45   2.0000     -10.334585      -281.2183
  46   2.0000     -10.334463      -281.2150
  47   2.0000     -10.334364      -281.2123
  48   2.0000     -10.333987      -281.2021
  49   2.0000     -10.333878      -281.1991
  50   2.0000     -10.329523      -281.0806
  51   2.0000     -10.329466      -281.0791
  52   2.0000     -10.323507      -280.9169
  53   2.0000     -10.323486      -280.9163
  54   2.0000     -10.323348      -280.9126
  55   2.0000     -10.323340      -280.9124
  56   2.0000     -10.319699      -280.8133
  57   2.0000     -10.319613      -280.8110
  58   2.0000     -10.310615      -280.5661
  59   2.0000     -10.310552      -280.5644
  60   2.0000     -10.309597      -280.5384
  61   2.0000     -10.309388      -280.5327
  62   2.0000     -10.305341      -280.4226
  63   2.0000     -10.305270      -280.4207
  64   2.0000     -10.304743      -280.4063
  65   2.0000     -10.304704      -280.4053
  66   2.0000     -10.304415      -280.3974
  67   2.0000     -10.304386      -280.3966
  68   2.0000     -10.303430      -280.3706
  69   2.0000     -10.303331      -280.3679
  70   2.0000     -10.296759      -280.1890
  71   2.0000     -10.296732      -280.1883
  72   2.0000     -10.292636      -280.0769
  73   2.0000     -10.292583      -280.0754
  74   2.0000     -10.292181      -280.0645
  75   2.0000     -10.292145      -280.0635
  76   2.0000     -10.291897      -280.0567
  77   2.0000     -10.291875      -280.0562
  78   2.0000     -10.291286      -280.0401
  79   2.0000     -10.291222      -280.0384
  80   2.0000      -8.057040      -219.2432
  81   2.0000      -8.056704      -219.2341
  82   2.0000      -8.055930      -219.2130
  83   2.0000      -8.055885      -219.2118
  84   2.0000      -8.055469      -219.2004
  85   2.0000      -6.025931      -163.9739
  86   2.0000      -6.025586      -163.9645
  87   2.0000      -6.025489      -163.9619
  88   2.0000      -6.024779      -163.9426
  89   2.0000      -6.024718      -163.9409
  90   2.0000      -6.022636      -163.8843
  91   2.0000      -6.022297      -163.8750
  92   2.0000      -6.021487      -163.8530
  93   2.0000      -6.021445      -163.8518
  94   2.0000      -6.021263      -163.8469
  95   2.0000      -6.018090      -163.7605
  96   2.0000      -6.017715      -163.7503
  97   2.0000      -6.017013      -163.7312
  98   2.0000      -6.016979      -163.7303
  99   2.0000      -6.016058      -163.7053
 100   2.0000      -1.240402       -33.7530
 101   2.0000      -1.176412       -32.0118
 102   2.0000      -1.176040       -32.0017
 103   2.0000      -1.174923       -31.9713
 104   2.0000      -1.174814       -31.9683
 105   2.0000      -1.172366       -31.9017
 106   2.0000      -1.171829       -31.8871
 107   2.0000      -1.170917       -31.8623
 108   2.0000      -1.170812       -31.8594
 109   2.0000      -1.143771       -31.1236
 110   2.0000      -1.143582       -31.1184
 111   2.0000      -1.142804       -31.0973
 112   2.0000      -1.031547       -28.0698
 113   2.0000      -1.029627       -28.0176
 114   2.0000      -1.024263       -27.8716
 115   2.0000      -1.024123       -27.8678
 116   2.0000      -1.005101       -27.3502
 117   2.0000      -1.005050       -27.3488
 118   2.0000      -0.999946       -27.2099
 119   2.0000      -0.999898       -27.2086
 120   2.0000      -0.996857       -27.1259
 121   2.0000      -0.978505       -26.6265
 122   2.0000      -0.978212       -26.6185
 123   2.0000      -0.973526       -26.4910
 124   2.0000      -0.973275       -26.4842
 125   2.0000      -0.946674       -25.7603
 126   2.0000      -0.941514       -25.6199
 127   2.0000      -0.930595       -25.3228
 128   2.0000      -0.926688       -25.2165
 129   2.0000      -0.926047       -25.1990
 130   2.0000      -0.916053       -24.9271
 131   2.0000      -0.900079       -24.4924
 132   2.0000      -0.898367       -24.4458
 133   2.0000      -0.887844       -24.1595
 134   2.0000      -0.887732       -24.1564
 135   2.0000      -0.869597       -23.6629
 136   2.0000      -0.865418       -23.5492
 137   2.0000      -0.860573       -23.4174
 138   2.0000      -0.859132       -23.3782
 139   2.0000      -0.854277       -23.2461
 140   2.0000      -0.835304       -22.7298
 141   2.0000      -0.835204       -22.7271
 142   2.0000      -0.833794       -22.6887
 143   2.0000      -0.806700       -21.9514
 144   2.0000      -0.804827       -21.9004
 145   2.0000      -0.804034       -21.8789
 146   2.0000      -0.797974       -21.7140
 147   2.0000      -0.771090       -20.9824
 148   2.0000      -0.769483       -20.9387
 149   2.0000      -0.769371       -20.9356
 150   2.0000      -0.765945       -20.8424
 151   2.0000      -0.758543       -20.6410
 152   2.0000      -0.734979       -19.9998
 153   2.0000      -0.731432       -19.9033
 154   2.0000      -0.730728       -19.8841
 155   2.0000      -0.722484       -19.6598
 156   2.0000      -0.711249       -19.3541
 157   2.0000      -0.711143       -19.3512
 158   2.0000      -0.706387       -19.2218
 159   2.0000      -0.705683       -19.2026
 160   2.0000      -0.696950       -18.9650
 161   2.0000      -0.695534       -18.9264
 162   2.0000      -0.682724       -18.5779
 163   2.0000      -0.682255       -18.5651
 164   2.0000      -0.669518       -18.2185
 165   2.0000      -0.666447       -18.1349
 166   2.0000      -0.660507       -17.9733
 167   2.0000      -0.659570       -17.9478
 168   2.0000      -0.647268       -17.6130
 169   2.0000      -0.645521       -17.5655
 170   2.0000      -0.636755       -17.3270
 171   2.0000      -0.636566       -17.3218
 172   2.0000      -0.632871       -17.2213
 173   2.0000      -0.631149       -17.1744
 174   2.0000      -0.623894       -16.9770
 175   2.0000      -0.620314       -16.8796
 176   2.0000      -0.619871       -16.8676
 177   2.0000      -0.616538       -16.7768
 178   2.0000      -0.614030       -16.7086
 179   2.0000      -0.613411       -16.6918
 180   2.0000      -0.613336       -16.6897
 181   2.0000      -0.603674       -16.4268
 182   2.0000      -0.598158       -16.2767
 183   2.0000      -0.587355       -15.9827
 184   2.0000      -0.586009       -15.9461
 185   2.0000      -0.577014       -15.7014
 186   2.0000      -0.574445       -15.6314
 187   2.0000      -0.572033       -15.5658
 188   2.0000      -0.564467       -15.3599
 189   2.0000      -0.564074       -15.3492
 190   2.0000      -0.562155       -15.2970
 191   2.0000      -0.562001       -15.2928
 192   2.0000      -0.558533       -15.1984
 193   2.0000      -0.556873       -15.1533
 194   2.0000      -0.555556       -15.1175
 195   2.0000      -0.554622       -15.0920
 196   2.0000      -0.552583       -15.0365
 197   2.0000      -0.551994       -15.0205
 198   2.0000      -0.548196       -14.9172
 199   2.0000      -0.547939       -14.9102
 200   2.0000      -0.543967       -14.8021
 201   2.0000      -0.543514       -14.7898
 202   2.0000      -0.542818       -14.7708
 203   2.0000      -0.542535       -14.7631
 204   2.0000      -0.540975       -14.7207
 205   2.0000      -0.540546       -14.7090
 206   2.0000      -0.539784       -14.6883
 207   2.0000      -0.533806       -14.5256
 208   2.0000      -0.532580       -14.4922
 209   2.0000      -0.530789       -14.4435
 210   2.0000      -0.528910       -14.3924
 211   2.0000      -0.528648       -14.3852
 212   2.0000      -0.520988       -14.1768
 213   2.0000      -0.520790       -14.1714
 214   2.0000      -0.519004       -14.1228
 215   2.0000      -0.516790       -14.0626
 216   2.0000      -0.516673       -14.0594
 217   2.0000      -0.516059       -14.0427
 218   2.0000      -0.510350       -13.8873
 219   2.0000      -0.510306       -13.8861
 220   2.0000      -0.508949       -13.8492
 221   2.0000      -0.503235       -13.6937
 222   2.0000      -0.503222       -13.6934
 223   2.0000      -0.501524       -13.6472
 224   2.0000      -0.501462       -13.6455
 225   2.0000      -0.495941       -13.4952
 226   2.0000      -0.491719       -13.3804
 227   2.0000      -0.489798       -13.3281
 228   2.0000      -0.488212       -13.2849
 229   2.0000      -0.484267       -13.1776
 230   2.0000      -0.478278       -13.0146
 231   2.0000      -0.477915       -13.0047
 232   2.0000      -0.477006       -12.9800
 233   2.0000      -0.475976       -12.9520
 234   2.0000      -0.472569       -12.8593
 235   2.0000      -0.470517       -12.8034
 236   2.0000      -0.470011       -12.7897
 237   2.0000      -0.467317       -12.7163
 238   2.0000      -0.459218       -12.4960
 239   2.0000      -0.454112       -12.3570
 240   2.0000      -0.454084       -12.3563
 241   2.0000      -0.449837       -12.2407
 242   2.0000      -0.449830       -12.2405
 243   2.0000      -0.446308       -12.1447
 244   2.0000      -0.446238       -12.1428
 245   2.0000      -0.440121       -11.9763
 246   2.0000      -0.439992       -11.9728
 247   2.0000      -0.439429       -11.9575
 248   2.0000      -0.439355       -11.9555
 249   2.0000      -0.433331       -11.7915
 250   2.0000      -0.432620       -11.7722
 251   2.0000      -0.432218       -11.7612
 252   2.0000      -0.425824       -11.5873
 253   2.0000      -0.425680       -11.5833
 254   2.0000      -0.415386       -11.3032
 255   2.0000      -0.414449       -11.2777
 256   2.0000      -0.413363       -11.2482
 257   2.0000      -0.413276       -11.2458
 258   2.0000      -0.410763       -11.1774
 259   2.0000      -0.391938       -10.6652
 260   2.0000      -0.387438       -10.5427
 261   2.0000      -0.384864       -10.4727
 262   2.0000      -0.382668       -10.4129
 263   2.0000      -0.382480       -10.4078
 264   2.0000      -0.381897       -10.3919
 265   2.0000      -0.380037       -10.3413
 266   2.0000      -0.372795       -10.1443
 267   2.0000      -0.370873       -10.0920
 268   2.0000      -0.369994       -10.0680
 269   2.0000      -0.365222        -9.9382
 270   2.0000      -0.360269        -9.8034
 271   2.0000      -0.358969        -9.7680
 272   2.0000      -0.357514        -9.7284
 273   2.0000      -0.357398        -9.7253
 274   2.0000      -0.350460        -9.5365
 275   2.0000      -0.349421        -9.5082
 276   2.0000      -0.349004        -9.4969
 277   2.0000      -0.342323        -9.3151
 278   2.0000      -0.335866        -9.1394
 279   2.0000      -0.328982        -8.9520
 280   2.0000      -0.328574        -8.9410
 281   2.0000      -0.320275        -8.7151
 282   2.0000      -0.320023        -8.7083
 283   2.0000      -0.299297        -8.1443
 284   2.0000      -0.299177        -8.1410
 285   2.0000      -0.291369        -7.9286
 286   2.0000      -0.278388        -7.5753
 287   0.0000      -0.102748        -2.7959
 288   0.0000      -0.102585        -2.7915
 289   0.0000      -0.098174        -2.6714
 290   0.0000      -0.096195        -2.6176
 291   0.0000      -0.073722        -2.0061

MULLIKEN ATOMIC CHARGES
-----------------------
   0 C :    0.335182
   1 C :   -0.335308
   2 C :   -0.185441
   3 N :    0.154916
   4 C :   -0.185965
   5 N :    0.163048
   6 C :    0.046925
   7 C :   -0.008523
   8 C :   -0.071025
   9 C :    0.097132
  10 C :    0.098020
  11 C :   -0.081920
  12 C :   -0.016830
  13 C :    0.035824
  14 C :    0.038463
  15 C :   -0.013297
  16 C :    0.155001
  17 O :   -0.157519
  18 C :   -0.023324
  19 C :   -0.065318
  20 C :   -0.003528
  21 C :    0.031130
  22 C :    0.051115
  23 O :   -0.123539
  24 S :    0.025674
  25 C :    0.036233
  26 O :   -0.112469
  27 C :    0.041362
  28 C :    0.100795
  29 C :    0.028721
  30 C :    0.072187
  31 C :    0.045813
  32 O :   -0.129713
  33 S :    0.029362
  34 C :    0.029974
  35 O :   -0.105044
  36 C :   -0.299743
  37 S :    0.198953
  38 C :   -0.295454
  39 C :    0.229443
  40 C :    0.232804
  41 O :   -0.287852
  42 C :    0.401438
  43 O :   -0.286427
  44 C :    0.101147
  45 C :    0.038655
  46 C :    0.036575
  47 O :   -0.113307
  48 S :    0.026188
  49 C :    0.051265
  50 O :   -0.124778
  51 C :    0.033148
  52 C :    0.000024
  53 C :    0.067970
  54 C :    0.029807
  55 C :    0.030792
  56 O :   -0.106057
  57 S :    0.028793
  58 C :    0.049014
  59 O :   -0.129911
  60 C :   -0.074529
  61 C :   -0.018718
  62 C :    0.334520
  63 C :   -0.334998
  64 C :   -0.187122
  65 N :    0.159255
  66 C :   -0.185991
  67 N :    0.159904
  68 C :    0.048587
  69 C :   -0.007387
  70 C :    0.156336
  71 O :   -0.157342
  72 C :   -0.073253
  73 C :    0.098966
  74 C :    0.099548
  75 C :   -0.084423
  76 C :   -0.018859
  77 C :    0.040527
  78 C :    0.036715
  79 C :   -0.015182
  80 H :   -0.011603
  81 H :   -0.006694
  82 H :   -0.007285
  83 H :   -0.000369
  84 H :   -0.002032
  85 H :   -0.015680
  86 H :    0.053231
  87 H :    0.046262
  88 H :    0.047243
  89 H :    0.053512
  90 H :   -0.011301
  91 H :   -0.006366
  92 H :   -0.006612
  93 H :   -0.001993
  94 H :   -0.001958
  95 H :   -0.015512
Sum of atomic charges:   -0.0000000

LOEWDIN ATOMIC CHARGES
----------------------
   0 C :    0.078123
   1 C :   -0.120378
   2 C :   -0.015771
   3 N :   -0.044583
   4 C :   -0.016085
   5 N :   -0.039844
   6 C :   -0.022028
   7 C :   -0.057179
   8 C :    0.039101
   9 C :   -0.007665
  10 C :   -0.003126
  11 C :    0.022549
  12 C :   -0.004083
  13 C :   -0.009645
  14 C :   -0.009789
  15 C :   -0.007385
  16 C :    0.090313
  17 O :   -0.146644
  18 C :   -0.059371
  19 C :    0.077641
  20 C :    0.028137
  21 C :   -0.044732
  22 C :   -0.047816
  23 O :   -0.105723
  24 S :    0.311314
  25 C :   -0.038747
  26 O :   -0.096669
  27 C :   -0.050175
  28 C :    0.023815
  29 C :   -0.051947
  30 C :   -0.029371
  31 C :   -0.046521
  32 O :   -0.115504
  33 S :    0.317053
  34 C :   -0.048670
  35 O :   -0.102488
  36 C :   -0.212107
  37 S :    0.470048
  38 C :   -0.211611
  39 C :    0.017746
  40 C :    0.018397
  41 O :   -0.085485
  42 C :    0.210871
  43 O :   -0.085411
  44 C :    0.023764
  45 C :   -0.049840
  46 C :   -0.038192
  47 O :   -0.097043
  48 S :    0.311662
  49 C :   -0.047861
  50 O :   -0.106092
  51 C :   -0.044554
  52 C :    0.028642
  53 C :   -0.029831
  54 C :   -0.052345
  55 C :   -0.048749
  56 O :   -0.102364
  57 S :    0.316487
  58 C :   -0.045578
  59 O :   -0.115156
  60 C :    0.077422
  61 C :   -0.059257
  62 C :    0.078164
  63 C :   -0.120508
  64 C :   -0.016024
  65 N :   -0.044437
  66 C :   -0.015798
  67 N :   -0.040327
  68 C :   -0.022016
  69 C :   -0.057025
  70 C :    0.090258
  71 O :   -0.146531
  72 C :    0.038831
  73 C :   -0.007600
  74 C :   -0.003124
  75 C :    0.022481
  76 C :   -0.004279
  77 C :   -0.009338
  78 C :   -0.009927
  79 C :   -0.007470
  80 H :    0.040156
  81 H :    0.039913
  82 H :    0.035695
  83 H :    0.034781
  84 H :    0.034123
  85 H :    0.032752
  86 H :    0.052670
  87 H :    0.022138
  88 H :    0.022501
  89 H :    0.052836
  90 H :    0.040217
  91 H :    0.039972
  92 H :    0.035829
  93 H :    0.034486
  94 H :    0.034143
  95 H :    0.032788

  Mayer bond orders larger than 0.100000
B(  0-C ,  1-C ) :   1.6757 B(  0-C ,  6-C ) :   1.0015 B(  0-C , 18-C ) :   1.0238
B(  1-C ,  2-C ) :   1.1380 B(  1-C ,  4-C ) :   1.1465 B(  2-C ,  3-N ) :   2.9673
B(  4-C ,  5-N ) :   2.9670 B(  6-C ,  7-C ) :   1.2100 B(  6-C , 11-C ) :   1.4434
B(  7-C ,  8-C ) :   1.4607 B(  7-C , 16-C ) :   0.9561 B(  8-C ,  9-C ) :   1.1865
B(  8-C , 80-H ) :   1.0162 B(  9-C , 10-C ) :   1.2503 B(  9-C , 15-C ) :   1.2414
B( 10-C , 11-C ) :   1.2123 B( 10-C , 12-C ) :   1.2386 B( 11-C , 81-H ) :   0.9889
B( 12-C , 13-C ) :   1.4908 B( 12-C , 82-H ) :   0.9974 B( 13-C , 14-C ) :   1.2566
B( 13-C , 83-H ) :   0.9891 B( 14-C , 15-C ) :   1.4916 B( 14-C , 84-H ) :   0.9885
B( 15-C , 85-H ) :   0.9975 B( 16-C , 17-O ) :   2.2036 B( 16-C , 18-C ) :   0.9183
B( 18-C , 19-C ) :   1.7848 B( 19-C , 20-C ) :   0.9942 B( 19-C , 86-H ) :   0.9060
B( 20-C , 21-C ) :   1.4375 B( 20-C , 30-C ) :   1.3796 B( 21-C , 22-C ) :   0.8461
B( 21-C , 27-C ) :   1.2942 B( 22-C , 23-O ) :   2.1570 B( 22-C , 24-S ) :   1.0422
B( 23-O , 24-S ) :   0.1103 B( 24-S , 25-C ) :   1.0171 B( 24-S , 26-O ) :   0.1049
B( 25-C , 26-O ) :   2.1905 B( 25-C , 27-C ) :   0.8364 B( 27-C , 28-C ) :   1.4123
B( 28-C , 29-C ) :   1.3573 B( 28-C , 36-C ) :   1.0017 B( 29-C , 30-C ) :   1.3412
B( 29-C , 34-C ) :   0.8403 B( 30-C , 31-C ) :   0.8358 B( 31-C , 32-O ) :   2.1747
B( 31-C , 33-S ) :   1.0402 B( 32-O , 33-S ) :   0.1106 B( 33-S , 34-C ) :   1.0172
B( 33-S , 35-O ) :   0.1051 B( 34-C , 35-O ) :   2.1939 B( 36-C , 37-S ) :   1.0927
B( 36-C , 38-C ) :   0.1142 B( 36-C , 40-C ) :   1.5836 B( 37-S , 38-C ) :   1.0910
B( 38-C , 39-C ) :   1.5838 B( 38-C , 44-C ) :   1.0066 B( 39-C , 40-C ) :   1.1971
B( 39-C , 43-O ) :   1.1319 B( 40-C , 41-O ) :   1.1291 B( 41-O , 42-C ) :   0.9735
B( 42-C , 43-O ) :   0.9732 B( 42-C , 87-H ) :   0.9576 B( 42-C , 88-H ) :   0.9583
B( 44-C , 45-C ) :   1.4098 B( 44-C , 54-C ) :   1.3555 B( 45-C , 46-C ) :   0.8349
B( 45-C , 51-C ) :   1.2976 B( 46-C , 47-O ) :   2.1889 B( 46-C , 48-S ) :   1.0182
B( 47-O , 48-S ) :   0.1047 B( 48-S , 49-C ) :   1.0423 B( 48-S , 50-O ) :   0.1103
B( 49-C , 50-O ) :   2.1556 B( 49-C , 51-C ) :   0.8462 B( 51-C , 52-C ) :   1.4345
B( 52-C , 53-C ) :   1.3801 B( 52-C , 60-C ) :   0.9944 B( 53-C , 54-C ) :   1.3419
B( 53-C , 58-C ) :   0.8364 B( 54-C , 55-C ) :   0.8395 B( 55-C , 56-O ) :   2.1930
B( 55-C , 57-S ) :   1.0182 B( 56-O , 57-S ) :   0.1055 B( 57-S , 58-C ) :   1.0391
B( 57-S , 59-O ) :   0.1106 B( 58-C , 59-O ) :   2.1743 B( 60-C , 61-C ) :   1.7845
B( 60-C , 89-H ) :   0.9066 B( 61-C , 62-C ) :   1.0227 B( 61-C , 70-C ) :   0.9193
B( 62-C , 63-C ) :   1.6765 B( 62-C , 68-C ) :   1.0013 B( 63-C , 64-C ) :   1.1372
B( 63-C , 66-C ) :   1.1478 B( 64-C , 65-N ) :   2.9697 B( 66-C , 67-N ) :   2.9651
B( 68-C , 69-C ) :   1.2111 B( 68-C , 75-C ) :   1.4412 B( 69-C , 70-C ) :   0.9553
B( 69-C , 72-C ) :   1.4615 B( 70-C , 71-O ) :   2.2036 B( 72-C , 73-C ) :   1.1845
B( 72-C , 90-H ) :   1.0161 B( 73-C , 74-C ) :   1.2521 B( 73-C , 79-C ) :   1.2418
B( 74-C , 75-C ) :   1.2122 B( 74-C , 76-C ) :   1.2368 B( 75-C , 91-H ) :   0.9893
B( 76-C , 77-C ) :   1.4912 B( 76-C , 92-H ) :   0.9974 B( 77-C , 78-C ) :   1.2583
B( 77-C , 93-H ) :   0.9883 B( 78-C , 79-C ) :   1.4902 B( 78-C , 94-H ) :   0.9885
B( 79-C , 95-H ) :   0.9977

-----------------------------------------------------------------------------
         ABSORPTION SPECTRUM VIA TRANSITION ELECTRIC DIPOLE MOMENTS
-----------------------------------------------------------------------------
State   Energy  Wavelength   fosc         T2         TX        TY        TZ
        (cm-1)    (nm)                  (au**2)     (au)      (au)      (au)
-----------------------------------------------------------------------------
   0   18661.5    535.9   0.004170917   0.07358   0.13835   0.06870  -0.22298
   1   18694.7    534.9   0.005407254   0.09522  -0.20823  -0.18890  -0.12720
   2   21500.7    465.1   0.006944493   0.10633   0.17615   0.02099  -0.27361
   3   21554.3    463.9   0.021889853   0.33434   0.55170   0.11683   0.12772
   4   23287.0    429.4   0.052152951   0.73729  -0.13897   0.16850   0.83041
   5   24829.6    402.7   0.367728651   4.87566  -1.06134   1.89081  -0.41716
   6   25117.3    398.1   0.011103087   0.14553  -0.09139   0.08003   0.36162
   7   25168.6    397.3   0.021091303   0.27588  -0.15062  -0.50220   0.03142
   8   25924.8    385.7   0.331048920   4.20389   0.94210  -1.78894   0.34066
   9   26692.2    374.6   0.003620740   0.04466  -0.06083   0.06531  -0.19155
  10   27103.2    369.0   0.033251822   0.40390  -0.55105  -0.23493   0.21225
  11   27164.0    368.1   0.033690333   0.40831   0.44412   0.35000   0.29761
  12   27702.2    361.0   0.073714409   0.87602   0.32287  -0.86749   0.13870
  13   28510.6    350.7   0.001552104   0.01792  -0.03766   0.12445   0.03186
  14   28768.3    347.6   0.007881090   0.09019  -0.01609   0.12090  -0.27443
  15   28854.5    346.6   0.094245668   1.07529   0.07978  -1.02548   0.13157
  16   28873.8    346.3   0.041912490   0.47788   0.46863  -0.49619   0.10980
  17   28890.1    346.1   0.012538028   0.14287  -0.13449   0.34655  -0.06850
  18   29450.8    339.5   0.020780921   0.23230  -0.01275  -0.00690  -0.48175
  19   29465.5    339.4   0.009550160   0.10670   0.15591  -0.14127  -0.24987
  20   29981.0    333.5   0.017136747   0.18817   0.28708   0.02700   0.32408
  21   29986.8    333.5   0.034258084   0.37610  -0.60806   0.05657   0.05626
  22   30386.0    329.1   0.088228481   0.95590   0.14619   0.96187   0.09663
  23   30411.3    328.8   0.067511279   0.73083  -0.16203  -0.78539   0.29621
  24   31188.4    320.6   0.487138058   5.14203   0.67652  -2.14386   0.29705
  25   31259.5    319.9   0.052202697   0.54978   0.20940  -0.58538   0.40406
  26   31534.6    317.1   0.115140362   1.20203   0.28085  -1.04587   0.17119
  27   31915.5    313.3   0.043763585   0.45143   0.02518   0.65162  -0.16181
  28   31919.4    313.3   0.020705758   0.21356  -0.04602  -0.45221  -0.08331
  29   32215.4    310.4   0.009237216   0.09440  -0.01911   0.04047   0.30396
  30   32282.0    309.8   0.008659224   0.08831  -0.15745   0.24756  -0.04721
  31   32722.1    305.6   0.005786631   0.05822  -0.02647  -0.05896  -0.23247
  32   33003.4    303.0   0.056308693   0.56168   0.42431   0.54233  -0.29585
  33   33017.3    302.9   0.186267138   1.85725  -0.59590  -1.22501  -0.03892
  34   33237.2    300.9   0.036221422   0.35877  -0.56027  -0.20871   0.03611
  35   33316.6    300.2   0.015120410   0.14941   0.19092   0.17134   0.28914
  36   33959.2    294.5   1.061775948  10.29323   2.35288   2.13557  -0.44329
  37   33978.5    294.3   0.543359178   5.26451   1.36089   1.69324   0.73853
  38   34115.9    293.1   0.019172222   0.18501  -0.08172   0.10417   0.40924
  39   34223.4    292.2   0.006918581   0.06655  -0.18941  -0.16344  -0.06296
  40   34898.3    286.5   0.054845497   0.51738  -0.04387  -0.71245   0.08870
  41   35065.1    285.2   0.004671340   0.04386   0.01234   0.20548   0.03850
  42   35324.2    283.1   0.000823077   0.00767   0.03697  -0.07699  -0.01941
  43   35381.7    282.6   0.000863155   0.00803   0.04830  -0.06759   0.03362
  44   35423.1    282.3   0.324267049   3.01364   0.44660   1.67352  -0.11636
  45   35488.2    281.8   0.008375618   0.07770  -0.07315  -0.26802   0.02267
  46   35689.4    280.2   0.051311475   0.47332  -0.64696   0.23123  -0.03590
  47   35746.0    279.8   0.010010225   0.09219  -0.22443   0.07586  -0.18992
  48   36025.4    277.6   0.003372501   0.03082   0.01730  -0.03455   0.17125
  49   36104.8    277.0   0.019986269   0.18224  -0.42370  -0.02892  -0.04340
  50   36671.5    272.7   0.000169160   0.00152  -0.00656   0.02790   0.02640
  51   36775.6    271.9   0.001344841   0.01204   0.09073   0.04716   0.03978
  52   36913.0    270.9   0.007636432   0.06811   0.10756  -0.20872   0.11390
  53   36983.9    270.4   0.007651045   0.06811  -0.13061   0.22170   0.04355
  54   37128.5    269.3   0.047042671   0.41712  -0.57345  -0.22576   0.19315
  55   37177.6    269.0   0.033252129   0.29445   0.30851   0.24272   0.37465
  56   37566.4    266.2   0.000889721   0.00780   0.03278  -0.01887  -0.07979
  57   37589.5    266.0   0.003025735   0.02650  -0.12129   0.09741  -0.04797
  58   37682.5    265.4   0.001481720   0.01295   0.08721   0.01182  -0.07211
  59   37882.1    264.0   0.020978214   0.18231  -0.41299   0.00882  -0.10804
  60   37987.1    263.2   0.025554328   0.22146  -0.46955   0.03016  -0.00901
  61   38033.8    262.9   0.017113522   0.14813  -0.36923   0.02819  -0.10491
  62   38076.9    262.6   0.004944443   0.04275  -0.08120  -0.04251  -0.18533
  63   38252.7    261.4   0.049624216   0.42708   0.64722   0.06965   0.05771
  64   38505.2    259.7   0.158586474   1.35588  -0.73632  -0.37198  -0.82180
  65   38574.1    259.2   0.158946418   1.35653   0.96584   0.22583  -0.61047
  66   38781.7    257.9   0.026527838   0.22519  -0.08566   0.08731   0.45851
  67   39070.8    255.9   0.036178443   0.30484  -0.19281  -0.49909  -0.13631
  68   39087.6    255.8   0.038703665   0.32598   0.30798   0.40234  -0.26316
  69   39236.9    254.9   0.181585196   1.52357   1.11171  -0.50138   0.19049
  70   39286.5    254.5   0.042118814   0.35295  -0.08578  -0.07880  -0.58256
  71   39389.6    253.9   0.092185419   0.77047  -0.61319   0.59823  -0.19128
  72   39811.7    251.2   0.042862205   0.35444  -0.26540   0.50463   0.17133
  73   39891.4    250.7   0.064361780   0.53116   0.34310  -0.58272   0.27181
  74   40004.1    250.0   0.003878394   0.03192   0.00614   0.04796  -0.17198
  75   40098.0    249.4   0.138662811   1.13845  -0.46647   0.93802  -0.20239

FINAL SINGLE POINT ENERGY     -5365.777175285430

DIPOLE MOMENT
-------------
                                X             Y             Z
Electronic contribution:      2.58345      -0.84042      -4.85737
Nuclear contribution   :     -2.97655       1.20440       6.89337
                        -----------------------------------------
Total Dipole Moment    :     -0.39310       0.36399       2.03600
                        -----------------------------------------
Magnitude (a.u.)       :      2.10531
Magnitude (Debye)      :      5.35126

Rotational constants in cm-1:     0.001978     0.000260     0.000249
Rotational constants in MHz :    59.291808     7.794566     7.476679

                             ****ORCA TERMINATED NORMALLY****
TOTAL RUN TIME: 0 days 0 hours 10 minutes 9 seconds 389 msec
