                         Program Version 4.2.0 -  RELEASE  -
|  1> # ORCA input file
|  2> # SCF done       -205.642949605592          0.000691858021
|  3> ! CAM-B3LYP def2-SVP def2/J RIJCOSX Grid4 TightSCF
|  4> %maxcore 5000
|  5> %tddft
|  6>     Mode sTDDFT
|  7>     Ethresh 5.0
|  8>     maxcore 5000
|  9> end
| 10>
| 11> %pal
| 12>   nprocs 6
| 13>   end
| 14> * xyz 0 1
| 15>    C       -0.97810         2.81132        -6.94144
| 16>    C        0.26698         3.07686        -6.42090
| 17>    C        1.43336         3.23213        -7.19102
| 18>    N        2.41756         3.41328        -7.75637
| 19>    C        0.53004         3.17723        -5.04468
| 20>    N        0.79199         3.26919        -3.92943
| 21>    C       -1.23268         2.38748        -8.31652
| 22>    C       -2.53112         1.80434        -8.37457
| 23>    C       -3.02846         1.27273        -9.52800
| 24>    C       -2.23783         1.30662       -10.70019
| 25>    C       -0.94340         1.89780       -10.65141
| 26>    C       -0.45285         2.43748        -9.43876
| 27>    C       -0.16429         1.92345       -11.82524
| 28>    C       -0.63742         1.38829       -12.99254
| 29>    C       -1.91255         0.80686       -13.03999
| 30>    C       -2.69563         0.76750       -11.91808
| 31>    C       -3.15941         1.89531        -7.04221
| 32>    O       -4.24130         1.46899        -6.70135
| 33>    C       -2.20140         2.66461        -6.20453
| 34>    C       -2.63099         3.12740        -4.98784
| 35>    C       -2.14467         4.15090        -4.16197
| 36>    S       -2.70127         4.23441        -2.50992
| 37>    C       -1.75892         5.64868        -2.15750
| 38>    C       -1.09460         6.06534        -3.30375
| 39>    C       -1.29194         5.22655        -4.41421
| 40>    O       -0.73926         5.46625        -5.63010
| 41>    C        0.30752         6.41854        -5.57261
| 42>    C       -0.10888         7.60988        -4.71498
| 43>    O       -0.33751         7.20422        -3.38052
| 44>    C       -1.70980         6.19069        -0.82890
| 45>    C       -0.83541         7.20651        -0.50992
| 46>    C       -0.75343         7.68127         0.81416
| 47>    C        0.04686         8.65581         1.39549
| 48>    C        1.06189         9.54067         0.74971
| 49>    C        2.22825         8.71970         0.17500
| 50>    N        2.89080         8.00415         1.25154
| 51>    C        0.41710        10.43794        -0.31963
| 52>    N       -0.50103        11.35763         0.33200
| 53>    C       -0.26195         8.65824         2.80485
| 54>    C        0.25839         9.36472         3.82459
| 55>    C       -0.15527         9.11876         5.23656
| 56>    C       -1.28637         8.15171         5.39243
| 57>    C       -1.81052         7.46784         4.35915
| 58>    C       -1.31099         7.65778         3.04797
| 59>    C       -1.60421         7.07494         1.83409
| 60>    C       -2.51181         6.05189         1.46782
| 61>    C       -2.56029         5.62870         0.18241
| 62>    C       -0.45830        10.41936         5.92887
| 63>    C        0.38775        11.01599         6.77374
| 64>    C        0.12791        12.23703         7.47084
| 65>    S       -1.39289        13.07082         7.44000
| 66>    C       -0.80346        14.30207         8.53369
| 67>    C        0.53218        14.04096         8.87368
| 68>    C        1.04444        12.87834         8.29141
| 69>    O        2.31110        12.42336         8.53213
| 70>    C        2.88071        13.04802         9.66714
| 71>    C        2.63963        14.55871         9.63709
| 72>    O        1.25415        14.84741         9.68693
| 73>    C       -1.47452        15.41677         9.04699
| 74>    C       -2.77386        15.81890         8.87136
| 75>    C       -3.39324        16.98523         9.46560
| 76>    C       -2.78465        17.96234        10.21243
| 77>    C       -3.45948        19.07357        10.75855
| 78>    N       -3.94441        19.99850        11.23663
| 79>    C       -1.41334        18.02554        10.53472
| 80>    N       -0.31438        18.16994        10.83762
| 81>    C       -4.80915        16.95874         9.10726
| 82>    C       -5.04513        15.82824         8.27311
| 83>    C       -3.78241        15.09368         8.09142
| 84>    O       -3.61977        14.08125         7.43067
| 85>    C       -6.28294        15.54268         7.77530
| 86>    C       -7.36772        16.38846         8.10070
| 87>    C       -7.14275        17.51678         8.94005
| 88>    C       -5.84639        17.78957         9.43608
| 89>    C       -8.23244        18.34953         9.26482
| 90>    C       -9.48550        18.08304         8.78346
| 91>    C       -9.70561        16.97294         7.95508
| 92>    C       -8.66908        16.14378         7.62086
| 93>    H       -4.01188         0.82691        -9.54834
| 94>    H        0.52991         2.88266        -9.43149
| 95>    H        0.81854         2.37003       -11.78291
| 96>    H       -0.03050         1.40943       -13.88551
| 97>    H       -2.27131         0.38966       -13.96918
| 98>    H       -3.67864         0.32036       -11.94862
| 99>    H       -3.54262         2.65299        -4.63385
|100>    H        0.50773         6.71639        -6.60228
|101>    H        1.20206         5.95259        -5.13836
|102>    H       -1.02310         8.05617        -5.13049
|103>    H        0.68166         8.36003        -4.67483
|104>    H       -0.19702         7.61438        -1.27383
|105>    H        1.46869        10.21056         1.51374
|106>    H        2.90073         9.40153        -0.37587
|107>    H        1.85065         7.97649        -0.52895
|108>    H        3.34075         8.65656         1.88515
|109>    H        3.60306         7.38513         0.88223
|110>    H       -0.06187         9.81223        -1.08791
|111>    H        1.19324        11.03745        -0.80605
|112>    H       -1.22525        10.83315         0.81334
|113>    H       -0.95107        11.95586        -0.35201
|114>    H        1.01793        10.11942         3.67661
|115>    H        0.72820         8.68462         5.73454
|116>    H       -1.65435         8.01955         6.39846
|117>    H       -2.61349         6.76238         4.51694
|118>    H       -3.15026         5.61300         2.22017
|119>    H       -3.24038         4.84342        -0.11396
|120>    H       -1.41632        10.86698         5.70647
|121>    H        1.35699        10.57980         6.98422
|122>    H        3.94708        12.82241         9.63909
|123>    H        2.43755        12.62968        10.58099
|124>    H        3.06726        14.97714         8.71667
|125>    H        3.08411        15.04710        10.50440
|126>    H       -0.84205        16.01770         9.69024
|127>    H       -6.43428        14.68018         7.14326
|128>    H       -5.71084        18.65155        10.06959
|129>    H       -8.05751        19.20361         9.90265
|130>    H      -10.31397        18.72677         9.03877
|131>    H      -10.70041        16.77749         7.58331
|132>    H       -8.83273        15.28686         6.98368
|133> *
|134>
|135>                          ****END OF INPUT****

CARTESIAN COORDINATES (ANGSTROEM)
---------------------------------
  C     -0.978100    2.811320   -6.941440
  C      0.266980    3.076860   -6.420900
  C      1.433360    3.232130   -7.191020
  N      2.417560    3.413280   -7.756370
  C      0.530040    3.177230   -5.044680
  N      0.791990    3.269190   -3.929430
  C     -1.232680    2.387480   -8.316520
  C     -2.531120    1.804340   -8.374570
  C     -3.028460    1.272730   -9.528000
  C     -2.237830    1.306620  -10.700190
  C     -0.943400    1.897800  -10.651410
  C     -0.452850    2.437480   -9.438760
  C     -0.164290    1.923450  -11.825240
  C     -0.637420    1.388290  -12.992540
  C     -1.912550    0.806860  -13.039990
  C     -2.695630    0.767500  -11.918080
  C     -3.159410    1.895310   -7.042210
  O     -4.241300    1.468990   -6.701350
  C     -2.201400    2.664610   -6.204530
  C     -2.630990    3.127400   -4.987840
  C     -2.144670    4.150900   -4.161970
  S     -2.701270    4.234410   -2.509920
  C     -1.758920    5.648680   -2.157500
  C     -1.094600    6.065340   -3.303750
  C     -1.291940    5.226550   -4.414210
  O     -0.739260    5.466250   -5.630100
  C      0.307520    6.418540   -5.572610
  C     -0.108880    7.609880   -4.714980
  O     -0.337510    7.204220   -3.380520
  C     -1.709800    6.190690   -0.828900
  C     -0.835410    7.206510   -0.509920
  C     -0.753430    7.681270    0.814160
  C      0.046860    8.655810    1.395490
  C      1.061890    9.540670    0.749710
  C      2.228250    8.719700    0.175000
  N      2.890800    8.004150    1.251540
  C      0.417100   10.437940   -0.319630
  N     -0.501030   11.357630    0.332000
  C     -0.261950    8.658240    2.804850
  C      0.258390    9.364720    3.824590
  C     -0.155270    9.118760    5.236560
  C     -1.286370    8.151710    5.392430
  C     -1.810520    7.467840    4.359150
  C     -1.310990    7.657780    3.047970
  C     -1.604210    7.074940    1.834090
  C     -2.511810    6.051890    1.467820
  C     -2.560290    5.628700    0.182410
  C     -0.458300   10.419360    5.928870
  C      0.387750   11.015990    6.773740
  C      0.127910   12.237030    7.470840
  S     -1.392890   13.070820    7.440000
  C     -0.803460   14.302070    8.533690
  C      0.532180   14.040960    8.873680
  C      1.044440   12.878340    8.291410
  O      2.311100   12.423360    8.532130
  C      2.880710   13.048020    9.667140
  C      2.639630   14.558710    9.637090
  O      1.254150   14.847410    9.686930
  C     -1.474520   15.416770    9.046990
  C     -2.773860   15.818900    8.871360
  C     -3.393240   16.985230    9.465600
  C     -2.784650   17.962340   10.212430
  C     -3.459480   19.073570   10.758550
  N     -3.944410   19.998500   11.236630
  C     -1.413340   18.025540   10.534720
  N     -0.314380   18.169940   10.837620
  C     -4.809150   16.958740    9.107260
  C     -5.045130   15.828240    8.273110
  C     -3.782410   15.093680    8.091420
  O     -3.619770   14.081250    7.430670
  C     -6.282940   15.542680    7.775300
  C     -7.367720   16.388460    8.100700
  C     -7.142750   17.516780    8.940050
  C     -5.846390   17.789570    9.436080
  C     -8.232440   18.349530    9.264820
  C     -9.485500   18.083040    8.783460
  C     -9.705610   16.972940    7.955080
  C     -8.669080   16.143780    7.620860
  H     -4.011880    0.826910   -9.548340
  H      0.529910    2.882660   -9.431490
  H      0.818540    2.370030  -11.782910
  H     -0.030500    1.409430  -13.885510
  H     -2.271310    0.389660  -13.969180
  H     -3.678640    0.320360  -11.948620
  H     -3.542620    2.652990   -4.633850
  H      0.507730    6.716390   -6.602280
  H      1.202060    5.952590   -5.138360
  H     -1.023100    8.056170   -5.130490
  H      0.681660    8.360030   -4.674830
  H     -0.197020    7.614380   -1.273830
  H      1.468690   10.210560    1.513740
  H      2.900730    9.401530   -0.375870
  H      1.850650    7.976490   -0.528950
  H      3.340750    8.656560    1.885150
  H      3.603060    7.385130    0.882230
  H     -0.061870    9.812230   -1.087910
  H      1.193240   11.037450   -0.806050
  H     -1.225250   10.833150    0.813340
  H     -0.951070   11.955860   -0.352010
  H      1.017930   10.119420    3.676610
  H      0.728200    8.684620    5.734540
  H     -1.654350    8.019550    6.398460
  H     -2.613490    6.762380    4.516940
  H     -3.150260    5.613000    2.220170
  H     -3.240380    4.843420   -0.113960
  H     -1.416320   10.866980    5.706470
  H      1.356990   10.579800    6.984220
  H      3.947080   12.822410    9.639090
  H      2.437550   12.629680   10.580990
  H      3.067260   14.977140    8.716670
  H      3.084110   15.047100   10.504400
  H     -0.842050   16.017700    9.690240
  H     -6.434280   14.680180    7.143260
  H     -5.710840   18.651550   10.069590
  H     -8.057510   19.203610    9.902650
  H    -10.313970   18.726770    9.038770
  H    -10.700410   16.777490    7.583310
  H     -8.832730   15.286860    6.983680

 Total Charge           Charge          ....    0
 Multiplicity           Mult            ....    1
 Number of Electrons    NEL             ....  546
 Basis Dimension        Dim             .... 1300

ORBITAL ENERGIES
----------------

  NO   OCC          E(Eh)            E(eV)
   0   2.0000     -88.960206     -2420.7303
   1   2.0000     -88.959207     -2420.7031
   2   2.0000     -19.274518      -524.4863
   3   2.0000     -19.272730      -524.4376
   4   2.0000     -19.264049      -524.2014
   5   2.0000     -19.263587      -524.1888
   6   2.0000     -19.210979      -522.7573
   7   2.0000     -19.200005      -522.4587
   8   2.0000     -14.406105      -392.0101
   9   2.0000     -14.405116      -391.9831
  10   2.0000     -14.403820      -391.9479
  11   2.0000     -14.402765      -391.9192
  12   2.0000     -14.375043      -391.1648
  13   2.0000     -14.371331      -391.0638
  14   2.0000     -10.359014      -281.8831
  15   2.0000     -10.354613      -281.7633
  16   2.0000     -10.354276      -281.7542
  17   2.0000     -10.350739      -281.6579
  18   2.0000     -10.345985      -281.5286
  19   2.0000     -10.345648      -281.5194
  20   2.0000     -10.344281      -281.4822
  21   2.0000     -10.343086      -281.4497
  22   2.0000     -10.340345      -281.3751
  23   2.0000     -10.340177      -281.3705
  24   2.0000     -10.330547      -281.1085
  25   2.0000     -10.328955      -281.0652
  26   2.0000     -10.324759      -280.9510
  27   2.0000     -10.322700      -280.8949
  28   2.0000     -10.315276      -280.6929
  29   2.0000     -10.313896      -280.6554
  30   2.0000     -10.310148      -280.5534
  31   2.0000     -10.309306      -280.5305
  32   2.0000     -10.309268      -280.5294
  33   2.0000     -10.308854      -280.5182
  34   2.0000     -10.308821      -280.5173
  35   2.0000     -10.307736      -280.4878
  36   2.0000     -10.307704      -280.4869
  37   2.0000     -10.305014      -280.4137
  38   2.0000     -10.299235      -280.2564
  39   2.0000     -10.294702      -280.1331
  40   2.0000     -10.294297      -280.1221
  41   2.0000     -10.290783      -280.0264
  42   2.0000     -10.290357      -280.0148
  43   2.0000     -10.290013      -280.0055
  44   2.0000     -10.289666      -279.9961
  45   2.0000     -10.289441      -279.9899
  46   2.0000     -10.288555      -279.9658
  47   2.0000     -10.287135      -279.9272
  48   2.0000     -10.286897      -279.9207
  49   2.0000     -10.286358      -279.9060
  50   2.0000     -10.285262      -279.8762
  51   2.0000     -10.284819      -279.8642
  52   2.0000     -10.284483      -279.8550
  53   2.0000     -10.283604      -279.8311
  54   2.0000     -10.280870      -279.7567
  55   2.0000     -10.280859      -279.7564
  56   2.0000     -10.280650      -279.7507
  57   2.0000     -10.280303      -279.7413
  58   2.0000     -10.280207      -279.7386
  59   2.0000     -10.279860      -279.7292
  60   2.0000     -10.279335      -279.7149
  61   2.0000     -10.278648      -279.6962
  62   2.0000     -10.277167      -279.6559
  63   2.0000     -10.276881      -279.6481
  64   2.0000     -10.276563      -279.6395
  65   2.0000     -10.276184      -279.6292
  66   2.0000     -10.275975      -279.6235
  67   2.0000     -10.270752      -279.4814
  68   2.0000     -10.269571      -279.4492
  69   2.0000     -10.268873      -279.4303
  70   2.0000     -10.268208      -279.4121
  71   2.0000     -10.267717      -279.3988
  72   2.0000     -10.267603      -279.3957
  73   2.0000     -10.262198      -279.2486
  74   2.0000     -10.261315      -279.2246
  75   2.0000     -10.259790      -279.1831
  76   2.0000     -10.259371      -279.1717
  77   2.0000     -10.258724      -279.1541
  78   2.0000      -8.055490      -219.2010
  79   2.0000      -8.052258      -219.1131
  80   2.0000      -6.024888      -163.9455
  81   2.0000      -6.021836      -163.8625
  82   2.0000      -6.021073      -163.8417
  83   2.0000      -6.017623      -163.7479
  84   2.0000      -6.017015      -163.7313
  85   2.0000      -6.013830      -163.6446
  86   2.0000      -1.195518       -32.5317
  87   2.0000      -1.195399       -32.5285
  88   2.0000      -1.155217       -31.4351
  89   2.0000      -1.155083       -31.4314
  90   2.0000      -1.125673       -30.6311
  91   2.0000      -1.114497       -30.3270
  92   2.0000      -1.008360       -27.4389
  93   2.0000      -1.006096       -27.3773
  94   2.0000      -0.994783       -27.0694
  95   2.0000      -0.992066       -26.9955
  96   2.0000      -0.990029       -26.9401
  97   2.0000      -0.986242       -26.8370
  98   2.0000      -0.983441       -26.7608
  99   2.0000      -0.982870       -26.7453
 100   2.0000      -0.980618       -26.6840
 101   2.0000      -0.963513       -26.2185
 102   2.0000      -0.960718       -26.1425
 103   2.0000      -0.959203       -26.1012
 104   2.0000      -0.948163       -25.8008
 105   2.0000      -0.943234       -25.6667
 106   2.0000      -0.920218       -25.0404
 107   2.0000      -0.915900       -24.9229
 108   2.0000      -0.911041       -24.7907
 109   2.0000      -0.900655       -24.5081
 110   2.0000      -0.891322       -24.2541
 111   2.0000      -0.884811       -24.0769
 112   2.0000      -0.876840       -23.8600
 113   2.0000      -0.876668       -23.8553
 114   2.0000      -0.873208       -23.7612
 115   2.0000      -0.872056       -23.7299
 116   2.0000      -0.869687       -23.6654
 117   2.0000      -0.867501       -23.6059
 118   2.0000      -0.855749       -23.2861
 119   2.0000      -0.838791       -22.8247
 120   2.0000      -0.833141       -22.6709
 121   2.0000      -0.827978       -22.5304
 122   2.0000      -0.821394       -22.3513
 123   2.0000      -0.819585       -22.3020
 124   2.0000      -0.817176       -22.2365
 125   2.0000      -0.811046       -22.0697
 126   2.0000      -0.805940       -21.9307
 127   2.0000      -0.794964       -21.6321
 128   2.0000      -0.785289       -21.3688
 129   2.0000      -0.784488       -21.3470
 130   2.0000      -0.758026       -20.6269
 131   2.0000      -0.757267       -20.6063
 132   2.0000      -0.753950       -20.5160
 133   2.0000      -0.747507       -20.3407
 134   2.0000      -0.738076       -20.0841
 135   2.0000      -0.729322       -19.8459
 136   2.0000      -0.715519       -19.4702
 137   2.0000      -0.711698       -19.3663
 138   2.0000      -0.702032       -19.1033
 139   2.0000      -0.697683       -18.9849
 140   2.0000      -0.697375       -18.9765
 141   2.0000      -0.693300       -18.8657
 142   2.0000      -0.691156       -18.8073
 143   2.0000      -0.677430       -18.4338
 144   2.0000      -0.675290       -18.3756
 145   2.0000      -0.673092       -18.3158
 146   2.0000      -0.666724       -18.1425
 147   2.0000      -0.662995       -18.0410
 148   2.0000      -0.662595       -18.0301
 149   2.0000      -0.658931       -17.9304
 150   2.0000      -0.649988       -17.6871
 151   2.0000      -0.641868       -17.4661
 152   2.0000      -0.641593       -17.4586
 153   2.0000      -0.640317       -17.4239
 154   2.0000      -0.635918       -17.3042
 155   2.0000      -0.628227       -17.0949
 156   2.0000      -0.623138       -16.9565
 157   2.0000      -0.621058       -16.8998
 158   2.0000      -0.611794       -16.6478
 159   2.0000      -0.608832       -16.5672
 160   2.0000      -0.601842       -16.3770
 161   2.0000      -0.599443       -16.3117
 162   2.0000      -0.597568       -16.2607
 163   2.0000      -0.595423       -16.2023
 164   2.0000      -0.591033       -16.0828
 165   2.0000      -0.586940       -15.9715
 166   2.0000      -0.580689       -15.8013
 167   2.0000      -0.575787       -15.6680
 168   2.0000      -0.571318       -15.5464
 169   2.0000      -0.564925       -15.3724
 170   2.0000      -0.558358       -15.1937
 171   2.0000      -0.554173       -15.0798
 172   2.0000      -0.548475       -14.9248
 173   2.0000      -0.546896       -14.8818
 174   2.0000      -0.545026       -14.8309
 175   2.0000      -0.543514       -14.7898
 176   2.0000      -0.541363       -14.7312
 177   2.0000      -0.541157       -14.7256
 178   2.0000      -0.539539       -14.6816
 179   2.0000      -0.539217       -14.6728
 180   2.0000      -0.536331       -14.5943
 181   2.0000      -0.535558       -14.5733
 182   2.0000      -0.534820       -14.5532
 183   2.0000      -0.531073       -14.4512
 184   2.0000      -0.528797       -14.3893
 185   2.0000      -0.527861       -14.3638
 186   2.0000      -0.526098       -14.3159
 187   2.0000      -0.524589       -14.2748
 188   2.0000      -0.520210       -14.1556
 189   2.0000      -0.519217       -14.1286
 190   2.0000      -0.516948       -14.0669
 191   2.0000      -0.514173       -13.9913
 192   2.0000      -0.512583       -13.9481
 193   2.0000      -0.510764       -13.8986
 194   2.0000      -0.505674       -13.7601
 195   2.0000      -0.504897       -13.7389
 196   2.0000      -0.501920       -13.6579
 197   2.0000      -0.501387       -13.6434
 198   2.0000      -0.500488       -13.6190
 199   2.0000      -0.499674       -13.5968
 200   2.0000      -0.496942       -13.5225
 201   2.0000      -0.496047       -13.4981
 202   2.0000      -0.492489       -13.4013
 203   2.0000      -0.490127       -13.3370
 204   2.0000      -0.488742       -13.2993
 205   2.0000      -0.487830       -13.2745
 206   2.0000      -0.485783       -13.2188
 207   2.0000      -0.480801       -13.0833
 208   2.0000      -0.479584       -13.0501
 209   2.0000      -0.477057       -12.9814
 210   2.0000      -0.476291       -12.9605
 211   2.0000      -0.471147       -12.8206
 212   2.0000      -0.469472       -12.7750
 213   2.0000      -0.465951       -12.6792
 214   2.0000      -0.462493       -12.5851
 215   2.0000      -0.460186       -12.5223
 216   2.0000      -0.454502       -12.3676
 217   2.0000      -0.453655       -12.3446
 218   2.0000      -0.450626       -12.2622
 219   2.0000      -0.443226       -12.0608
 220   2.0000      -0.441515       -12.0142
 221   2.0000      -0.439537       -11.9604
 222   2.0000      -0.436880       -11.8881
 223   2.0000      -0.435487       -11.8502
 224   2.0000      -0.434718       -11.8293
 225   2.0000      -0.434530       -11.8242
 226   2.0000      -0.433110       -11.7855
 227   2.0000      -0.430451       -11.7132
 228   2.0000      -0.430049       -11.7022
 229   2.0000      -0.427447       -11.6314
 230   2.0000      -0.427119       -11.6225
 231   2.0000      -0.426570       -11.6076
 232   2.0000      -0.423410       -11.5216
 233   2.0000      -0.422799       -11.5050
 234   2.0000      -0.421778       -11.4772
 235   2.0000      -0.418966       -11.4006
 236   2.0000      -0.417821       -11.3695
 237   2.0000      -0.417115       -11.3503
 238   2.0000      -0.416233       -11.3263
 239   2.0000      -0.414988       -11.2924
 240   2.0000      -0.412833       -11.2337
 241   2.0000      -0.409880       -11.1534
 242   2.0000      -0.406618       -11.0646
 243   2.0000      -0.405004       -11.0207
 244   2.0000      -0.402941       -10.9646
 245   2.0000      -0.397033       -10.8038
 246   2.0000      -0.395797       -10.7702
 247   2.0000      -0.393499       -10.7076
 248   2.0000      -0.391849       -10.6628
 249   2.0000      -0.389188       -10.5903
 250   2.0000      -0.384813       -10.4713
 251   2.0000      -0.380422       -10.3518
 252   2.0000      -0.376300       -10.2396
 253   2.0000      -0.368747       -10.0341
 254   2.0000      -0.366384        -9.9698
 255   2.0000      -0.362452        -9.8628
 256   2.0000      -0.347834        -9.4650
 257   2.0000      -0.335630        -9.1329
 258   2.0000      -0.328377        -8.9356
 259   2.0000      -0.326377        -8.8812
 260   2.0000      -0.322873        -8.7858
 261   2.0000      -0.311905        -8.4874
 262   2.0000      -0.310972        -8.4620
 263   2.0000      -0.304211        -8.2780
 264   2.0000      -0.297738        -8.1019
 265   2.0000      -0.296705        -8.0737
 266   2.0000      -0.294784        -8.0215
 267   2.0000      -0.293037        -7.9740
 268   2.0000      -0.288281        -7.8445
 269   2.0000      -0.282370        -7.6837
 270   2.0000      -0.261664        -7.1203
 271   2.0000      -0.260281        -7.0826
 272   2.0000      -0.218706        -5.9513
 273   0.0000      -0.086509        -2.3540
 274   0.0000      -0.081865        -2.2277
 275   0.0000      -0.059855        -1.6287
 276   0.0000      -0.050547        -1.3754
 277   0.0000      -0.043681        -1.1886

MULLIKEN ATOMIC CHARGES
-----------------------
   0 C :    0.308433
   1 C :   -0.342589
   2 C :   -0.185977
   3 N :    0.136949
   4 C :   -0.219533
   5 N :    0.160573
   6 C :    0.038637
   7 C :    0.014336
   8 C :   -0.082701
   9 C :    0.091103
  10 C :    0.094976
  11 C :   -0.090888
  12 C :   -0.018161
  13 C :    0.032642
  14 C :    0.034259
  15 C :   -0.015035
  16 C :    0.131150
  17 O :   -0.151401
  18 C :   -0.143914
  19 C :    0.077827
  20 C :   -0.163082
  21 S :    0.139738
  22 C :   -0.120087
  23 C :    0.144082
  24 C :    0.180109
  25 O :   -0.288343
  26 C :    0.168865
  27 C :    0.192088
  28 O :   -0.319621
  29 C :    0.137261
  30 C :   -0.119573
  31 C :    0.048027
  32 C :   -0.016996
  33 C :   -0.059799
  34 C :    0.156585
  35 N :   -0.215130
  36 C :    0.154966
  37 N :   -0.225562
  38 C :    0.110670
  39 C :   -0.112865
  40 C :    0.126484
  41 C :   -0.051222
  42 C :    0.020930
  43 C :    0.012252
  44 C :    0.032126
  45 C :   -0.000508
  46 C :   -0.042823
  47 C :   -0.047641
  48 C :    0.022858
  49 C :   -0.129950
  50 S :    0.191881
  51 C :   -0.151746
  52 C :    0.174419
  53 C :    0.167196
  54 O :   -0.307264
  55 C :    0.175303
  56 C :    0.182707
  57 O :   -0.282603
  58 C :   -0.037612
  59 C :   -0.100288
  60 C :    0.341699
  61 C :   -0.362960
  62 C :   -0.187822
  63 N :    0.141523
  64 C :   -0.197385
  65 N :    0.144398
  66 C :    0.042250
  67 C :    0.001064
  68 C :    0.171733
  69 O :   -0.187592
  70 C :   -0.087003
  71 C :    0.099754
  72 C :    0.097266
  73 C :   -0.087851
  74 C :   -0.021237
  75 C :    0.034363
  76 C :    0.037485
  77 C :   -0.019211
  78 H :   -0.017652
  79 H :   -0.014289
  80 H :   -0.015523
  81 H :   -0.008826
  82 H :   -0.010215
  83 H :   -0.021270
  84 H :    0.018150
  85 H :    0.042370
  86 H :    0.049314
  87 H :    0.032231
  88 H :    0.037132
  89 H :   -0.002332
  90 H :   -0.027090
  91 H :   -0.019625
  92 H :   -0.008103
  93 H :    0.081726
  94 H :    0.092275
  95 H :   -0.021701
  96 H :   -0.014625
  97 H :    0.096800
  98 H :    0.088481
  99 H :   -0.008165
 100 H :    0.045891
 101 H :   -0.011349
 102 H :   -0.034648
 103 H :   -0.036048
 104 H :   -0.014350
 105 H :    0.022776
 106 H :   -0.004416
 107 H :    0.037004
 108 H :    0.033603
 109 H :    0.038260
 110 H :    0.045074
 111 H :    0.024554
 112 H :   -0.016779
 113 H :   -0.009994
 114 H :   -0.010353
 115 H :   -0.007026
 116 H :   -0.008375
 117 H :   -0.019877
Sum of atomic charges:    0.0000000

LOEWDIN ATOMIC CHARGES
----------------------
   0 C :    0.068169
   1 C :   -0.149068
   2 C :   -0.020729
   3 N :   -0.071017
   4 C :   -0.018185
   5 N :   -0.065157
   6 C :   -0.019269
   7 C :   -0.056178
   8 C :    0.029161
   9 C :   -0.012079
  10 C :   -0.006626
  11 C :    0.007275
  12 C :   -0.009195
  13 C :   -0.017058
  14 C :   -0.018043
  15 C :   -0.010447
  16 C :    0.081991
  17 O :   -0.152881
  18 C :   -0.104267
  19 C :    0.047935
  20 C :   -0.208425
  21 S :    0.462043
  22 C :   -0.147894
  23 C :   -0.011711
  24 C :    0.021656
  25 O :   -0.068720
  26 C :    0.074184
  27 C :    0.073903
  28 O :   -0.099522
  29 C :   -0.047164
  30 C :    0.001056
  31 C :   -0.020823
  32 C :   -0.019422
  33 C :   -0.040038
  34 C :    0.026945
  35 N :   -0.116199
  36 C :    0.027837
  37 N :   -0.122343
  38 C :   -0.014265
  39 C :    0.071272
  40 C :   -0.030364
  41 C :   -0.035686
  42 C :   -0.013712
  43 C :   -0.035629
  44 C :   -0.028861
  45 C :   -0.004486
  46 C :   -0.037731
  47 C :    0.011667
  48 C :   -0.048890
  49 C :   -0.174446
  50 S :    0.502017
  51 C :   -0.214086
  52 C :    0.022802
  53 C :   -0.028474
  54 O :   -0.110494
  55 C :    0.072651
  56 C :    0.077155
  57 O :   -0.080764
  58 C :    0.063446
  59 C :   -0.117733
  60 C :    0.078073
  61 C :   -0.150220
  62 C :   -0.017251
  63 N :   -0.063792
  64 C :   -0.023036
  65 N :   -0.058684
  66 C :   -0.024144
  67 C :   -0.053313
  68 C :    0.084094
  69 O :   -0.173630
  70 C :    0.028192
  71 C :   -0.009567
  72 C :   -0.007357
  73 C :    0.017545
  74 C :   -0.006011
  75 C :   -0.016096
  76 C :   -0.014737
  77 C :   -0.011117
  78 H :    0.037400
  79 H :    0.036262
  80 H :    0.032482
  81 H :    0.031263
  82 H :    0.030692
  83 H :    0.030475
  84 H :    0.045160
  85 H :    0.036870
  86 H :    0.028576
  87 H :    0.023331
  88 H :    0.035033
  89 H :    0.021289
  90 H :    0.021959
  91 H :   -0.003660
  92 H :    0.018387
  93 H :    0.048328
  94 H :    0.055655
  95 H :    0.000030
  96 H :    0.012606
  97 H :    0.051901
  98 H :    0.053271
  99 H :    0.030085
 100 H :    0.064117
 101 H :    0.025352
 102 H :    0.029938
 103 H :    0.028375
 104 H :    0.017805
 105 H :    0.028713
 106 H :    0.034595
 107 H :    0.034935
 108 H :    0.023526
 109 H :    0.026387
 110 H :    0.038624
 111 H :    0.051476
 112 H :    0.037455
 113 H :    0.038562
 114 H :    0.034219
 115 H :    0.032219
 116 H :    0.031506
 117 H :    0.030769

  Mayer bond orders larger than 0.100000
B(  0-C ,  1-C ) :   1.5948 B(  0-C ,  6-C ) :   0.9949 B(  0-C , 18-C ) :   1.0941
B(  1-C ,  2-C ) :   1.1450 B(  1-C ,  4-C ) :   1.1861 B(  2-C ,  3-N ) :   2.9704
B(  4-C ,  5-N ) :   2.9725 B(  6-C ,  7-C ) :   1.2152 B(  6-C , 11-C ) :   1.4666
B(  7-C ,  8-C ) :   1.4802 B(  7-C , 16-C ) :   0.9180 B(  8-C ,  9-C ) :   1.1773
B(  8-C , 78-H ) :   1.0150 B(  9-C , 10-C ) :   1.2654 B(  9-C , 15-C ) :   1.2460
B( 10-C , 11-C ) :   1.1949 B( 10-C , 12-C ) :   1.2451 B( 11-C , 79-H ) :   0.9909
B( 12-C , 13-C ) :   1.4860 B( 12-C , 80-H ) :   0.9961 B( 13-C , 14-C ) :   1.2641
B( 13-C , 81-H ) :   0.9884 B( 14-C , 15-C ) :   1.4876 B( 14-C , 82-H ) :   0.9883
B( 15-C , 83-H ) :   0.9964 B( 16-C , 17-O ) :   2.2603 B( 16-C , 18-C ) :   0.9503
B( 18-C , 19-C ) :   1.5740 B( 19-C , 20-C ) :   1.2148 B( 19-C , 84-H ) :   0.9224
B( 20-C , 21-S ) :   1.0810 B( 20-C , 22-C ) :   0.1070 B( 20-C , 24-C ) :   1.3995
B( 21-S , 22-C ) :   1.1295 B( 22-C , 23-C ) :   1.4767 B( 22-C , 29-C ) :   1.0989
B( 23-C , 24-C ) :   1.2266 B( 23-C , 28-O ) :   1.1051 B( 24-C , 25-O ) :   1.1719
B( 25-O , 26-C ) :   0.9267 B( 26-C , 27-C ) :   1.0761 B( 26-C , 85-H ) :   0.9518
B( 26-C , 86-H ) :   0.9378 B( 27-C , 28-O ) :   0.9528 B( 27-C , 87-H ) :   0.9447
B( 27-C , 88-H ) :   0.9522 B( 29-C , 30-C ) :   1.5375 B( 29-C , 46-C ) :   1.0819
B( 30-C , 31-C ) :   1.1225 B( 30-C , 89-H ) :   0.9742 B( 31-C , 32-C ) :   1.4685
B( 31-C , 44-C ) :   1.1263 B( 32-C , 33-C ) :   1.0163 B( 32-C , 38-C ) :   1.1142
B( 33-C , 34-C ) :   1.0431 B( 33-C , 36-C ) :   1.0395 B( 33-C , 90-H ) :   0.8861
B( 34-C , 35-N ) :   1.0875 B( 34-C , 91-H ) :   0.9377 B( 34-C , 92-H ) :   0.9337
B( 35-N , 93-H ) :   0.9722 B( 35-N , 94-H ) :   0.9684 B( 36-C , 37-N ) :   1.0915
B( 36-C , 95-H ) :   0.9378 B( 36-C , 96-H ) :   0.9309 B( 37-N , 97-H ) :   0.9714
B( 37-N , 98-H ) :   0.9668 B( 38-C , 39-C ) :   1.6350 B( 38-C , 43-C ) :   1.0515
B( 39-C , 40-C ) :   0.9737 B( 39-C , 99-H ) :   0.9754 B( 40-C , 41-C ) :   0.9746
B( 40-C , 47-C ) :   0.9656 B( 40-C ,100-H ) :   0.8577 B( 41-C , 42-C ) :   1.7107
B( 41-C ,101-H ) :   0.9801 B( 42-C , 43-C ) :   1.1277 B( 42-C ,102-H ) :   0.9901
B( 43-C , 44-C ) :   1.4443 B( 44-C , 45-C ) :   1.1347 B( 45-C , 46-C ) :   1.6298
B( 45-C ,103-H ) :   0.9910 B( 46-C ,104-H ) :   0.9789 B( 47-C , 48-C ) :   1.7536
B( 47-C ,105-H ) :   0.9760 B( 48-C , 49-C ) :   1.1344 B( 48-C ,106-H ) :   0.9780
B( 49-C , 50-S ) :   1.1000 B( 49-C , 51-C ) :   0.1029 B( 49-C , 53-C ) :   1.4224
B( 50-S , 51-C ) :   1.0627 B( 51-C , 52-C ) :   1.3521 B( 51-C , 58-C ) :   1.3166
B( 52-C , 53-C ) :   1.2370 B( 52-C , 57-O ) :   1.1738 B( 53-C , 54-O ) :   1.1445
B( 54-O , 55-C ) :   0.9584 B( 55-C , 56-C ) :   1.0690 B( 55-C ,107-H ) :   0.9525
B( 55-C ,108-H ) :   0.9447 B( 56-C , 57-O ) :   0.9407 B( 56-C ,109-H ) :   0.9464
B( 56-C ,110-H ) :   0.9530 B( 58-C , 59-C ) :   1.4517 B( 58-C ,111-H ) :   0.9355
B( 59-C , 60-C ) :   1.0905 B( 59-C , 68-C ) :   0.9854 B( 60-C , 61-C ) :   1.6091
B( 60-C , 66-C ) :   0.9788 B( 61-C , 62-C ) :   1.1520 B( 61-C , 64-C ) :   1.1476
B( 62-C , 63-N ) :   2.9611 B( 64-C , 65-N ) :   2.9622 B( 66-C , 67-C ) :   1.2181
B( 66-C , 73-C ) :   1.4580 B( 67-C , 68-C ) :   0.9542 B( 67-C , 70-C ) :   1.4718
B( 68-C , 69-O ) :   2.1257 B( 70-C , 71-C ) :   1.1730 B( 70-C ,112-H ) :   1.0166
B( 71-C , 72-C ) :   1.2617 B( 71-C , 77-C ) :   1.2440 B( 72-C , 73-C ) :   1.1982
B( 72-C , 74-C ) :   1.2432 B( 73-C ,113-H ) :   0.9893 B( 74-C , 75-C ) :   1.4857
B( 74-C ,114-H ) :   0.9972 B( 75-C , 76-C ) :   1.2629 B( 75-C ,115-H ) :   0.9881
B( 76-C , 77-C ) :   1.4871 B( 76-C ,116-H ) :   0.9884 B( 77-C ,117-H ) :   0.9975

-----------------------------------------------------------------------------
         ABSORPTION SPECTRUM VIA TRANSITION ELECTRIC DIPOLE MOMENTS
-----------------------------------------------------------------------------
State   Energy  Wavelength   fosc         T2         TX        TY        TZ
        (cm-1)    (nm)                  (au**2)     (au)      (au)      (au)
-----------------------------------------------------------------------------
   0   13948.8    716.9   0.150546055   3.55312   0.47100   1.54244   0.97578
   1   17852.1    560.2   0.024250159   0.44720   0.45696  -0.46105   0.16067
   2   18446.8    542.1   1.029308348  18.36958  -0.79597   2.14149   3.62629
   3   21936.6    455.9   1.063667089  15.96291   1.82803  -3.10464  -1.72697
   4   22725.6    440.0   0.356570562   5.16542  -0.32278  -0.89992  -2.06189
   5   25550.3    391.4   0.208308075   2.68402  -0.47638  -0.70014  -1.40246
   6   26413.7    378.6   0.005769236   0.07191  -0.09770   0.12131   0.21828
   7   26977.0    370.7   0.142533704   1.73940   0.21557   0.81597   1.01347
   8   26998.2    370.4   0.133060896   1.62253   0.83424   0.61297   0.74219
   9   27449.4    364.3   0.001985640   0.02381   0.00615  -0.06538   0.13965
  10   27757.3    360.3   0.046400468   0.55033   0.62180  -0.33904  -0.22077
  11   27962.6    357.6   0.055539760   0.65389   0.25417   0.55618   0.52910
  12   28474.4    351.2   0.260918614   3.01666  -1.66643   0.08130  -0.48276
  13   28634.8    349.2   0.043572098   0.50095   0.12378   0.21910  -0.66153
  14   28683.7    348.6   0.012676405   0.14549   0.15785  -0.03487   0.34549
  15   28721.7    348.2   0.006187643   0.07092   0.25906   0.06085   0.01039
  16   28914.6    345.8   0.027999046   0.31879  -0.31524   0.11034  -0.45523
  17   29418.7    339.9   0.016690723   0.18678   0.19269  -0.25213  -0.29339
  18   29765.5    336.0   0.023719013   0.26234   0.36254   0.22822   0.28075
  19   30296.0    330.1   0.082615296   0.89774   0.80893   0.19282   0.45408
  20   30546.0    327.4   0.014266428   0.15376  -0.09741   0.22481   0.30615
  21   31240.1    320.1   0.123449259   1.30093  -0.07928  -0.41935  -1.05772
  22   31496.4    317.5   0.138235365   1.44489   0.19202   0.29124   1.15030
  23   32649.6    306.3   0.212993012   2.14765  -0.45977  -0.66621  -1.22165
  24   33226.0    301.0   0.400405173   3.96732  -0.96751  -0.62758  -1.62401
  25   33301.0    300.3   0.023849845   0.23578  -0.42950  -0.08142  -0.21138
  26   33936.9    294.7   0.550364923   5.33893   2.17358   0.11148   0.77592
  27   34059.9    293.6   0.002292956   0.02216  -0.00274  -0.06592  -0.13346
  28   34290.0    291.6   0.433994813   4.16670  -1.62412  -0.73022  -0.99784
  29   34461.1    290.2   0.082239697   0.78565  -0.12913  -0.01779   0.87673
  30   34852.8    286.9   0.008860320   0.08369  -0.09640   0.02159   0.27191
  31   34891.6    286.6   0.149230492   1.40803   0.01359   0.25555   1.15868
  32   35169.6    284.3   0.006968546   0.06523   0.04561   0.00303   0.25128
  33   35610.7    280.8   0.027351387   0.25286  -0.13834   0.42898   0.22293
  34   36175.6    276.4   0.052120651   0.47432  -0.24922  -0.14370  -0.62575
  35   36194.4    276.3   0.021991255   0.20002   0.05785   0.20041   0.39562
  36   36375.0    274.9   0.143322247   1.29714   0.05733  -0.98203  -0.57400
  37   36895.9    271.0   0.067493607   0.60223  -0.27631  -0.33798  -0.64160
  38   37130.2    269.3   0.047744622   0.42332  -0.12519  -0.16252  -0.61744
  39   37227.3    268.6   0.003987390   0.03526   0.01000   0.02058   0.18638
  40   37255.6    268.4   0.010645163   0.09407  -0.14397  -0.03249  -0.26886
  41   37665.4    265.5   0.085865935   0.75051  -0.25170  -0.38761  -0.73274
  42   37838.6    264.3   0.011963809   0.10409   0.06890   0.07342   0.30652
  43   37935.5    263.6   0.010916198   0.09473  -0.00355  -0.16818   0.25775
  44   38160.8    262.0   0.137905336   1.18970  -0.59132  -0.57734  -0.71185
  45   38312.7    261.0   0.126229226   1.08466   0.51826   0.66695   0.60929
  46   38676.3    258.6   0.065748946   0.55965  -0.71077  -0.17887  -0.14990
  47   39050.2    256.1   0.015268998   0.12873   0.32382  -0.02692   0.15212
  48   39333.8    254.2   0.096145831   0.80471  -0.18211  -0.79769  -0.36774
  49   39870.8    250.8   0.157755856   1.30258  -1.10566  -0.21244  -0.18699
  50   40114.7    249.3   0.105825291   0.86848   0.38553  -0.73098  -0.43072
  51   40290.6    248.2   0.049636728   0.40558   0.62743  -0.06783  -0.08548

FINAL SINGLE POINT ENERGY     -4034.649226937895

DIPOLE MOMENT
-------------
                                X             Y             Z
Electronic contribution:    -18.81041      -2.79738      12.00169
Nuclear contribution   :     18.91690       2.94685     -13.04459
                        -----------------------------------------
Total Dipole Moment    :      0.10649       0.14946      -1.04290
                        -----------------------------------------
Magnitude (a.u.)       :      1.05892
Magnitude (Debye)      :      2.69157

Rotational constants in cm-1:     0.001732     0.000189     0.000178
Rotational constants in MHz :    51.917557     5.660871     5.322095

                             ****ORCA TERMINATED NORMALLY****
TOTAL RUN TIME: 0 days 0 hours 12 minutes 27 seconds 359 msec
