                         Program Version 4.2.0 -  RELEASE  -
|  1> # ORCA input file
|  2> # SCF done       -183.038809029931          0.000960764786
|  3> ! CAM-B3LYP def2-SVP def2/J RIJCOSX Grid4 TightSCF
|  4> %maxcore 5000
|  5> %tddft
|  6>     Mode sTDDFT
|  7>     Ethresh 5.0
|  8>     maxcore 5000
|  9> end
| 10>
| 11> %pal
| 12>   nprocs 6
| 13>   end
| 14> * xyz 0 1
| 15>    C       -1.67397         5.76282         6.58914
| 16>    C       -2.81191         6.52286         6.50724
| 17>    C       -3.21862         7.43216         7.50289
| 18>    N       -3.58436         8.19102         8.28283
| 19>    C       -3.74637         6.39306         5.45963
| 20>    N       -4.55108         6.27112         4.64956
| 21>    C       -0.83248         5.62257         7.77135
| 22>    C       -0.11979         4.39127         7.67235
| 23>    C        0.71943         3.96998         8.66290
| 24>    C        0.89518         4.77921         9.80856
| 25>    C        0.19855         6.01854         9.90396
| 26>    C       -0.67135         6.42652         8.86649
| 27>    C        0.38927         6.81849        11.04872
| 28>    C        1.22429         6.41432        12.05449
| 29>    C        1.90838         5.19326        11.96087
| 30>    C        1.74712         4.39341        10.86220
| 31>    C       -0.44153         3.74247         6.38686
| 32>    O       -0.07274         2.66381         5.97994
| 33>    C       -1.27463         4.73404         5.65250
| 34>    C       -1.45636         4.61554         4.30957
| 35>    C       -1.81706         5.62053         3.38024
| 36>    C       -2.36193         5.40947         2.12579
| 37>    C       -2.57130         6.60538         1.44401
| 38>    C       -2.12905         7.74554         2.15890
| 39>    S       -1.48963         7.32622         3.69721
| 40>    C       -2.38434         8.84761         1.35004
| 41>    C       -2.98643         8.35243         0.16603
| 42>    N       -3.09450         6.99084         0.23852
| 43>    C       -3.64993         6.11335        -0.75392
| 44>    C       -3.31742         9.35557        -0.74581
| 45>    C       -2.96971        10.60326        -0.26467
| 46>    S       -2.22560        10.56209         1.32221
| 47>    C       -3.17541        11.83997        -0.92305
| 48>    N       -3.76541        11.96073        -2.07867
| 49>    C       -3.82938        13.24139        -2.44071
| 50>    C       -3.27118        14.17675        -1.55290
| 51>    S       -2.63251        13.36644        -0.18108
| 52>    N       -3.34184        15.45664        -1.91071
| 53>    C       -3.94129        15.59020        -3.05509
| 54>    S       -4.48027        14.05891        -3.80720
| 55>    C       -4.17319        16.83726        -3.67761
| 56>    C       -4.83520        17.08605        -4.86575
| 57>    C       -4.87324        18.45237        -5.14048
| 58>    C       -4.22998        19.24188        -4.15504
| 59>    S       -3.58199        18.28017        -2.88018
| 60>    C       -4.34626        20.57110        -4.55707
| 61>    C       -5.06396        20.55173        -5.78456
| 62>    N       -5.38652        19.26036        -6.11957
| 63>    C       -6.07386        18.83625        -7.30729
| 64>    C       -5.25959        21.81418        -6.31123
| 65>    C       -4.69915        22.81291        -5.50568
| 66>    S       -3.91428        22.16116        -4.06651
| 67>    C       -4.79110        24.16658        -5.86093
| 68>    C       -4.31298        25.29067        -5.23613
| 69>    C       -4.47315        26.65367        -5.70401
| 70>    C       -5.15825        27.07945        -6.81486
| 71>    C       -5.27377        28.43065        -7.20193
| 72>    N       -5.41028        29.50781        -7.57693
| 73>    C       -5.84809        26.25721        -7.72818
| 74>    N       -6.43458        25.66315        -8.51866
| 75>    C       -3.77384        27.52710        -4.76493
| 76>    C       -3.21182        26.72363        -3.73226
| 77>    C       -3.53586        25.31248        -3.99026
| 78>    O       -3.21419        24.36065        -3.30070
| 79>    C       -2.49471        27.26047        -2.70337
| 80>    C       -2.29888        28.65927        -2.65878
| 81>    C       -2.85500        29.47206        -3.68774
| 82>    C       -3.59563        28.88466        -4.74033
| 83>    C       -2.65156        30.86577        -3.63504
| 84>    C       -1.93370        31.43098        -2.61606
| 85>    C       -1.38704        30.62937        -1.60335
| 86>    C       -1.56607        29.27254        -1.62424
| 87>    H        1.24420         3.03016         8.57566
| 88>    H       -1.18196         7.37282         8.95661
| 89>    H       -0.14238         7.75623        11.11728
| 90>    H        1.36182         7.03330        12.92848
| 91>    H        2.56390         4.88964        12.76342
| 92>    H        2.27162         3.45217        10.78482
| 93>    H       -1.21814         3.64339         3.88825
| 94>    H       -2.62266         4.43091         1.76627
| 95>    H       -4.18285         6.70448        -1.49510
| 96>    H       -4.34662         5.41674        -0.28511
| 97>    H       -2.86233         5.54216        -1.25314
| 98>    H       -3.78161         9.22740        -1.70524
| 99>    H       -5.25346        16.30360        -5.47243
|100>    H       -6.79918        19.59558        -7.59731
|101>    H       -6.59754        17.90221        -7.10898
|102>    H       -5.37535        18.68137        -8.13513
|103>    H       -5.77320        22.04205        -7.22806
|104>    H       -5.33088        24.32146        -6.78745
|105>    H       -2.08073        26.62585        -1.93390
|106>    H       -4.00188        29.53000        -5.50266
|107>    H       -3.07457        31.47940        -4.41693
|108>    H       -1.78321        32.49976        -2.58525
|109>    H       -0.82336        31.09164        -0.80673
|110>    H       -1.14762        28.64941        -0.84732
|111> *
|112>
|113>                          ****END OF INPUT****

CARTESIAN COORDINATES (ANGSTROEM)
---------------------------------
  C     -1.673970    5.762820    6.589140
  C     -2.811910    6.522860    6.507240
  C     -3.218620    7.432160    7.502890
  N     -3.584360    8.191020    8.282830
  C     -3.746370    6.393060    5.459630
  N     -4.551080    6.271120    4.649560
  C     -0.832480    5.622570    7.771350
  C     -0.119790    4.391270    7.672350
  C      0.719430    3.969980    8.662900
  C      0.895180    4.779210    9.808560
  C      0.198550    6.018540    9.903960
  C     -0.671350    6.426520    8.866490
  C      0.389270    6.818490   11.048720
  C      1.224290    6.414320   12.054490
  C      1.908380    5.193260   11.960870
  C      1.747120    4.393410   10.862200
  C     -0.441530    3.742470    6.386860
  O     -0.072740    2.663810    5.979940
  C     -1.274630    4.734040    5.652500
  C     -1.456360    4.615540    4.309570
  C     -1.817060    5.620530    3.380240
  C     -2.361930    5.409470    2.125790
  C     -2.571300    6.605380    1.444010
  C     -2.129050    7.745540    2.158900
  S     -1.489630    7.326220    3.697210
  C     -2.384340    8.847610    1.350040
  C     -2.986430    8.352430    0.166030
  N     -3.094500    6.990840    0.238520
  C     -3.649930    6.113350   -0.753920
  C     -3.317420    9.355570   -0.745810
  C     -2.969710   10.603260   -0.264670
  S     -2.225600   10.562090    1.322210
  C     -3.175410   11.839970   -0.923050
  N     -3.765410   11.960730   -2.078670
  C     -3.829380   13.241390   -2.440710
  C     -3.271180   14.176750   -1.552900
  S     -2.632510   13.366440   -0.181080
  N     -3.341840   15.456640   -1.910710
  C     -3.941290   15.590200   -3.055090
  S     -4.480270   14.058910   -3.807200
  C     -4.173190   16.837260   -3.677610
  C     -4.835200   17.086050   -4.865750
  C     -4.873240   18.452370   -5.140480
  C     -4.229980   19.241880   -4.155040
  S     -3.581990   18.280170   -2.880180
  C     -4.346260   20.571100   -4.557070
  C     -5.063960   20.551730   -5.784560
  N     -5.386520   19.260360   -6.119570
  C     -6.073860   18.836250   -7.307290
  C     -5.259590   21.814180   -6.311230
  C     -4.699150   22.812910   -5.505680
  S     -3.914280   22.161160   -4.066510
  C     -4.791100   24.166580   -5.860930
  C     -4.312980   25.290670   -5.236130
  C     -4.473150   26.653670   -5.704010
  C     -5.158250   27.079450   -6.814860
  C     -5.273770   28.430650   -7.201930
  N     -5.410280   29.507810   -7.576930
  C     -5.848090   26.257210   -7.728180
  N     -6.434580   25.663150   -8.518660
  C     -3.773840   27.527100   -4.764930
  C     -3.211820   26.723630   -3.732260
  C     -3.535860   25.312480   -3.990260
  O     -3.214190   24.360650   -3.300700
  C     -2.494710   27.260470   -2.703370
  C     -2.298880   28.659270   -2.658780
  C     -2.855000   29.472060   -3.687740
  C     -3.595630   28.884660   -4.740330
  C     -2.651560   30.865770   -3.635040
  C     -1.933700   31.430980   -2.616060
  C     -1.387040   30.629370   -1.603350
  C     -1.566070   29.272540   -1.624240
  H      1.244200    3.030160    8.575660
  H     -1.181960    7.372820    8.956610
  H     -0.142380    7.756230   11.117280
  H      1.361820    7.033300   12.928480
  H      2.563900    4.889640   12.763420
  H      2.271620    3.452170   10.784820
  H     -1.218140    3.643390    3.888250
  H     -2.622660    4.430910    1.766270
  H     -4.182850    6.704480   -1.495100
  H     -4.346620    5.416740   -0.285110
  H     -2.862330    5.542160   -1.253140
  H     -3.781610    9.227400   -1.705240
  H     -5.253460   16.303600   -5.472430
  H     -6.799180   19.595580   -7.597310
  H     -6.597540   17.902210   -7.108980
  H     -5.375350   18.681370   -8.135130
  H     -5.773200   22.042050   -7.228060
  H     -5.330880   24.321460   -6.787450
  H     -2.080730   26.625850   -1.933900
  H     -4.001880   29.530000   -5.502660
  H     -3.074570   31.479400   -4.416930
  H     -1.783210   32.499760   -2.585250
  H     -0.823360   31.091640   -0.806730
  H     -1.147620   28.649410   -0.847320

 Total Charge           Charge          ....    0
 Multiplicity           Mult            ....    1
 Number of Electrons    NEL             ....  528
 Basis Dimension        Dim             .... 1152

ORBITAL ENERGIES
----------------

  NO   OCC          E(Eh)            E(eV)
   0   2.0000     -88.973062     -2421.0801
   1   2.0000     -88.972096     -2421.0538
   2   2.0000     -88.968373     -2420.9525
   3   2.0000     -88.965313     -2420.8692
   4   2.0000     -88.964192     -2420.8387
   5   2.0000     -88.957270     -2420.6504
   6   2.0000     -19.210517      -522.7447
   7   2.0000     -19.207045      -522.6503
   8   2.0000     -14.478249      -393.9732
   9   2.0000     -14.474563      -393.8729
  10   2.0000     -14.426327      -392.5603
  11   2.0000     -14.425370      -392.5343
  12   2.0000     -14.409418      -392.1002
  13   2.0000     -14.408418      -392.0730
  14   2.0000     -14.405374      -391.9902
  15   2.0000     -14.404682      -391.9713
  16   2.0000     -10.359017      -281.8832
  17   2.0000     -10.358886      -281.8796
  18   2.0000     -10.354165      -281.7511
  19   2.0000     -10.354066      -281.7484
  20   2.0000     -10.334533      -281.2169
  21   2.0000     -10.333932      -281.2006
  22   2.0000     -10.333248      -281.1820
  23   2.0000     -10.332559      -281.1632
  24   2.0000     -10.332125      -281.1514
  25   2.0000     -10.330106      -281.0965
  26   2.0000     -10.329479      -281.0794
  27   2.0000     -10.328855      -281.0624
  28   2.0000     -10.323605      -280.9196
  29   2.0000     -10.323344      -280.9125
  30   2.0000     -10.320475      -280.8344
  31   2.0000     -10.318944      -280.7927
  32   2.0000     -10.318741      -280.7872
  33   2.0000     -10.316255      -280.7196
  34   2.0000     -10.315531      -280.6999
  35   2.0000     -10.314974      -280.6847
  36   2.0000     -10.314473      -280.6711
  37   2.0000     -10.313222      -280.6370
  38   2.0000     -10.311547      -280.5915
  39   2.0000     -10.311128      -280.5801
  40   2.0000     -10.309453      -280.5345
  41   2.0000     -10.308595      -280.5111
  42   2.0000     -10.308037      -280.4959
  43   2.0000     -10.306179      -280.4454
  44   2.0000     -10.301184      -280.3095
  45   2.0000     -10.300977      -280.3038
  46   2.0000     -10.300461      -280.2898
  47   2.0000     -10.297569      -280.2111
  48   2.0000     -10.297277      -280.2032
  49   2.0000     -10.296878      -280.1923
  50   2.0000     -10.294541      -280.1287
  51   2.0000     -10.293782      -280.1081
  52   2.0000     -10.292653      -280.0773
  53   2.0000     -10.292300      -280.0677
  54   2.0000     -10.291470      -280.0451
  55   2.0000     -10.290727      -280.0249
  56   2.0000     -10.290620      -280.0220
  57   2.0000     -10.290312      -280.0136
  58   2.0000     -10.289452      -279.9902
  59   2.0000     -10.289037      -279.9789
  60   2.0000     -10.288829      -279.9733
  61   2.0000     -10.286386      -279.9068
  62   2.0000     -10.283625      -279.8317
  63   2.0000     -10.281941      -279.7858
  64   2.0000     -10.281573      -279.7758
  65   2.0000     -10.281316      -279.7688
  66   2.0000     -10.280739      -279.7531
  67   2.0000     -10.280594      -279.7492
  68   2.0000     -10.280445      -279.7451
  69   2.0000     -10.279973      -279.7323
  70   2.0000     -10.279701      -279.7249
  71   2.0000     -10.279184      -279.7108
  72   2.0000      -8.068797      -219.5631
  73   2.0000      -8.068121      -219.5447
  74   2.0000      -8.063379      -219.4157
  75   2.0000      -8.059624      -219.3135
  76   2.0000      -8.058684      -219.2879
  77   2.0000      -8.049945      -219.0501
  78   2.0000      -6.037974      -164.3016
  79   2.0000      -6.037300      -164.2833
  80   2.0000      -6.034383      -164.2039
  81   2.0000      -6.033585      -164.1822
  82   2.0000      -6.033109      -164.1692
  83   2.0000      -6.030455      -164.0970
  84   2.0000      -6.029830      -164.0800
  85   2.0000      -6.029381      -164.0678
  86   2.0000      -6.029002      -164.0575
  87   2.0000      -6.028416      -164.0415
  88   2.0000      -6.025238      -163.9551
  89   2.0000      -6.024644      -163.9389
  90   2.0000      -6.024175      -163.9261
  91   2.0000      -6.020957      -163.8386
  92   2.0000      -6.020053      -163.8140
  93   2.0000      -6.019789      -163.8068
  94   2.0000      -6.015205      -163.6820
  95   2.0000      -6.011425      -163.5792
  96   2.0000      -1.126254       -30.6469
  97   2.0000      -1.121935       -30.5294
  98   2.0000      -1.105640       -30.0860
  99   2.0000      -1.102405       -29.9980
 100   2.0000      -1.098066       -29.8799
 101   2.0000      -1.058423       -28.8011
 102   2.0000      -1.011748       -27.5311
 103   2.0000      -1.009999       -27.4835
 104   2.0000      -0.991458       -26.9789
 105   2.0000      -0.991375       -26.9767
 106   2.0000      -0.989124       -26.9154
 107   2.0000      -0.986272       -26.8378
 108   2.0000      -0.985332       -26.8122
 109   2.0000      -0.983023       -26.7494
 110   2.0000      -0.981766       -26.7152
 111   2.0000      -0.980394       -26.6779
 112   2.0000      -0.964912       -26.2566
 113   2.0000      -0.963277       -26.2121
 114   2.0000      -0.922479       -25.1019
 115   2.0000      -0.919653       -25.0250
 116   2.0000      -0.917527       -24.9672
 117   2.0000      -0.908188       -24.7131
 118   2.0000      -0.903511       -24.5858
 119   2.0000      -0.891460       -24.2579
 120   2.0000      -0.886731       -24.1292
 121   2.0000      -0.884511       -24.0688
 122   2.0000      -0.875899       -23.8344
 123   2.0000      -0.873995       -23.7826
 124   2.0000      -0.868037       -23.6205
 125   2.0000      -0.863002       -23.4835
 126   2.0000      -0.851128       -23.1604
 127   2.0000      -0.847731       -23.0679
 128   2.0000      -0.846741       -23.0410
 129   2.0000      -0.844766       -22.9872
 130   2.0000      -0.839129       -22.8339
 131   2.0000      -0.822893       -22.3921
 132   2.0000      -0.821214       -22.3464
 133   2.0000      -0.817940       -22.2573
 134   2.0000      -0.804527       -21.8923
 135   2.0000      -0.796721       -21.6799
 136   2.0000      -0.774996       -21.0887
 137   2.0000      -0.770748       -20.9731
 138   2.0000      -0.762040       -20.7362
 139   2.0000      -0.754527       -20.5317
 140   2.0000      -0.753246       -20.4969
 141   2.0000      -0.742923       -20.2160
 142   2.0000      -0.718232       -19.5441
 143   2.0000      -0.709235       -19.2993
 144   2.0000      -0.700047       -19.0492
 145   2.0000      -0.697461       -18.9789
 146   2.0000      -0.695501       -18.9256
 147   2.0000      -0.691510       -18.8170
 148   2.0000      -0.689700       -18.7677
 149   2.0000      -0.678805       -18.4712
 150   2.0000      -0.671417       -18.2702
 151   2.0000      -0.670359       -18.2414
 152   2.0000      -0.662085       -18.0163
 153   2.0000      -0.660142       -17.9634
 154   2.0000      -0.656716       -17.8702
 155   2.0000      -0.653832       -17.7917
 156   2.0000      -0.650041       -17.6885
 157   2.0000      -0.644131       -17.5277
 158   2.0000      -0.636567       -17.3219
 159   2.0000      -0.626652       -17.0521
 160   2.0000      -0.625877       -17.0310
 161   2.0000      -0.613044       -16.6818
 162   2.0000      -0.604449       -16.4479
 163   2.0000      -0.602080       -16.3834
 164   2.0000      -0.600794       -16.3484
 165   2.0000      -0.599417       -16.3110
 166   2.0000      -0.596542       -16.2327
 167   2.0000      -0.595642       -16.2083
 168   2.0000      -0.588287       -16.0081
 169   2.0000      -0.581296       -15.8179
 170   2.0000      -0.575924       -15.6717
 171   2.0000      -0.574042       -15.6205
 172   2.0000      -0.569986       -15.5101
 173   2.0000      -0.569690       -15.5020
 174   2.0000      -0.559372       -15.2213
 175   2.0000      -0.552517       -15.0347
 176   2.0000      -0.549250       -14.9459
 177   2.0000      -0.547082       -14.8869
 178   2.0000      -0.542467       -14.7613
 179   2.0000      -0.540927       -14.7194
 180   2.0000      -0.540157       -14.6984
 181   2.0000      -0.535610       -14.5747
 182   2.0000      -0.532190       -14.4816
 183   2.0000      -0.530808       -14.4440
 184   2.0000      -0.529588       -14.4108
 185   2.0000      -0.528265       -14.3748
 186   2.0000      -0.524068       -14.2606
 187   2.0000      -0.523054       -14.2330
 188   2.0000      -0.516142       -14.0449
 189   2.0000      -0.514367       -13.9966
 190   2.0000      -0.513264       -13.9666
 191   2.0000      -0.511562       -13.9203
 192   2.0000      -0.510437       -13.8897
 193   2.0000      -0.509188       -13.8557
 194   2.0000      -0.508253       -13.8303
 195   2.0000      -0.506024       -13.7696
 196   2.0000      -0.502534       -13.6746
 197   2.0000      -0.500380       -13.6160
 198   2.0000      -0.498111       -13.5543
 199   2.0000      -0.496619       -13.5137
 200   2.0000      -0.493656       -13.4330
 201   2.0000      -0.492053       -13.3894
 202   2.0000      -0.489389       -13.3170
 203   2.0000      -0.489179       -13.3112
 204   2.0000      -0.486383       -13.2351
 205   2.0000      -0.482334       -13.1250
 206   2.0000      -0.481321       -13.0974
 207   2.0000      -0.480798       -13.0832
 208   2.0000      -0.479364       -13.0442
 209   2.0000      -0.475560       -12.9406
 210   2.0000      -0.468565       -12.7503
 211   2.0000      -0.463677       -12.6173
 212   2.0000      -0.461637       -12.5618
 213   2.0000      -0.458028       -12.4636
 214   2.0000      -0.457545       -12.4504
 215   2.0000      -0.455078       -12.3833
 216   2.0000      -0.442861       -12.0509
 217   2.0000      -0.442437       -12.0393
 218   2.0000      -0.440061       -11.9747
 219   2.0000      -0.438450       -11.9308
 220   2.0000      -0.437437       -11.9033
 221   2.0000      -0.434517       -11.8238
 222   2.0000      -0.433900       -11.8070
 223   2.0000      -0.432711       -11.7747
 224   2.0000      -0.431442       -11.7401
 225   2.0000      -0.428016       -11.6469
 226   2.0000      -0.427013       -11.6196
 227   2.0000      -0.426589       -11.6081
 228   2.0000      -0.426372       -11.6022
 229   2.0000      -0.423584       -11.5263
 230   2.0000      -0.420237       -11.4352
 231   2.0000      -0.419299       -11.4097
 232   2.0000      -0.417907       -11.3718
 233   2.0000      -0.416712       -11.3393
 234   2.0000      -0.416395       -11.3307
 235   2.0000      -0.410024       -11.1573
 236   2.0000      -0.401332       -10.9208
 237   2.0000      -0.401199       -10.9172
 238   2.0000      -0.397844       -10.8259
 239   2.0000      -0.396818       -10.7980
 240   2.0000      -0.395989       -10.7754
 241   2.0000      -0.392542       -10.6816
 242   2.0000      -0.380898       -10.3647
 243   2.0000      -0.379239       -10.3196
 244   2.0000      -0.374555       -10.1922
 245   2.0000      -0.368764       -10.0346
 246   2.0000      -0.363018        -9.8782
 247   2.0000      -0.351411        -9.5624
 248   2.0000      -0.346435        -9.4270
 249   2.0000      -0.339926        -9.2499
 250   2.0000      -0.335610        -9.1324
 251   2.0000      -0.331421        -9.0184
 252   2.0000      -0.329297        -8.9606
 253   2.0000      -0.325778        -8.8649
 254   2.0000      -0.324789        -8.8380
 255   2.0000      -0.311224        -8.4688
 256   2.0000      -0.309618        -8.4251
 257   2.0000      -0.297891        -8.1060
 258   2.0000      -0.289893        -7.8884
 259   2.0000      -0.287225        -7.8158
 260   2.0000      -0.281627        -7.6635
 261   2.0000      -0.278429        -7.5765
 262   2.0000      -0.257738        -7.0134
 263   2.0000      -0.234787        -6.3889
 264   0.0000      -0.095426        -2.5967
 265   0.0000      -0.087048        -2.3687
 266   0.0000      -0.057519        -1.5652
 267   0.0000      -0.050310        -1.3690
 268   0.0000      -0.044914        -1.2222

MULLIKEN ATOMIC CHARGES
-----------------------
   0 C :    0.245480
   1 C :   -0.319252
   2 C :   -0.176623
   3 N :    0.147737
   4 C :   -0.199021
   5 N :    0.164165
   6 C :    0.038540
   7 C :    0.012123
   8 C :   -0.084242
   9 C :    0.094488
  10 C :    0.094103
  11 C :   -0.079868
  12 C :   -0.018212
  13 C :    0.036208
  14 C :    0.033556
  15 C :   -0.014560
  16 C :    0.140828
  17 O :   -0.146335
  18 C :   -0.143435
  19 C :    0.053330
  20 C :   -0.104765
  21 C :   -0.037656
  22 C :    0.173497
  23 C :   -0.101896
  24 S :    0.162409
  25 C :   -0.114461
  26 C :    0.160625
  27 N :   -0.168397
  28 C :    0.123479
  29 C :   -0.081818
  30 C :   -0.035898
  31 S :    0.153813
  32 C :   -0.109621
  33 N :   -0.033841
  34 C :   -0.053437
  35 C :   -0.059491
  36 S :    0.129920
  37 N :   -0.034836
  38 C :   -0.101296
  39 S :    0.110161
  40 C :   -0.047096
  41 C :   -0.101213
  42 C :    0.169946
  43 C :   -0.135411
  44 S :    0.212228
  45 C :   -0.089736
  46 C :    0.205514
  47 N :   -0.169902
  48 C :    0.124770
  49 C :   -0.125917
  50 C :   -0.052507
  51 S :    0.202903
  52 C :   -0.027597
  53 C :   -0.099291
  54 C :    0.337915
  55 C :   -0.367776
  56 C :   -0.183555
  57 N :    0.139710
  58 C :   -0.187002
  59 N :    0.134780
  60 C :    0.044715
  61 C :   -0.002579
  62 C :    0.164978
  63 O :   -0.180889
  64 C :   -0.084477
  65 C :    0.098215
  66 C :    0.096056
  67 C :   -0.085260
  68 C :   -0.020562
  69 C :    0.034111
  70 C :    0.035711
  71 C :   -0.017598
  72 H :   -0.014390
  73 H :   -0.006871
  74 H :   -0.012748
  75 H :   -0.006332
  76 H :   -0.007116
  77 H :   -0.019308
  78 H :    0.023481
  79 H :   -0.013545
  80 H :    0.043600
  81 H :    0.049342
  82 H :    0.044096
  83 H :   -0.007399
  84 H :   -0.013529
  85 H :    0.045359
  86 H :    0.039790
  87 H :    0.045394
  88 H :   -0.004018
  89 H :    0.003233
  90 H :   -0.015024
  91 H :   -0.009769
  92 H :   -0.010438
  93 H :   -0.006160
  94 H :   -0.007433
  95 H :   -0.018899
Sum of atomic charges:   -0.0000000

LOEWDIN ATOMIC CHARGES
----------------------
   0 C :    0.060048
   1 C :   -0.143632
   2 C :   -0.018885
   3 N :   -0.056150
   4 C :   -0.031240
   5 N :   -0.055348
   6 C :   -0.021511
   7 C :   -0.056228
   8 C :    0.030439
   9 C :   -0.009967
  10 C :   -0.005784
  11 C :    0.014141
  12 C :   -0.007094
  13 C :   -0.014410
  14 C :   -0.015274
  15 C :   -0.009810
  16 C :    0.082314
  17 O :   -0.149032
  18 C :   -0.103006
  19 C :    0.050068
  20 C :   -0.172217
  21 C :   -0.026632
  22 C :   -0.015726
  23 C :   -0.197225
  24 S :    0.446389
  25 C :   -0.219028
  26 C :   -0.004162
  27 N :    0.031849
  28 C :    0.041387
  29 C :   -0.047096
  30 C :   -0.187463
  31 S :    0.421604
  32 C :   -0.130729
  33 N :   -0.104404
  34 C :   -0.208992
  35 C :   -0.212735
  36 S :    0.409232
  37 N :   -0.103333
  38 C :   -0.131766
  39 S :    0.399765
  40 C :   -0.180646
  41 C :   -0.075517
  42 C :   -0.000049
  43 C :   -0.225903
  44 S :    0.463678
  45 C :   -0.203772
  46 C :   -0.020369
  47 N :    0.021805
  48 C :    0.040602
  49 C :   -0.035848
  50 C :   -0.175861
  51 S :    0.487930
  52 C :    0.053951
  53 C :   -0.117192
  54 C :    0.079340
  55 C :   -0.152257
  56 C :   -0.017240
  57 N :   -0.063169
  58 C :   -0.019676
  59 N :   -0.065814
  60 C :   -0.024741
  61 C :   -0.053260
  62 C :    0.082681
  63 O :   -0.169548
  64 C :    0.028989
  65 C :   -0.009141
  66 C :   -0.007408
  67 C :    0.018017
  68 C :   -0.006017
  69 C :   -0.015947
  70 C :   -0.014391
  71 C :   -0.010809
  72 H :    0.038427
  73 H :    0.038313
  74 H :    0.033726
  75 H :    0.032408
  76 H :    0.031923
  77 H :    0.031171
  78 H :    0.049905
  79 H :    0.037167
  80 H :    0.038221
  81 H :    0.036166
  82 H :    0.030929
  83 H :    0.037842
  84 H :    0.028257
  85 H :    0.036620
  86 H :    0.034841
  87 H :    0.030166
  88 H :    0.037722
  89 H :    0.049192
  90 H :    0.038118
  91 H :    0.038562
  92 H :    0.034213
  93 H :    0.032390
  94 H :    0.031798
  95 H :    0.031152

  Mayer bond orders larger than 0.100000
B(  0-C ,  1-C ) :   1.6529 B(  0-C ,  6-C ) :   0.9996 B(  0-C , 18-C ) :   1.0432
B(  1-C ,  2-C ) :   1.1413 B(  1-C ,  4-C ) :   1.1510 B(  2-C ,  3-N ) :   2.9877
B(  4-C ,  5-N ) :   3.0193 B(  6-C ,  7-C ) :   1.2163 B(  6-C , 11-C ) :   1.4613
B(  7-C ,  8-C ) :   1.4770 B(  7-C , 16-C ) :   0.9182 B(  8-C ,  9-C ) :   1.1826
B(  8-C , 72-H ) :   1.0157 B(  9-C , 10-C ) :   1.2595 B(  9-C , 15-C ) :   1.2453
B( 10-C , 11-C ) :   1.2026 B( 10-C , 12-C ) :   1.2407 B( 11-C , 73-H ) :   0.9941
B( 12-C , 13-C ) :   1.4908 B( 12-C , 74-H ) :   0.9971 B( 13-C , 14-C ) :   1.2608
B( 13-C , 75-H ) :   0.9883 B( 14-C , 15-C ) :   1.4884 B( 14-C , 76-H ) :   0.9889
B( 15-C , 77-H ) :   0.9974 B( 16-C , 17-O ) :   2.2728 B( 16-C , 18-C ) :   0.9423
B( 18-C , 19-C ) :   1.6263 B( 19-C , 20-C ) :   1.1498 B( 19-C , 78-H ) :   0.9479
B( 20-C , 21-C ) :   1.4039 B( 20-C , 24-S ) :   1.0885 B( 21-C , 22-C ) :   1.2466
B( 21-C , 79-H ) :   1.0186 B( 22-C , 23-C ) :   1.3535 B( 22-C , 27-N ) :   1.1429
B( 23-C , 24-S ) :   1.0524 B( 23-C , 25-C ) :   1.4233 B( 25-C , 26-C ) :   1.3664
B( 25-C , 31-S ) :   1.0377 B( 26-C , 27-N ) :   1.1574 B( 26-C , 29-C ) :   1.2048
B( 27-N , 28-C ) :   0.9641 B( 28-C , 80-H ) :   0.9736 B( 28-C , 81-H ) :   0.9714
B( 28-C , 82-H ) :   0.9732 B( 29-C , 30-C ) :   1.4977 B( 29-C , 83-H ) :   1.0224
B( 30-C , 31-S ) :   1.0952 B( 30-C , 32-C ) :   1.1153 B( 32-C , 33-N ) :   1.7244
B( 32-C , 36-S ) :   1.0857 B( 33-N , 34-C ) :   1.3975 B( 34-C , 35-C ) :   1.3035
B( 34-C , 39-S ) :   1.0937 B( 35-C , 36-S ) :   1.0984 B( 35-C , 37-N ) :   1.4006
B( 37-N , 38-C ) :   1.7229 B( 38-C , 39-S ) :   1.0811 B( 38-C , 40-C ) :   1.1545
B( 40-C , 41-C ) :   1.4647 B( 40-C , 44-S ) :   1.1149 B( 41-C , 42-C ) :   1.2524
B( 41-C , 84-H ) :   1.0001 B( 42-C , 43-C ) :   1.3747 B( 42-C , 47-N ) :   1.1541
B( 43-C , 44-S ) :   1.0256 B( 43-C , 45-C ) :   1.4066 B( 45-C , 46-C ) :   1.3188
B( 45-C , 51-S ) :   1.0203 B( 46-C , 47-N ) :   1.1287 B( 46-C , 49-C ) :   1.2683
B( 47-N , 48-C ) :   0.9672 B( 48-C , 85-H ) :   0.9718 B( 48-C , 86-H ) :   0.9722
B( 48-C , 87-H ) :   0.9737 B( 49-C , 50-C ) :   1.3171 B( 49-C , 88-H ) :   1.0319
B( 50-C , 51-S ) :   1.0709 B( 50-C , 52-C ) :   1.2986 B( 52-C , 53-C ) :   1.4613
B( 52-C , 89-H ) :   0.9360 B( 53-C , 54-C ) :   1.0957 B( 53-C , 62-C ) :   0.9778
B( 54-C , 55-C ) :   1.6000 B( 54-C , 60-C ) :   0.9796 B( 55-C , 56-C ) :   1.1527
B( 55-C , 58-C ) :   1.1496 B( 56-C , 57-N ) :   2.9585 B( 58-C , 59-N ) :   2.9533
B( 60-C , 61-C ) :   1.2154 B( 60-C , 67-C ) :   1.4587 B( 61-C , 62-C ) :   0.9565
B( 61-C , 64-C ) :   1.4757 B( 62-C , 63-O ) :   2.1332 B( 64-C , 65-C ) :   1.1730
B( 64-C , 90-H ) :   1.0161 B( 65-C , 66-C ) :   1.2587 B( 65-C , 71-C ) :   1.2465
B( 66-C , 67-C ) :   1.2007 B( 66-C , 68-C ) :   1.2429 B( 67-C , 91-H ) :   0.9884
B( 68-C , 69-C ) :   1.4875 B( 68-C , 92-H ) :   0.9965 B( 69-C , 70-C ) :   1.2623
B( 69-C , 93-H ) :   0.9884 B( 70-C , 71-C ) :   1.4869 B( 70-C , 94-H ) :   0.9882
B( 71-C , 95-H ) :   0.9970

-----------------------------------------------------------------------------
         ABSORPTION SPECTRUM VIA TRANSITION ELECTRIC DIPOLE MOMENTS
-----------------------------------------------------------------------------
State   Energy  Wavelength   fosc         T2         TX        TY        TZ
        (cm-1)    (nm)                  (au**2)     (au)      (au)      (au)
-----------------------------------------------------------------------------
   0   16195.4    617.5   2.731029813  55.51510   0.72796  -6.29322   3.92180
   1   18899.3    529.1   0.698346811  12.16466   0.12241   3.27356   1.19729
   2   23647.6    422.9   0.058908214   0.82009  -0.62481   0.19477  -0.62592
   3   24206.1    413.1   0.002862350   0.03893  -0.06074   0.01330  -0.18725
   4   24787.1    403.4   0.212297222   2.81964   0.50979  -1.37132   0.82416
   5   25189.8    397.0   0.136212355   1.78019  -0.24253  -1.00488  -0.84356
   6   26296.4    380.3   0.055044857   0.68912   0.42805  -0.39530   0.59130
   7   26688.0    374.7   0.023302350   0.28745  -0.44493   0.25922  -0.14931
   8   27623.8    362.0   0.273493078   3.25941   0.98852   0.10960   1.50673
   9   27929.7    358.0   0.145288782   1.71254   0.14368   1.25591  -0.33850
  10   28454.4    351.4   0.036540808   0.42277  -0.00336   0.57483  -0.30386
  11   28727.3    348.1   0.002851144   0.03267  -0.16598   0.07153  -0.00282
  12   28878.1    346.3   0.074283706   0.84684  -0.55649   0.62776  -0.37824
  13   29978.6    333.6   0.042322093   0.46476   0.37961   0.24209   0.51191
  14   30259.5    330.5   0.031898072   0.34704  -0.39121   0.06405  -0.43576
  15   31396.2    318.5   0.022528964   0.23623  -0.04267  -0.47672  -0.08454
  16   31702.1    315.4   0.033407503   0.34692   0.02570   0.51362   0.28715
  17   32118.6    311.3   0.022197068   0.22752   0.34425  -0.15153   0.29334
  18   32498.0    307.7   0.098841602   1.00129  -0.29626   0.95042   0.10112
  19   33428.5    299.1   0.081085198   0.79855   0.72643   0.01987   0.52004
  20   33874.7    295.2   0.311948283   3.03168  -0.99713  -0.86064  -1.13873
  21   33925.2    294.8   0.193744518   1.88011  -1.00454   0.37750  -0.85352
  22   33998.2    294.1   0.119212856   1.15436   0.19498  -1.05457  -0.06503
  23   34153.0    292.8   0.021564907   0.20787   0.34016  -0.00552   0.30353
  24   34674.0    288.4   0.540019713   5.12721  -1.15612  -0.63582  -1.84020
  25   34766.5    287.6   0.186651956   1.76745   0.77062  -0.23860   1.05672
  26   35488.2    281.8   0.266587029   2.47304  -0.88787  -0.33948  -1.25279
  27   35943.6    278.2   0.004340130   0.03975  -0.13055   0.14996  -0.01484
  28   36156.0    276.6   0.063507186   0.57825   0.41721   0.14527   0.61894
  29   36414.9    274.6   0.042542204   0.38461   0.10144   0.54368  -0.28059
  30   36586.5    273.3   0.042596492   0.38329   0.24635   0.48199   0.30047
  31   36992.6    270.3   0.069440153   0.61798   0.39095   0.09529   0.67532
  32   37163.6    269.1   0.225360176   1.99634   0.74096   0.36612   1.14598
  33   37413.8    267.3   0.001617257   0.01423  -0.04496  -0.01036  -0.11001
  34   37619.5    265.8   0.002147361   0.01879   0.10898  -0.07954   0.02426
  35   37780.5    264.7   0.005421862   0.04725  -0.07082  -0.18469   0.09010
  36   38226.8    261.6   0.035679793   0.30728  -0.05289  -0.45908  -0.30615
  37   38299.4    261.1   0.048317349   0.41532   0.35864  -0.37026   0.38679
  38   39003.7    256.4   0.222492520   1.87795   0.89207  -0.29743   0.99684
  39   39173.3    255.3   0.001568535   0.01318  -0.01836   0.04403  -0.10443
  40   39310.2    254.4   0.033638758   0.28172   0.02487   0.15996  -0.50548
  41   39810.4    251.2   0.027593814   0.22819   0.10688  -0.43083  -0.17650
  42   40131.7    249.2   0.180166666   1.47796  -0.58438   1.06072   0.10642

FINAL SINGLE POINT ENERGY     -5121.773876989545

DIPOLE MOMENT
-------------
                                X             Y             Z
Electronic contribution:     -6.65973      -4.87785      -9.17094
Nuclear contribution   :      8.30518       2.69926       8.97655
                        -----------------------------------------
Total Dipole Moment    :      1.64545      -2.17860      -0.19439
                        -----------------------------------------
Magnitude (a.u.)       :      2.73708
Magnitude (Debye)      :      6.95709

Rotational constants in cm-1:     0.001615     0.000160     0.000147
Rotational constants in MHz :    48.403769     4.793864     4.409252

                             ****ORCA TERMINATED NORMALLY****
TOTAL RUN TIME: 0 days 0 hours 10 minutes 1 seconds 357 msec
