                         Program Version 4.2.0 -  RELEASE  -
|  1> # ORCA input file
|  2> # SCF done       -225.095272506036          0.000735790355
|  3> ! CAM-B3LYP def2-SVP def2/J RIJCOSX Grid4 TightSCF
|  4> %maxcore 5000
|  5> %tddft
|  6>     Mode sTDDFT
|  7>     Ethresh 5.0
|  8>     maxcore 5000
|  9> end
| 10>
| 11> %pal
| 12>   nprocs 6
| 13>   end
| 14> * xyz 0 1
| 15>    C       -3.67659         2.40390        -1.57407
| 16>    C       -3.79902         1.92794        -0.29299
| 17>    C       -4.31317         0.65606         0.03018
| 18>    N       -4.70395        -0.37216         0.36004
| 19>    C       -3.42785         2.62951         0.87175
| 20>    N       -3.14331         3.13921         1.86114
| 21>    C       -4.10539         1.71181        -2.78434
| 22>    C       -3.83857         2.54833        -3.90497
| 23>    C       -4.15024         2.17369        -5.17912
| 24>    C       -4.76214         0.91864        -5.39557
| 25>    C       -5.02934         0.07274        -4.28115
| 26>    C       -4.69051         0.48855        -2.97231
| 27>    C       -5.63849        -1.17764        -4.50928
| 28>    C       -5.97070        -1.57459        -5.77620
| 29>    C       -5.70898        -0.73993        -6.87257
| 30>    C       -5.11788         0.48037        -6.68599
| 31>    C       -3.23067         3.80459        -3.44582
| 32>    O       -2.78528         4.69963        -4.13730
| 33>    C       -3.17190         3.70226        -1.96486
| 34>    C       -2.56253         4.62255        -1.14849
| 35>    C       -2.25888         5.94983        -1.50128
| 36>    S       -0.85430         6.71287        -0.81761
| 37>    C       -1.00611         8.11352        -1.81971
| 38>    C       -2.16459         8.02150        -2.62667
| 39>    C       -2.90403         6.82858        -2.38713
| 40>    C       -4.16617         6.66542        -3.00949
| 41>    C       -5.15352         5.65577        -2.61006
| 42>    O       -5.79139         4.94241        -3.33836
| 43>    C       -5.56795         5.68825        -1.10047
| 44>    F       -4.77080         6.41023        -0.30358
| 45>    F       -6.78445         6.25095        -1.02026
| 46>    F       -5.66190         4.46652        -0.56978
| 47>    C       -4.55285         7.56423        -3.98400
| 48>    C       -3.77378         8.68810        -4.27753
| 49>    C       -2.61817         8.94218        -3.58404
| 50>    C       -0.07663         9.16770        -1.79308
| 51>    C        0.96106         9.26166        -0.91108
| 52>    C        1.89161        10.31773        -0.84363
| 53>    N        1.94206        11.36370        -1.74363
| 54>    C        2.93378        12.20999        -1.36745
| 55>    C        3.57164        13.39464        -1.69426
| 56>    C        4.54603        13.59726        -0.69970
| 57>    N        4.49887        12.55349         0.20425
| 58>    C        3.52498        11.68926        -0.18009
| 59>    C        2.88007        10.50490         0.14035
| 60>    C        5.45309        14.66453        -0.54430
| 61>    C        5.57168        15.69864        -1.42443
| 62>    C        6.42332        16.80615        -1.28035
| 63>    S        7.21248        17.20837         0.20229
| 64>    C        7.75969        18.75751        -0.38365
| 65>    C        7.39517        18.92332        -1.74080
| 66>    C        6.67269        17.80122        -2.24707
| 67>    C        6.26012        17.78165        -3.59907
| 68>    C        5.70506        16.59789        -4.26878
| 69>    O        4.69632        16.54863        -4.92257
| 70>    C        6.65586        15.35153        -4.30525
| 71>    F        7.67773        15.39322        -3.44134
| 72>    F        6.00217        14.20433        -4.08992
| 73>    F        7.19814        15.27507        -5.52998
| 74>    C        6.46658        18.90113        -4.38316
| 75>    C        7.18296        19.99256        -3.88464
| 76>    C        7.67138        19.99968        -2.60204
| 77>    C        8.39769        19.59614         0.54177
| 78>    C        8.65655        20.93428         0.41143
| 79>    C        9.28203        21.67322         1.42669
| 80>    C        9.53973        23.02108         1.34691
| 81>    C       10.14108        23.85276         2.36575
| 82>    C       10.58576        23.45694         3.60415
| 83>    C       11.16916        24.32479         4.54947
| 84>    N       11.65247        24.97256         5.36540
| 85>    C       10.53159        22.14607         4.11780
| 86>    N       10.52304        21.10823         4.61133
| 87>    C       10.19391        25.21954         1.85273
| 88>    C        9.64919        25.23075         0.53739
| 89>    C        9.23274        23.86703         0.16999
| 90>    O        8.74750        23.52546        -0.89301
| 91>    C        9.55987        26.37567        -0.19942
| 92>    C       10.01852        27.59069         0.35726
| 93>    C       10.56446        27.58964         1.67271
| 94>    C       10.64553        26.38549         2.41083
| 95>    C       11.01764        28.80705         2.21960
| 96>    C       10.93601        29.97034         1.50331
| 97>    C       10.39810        29.96989         0.20797
| 98>    C        9.94913        28.80496        -0.35289
| 99>    H       -3.94236         2.83163        -6.00958
|100>    H       -4.90670        -0.17421        -2.14955
|101>    H       -5.83979        -1.81622        -3.66164
|102>    H       -6.43807        -2.53414        -5.94018
|103>    H       -5.97810        -1.06834        -7.86553
|104>    H       -4.91433         1.12802        -7.52635
|105>    H       -2.22113         4.30554        -0.17070
|106>    H       -5.49716         7.41550        -4.48492
|107>    H       -4.11350         9.37615        -5.03585
|108>    H       -2.05709         9.84315        -3.77714
|109>    H       -0.24040         9.95434        -2.51615
|110>    H        1.08248         8.48121        -0.17254
|111>    H        1.36775        11.44931        -2.56315
|112>    H        3.38064        14.03717        -2.52882
|113>    H        5.10188        12.46514         1.00410
|114>    H        3.05981         9.84645         0.96595
|115>    H        6.09655        14.64812         0.32645
|116>    H        4.94498        15.70053        -2.30633
|117>    H        6.12896        18.89551        -5.40811
|118>    H        7.37569        20.83175        -4.53430
|119>    H        8.26997        20.83028        -2.27103
|120>    H        8.66497        19.12402         1.48144
|121>    H        8.34451        21.47491        -0.46469
|122>    H        9.56698        21.13755         2.32284
|123>    H        9.14167        26.35534        -1.19503
|124>    H       11.06397        26.42097         3.40398
|125>    H       11.43105        28.80275         3.21757
|126>    H       11.28569        30.89783         1.93156
|127>    H       10.34099        30.89670        -0.34328
|128>    H        9.53353        28.79794        -1.35013
|129> *
|130>
|131>                          ****END OF INPUT****

CARTESIAN COORDINATES (ANGSTROEM)
---------------------------------
  C     -3.676590    2.403900   -1.574070
  C     -3.799020    1.927940   -0.292990
  C     -4.313170    0.656060    0.030180
  N     -4.703950   -0.372160    0.360040
  C     -3.427850    2.629510    0.871750
  N     -3.143310    3.139210    1.861140
  C     -4.105390    1.711810   -2.784340
  C     -3.838570    2.548330   -3.904970
  C     -4.150240    2.173690   -5.179120
  C     -4.762140    0.918640   -5.395570
  C     -5.029340    0.072740   -4.281150
  C     -4.690510    0.488550   -2.972310
  C     -5.638490   -1.177640   -4.509280
  C     -5.970700   -1.574590   -5.776200
  C     -5.708980   -0.739930   -6.872570
  C     -5.117880    0.480370   -6.685990
  C     -3.230670    3.804590   -3.445820
  O     -2.785280    4.699630   -4.137300
  C     -3.171900    3.702260   -1.964860
  C     -2.562530    4.622550   -1.148490
  C     -2.258880    5.949830   -1.501280
  S     -0.854300    6.712870   -0.817610
  C     -1.006110    8.113520   -1.819710
  C     -2.164590    8.021500   -2.626670
  C     -2.904030    6.828580   -2.387130
  C     -4.166170    6.665420   -3.009490
  C     -5.153520    5.655770   -2.610060
  O     -5.791390    4.942410   -3.338360
  C     -5.567950    5.688250   -1.100470
  F     -4.770800    6.410230   -0.303580
  F     -6.784450    6.250950   -1.020260
  F     -5.661900    4.466520   -0.569780
  C     -4.552850    7.564230   -3.984000
  C     -3.773780    8.688100   -4.277530
  C     -2.618170    8.942180   -3.584040
  C     -0.076630    9.167700   -1.793080
  C      0.961060    9.261660   -0.911080
  C      1.891610   10.317730   -0.843630
  N      1.942060   11.363700   -1.743630
  C      2.933780   12.209990   -1.367450
  C      3.571640   13.394640   -1.694260
  C      4.546030   13.597260   -0.699700
  N      4.498870   12.553490    0.204250
  C      3.524980   11.689260   -0.180090
  C      2.880070   10.504900    0.140350
  C      5.453090   14.664530   -0.544300
  C      5.571680   15.698640   -1.424430
  C      6.423320   16.806150   -1.280350
  S      7.212480   17.208370    0.202290
  C      7.759690   18.757510   -0.383650
  C      7.395170   18.923320   -1.740800
  C      6.672690   17.801220   -2.247070
  C      6.260120   17.781650   -3.599070
  C      5.705060   16.597890   -4.268780
  O      4.696320   16.548630   -4.922570
  C      6.655860   15.351530   -4.305250
  F      7.677730   15.393220   -3.441340
  F      6.002170   14.204330   -4.089920
  F      7.198140   15.275070   -5.529980
  C      6.466580   18.901130   -4.383160
  C      7.182960   19.992560   -3.884640
  C      7.671380   19.999680   -2.602040
  C      8.397690   19.596140    0.541770
  C      8.656550   20.934280    0.411430
  C      9.282030   21.673220    1.426690
  C      9.539730   23.021080    1.346910
  C     10.141080   23.852760    2.365750
  C     10.585760   23.456940    3.604150
  C     11.169160   24.324790    4.549470
  N     11.652470   24.972560    5.365400
  C     10.531590   22.146070    4.117800
  N     10.523040   21.108230    4.611330
  C     10.193910   25.219540    1.852730
  C      9.649190   25.230750    0.537390
  C      9.232740   23.867030    0.169990
  O      8.747500   23.525460   -0.893010
  C      9.559870   26.375670   -0.199420
  C     10.018520   27.590690    0.357260
  C     10.564460   27.589640    1.672710
  C     10.645530   26.385490    2.410830
  C     11.017640   28.807050    2.219600
  C     10.936010   29.970340    1.503310
  C     10.398100   29.969890    0.207970
  C      9.949130   28.804960   -0.352890
  H     -3.942360    2.831630   -6.009580
  H     -4.906700   -0.174210   -2.149550
  H     -5.839790   -1.816220   -3.661640
  H     -6.438070   -2.534140   -5.940180
  H     -5.978100   -1.068340   -7.865530
  H     -4.914330    1.128020   -7.526350
  H     -2.221130    4.305540   -0.170700
  H     -5.497160    7.415500   -4.484920
  H     -4.113500    9.376150   -5.035850
  H     -2.057090    9.843150   -3.777140
  H     -0.240400    9.954340   -2.516150
  H      1.082480    8.481210   -0.172540
  H      1.367750   11.449310   -2.563150
  H      3.380640   14.037170   -2.528820
  H      5.101880   12.465140    1.004100
  H      3.059810    9.846450    0.965950
  H      6.096550   14.648120    0.326450
  H      4.944980   15.700530   -2.306330
  H      6.128960   18.895510   -5.408110
  H      7.375690   20.831750   -4.534300
  H      8.269970   20.830280   -2.271030
  H      8.664970   19.124020    1.481440
  H      8.344510   21.474910   -0.464690
  H      9.566980   21.137550    2.322840
  H      9.141670   26.355340   -1.195030
  H     11.063970   26.420970    3.403980
  H     11.431050   28.802750    3.217570
  H     11.285690   30.897830    1.931560
  H     10.340990   30.896700   -0.343280
  H      9.533530   28.797940   -1.350130

 Total Charge           Charge          ....    0
 Multiplicity           Mult            ....    1
 Number of Electrons    NEL             ....  586
 Basis Dimension        Dim             .... 1334

ORBITAL ENERGIES
----------------

  NO   OCC          E(Eh)            E(eV)
   0   2.0000     -88.988361     -2421.4964
   1   2.0000     -88.981193     -2421.3014
   2   2.0000     -24.818921      -675.3572
   3   2.0000     -24.817002      -675.3050
   4   2.0000     -24.813737      -675.2161
   5   2.0000     -24.804773      -674.9722
   6   2.0000     -24.803147      -674.9279
   7   2.0000     -24.798460      -674.8004
   8   2.0000     -19.256350      -523.9919
   9   2.0000     -19.240992      -523.5740
  10   2.0000     -19.210420      -522.7421
  11   2.0000     -19.201084      -522.4881
  12   2.0000     -14.481123      -394.0514
  13   2.0000     -14.478397      -393.9772
  14   2.0000     -14.409673      -392.1071
  15   2.0000     -14.406167      -392.0117
  16   2.0000     -14.402523      -391.9126
  17   2.0000     -14.400562      -391.8592
  18   2.0000     -10.529616      -286.5254
  19   2.0000     -10.514702      -286.1196
  20   2.0000     -10.405839      -283.1573
  21   2.0000     -10.390235      -282.7327
  22   2.0000     -10.360576      -281.9256
  23   2.0000     -10.352665      -281.7103
  24   2.0000     -10.337345      -281.2935
  25   2.0000     -10.335838      -281.2525
  26   2.0000     -10.332474      -281.1609
  27   2.0000     -10.331506      -281.1346
  28   2.0000     -10.331322      -281.1296
  29   2.0000     -10.329845      -281.0894
  30   2.0000     -10.326003      -280.9848
  31   2.0000     -10.325526      -280.9719
  32   2.0000     -10.325428      -280.9692
  33   2.0000     -10.319124      -280.7976
  34   2.0000     -10.317906      -280.7645
  35   2.0000     -10.314407      -280.6693
  36   2.0000     -10.313879      -280.6549
  37   2.0000     -10.313805      -280.6529
  38   2.0000     -10.313641      -280.6484
  39   2.0000     -10.313225      -280.6371
  40   2.0000     -10.312733      -280.6237
  41   2.0000     -10.312557      -280.6189
  42   2.0000     -10.312047      -280.6051
  43   2.0000     -10.310745      -280.5696
  44   2.0000     -10.309919      -280.5472
  45   2.0000     -10.308085      -280.4973
  46   2.0000     -10.307927      -280.4929
  47   2.0000     -10.306160      -280.4449
  48   2.0000     -10.306001      -280.4406
  49   2.0000     -10.305740      -280.4334
  50   2.0000     -10.304436      -280.3980
  51   2.0000     -10.304095      -280.3887
  52   2.0000     -10.301438      -280.3164
  53   2.0000     -10.301403      -280.3154
  54   2.0000     -10.301188      -280.3096
  55   2.0000     -10.301048      -280.3058
  56   2.0000     -10.300341      -280.2865
  57   2.0000     -10.298133      -280.2265
  58   2.0000     -10.296334      -280.1775
  59   2.0000     -10.292698      -280.0785
  60   2.0000     -10.292331      -280.0686
  61   2.0000     -10.291025      -280.0330
  62   2.0000     -10.290545      -280.0200
  63   2.0000     -10.290374      -280.0153
  64   2.0000     -10.290169      -280.0097
  65   2.0000     -10.288460      -279.9632
  66   2.0000     -10.287833      -279.9462
  67   2.0000     -10.286760      -279.9170
  68   2.0000     -10.286663      -279.9143
  69   2.0000     -10.284809      -279.8639
  70   2.0000     -10.284483      -279.8550
  71   2.0000     -10.282704      -279.8066
  72   2.0000     -10.282682      -279.8060
  73   2.0000     -10.282276      -279.7950
  74   2.0000     -10.282117      -279.7906
  75   2.0000     -10.281948      -279.7860
  76   2.0000     -10.281741      -279.7804
  77   2.0000     -10.281103      -279.7630
  78   2.0000     -10.280941      -279.7586
  79   2.0000     -10.275718      -279.6165
  80   2.0000     -10.274880      -279.5937
  81   2.0000     -10.274517      -279.5838
  82   2.0000     -10.274514      -279.5837
  83   2.0000     -10.273955      -279.5685
  84   2.0000      -8.083639      -219.9670
  85   2.0000      -8.076551      -219.7741
  86   2.0000      -6.052567      -164.6987
  87   2.0000      -6.048570      -164.5900
  88   2.0000      -6.046392      -164.5307
  89   2.0000      -6.045506      -164.5066
  90   2.0000      -6.041569      -164.3994
  91   2.0000      -6.039127      -164.3330
  92   2.0000      -1.406433       -38.2710
  93   2.0000      -1.392387       -37.8888
  94   2.0000      -1.310393       -35.6576
  95   2.0000      -1.306946       -35.5638
  96   2.0000      -1.296854       -35.2892
  97   2.0000      -1.292021       -35.1577
  98   2.0000      -1.172257       -31.8987
  99   2.0000      -1.158339       -31.5200
 100   2.0000      -1.123492       -30.5718
 101   2.0000      -1.116477       -30.3809
 102   2.0000      -1.112762       -30.2798
 103   2.0000      -1.076234       -29.2858
 104   2.0000      -1.023456       -27.8496
 105   2.0000      -1.016595       -27.6630
 106   2.0000      -1.010626       -27.5005
 107   2.0000      -1.004162       -27.3246
 108   2.0000      -0.992313       -27.0022
 109   2.0000      -0.986375       -26.8406
 110   2.0000      -0.985067       -26.8050
 111   2.0000      -0.980278       -26.6747
 112   2.0000      -0.965736       -26.2790
 113   2.0000      -0.962604       -26.1938
 114   2.0000      -0.959496       -26.1092
 115   2.0000      -0.954925       -25.9848
 116   2.0000      -0.941116       -25.6091
 117   2.0000      -0.930986       -25.3334
 118   2.0000      -0.922204       -25.0945
 119   2.0000      -0.912792       -24.8383
 120   2.0000      -0.911009       -24.7898
 121   2.0000      -0.903424       -24.5834
 122   2.0000      -0.899360       -24.4728
 123   2.0000      -0.886292       -24.1172
 124   2.0000      -0.884270       -24.0622
 125   2.0000      -0.882601       -24.0168
 126   2.0000      -0.879591       -23.9349
 127   2.0000      -0.875465       -23.8226
 128   2.0000      -0.868266       -23.6267
 129   2.0000      -0.862493       -23.4696
 130   2.0000      -0.860546       -23.4167
 131   2.0000      -0.854973       -23.2650
 132   2.0000      -0.848623       -23.0922
 133   2.0000      -0.837259       -22.7830
 134   2.0000      -0.829104       -22.5611
 135   2.0000      -0.823026       -22.3957
 136   2.0000      -0.821240       -22.3471
 137   2.0000      -0.815655       -22.1951
 138   2.0000      -0.811193       -22.0737
 139   2.0000      -0.799848       -21.7650
 140   2.0000      -0.789181       -21.4747
 141   2.0000      -0.767951       -20.8970
 142   2.0000      -0.757787       -20.6204
 143   2.0000      -0.755060       -20.5462
 144   2.0000      -0.748582       -20.3699
 145   2.0000      -0.747999       -20.3541
 146   2.0000      -0.747232       -20.3332
 147   2.0000      -0.732270       -19.9261
 148   2.0000      -0.721837       -19.6422
 149   2.0000      -0.720528       -19.6066
 150   2.0000      -0.715268       -19.4634
 151   2.0000      -0.714237       -19.4354
 152   2.0000      -0.709872       -19.3166
 153   2.0000      -0.703312       -19.1381
 154   2.0000      -0.698899       -19.0180
 155   2.0000      -0.696768       -18.9600
 156   2.0000      -0.692067       -18.8321
 157   2.0000      -0.690487       -18.7891
 158   2.0000      -0.689084       -18.7509
 159   2.0000      -0.687103       -18.6970
 160   2.0000      -0.684979       -18.6392
 161   2.0000      -0.680951       -18.5296
 162   2.0000      -0.677822       -18.4445
 163   2.0000      -0.674065       -18.3422
 164   2.0000      -0.671324       -18.2676
 165   2.0000      -0.670231       -18.2379
 166   2.0000      -0.665115       -18.0987
 167   2.0000      -0.661472       -17.9996
 168   2.0000      -0.658651       -17.9228
 169   2.0000      -0.647505       -17.6195
 170   2.0000      -0.641087       -17.4449
 171   2.0000      -0.637126       -17.3371
 172   2.0000      -0.627500       -17.0751
 173   2.0000      -0.623838       -16.9755
 174   2.0000      -0.619471       -16.8566
 175   2.0000      -0.609365       -16.5817
 176   2.0000      -0.604632       -16.4529
 177   2.0000      -0.603566       -16.4239
 178   2.0000      -0.601051       -16.3554
 179   2.0000      -0.594193       -16.1688
 180   2.0000      -0.591495       -16.0954
 181   2.0000      -0.589016       -16.0279
 182   2.0000      -0.587849       -15.9962
 183   2.0000      -0.581014       -15.8102
 184   2.0000      -0.579247       -15.7621
 185   2.0000      -0.575456       -15.6590
 186   2.0000      -0.572666       -15.5830
 187   2.0000      -0.568007       -15.4563
 188   2.0000      -0.565545       -15.3893
 189   2.0000      -0.563250       -15.3268
 190   2.0000      -0.558438       -15.1959
 191   2.0000      -0.557225       -15.1629
 192   2.0000      -0.556303       -15.1378
 193   2.0000      -0.555377       -15.1126
 194   2.0000      -0.553943       -15.0735
 195   2.0000      -0.551934       -15.0189
 196   2.0000      -0.550196       -14.9716
 197   2.0000      -0.545900       -14.8547
 198   2.0000      -0.543272       -14.7832
 199   2.0000      -0.541905       -14.7460
 200   2.0000      -0.541015       -14.7218
 201   2.0000      -0.538976       -14.6663
 202   2.0000      -0.537244       -14.6191
 203   2.0000      -0.535164       -14.5626
 204   2.0000      -0.533873       -14.5274
 205   2.0000      -0.532161       -14.4808
 206   2.0000      -0.530293       -14.4300
 207   2.0000      -0.528927       -14.3928
 208   2.0000      -0.525163       -14.2904
 209   2.0000      -0.524831       -14.2814
 210   2.0000      -0.523910       -14.2563
 211   2.0000      -0.520229       -14.1561
 212   2.0000      -0.518239       -14.1020
 213   2.0000      -0.515288       -14.0217
 214   2.0000      -0.514233       -13.9930
 215   2.0000      -0.511396       -13.9158
 216   2.0000      -0.510808       -13.8998
 217   2.0000      -0.510477       -13.8908
 218   2.0000      -0.507316       -13.8048
 219   2.0000      -0.506152       -13.7731
 220   2.0000      -0.505750       -13.7622
 221   2.0000      -0.502150       -13.6642
 222   2.0000      -0.501178       -13.6377
 223   2.0000      -0.500573       -13.6213
 224   2.0000      -0.499642       -13.5959
 225   2.0000      -0.498963       -13.5775
 226   2.0000      -0.496062       -13.4985
 227   2.0000      -0.495667       -13.4878
 228   2.0000      -0.493323       -13.4240
 229   2.0000      -0.492141       -13.3918
 230   2.0000      -0.490227       -13.3397
 231   2.0000      -0.487909       -13.2767
 232   2.0000      -0.485024       -13.1982
 233   2.0000      -0.483692       -13.1619
 234   2.0000      -0.483339       -13.1523
 235   2.0000      -0.481274       -13.0961
 236   2.0000      -0.479320       -13.0430
 237   2.0000      -0.477114       -12.9829
 238   2.0000      -0.474182       -12.9032
 239   2.0000      -0.464406       -12.6371
 240   2.0000      -0.463063       -12.6006
 241   2.0000      -0.460914       -12.5421
 242   2.0000      -0.459732       -12.5099
 243   2.0000      -0.455933       -12.4066
 244   2.0000      -0.452406       -12.3106
 245   2.0000      -0.452023       -12.3002
 246   2.0000      -0.449567       -12.2333
 247   2.0000      -0.444314       -12.0904
 248   2.0000      -0.442647       -12.0450
 249   2.0000      -0.440945       -11.9987
 250   2.0000      -0.439025       -11.9465
 251   2.0000      -0.438391       -11.9292
 252   2.0000      -0.437733       -11.9113
 253   2.0000      -0.436310       -11.8726
 254   2.0000      -0.434199       -11.8152
 255   2.0000      -0.433621       -11.7994
 256   2.0000      -0.431779       -11.7493
 257   2.0000      -0.429281       -11.6813
 258   2.0000      -0.428045       -11.6477
 259   2.0000      -0.426801       -11.6138
 260   2.0000      -0.421674       -11.4743
 261   2.0000      -0.420007       -11.4290
 262   2.0000      -0.419408       -11.4127
 263   2.0000      -0.418411       -11.3855
 264   2.0000      -0.413476       -11.2512
 265   2.0000      -0.412554       -11.2262
 266   2.0000      -0.409825       -11.1519
 267   2.0000      -0.407029       -11.0758
 268   2.0000      -0.399241       -10.8639
 269   2.0000      -0.395035       -10.7494
 270   2.0000      -0.392310       -10.6753
 271   2.0000      -0.386349       -10.5131
 272   2.0000      -0.377306       -10.2670
 273   2.0000      -0.373265       -10.1571
 274   2.0000      -0.369815       -10.0632
 275   2.0000      -0.363993        -9.9047
 276   2.0000      -0.360625        -9.8131
 277   2.0000      -0.356053        -9.6887
 278   2.0000      -0.345286        -9.3957
 279   2.0000      -0.342699        -9.3253
 280   2.0000      -0.338359        -9.2072
 281   2.0000      -0.332536        -9.0488
 282   2.0000      -0.329781        -8.9738
 283   2.0000      -0.323398        -8.8001
 284   2.0000      -0.317076        -8.6281
 285   2.0000      -0.312848        -8.5130
 286   2.0000      -0.310425        -8.4471
 287   2.0000      -0.301314        -8.1992
 288   2.0000      -0.292503        -7.9594
 289   2.0000      -0.286524        -7.7967
 290   2.0000      -0.280136        -7.6229
 291   2.0000      -0.255602        -6.9553
 292   2.0000      -0.224573        -6.1109
 293   0.0000      -0.117452        -3.1960
 294   0.0000      -0.096166        -2.6168
 295   0.0000      -0.067594        -1.8393
 296   0.0000      -0.057945        -1.5768
 297   0.0000      -0.049886        -1.3575

MULLIKEN ATOMIC CHARGES
-----------------------
   0 C :    0.346165
   1 C :   -0.355751
   2 C :   -0.186101
   3 N :    0.142317
   4 C :   -0.204828
   5 N :    0.152985
   6 C :    0.055658
   7 C :    0.014859
   8 C :   -0.082079
   9 C :    0.099744
  10 C :    0.098643
  11 C :   -0.092338
  12 C :   -0.020616
  13 C :    0.035947
  14 C :    0.034414
  15 C :   -0.019027
  16 C :    0.141117
  17 O :   -0.153922
  18 C :   -0.153999
  19 C :   -0.015278
  20 C :   -0.171363
  21 S :    0.174517
  22 C :   -0.070013
  23 C :    0.078513
  24 C :    0.235022
  25 C :   -0.019590
  26 C :   -0.053599
  27 O :   -0.143690
  28 C :    0.523051
  29 F :   -0.147393
  30 F :   -0.158827
  31 F :   -0.145025
  32 C :    0.023744
  33 C :    0.030446
  34 C :   -0.015931
  35 C :   -0.021092
  36 C :    0.037067
  37 C :    0.079613
  38 N :   -0.035697
  39 C :    0.124316
  40 C :   -0.161760
  41 C :    0.100113
  42 N :   -0.031559
  43 C :    0.128121
  44 C :   -0.155301
  45 C :    0.007027
  46 C :   -0.055303
  47 C :   -0.093178
  48 S :    0.169555
  49 C :   -0.125622
  50 C :    0.127413
  51 C :    0.152225
  52 C :   -0.043775
  53 C :   -0.056097
  54 O :   -0.141016
  55 C :    0.509589
  56 F :   -0.147529
  57 F :   -0.153675
  58 F :   -0.156834
  59 C :    0.020304
  60 C :    0.030623
  61 C :   -0.028885
  62 C :    0.079781
  63 C :   -0.044261
  64 C :   -0.030756
  65 C :   -0.087159
  66 C :    0.341910
  67 C :   -0.366169
  68 C :   -0.183092
  69 N :    0.142062
  70 C :   -0.187763
  71 N :    0.132904
  72 C :    0.045611
  73 C :    0.000048
  74 C :    0.147543
  75 O :   -0.171959
  76 C :   -0.081503
  77 C :    0.095815
  78 C :    0.092271
  79 C :   -0.082033
  80 C :   -0.018045
  81 C :    0.036242
  82 C :    0.033567
  83 C :   -0.013875
  84 H :   -0.020873
  85 H :   -0.011793
  86 H :   -0.011734
  87 H :   -0.009630
  88 H :   -0.010389
  89 H :   -0.022275
  90 H :    0.021832
  91 H :    0.002403
  92 H :   -0.006102
  93 H :   -0.024295
  94 H :   -0.038126
  95 H :    0.000959
  96 H :    0.129398
  97 H :   -0.017136
  98 H :    0.127037
  99 H :   -0.023351
 100 H :   -0.015705
 101 H :    0.019800
 102 H :    0.003517
 103 H :    0.005329
 104 H :    0.005871
 105 H :    0.003156
 106 H :    0.027765
 107 H :    0.004747
 108 H :   -0.019826
 109 H :   -0.011431
 110 H :   -0.010491
 111 H :   -0.007531
 112 H :   -0.007340
 113 H :   -0.021346
Sum of atomic charges:   -0.0000000

LOEWDIN ATOMIC CHARGES
----------------------
   0 C :    0.075937
   1 C :   -0.145192
   2 C :   -0.016562
   3 N :   -0.061951
   4 C :   -0.022055
   5 N :   -0.061858
   6 C :   -0.021552
   7 C :   -0.047024
   8 C :    0.030588
   9 C :   -0.007947
  10 C :   -0.007040
  11 C :    0.017317
  12 C :   -0.006355
  13 C :   -0.017696
  14 C :   -0.016134
  15 C :   -0.011636
  16 C :    0.071246
  17 O :   -0.149054
  18 C :   -0.115965
  19 C :    0.030537
  20 C :   -0.193431
  21 S :    0.495085
  22 C :   -0.132855
  23 C :   -0.048273
  24 C :   -0.002563
  25 C :   -0.060048
  26 C :    0.045034
  27 O :   -0.086963
  28 C :    0.137527
  29 F :   -0.046046
  30 F :   -0.054546
  31 F :   -0.038834
  32 C :    0.034102
  33 C :   -0.026899
  34 C :    0.009329
  35 C :   -0.071242
  36 C :   -0.004971
  37 C :    0.001240
  38 N :    0.069711
  39 C :   -0.002551
  40 C :   -0.078274
  41 C :    0.005077
  42 N :    0.074065
  43 C :   -0.014475
  44 C :   -0.072341
  45 C :   -0.014396
  46 C :   -0.061153
  47 C :   -0.152918
  48 S :    0.489543
  49 C :   -0.182034
  50 C :   -0.024989
  51 C :   -0.040875
  52 C :   -0.064647
  53 C :    0.035958
  54 O :   -0.091983
  55 C :    0.137305
  56 F :   -0.046278
  57 F :   -0.047545
  58 F :   -0.051693
  59 C :    0.016908
  60 C :   -0.011901
  61 C :    0.013754
  62 C :    0.006250
  63 C :   -0.047812
  64 C :    0.064380
  65 C :   -0.104741
  66 C :    0.075451
  67 C :   -0.149548
  68 C :   -0.017825
  69 N :   -0.062378
  70 C :   -0.018887
  71 N :   -0.064305
  72 C :   -0.024076
  73 C :   -0.054087
  74 C :    0.085172
  75 O :   -0.164590
  76 C :    0.028070
  77 C :   -0.009590
  78 C :   -0.007236
  79 C :    0.017320
  80 C :   -0.005851
  81 C :   -0.015463
  82 C :   -0.014724
  83 C :   -0.011097
  84 H :    0.036734
  85 H :    0.037979
  86 H :    0.033682
  87 H :    0.031244
  88 H :    0.030572
  89 H :    0.030011
  90 H :    0.043617
  91 H :    0.039995
  92 H :    0.034035
  93 H :    0.028627
  94 H :    0.024158
  95 H :    0.034817
  96 H :    0.090090
  97 H :    0.029034
  98 H :    0.093031
  99 H :    0.030184
 100 H :    0.026837
 101 H :    0.034933
 102 H :    0.039705
 103 H :    0.038802
 104 H :    0.041405
 105 H :    0.035742
 106 H :    0.028767
 107 H :    0.040157
 108 H :    0.036595
 109 H :    0.038475
 110 H :    0.034344
 111 H :    0.032162
 112 H :    0.031770
 113 H :    0.030540

  Mayer bond orders larger than 0.100000
B(  0-C ,  1-C ) :   1.6234 B(  0-C ,  6-C ) :   0.9870 B(  0-C , 18-C ) :   1.0810
B(  1-C ,  2-C ) :   1.1460 B(  1-C ,  4-C ) :   1.1523 B(  2-C ,  3-N ) :   2.9622
B(  4-C ,  5-N ) :   2.9757 B(  6-C ,  7-C ) :   1.2189 B(  6-C , 11-C ) :   1.4488
B(  7-C ,  8-C ) :   1.4774 B(  7-C , 16-C ) :   0.9437 B(  8-C ,  9-C ) :   1.1712
B(  8-C , 84-H ) :   1.0164 B(  9-C , 10-C ) :   1.2617 B(  9-C , 15-C ) :   1.2434
B( 10-C , 11-C ) :   1.1998 B( 10-C , 12-C ) :   1.2417 B( 11-C , 85-H ) :   0.9890
B( 12-C , 13-C ) :   1.4860 B( 12-C , 86-H ) :   0.9970 B( 13-C , 14-C ) :   1.2628
B( 13-C , 87-H ) :   0.9878 B( 14-C , 15-C ) :   1.4872 B( 14-C , 88-H ) :   0.9883
B( 15-C , 89-H ) :   0.9971 B( 16-C , 17-O ) :   2.2049 B( 16-C , 18-C ) :   0.9349
B( 18-C , 19-C ) :   1.5297 B( 19-C , 20-C ) :   1.2258 B( 19-C , 90-H ) :   0.9351
B( 20-C , 21-S ) :   1.0954 B( 20-C , 24-C ) :   1.3125 B( 21-S , 22-C ) :   1.1884
B( 22-C , 23-C ) :   1.2469 B( 22-C , 35-C ) :   1.2433 B( 23-C , 24-C ) :   1.2514
B( 23-C , 34-C ) :   1.2323 B( 24-C , 25-C ) :   1.2051 B( 25-C , 26-C ) :   0.9281
B( 25-C , 32-C ) :   1.5233 B( 26-C , 27-O ) :   2.1867 B( 26-C , 28-C ) :   0.8631
B( 28-C , 29-F ) :   1.1394 B( 28-C , 30-F ) :   1.1608 B( 28-C , 31-F ) :   1.1402
B( 32-C , 33-C ) :   1.2332 B( 32-C , 91-H ) :   0.9915 B( 33-C , 34-C ) :   1.5059
B( 33-C , 92-H ) :   0.9865 B( 34-C , 93-H ) :   0.9892 B( 35-C , 36-C ) :   1.5390
B( 35-C , 94-H ) :   0.9636 B( 36-C , 37-C ) :   1.2086 B( 36-C , 95-H ) :   0.9590
B( 37-C , 38-N ) :   1.1864 B( 37-C , 44-C ) :   1.3255 B( 38-N , 39-C ) :   1.1713
B( 38-N , 96-H ) :   0.9320 B( 39-C , 40-C ) :   1.2916 B( 39-C , 43-C ) :   1.2783
B( 40-C , 41-C ) :   1.3640 B( 40-C , 97-H ) :   1.0280 B( 41-C , 42-N ) :   1.1694
B( 41-C , 45-C ) :   1.1570 B( 42-N , 43-C ) :   1.1692 B( 42-N , 98-H ) :   0.9361
B( 43-C , 44-C ) :   1.2688 B( 44-C , 99-H ) :   1.0418 B( 45-C , 46-C ) :   1.6005
B( 45-C ,100-H ) :   0.9696 B( 46-C , 47-C ) :   1.2020 B( 46-C ,101-H ) :   0.9446
B( 47-C , 48-S ) :   1.1640 B( 47-C , 51-C ) :   1.2907 B( 48-S , 49-C ) :   1.1227
B( 49-C , 50-C ) :   1.2712 B( 49-C , 62-C ) :   1.2087 B( 50-C , 51-C ) :   1.2375
B( 50-C , 61-C ) :   1.2226 B( 51-C , 52-C ) :   1.2257 B( 52-C , 53-C ) :   0.9109
B( 52-C , 59-C ) :   1.5235 B( 53-C , 54-O ) :   2.2051 B( 53-C , 55-C ) :   0.8691
B( 55-C , 56-F ) :   1.1387 B( 55-C , 57-F ) :   1.1421 B( 55-C , 58-F ) :   1.1624
B( 59-C , 60-C ) :   1.2341 B( 59-C ,102-H ) :   0.9926 B( 60-C , 61-C ) :   1.5078
B( 60-C ,103-H ) :   0.9863 B( 61-C ,104-H ) :   0.9956 B( 62-C , 63-C ) :   1.4878
B( 62-C ,105-H ) :   0.9573 B( 63-C , 64-C ) :   1.2315 B( 63-C ,106-H ) :   0.9753
B( 64-C , 65-C ) :   1.4719 B( 64-C ,107-H ) :   0.9620 B( 65-C , 66-C ) :   1.0849
B( 65-C , 74-C ) :   0.9619 B( 66-C , 67-C ) :   1.6022 B( 66-C , 72-C ) :   0.9804
B( 67-C , 68-C ) :   1.1498 B( 67-C , 70-C ) :   1.1520 B( 68-C , 69-N ) :   2.9592
B( 70-C , 71-N ) :   2.9531 B( 72-C , 73-C ) :   1.2163 B( 72-C , 79-C ) :   1.4559
B( 73-C , 74-C ) :   0.9461 B( 73-C , 76-C ) :   1.4764 B( 74-C , 75-O ) :   2.1678
B( 76-C , 77-C ) :   1.1738 B( 76-C ,108-H ) :   1.0146 B( 77-C , 78-C ) :   1.2604
B( 77-C , 83-C ) :   1.2464 B( 78-C , 79-C ) :   1.2015 B( 78-C , 80-C ) :   1.2417
B( 79-C ,109-H ) :   0.9877 B( 80-C , 81-C ) :   1.4881 B( 80-C ,110-H ) :   0.9963
B( 81-C , 82-C ) :   1.2615 B( 81-C ,111-H ) :   0.9884 B( 82-C , 83-C ) :   1.4863
B( 82-C ,112-H ) :   0.9890 B( 83-C ,113-H ) :   0.9964

-----------------------------------------------------------------------------
         ABSORPTION SPECTRUM VIA TRANSITION ELECTRIC DIPOLE MOMENTS
-----------------------------------------------------------------------------
State   Energy  Wavelength   fosc         T2         TX        TY        TZ
        (cm-1)    (nm)                  (au**2)     (au)      (au)      (au)
-----------------------------------------------------------------------------
   0   10342.5    966.9   2.789279494  88.78512  -5.13635  -7.75389  -1.51002
   1   15355.3    651.2   0.083587929   1.79209  -0.75144  -0.77648   0.79025
   2   18807.9    531.7   0.059532813   1.04206   0.25350   0.55975   0.81516
   3   21350.1    468.4   0.145272471   2.24005   0.16777   1.08407   1.01819
   4   21885.1    456.9   0.056002376   0.84243  -0.75047   0.40559  -0.33870
   5   22657.8    441.3   0.032619511   0.47395  -0.32353   0.21199   0.56951
   6   24079.7    415.3   0.018796497   0.25698   0.28121   0.21894  -0.36051
   7   24394.5    409.9   0.012165031   0.16417   0.25040   0.28386   0.14454
   8   24708.9    404.7   0.003427719   0.04567   0.07886   0.02220   0.19738
   9   25379.2    394.0   0.189731127   2.46114  -0.60002  -1.44642  -0.09476
  10   25454.4    392.9   0.027903823   0.36089   0.15914  -0.44836   0.36679
  11   25625.4    390.2   0.113412399   1.45702   0.32590  -0.03874   1.16160
  12   26652.6    375.2   0.013372191   0.16517  -0.22698   0.04823   0.33366
  13   26738.2    374.0   0.030370811   0.37394   0.29655  -0.26375  -0.46522
  14   27459.8    364.2   0.026783371   0.32110  -0.07849  -0.03029   0.56038
  15   27980.8    357.4   0.048273425   0.56797   0.01689   0.48396  -0.57746
  16   28217.5    354.4   0.011174703   0.13037   0.01647  -0.08068  -0.35156
  17   29042.6    344.3   0.084340890   0.95604   0.71543  -0.34547   0.56996
  18   29726.7    336.4   0.068371757   0.75719   0.30655   0.04154   0.81332
  19   29839.6    335.1   0.052911362   0.58376  -0.52424   0.02008  -0.55545
  20   30968.8    322.9   0.047631549   0.50634   0.09036   0.39576   0.58443
  21   31166.1    320.9   0.100606067   1.06272  -0.13877  -0.54405  -0.86456
  22   31397.7    318.5   0.008332470   0.08737  -0.03046  -0.10176  -0.27584
  23   31923.3    313.3   0.038822617   0.40036  -0.50755  -0.10282  -0.36357
  24   32213.5    310.4   0.024685515   0.25228   0.12876   0.47871  -0.08087
  25   32420.0    308.5   0.401675958   4.07885   0.26722   1.95919  -0.41110
  26   32676.6    306.0   0.218180458   2.19814   0.01765  -1.47497   0.14926
  27   32865.9    304.3   0.011712701   0.11732   0.18847  -0.27595   0.07518
  28   33021.8    302.8   0.002025990   0.02020   0.08509   0.06433  -0.09391
  29   33052.6    302.5   0.160965841   1.60326   0.61104   0.75616  -0.81124
  30   33433.7    299.1   0.092728263   0.91307  -0.80236   0.13016  -0.50234
  31   33577.4    297.8   0.085239840   0.83574  -0.17947  -0.86827  -0.22279
  32   34150.1    292.8   0.188370792   1.81592   0.40714  -0.04061   1.28394
  33   34219.8    292.2   0.189073113   1.81898   0.36091   1.26839   0.28269
  34   34550.3    289.4   0.016360510   0.15589   0.20461  -0.11772   0.31649
  35   34676.8    288.4   0.013759790   0.13063   0.18314   0.30894  -0.04059
  36   34912.2    286.4   0.097072102   0.91536   0.36750   0.37416   0.80019
  37   35107.5    284.8   0.026263831   0.24628  -0.42444   0.02724  -0.25571
  38   35111.4    284.8   0.201517909   1.88948  -0.26705  -0.03760  -1.34787
  39   35388.0    282.6   0.085418510   0.79464   0.29459   0.33660   0.77107
  40   36077.0    277.2   0.032283609   0.29460   0.21648  -0.04431   0.49575
  41   36227.6    276.0   0.006461973   0.05872   0.06336  -0.20633   0.11017
  42   36518.3    273.8   0.026861803   0.24216   0.42919   0.24044  -0.01202
  43   36600.4    273.2   0.084662148   0.76152  -0.20561  -0.60692   0.59236
  44   37073.0    269.7   0.422513178   3.75196   0.63127  -0.56612   1.74154
  45   37430.4    267.2   0.022250211   0.19570  -0.06041  -0.16642   0.40540
  46   37506.9    266.6   0.199678664   1.75265  -0.39208   0.92990  -0.85687
  47   37734.1    265.0   0.006185745   0.05397   0.10098   0.16641  -0.12680
  48   37859.5    264.1   0.104549294   0.90912  -0.28690   0.33807  -0.84411
  49   37932.2    263.6   0.111700993   0.96945  -0.30130   0.20563  -0.91454
  50   38195.3    261.8   0.001211533   0.01044  -0.03706   0.08393  -0.04500
  51   38729.8    258.2   0.098771617   0.83958   0.18675   0.89581   0.04724
  52   38857.5    257.4   0.022840322   0.19351   0.19392   0.37210  -0.13209
  53   39094.9    255.8   0.105578244   0.88906   0.25024  -0.29020   0.86152
  54   39411.7    253.7   0.131951689   1.10221  -0.07898   0.10299  -1.04181
  55   39661.5    252.1   0.105004904   0.87160   0.30238   0.73152  -0.49502
  56   39907.5    250.6   0.016070920   0.13257  -0.10845   0.03596  -0.34572
  57   40245.9    248.5   0.071314641   0.58335   0.17838   0.74252  -0.01431

FINAL SINGLE POINT ENERGY     -4553.003759269772

DIPOLE MOMENT
-------------
                                X             Y             Z
Electronic contribution:    -22.57021     -44.73559       6.46077
Nuclear contribution   :     23.48600      47.66325     -10.18575
                        -----------------------------------------
Total Dipole Moment    :      0.91578       2.92766      -3.72498
                        -----------------------------------------
Magnitude (a.u.)       :      4.82549
Magnitude (Debye)      :     12.26541

Rotational constants in cm-1:     0.002082     0.000124     0.000121
Rotational constants in MHz :    62.425390     3.710155     3.636205

                             ****ORCA TERMINATED NORMALLY****
TOTAL RUN TIME: 0 days 0 hours 13 minutes 13 seconds 26 msec
