                         Program Version 4.2.0 -  RELEASE  -
|  1> # ORCA input file
|  2> # SCF done       -198.118374994448          0.000614641116
|  3> ! CAM-B3LYP def2-SVP def2/J RIJCOSX Grid4 TightSCF
|  4> %maxcore 5000
|  5> %tddft
|  6>     Mode sTDDFT
|  7>     Ethresh 5.0
|  8>     maxcore 5000
|  9> end
| 10>
| 11> %pal
| 12>   nprocs 6
| 13>   end
| 14> * xyz 0 1
| 15>    C        0.83514        13.20945         3.43440
| 16>    C       -0.40063        12.61987         3.39535
| 17>    C       -1.47239        13.07948         2.60572
| 18>    N       -2.38723        13.39647         1.98858
| 19>    C       -0.74818        11.51342         4.19684
| 20>    N       -1.07263        10.64230         4.87276
| 21>    C        1.17487        14.49788         2.85043
| 22>    C        2.29378        15.03214         3.55568
| 23>    C        2.80731        16.25949         3.24980
| 24>    C        2.22471        17.00777         2.20118
| 25>    C        1.12632        16.46182         1.47495
| 26>    C        0.60731        15.19242         1.81801
| 27>    C        0.57042        17.21385         0.42024
| 28>    C        1.06724        18.44777         0.10002
| 29>    C        2.14524        18.98621         0.81834
| 30>    C        2.71137        18.28136         1.84561
| 31>    C        2.75248        14.05351         4.56113
| 32>    O        3.63683        14.17719         5.37726
| 33>    C        1.93565        12.83406         4.30399
| 34>    C        2.34151        11.61170         4.74071
| 35>    C        1.92670        10.36787         4.20858
| 36>    C        1.93486         9.13320         4.84520
| 37>    O        2.34798         8.94246         6.11872
| 38>    C        2.40295         7.57196         6.47419
| 39>    C        1.19469         6.78805         5.94033
| 40>    C       -0.12215         7.31492         6.50315
| 41>    O        1.19132         6.84215         4.51292
| 42>    C        1.38618         8.10200         4.06124
| 43>    C        0.99024         8.53171         2.80093
| 44>    S        1.31705        10.22121         2.57692
| 45>    C        0.28429         7.83994         1.80907
| 46>    C       -0.31648         8.49243         0.72480
| 47>    C       -1.08504         7.62353        -0.12243
| 48>    N       -1.72305         8.12999        -1.17745
| 49>    C       -1.64881         9.42751        -1.37363
| 50>    C       -2.39715         9.97428        -2.53212
| 51>    O       -2.98729         9.27434        -3.33012
| 52>    C       -2.38710        11.44394        -2.63825
| 53>    C       -1.70146        12.24696        -1.81712
| 54>    C       -0.86614        11.75703        -0.70970
| 55>    O       -0.19261        12.50101        -0.02372
| 56>    C       -0.90809        10.29191        -0.50417
| 57>    N       -0.24105         9.80296         0.51966
| 58>    C       -1.05663         6.28919         0.32220
| 59>    S       -0.10126         6.15870         1.78259
| 60>    C       -1.64864         5.13758        -0.22676
| 61>    C       -2.45292         5.03596        -1.36587
| 62>    O       -2.83335         6.06575        -2.14126
| 63>    C       -3.88158         5.74007        -3.03289
| 64>    C       -3.64760         4.37861        -3.70090
| 65>    C       -2.38411         4.38143        -4.55569
| 66>    O       -3.57729         3.36178        -2.69882
| 67>    C       -2.83475         3.71562        -1.62952
| 68>    C       -2.36612         2.77844        -0.69508
| 69>    S       -1.42914         3.58131         0.54133
| 70>    C       -2.61839         1.41254        -0.85159
| 71>    C       -2.27298         0.36526        -0.03493
| 72>    C       -2.54931        -1.03510        -0.27318
| 73>    C       -3.01207        -1.60085        -1.43449
| 74>    C       -3.25179        -2.98060        -1.59727
| 75>    N       -3.47103        -4.09074        -1.79321
| 76>    C       -3.27519        -0.90766        -2.63404
| 77>    N       -3.49262        -0.42631        -3.65436
| 78>    C       -2.18719        -1.76438         0.93941
| 79>    C       -1.63167        -0.84227         1.87331
| 80>    C       -1.64282         0.50455         1.28152
| 81>    O       -1.22370         1.52938         1.79497
| 82>    C       -1.19386        -1.23569         3.10431
| 83>    C       -1.29881        -2.59718         3.46930
| 84>    C       -1.85744        -3.52493         2.54420
| 85>    C       -2.29836        -3.08716         1.27309
| 86>    C       -1.96163        -4.87908         2.92017
| 87>    C       -1.53490        -5.29931         4.15086
| 88>    C       -0.98478        -4.38507         5.06098
| 89>    C       -0.86886        -3.06268         4.72712
| 90>    H        3.65008        16.65599         3.79658
| 91>    H       -0.20398        14.77618         1.24233
| 92>    H       -0.26125        16.79475        -0.12660
| 93>    H        0.63239        19.01716        -0.70806
| 94>    H        2.52541        19.96153         0.55301
| 95>    H        3.54272        18.69089         2.40092
| 96>    H        3.09405        11.58575         5.52126
| 97>    H        2.43432         7.54462         7.56385
| 98>    H        3.32385         7.12862         6.07101
| 99>    H        1.31871         5.72698         6.17725
|100>    H       -0.25302         8.36892         6.26507
|101>    H       -0.13813         7.19164         7.58220
|102>    H       -0.94981         6.75935         6.06974
|103>    H       -2.98047        11.84665        -3.44836
|104>    H       -1.72241        13.32166        -1.93637
|105>    H       -3.90284         6.55036        -3.76189
|106>    H       -4.83316         5.71452        -2.48452
|107>    H       -4.51666         4.10524        -4.30646
|108>    H       -1.53139         4.72942        -3.97629
|109>    H       -2.52041         5.04200        -5.40666
|110>    H       -2.18198         3.37468        -4.91297
|111>    H       -3.17927         1.19324        -1.75272
|112>    H       -0.77495        -0.51711         3.79306
|113>    H       -2.71946        -3.81425         0.59715
|114>    H       -2.38546        -5.57953         2.21554
|115>    H       -1.61938        -6.33907         4.42937
|116>    H       -0.65353        -4.73326         6.02796
|117>    H       -0.44612        -2.35377         5.42412
|118> *
|119>
|120>                          ****END OF INPUT****

CARTESIAN COORDINATES (ANGSTROEM)
---------------------------------
  C      0.835140   13.209450    3.434400
  C     -0.400630   12.619870    3.395350
  C     -1.472390   13.079480    2.605720
  N     -2.387230   13.396470    1.988580
  C     -0.748180   11.513420    4.196840
  N     -1.072630   10.642300    4.872760
  C      1.174870   14.497880    2.850430
  C      2.293780   15.032140    3.555680
  C      2.807310   16.259490    3.249800
  C      2.224710   17.007770    2.201180
  C      1.126320   16.461820    1.474950
  C      0.607310   15.192420    1.818010
  C      0.570420   17.213850    0.420240
  C      1.067240   18.447770    0.100020
  C      2.145240   18.986210    0.818340
  C      2.711370   18.281360    1.845610
  C      2.752480   14.053510    4.561130
  O      3.636830   14.177190    5.377260
  C      1.935650   12.834060    4.303990
  C      2.341510   11.611700    4.740710
  C      1.926700   10.367870    4.208580
  C      1.934860    9.133200    4.845200
  O      2.347980    8.942460    6.118720
  C      2.402950    7.571960    6.474190
  C      1.194690    6.788050    5.940330
  C     -0.122150    7.314920    6.503150
  O      1.191320    6.842150    4.512920
  C      1.386180    8.102000    4.061240
  C      0.990240    8.531710    2.800930
  S      1.317050   10.221210    2.576920
  C      0.284290    7.839940    1.809070
  C     -0.316480    8.492430    0.724800
  C     -1.085040    7.623530   -0.122430
  N     -1.723050    8.129990   -1.177450
  C     -1.648810    9.427510   -1.373630
  C     -2.397150    9.974280   -2.532120
  O     -2.987290    9.274340   -3.330120
  C     -2.387100   11.443940   -2.638250
  C     -1.701460   12.246960   -1.817120
  C     -0.866140   11.757030   -0.709700
  O     -0.192610   12.501010   -0.023720
  C     -0.908090   10.291910   -0.504170
  N     -0.241050    9.802960    0.519660
  C     -1.056630    6.289190    0.322200
  S     -0.101260    6.158700    1.782590
  C     -1.648640    5.137580   -0.226760
  C     -2.452920    5.035960   -1.365870
  O     -2.833350    6.065750   -2.141260
  C     -3.881580    5.740070   -3.032890
  C     -3.647600    4.378610   -3.700900
  C     -2.384110    4.381430   -4.555690
  O     -3.577290    3.361780   -2.698820
  C     -2.834750    3.715620   -1.629520
  C     -2.366120    2.778440   -0.695080
  S     -1.429140    3.581310    0.541330
  C     -2.618390    1.412540   -0.851590
  C     -2.272980    0.365260   -0.034930
  C     -2.549310   -1.035100   -0.273180
  C     -3.012070   -1.600850   -1.434490
  C     -3.251790   -2.980600   -1.597270
  N     -3.471030   -4.090740   -1.793210
  C     -3.275190   -0.907660   -2.634040
  N     -3.492620   -0.426310   -3.654360
  C     -2.187190   -1.764380    0.939410
  C     -1.631670   -0.842270    1.873310
  C     -1.642820    0.504550    1.281520
  O     -1.223700    1.529380    1.794970
  C     -1.193860   -1.235690    3.104310
  C     -1.298810   -2.597180    3.469300
  C     -1.857440   -3.524930    2.544200
  C     -2.298360   -3.087160    1.273090
  C     -1.961630   -4.879080    2.920170
  C     -1.534900   -5.299310    4.150860
  C     -0.984780   -4.385070    5.060980
  C     -0.868860   -3.062680    4.727120
  H      3.650080   16.655990    3.796580
  H     -0.203980   14.776180    1.242330
  H     -0.261250   16.794750   -0.126600
  H      0.632390   19.017160   -0.708060
  H      2.525410   19.961530    0.553010
  H      3.542720   18.690890    2.400920
  H      3.094050   11.585750    5.521260
  H      2.434320    7.544620    7.563850
  H      3.323850    7.128620    6.071010
  H      1.318710    5.726980    6.177250
  H     -0.253020    8.368920    6.265070
  H     -0.138130    7.191640    7.582200
  H     -0.949810    6.759350    6.069740
  H     -2.980470   11.846650   -3.448360
  H     -1.722410   13.321660   -1.936370
  H     -3.902840    6.550360   -3.761890
  H     -4.833160    5.714520   -2.484520
  H     -4.516660    4.105240   -4.306460
  H     -1.531390    4.729420   -3.976290
  H     -2.520410    5.042000   -5.406660
  H     -2.181980    3.374680   -4.912970
  H     -3.179270    1.193240   -1.752720
  H     -0.774950   -0.517110    3.793060
  H     -2.719460   -3.814250    0.597150
  H     -2.385460   -5.579530    2.215540
  H     -1.619380   -6.339070    4.429370
  H     -0.653530   -4.733260    6.027960
  H     -0.446120   -2.353770    5.424120

 Total Charge           Charge          ....    0
 Multiplicity           Mult            ....    1
 Number of Electrons    NEL             ....  530
 Basis Dimension        Dim             .... 1202

ORBITAL ENERGIES
----------------

  NO   OCC          E(Eh)            E(eV)
   0   2.0000     -88.994150     -2421.6539
   1   2.0000     -88.962268     -2420.7864
   2   2.0000     -88.958509     -2420.6841
   3   2.0000     -19.270313      -524.3719
   4   2.0000     -19.268813      -524.3311
   5   2.0000     -19.267151      -524.2858
   6   2.0000     -19.253390      -523.9114
   7   2.0000     -19.229743      -523.2679
   8   2.0000     -19.227228      -523.1995
   9   2.0000     -19.214155      -522.8437
  10   2.0000     -19.202944      -522.5387
  11   2.0000     -14.448470      -393.1629
  12   2.0000     -14.438520      -392.8921
  13   2.0000     -14.406528      -392.0215
  14   2.0000     -14.406032      -392.0081
  15   2.0000     -14.404671      -391.9710
  16   2.0000     -14.403071      -391.9275
  17   2.0000     -10.377419      -282.3839
  18   2.0000     -10.375506      -282.3319
  19   2.0000     -10.361446      -281.9493
  20   2.0000     -10.355177      -281.7787
  21   2.0000     -10.353662      -281.7375
  22   2.0000     -10.351668      -281.6832
  23   2.0000     -10.349018      -281.6111
  24   2.0000     -10.347563      -281.5715
  25   2.0000     -10.345153      -281.5059
  26   2.0000     -10.343378      -281.4576
  27   2.0000     -10.341722      -281.4126
  28   2.0000     -10.339652      -281.3562
  29   2.0000     -10.336281      -281.2645
  30   2.0000     -10.333788      -281.1967
  31   2.0000     -10.333515      -281.1892
  32   2.0000     -10.331573      -281.1364
  33   2.0000     -10.331164      -281.1253
  34   2.0000     -10.330477      -281.1066
  35   2.0000     -10.329966      -281.0927
  36   2.0000     -10.329164      -281.0708
  37   2.0000     -10.328619      -281.0560
  38   2.0000     -10.327695      -281.0309
  39   2.0000     -10.320438      -280.8334
  40   2.0000     -10.319398      -280.8051
  41   2.0000     -10.314102      -280.6610
  42   2.0000     -10.311734      -280.5965
  43   2.0000     -10.310212      -280.5551
  44   2.0000     -10.309708      -280.5414
  45   2.0000     -10.309570      -280.5377
  46   2.0000     -10.308573      -280.5105
  47   2.0000     -10.308401      -280.5058
  48   2.0000     -10.307879      -280.4917
  49   2.0000     -10.307050      -280.4691
  50   2.0000     -10.303827      -280.3814
  51   2.0000     -10.295834      -280.1639
  52   2.0000     -10.292360      -280.0694
  53   2.0000     -10.291903      -280.0569
  54   2.0000     -10.291365      -280.0423
  55   2.0000     -10.290592      -280.0212
  56   2.0000     -10.289868      -280.0015
  57   2.0000     -10.288069      -279.9526
  58   2.0000     -10.287629      -279.9406
  59   2.0000     -10.286488      -279.9096
  60   2.0000     -10.286378      -279.9066
  61   2.0000     -10.286294      -279.9043
  62   2.0000     -10.283212      -279.8204
  63   2.0000     -10.282838      -279.8103
  64   2.0000     -10.282376      -279.7977
  65   2.0000     -10.281855      -279.7835
  66   2.0000     -10.281228      -279.7664
  67   2.0000     -10.280646      -279.7506
  68   2.0000     -10.278952      -279.7045
  69   2.0000     -10.278453      -279.6909
  70   2.0000     -10.278032      -279.6795
  71   2.0000     -10.277814      -279.6735
  72   2.0000     -10.277179      -279.6563
  73   2.0000     -10.266788      -279.3735
  74   2.0000     -10.265813      -279.3470
  75   2.0000      -8.088114      -220.0888
  76   2.0000      -8.055212      -219.1935
  77   2.0000      -8.051906      -219.1035
  78   2.0000      -6.057216      -164.8252
  79   2.0000      -6.052905      -164.7079
  80   2.0000      -6.050884      -164.6529
  81   2.0000      -6.025152      -163.9527
  82   2.0000      -6.021654      -163.8575
  83   2.0000      -6.020688      -163.8312
  84   2.0000      -6.017428      -163.7426
  85   2.0000      -6.016339      -163.7129
  86   2.0000      -6.013066      -163.6238
  87   2.0000      -1.196711       -32.5641
  88   2.0000      -1.192207       -32.4416
  89   2.0000      -1.158364       -31.5207
  90   2.0000      -1.151892       -31.3446
  91   2.0000      -1.143880       -31.1265
  92   2.0000      -1.139155       -30.9980
  93   2.0000      -1.128829       -30.7170
  94   2.0000      -1.117862       -30.4186
  95   2.0000      -1.098748       -29.8984
  96   2.0000      -1.025772       -27.9127
  97   2.0000      -1.011966       -27.5370
  98   2.0000      -1.009183       -27.4613
  99   2.0000      -1.007138       -27.4056
 100   2.0000      -0.992882       -27.0177
 101   2.0000      -0.991279       -26.9741
 102   2.0000      -0.987623       -26.8746
 103   2.0000      -0.984389       -26.7866
 104   2.0000      -0.983489       -26.7621
 105   2.0000      -0.979190       -26.6451
 106   2.0000      -0.964736       -26.2518
 107   2.0000      -0.961119       -26.1534
 108   2.0000      -0.938533       -25.5388
 109   2.0000      -0.919509       -25.0211
 110   2.0000      -0.916117       -24.9288
 111   2.0000      -0.905778       -24.6475
 112   2.0000      -0.896724       -24.4011
 113   2.0000      -0.892830       -24.2951
 114   2.0000      -0.888467       -24.1764
 115   2.0000      -0.882444       -24.0125
 116   2.0000      -0.876102       -23.8400
 117   2.0000      -0.873405       -23.7666
 118   2.0000      -0.870960       -23.7000
 119   2.0000      -0.870060       -23.6755
 120   2.0000      -0.857973       -23.3466
 121   2.0000      -0.837365       -22.7858
 122   2.0000      -0.825527       -22.4637
 123   2.0000      -0.822463       -22.3804
 124   2.0000      -0.818592       -22.2750
 125   2.0000      -0.818057       -22.2605
 126   2.0000      -0.816391       -22.2151
 127   2.0000      -0.795981       -21.6597
 128   2.0000      -0.794182       -21.6108
 129   2.0000      -0.790233       -21.5033
 130   2.0000      -0.786137       -21.3919
 131   2.0000      -0.779211       -21.2034
 132   2.0000      -0.765984       -20.8435
 133   2.0000      -0.755126       -20.5480
 134   2.0000      -0.750278       -20.4161
 135   2.0000      -0.748664       -20.3722
 136   2.0000      -0.742308       -20.1992
 137   2.0000      -0.725751       -19.7487
 138   2.0000      -0.724278       -19.7086
 139   2.0000      -0.699209       -19.0265
 140   2.0000      -0.698075       -18.9956
 141   2.0000      -0.694136       -18.8884
 142   2.0000      -0.692142       -18.8341
 143   2.0000      -0.688365       -18.7314
 144   2.0000      -0.683414       -18.5966
 145   2.0000      -0.675664       -18.3858
 146   2.0000      -0.669914       -18.2293
 147   2.0000      -0.665533       -18.1101
 148   2.0000      -0.664713       -18.0878
 149   2.0000      -0.662507       -18.0277
 150   2.0000      -0.651825       -17.7371
 151   2.0000      -0.644952       -17.5500
 152   2.0000      -0.636016       -17.3069
 153   2.0000      -0.630866       -17.1667
 154   2.0000      -0.627825       -17.0840
 155   2.0000      -0.624289       -16.9878
 156   2.0000      -0.615418       -16.7464
 157   2.0000      -0.609587       -16.5877
 158   2.0000      -0.606020       -16.4907
 159   2.0000      -0.603472       -16.4213
 160   2.0000      -0.601840       -16.3769
 161   2.0000      -0.600724       -16.3465
 162   2.0000      -0.598073       -16.2744
 163   2.0000      -0.596039       -16.2190
 164   2.0000      -0.593927       -16.1616
 165   2.0000      -0.583889       -15.8884
 166   2.0000      -0.577097       -15.7036
 167   2.0000      -0.569675       -15.5016
 168   2.0000      -0.566817       -15.4239
 169   2.0000      -0.564690       -15.3660
 170   2.0000      -0.560119       -15.2416
 171   2.0000      -0.551516       -15.0075
 172   2.0000      -0.550254       -14.9732
 173   2.0000      -0.547771       -14.9056
 174   2.0000      -0.543470       -14.7886
 175   2.0000      -0.541668       -14.7395
 176   2.0000      -0.539328       -14.6759
 177   2.0000      -0.539150       -14.6710
 178   2.0000      -0.537919       -14.6375
 179   2.0000      -0.533870       -14.5273
 180   2.0000      -0.533127       -14.5071
 181   2.0000      -0.531718       -14.4688
 182   2.0000      -0.530529       -14.4364
 183   2.0000      -0.529134       -14.3985
 184   2.0000      -0.524667       -14.2769
 185   2.0000      -0.520958       -14.1760
 186   2.0000      -0.520183       -14.1549
 187   2.0000      -0.519627       -14.1398
 188   2.0000      -0.515826       -14.0363
 189   2.0000      -0.513867       -13.9830
 190   2.0000      -0.511333       -13.9141
 191   2.0000      -0.507450       -13.8084
 192   2.0000      -0.505805       -13.7637
 193   2.0000      -0.504551       -13.7295
 194   2.0000      -0.502367       -13.6701
 195   2.0000      -0.501142       -13.6368
 196   2.0000      -0.499186       -13.5836
 197   2.0000      -0.496599       -13.5131
 198   2.0000      -0.496398       -13.5077
 199   2.0000      -0.494587       -13.4584
 200   2.0000      -0.491556       -13.3759
 201   2.0000      -0.489961       -13.3325
 202   2.0000      -0.489009       -13.3066
 203   2.0000      -0.486710       -13.2441
 204   2.0000      -0.484306       -13.1786
 205   2.0000      -0.482914       -13.1408
 206   2.0000      -0.478838       -13.0299
 207   2.0000      -0.474004       -12.8983
 208   2.0000      -0.472596       -12.8600
 209   2.0000      -0.470119       -12.7926
 210   2.0000      -0.466766       -12.7014
 211   2.0000      -0.463293       -12.6068
 212   2.0000      -0.460974       -12.5437
 213   2.0000      -0.456651       -12.4261
 214   2.0000      -0.455416       -12.3925
 215   2.0000      -0.454948       -12.3798
 216   2.0000      -0.451671       -12.2906
 217   2.0000      -0.444815       -12.1040
 218   2.0000      -0.442903       -12.0520
 219   2.0000      -0.441280       -12.0078
 220   2.0000      -0.440532       -11.9875
 221   2.0000      -0.437916       -11.9163
 222   2.0000      -0.435221       -11.8430
 223   2.0000      -0.433963       -11.8087
 224   2.0000      -0.430273       -11.7083
 225   2.0000      -0.428742       -11.6667
 226   2.0000      -0.428272       -11.6539
 227   2.0000      -0.427420       -11.6307
 228   2.0000      -0.422393       -11.4939
 229   2.0000      -0.421430       -11.4677
 230   2.0000      -0.419469       -11.4143
 231   2.0000      -0.417737       -11.3672
 232   2.0000      -0.416920       -11.3450
 233   2.0000      -0.416019       -11.3205
 234   2.0000      -0.413382       -11.2487
 235   2.0000      -0.411831       -11.2065
 236   2.0000      -0.405715       -11.0401
 237   2.0000      -0.405644       -11.0381
 238   2.0000      -0.403450       -10.9784
 239   2.0000      -0.397384       -10.8134
 240   2.0000      -0.395146       -10.7525
 241   2.0000      -0.394010       -10.7216
 242   2.0000      -0.391859       -10.6630
 243   2.0000      -0.384050       -10.4505
 244   2.0000      -0.376971       -10.2579
 245   2.0000      -0.373409       -10.1610
 246   2.0000      -0.372173       -10.1274
 247   2.0000      -0.367696       -10.0055
 248   2.0000      -0.363247        -9.8845
 249   2.0000      -0.359842        -9.7918
 250   2.0000      -0.348955        -9.4955
 251   2.0000      -0.346795        -9.4368
 252   2.0000      -0.345012        -9.3883
 253   2.0000      -0.330516        -8.9938
 254   2.0000      -0.326693        -8.8898
 255   2.0000      -0.324344        -8.8259
 256   2.0000      -0.318539        -8.6679
 257   2.0000      -0.312349        -8.4995
 258   2.0000      -0.306077        -8.3288
 259   2.0000      -0.293200        -7.9784
 260   2.0000      -0.290163        -7.8957
 261   2.0000      -0.289166        -7.8686
 262   2.0000      -0.283150        -7.7049
 263   2.0000      -0.275746        -7.5034
 264   2.0000      -0.234810        -6.3895
 265   0.0000      -0.111045        -3.0217
 266   0.0000      -0.093451        -2.5429
 267   0.0000      -0.072231        -1.9655
 268   0.0000      -0.068511        -1.8643
 269   0.0000      -0.051146        -1.3917

MULLIKEN ATOMIC CHARGES
-----------------------
   0 C :    0.252970
   1 C :   -0.311902
   2 C :   -0.172189
   3 N :    0.143691
   4 C :   -0.183278
   5 N :    0.152448
   6 C :    0.023869
   7 C :    0.015733
   8 C :   -0.086782
   9 C :    0.093082
  10 C :    0.096489
  11 C :   -0.061060
  12 C :   -0.015773
  13 C :    0.033643
  14 C :    0.034955
  15 C :   -0.017492
  16 C :    0.139281
  17 O :   -0.144989
  18 C :   -0.140141
  19 C :    0.071000
  20 C :   -0.226751
  21 C :    0.229994
  22 O :   -0.284172
  23 C :    0.244760
  24 C :    0.001776
  25 C :    0.058449
  26 O :   -0.290318
  27 C :    0.139150
  28 C :   -0.158064
  29 S :    0.197072
  30 C :   -0.076495
  31 C :   -0.013394
  32 C :    0.054815
  33 N :    0.104848
  34 C :   -0.143448
  35 C :    0.147991
  36 O :   -0.117007
  37 C :   -0.013927
  38 C :   -0.011190
  39 C :    0.167674
  40 O :   -0.122941
  41 C :   -0.103562
  42 N :    0.032101
  43 C :   -0.159042
  44 S :    0.253204
  45 C :   -0.129817
  46 C :    0.164288
  47 O :   -0.260820
  48 C :    0.239135
  49 C :    0.014405
  50 C :    0.060112
  51 O :   -0.276885
  52 C :    0.162071
  53 C :   -0.127810
  54 S :    0.176308
  55 C :   -0.037181
  56 C :   -0.105435
  57 C :    0.332982
  58 C :   -0.356564
  59 C :   -0.185427
  60 N :    0.141180
  61 C :   -0.204690
  62 N :    0.150532
  63 C :    0.042531
  64 C :    0.002461
  65 C :    0.175142
  66 O :   -0.191849
  67 C :   -0.085370
  68 C :    0.097814
  69 C :    0.094662
  70 C :   -0.085368
  71 C :   -0.018413
  72 C :    0.034315
  73 C :    0.037154
  74 C :   -0.018392
  75 H :   -0.015851
  76 H :   -0.007928
  77 H :   -0.018333
  78 H :   -0.009261
  79 H :   -0.009520
  80 H :   -0.020494
  81 H :    0.027424
  82 H :    0.033919
  83 H :    0.031906
  84 H :    0.026436
  85 H :    0.052249
  86 H :    0.018968
  87 H :    0.031757
  88 H :    0.015529
  89 H :    0.015645
  90 H :    0.042214
  91 H :    0.027555
  92 H :    0.031619
  93 H :    0.027660
  94 H :    0.025443
  95 H :    0.042533
  96 H :    0.028768
  97 H :   -0.018423
  98 H :   -0.009544
  99 H :   -0.010040
 100 H :   -0.006623
 101 H :   -0.008659
 102 H :   -0.021098
Sum of atomic charges:   -0.0000000

LOEWDIN ATOMIC CHARGES
----------------------
   0 C :    0.065211
   1 C :   -0.143910
   2 C :   -0.013587
   3 N :   -0.070207
   4 C :   -0.020522
   5 N :   -0.068671
   6 C :   -0.019654
   7 C :   -0.055475
   8 C :    0.027519
   9 C :   -0.009876
  10 C :   -0.006059
  11 C :    0.023094
  12 C :   -0.007346
  13 C :   -0.017374
  14 C :   -0.016974
  15 C :   -0.010616
  16 C :    0.082309
  17 O :   -0.147176
  18 C :   -0.094414
  19 C :    0.054427
  20 C :   -0.211105
  21 C :    0.016270
  22 O :   -0.083789
  23 C :    0.082120
  24 C :    0.055533
  25 C :   -0.058829
  26 O :   -0.095598
  27 C :   -0.010955
  28 C :   -0.192782
  29 S :    0.521708
  30 C :   -0.182925
  31 C :   -0.051420
  32 C :   -0.037118
  33 N :    0.024067
  34 C :   -0.047796
  35 C :    0.061181
  36 O :   -0.111526
  37 C :   -0.011294
  38 C :   -0.007349
  39 C :    0.067062
  40 O :   -0.108012
  41 C :   -0.038832
  42 N :   -0.011131
  43 C :   -0.191003
  44 S :    0.532709
  45 C :   -0.197198
  46 C :   -0.016447
  47 O :   -0.061004
  48 C :    0.082133
  49 C :    0.057414
  50 C :   -0.057338
  51 O :   -0.076766
  52 C :    0.022648
  53 C :   -0.206902
  54 S :    0.476666
  55 C :    0.060062
  56 C :   -0.115654
  57 C :    0.076503
  58 C :   -0.149129
  59 C :   -0.017518
  60 N :   -0.062985
  61 C :   -0.023124
  62 N :   -0.058328
  63 C :   -0.023269
  64 C :   -0.053206
  65 C :    0.085245
  66 O :   -0.175245
  67 C :    0.027898
  68 C :   -0.009950
  69 C :   -0.007071
  70 C :    0.017466
  71 C :   -0.005794
  72 C :   -0.015527
  73 C :   -0.014864
  74 C :   -0.011440
  75 H :    0.037541
  76 H :    0.036416
  77 H :    0.031848
  78 H :    0.031029
  79 H :    0.030942
  80 H :    0.030610
  81 H :    0.051070
  82 H :    0.034941
  83 H :    0.023325
  84 H :    0.033312
  85 H :    0.037809
  86 H :    0.032787
  87 H :    0.035084
  88 H :    0.044871
  89 H :    0.045529
  90 H :    0.037562
  91 H :    0.021804
  92 H :    0.035577
  93 H :    0.031496
  94 H :    0.035497
  95 H :    0.037727
  96 H :    0.051803
  97 H :    0.036915
  98 H :    0.038776
  99 H :    0.034448
 100 H :    0.032353
 101 H :    0.031448
 102 H :    0.030327

  Mayer bond orders larger than 0.100000
B(  0-C ,  1-C ) :   1.6576 B(  0-C ,  6-C ) :   1.0040 B(  0-C , 18-C ) :   1.0359
B(  1-C ,  2-C ) :   1.1536 B(  1-C ,  4-C ) :   1.1473 B(  2-C ,  3-N ) :   2.9717
B(  4-C ,  5-N ) :   2.9975 B(  6-C ,  7-C ) :   1.2131 B(  6-C , 11-C ) :   1.4730
B(  7-C ,  8-C ) :   1.4718 B(  7-C , 16-C ) :   0.9176 B(  8-C ,  9-C ) :   1.1856
B(  8-C , 75-H ) :   1.0169 B(  9-C , 10-C ) :   1.2589 B(  9-C , 15-C ) :   1.2436
B( 10-C , 11-C ) :   1.1934 B( 10-C , 12-C ) :   1.2425 B( 11-C , 76-H ) :   0.9893
B( 12-C , 13-C ) :   1.4864 B( 12-C , 77-H ) :   0.9979 B( 13-C , 14-C ) :   1.2607
B( 13-C , 78-H ) :   0.9890 B( 14-C , 15-C ) :   1.4908 B( 14-C , 79-H ) :   0.9881
B( 15-C , 80-H ) :   0.9976 B( 16-C , 17-O ) :   2.2796 B( 16-C , 18-C ) :   0.9398
B( 18-C , 19-C ) :   1.6200 B( 19-C , 20-C ) :   1.1325 B( 19-C , 81-H ) :   0.9608
B( 20-C , 21-C ) :   1.4152 B( 20-C , 28-C ) :   0.1104 B( 20-C , 29-S ) :   1.0675
B( 21-C , 22-O ) :   1.1915 B( 21-C , 27-C ) :   1.2115 B( 22-O , 23-C ) :   0.9452
B( 23-C , 24-C ) :   1.0361 B( 23-C , 82-H ) :   0.9524 B( 23-C , 83-H ) :   0.9474
B( 24-C , 25-C ) :   1.0602 B( 24-C , 26-O ) :   0.9196 B( 24-C , 84-H ) :   0.9345
B( 25-C , 85-H ) :   0.9497 B( 25-C , 86-H ) :   0.9586 B( 25-C , 87-H ) :   0.9572
B( 26-O , 27-C ) :   1.1787 B( 27-C , 28-C ) :   1.4171 B( 28-C , 29-S ) :   1.1325
B( 28-C , 30-C ) :   1.2476 B( 30-C , 31-C ) :   1.3034 B( 30-C , 43-C ) :   0.1261
B( 30-C , 44-S ) :   1.1578 B( 31-C , 32-C ) :   1.1932 B( 31-C , 42-N ) :   1.4202
B( 32-C , 33-N ) :   1.4811 B( 32-C , 43-C ) :   1.3123 B( 33-N , 34-C ) :   1.7133
B( 34-C , 35-C ) :   0.9010 B( 34-C , 41-C ) :   1.0998 B( 35-C , 36-O ) :   2.2156
B( 35-C , 37-C ) :   1.0259 B( 37-C , 38-C ) :   1.6779 B( 37-C , 88-H ) :   0.9970
B( 38-C , 39-C ) :   1.0286 B( 38-C , 89-H ) :   0.9987 B( 39-C , 40-O ) :   2.1652
B( 39-C , 41-C ) :   0.9110 B( 41-C , 42-N ) :   1.6956 B( 43-C , 44-S ) :   1.1533
B( 43-C , 45-C ) :   1.2240 B( 45-C , 46-C ) :   1.4052 B( 45-C , 53-C ) :   0.1120
B( 45-C , 54-S ) :   1.0775 B( 46-C , 47-O ) :   1.2027 B( 46-C , 52-C ) :   1.2315
B( 47-O , 48-C ) :   0.9459 B( 48-C , 49-C ) :   1.0335 B( 48-C , 90-H ) :   0.9483
B( 48-C , 91-H ) :   0.9460 B( 49-C , 50-C ) :   1.0670 B( 49-C , 51-O ) :   0.9099
B( 49-C , 92-H ) :   0.9355 B( 50-C , 93-H ) :   0.9577 B( 50-C , 94-H ) :   0.9612
B( 50-C , 95-H ) :   0.9594 B( 51-O , 52-C ) :   1.1788 B( 52-C , 53-C ) :   1.3652
B( 53-C , 54-S ) :   1.0473 B( 53-C , 55-C ) :   1.3144 B( 55-C , 56-C ) :   1.4417
B( 55-C , 96-H ) :   0.9387 B( 56-C , 57-C ) :   1.0875 B( 56-C , 65-C ) :   0.9941
B( 57-C , 58-C ) :   1.6134 B( 57-C , 63-C ) :   0.9780 B( 58-C , 59-C ) :   1.1499
B( 58-C , 61-C ) :   1.1482 B( 59-C , 60-N ) :   2.9624 B( 61-C , 62-N ) :   2.9747
B( 63-C , 64-C ) :   1.2169 B( 63-C , 70-C ) :   1.4629 B( 64-C , 65-C ) :   0.9573
B( 64-C , 67-C ) :   1.4716 B( 65-C , 66-O ) :   2.1071 B( 67-C , 68-C ) :   1.1746
B( 67-C , 97-H ) :   1.0155 B( 68-C , 69-C ) :   1.2615 B( 68-C , 74-C ) :   1.2451
B( 69-C , 70-C ) :   1.1962 B( 69-C , 71-C ) :   1.2453 B( 70-C , 98-H ) :   0.9888
B( 71-C , 72-C ) :   1.4849 B( 71-C , 99-H ) :   0.9964 B( 72-C , 73-C ) :   1.2636
B( 72-C ,100-H ) :   0.9887 B( 73-C , 74-C ) :   1.4872 B( 73-C ,101-H ) :   0.9879
B( 74-C ,102-H ) :   0.9965

-----------------------------------------------------------------------------
         ABSORPTION SPECTRUM VIA TRANSITION ELECTRIC DIPOLE MOMENTS
-----------------------------------------------------------------------------
State   Energy  Wavelength   fosc         T2         TX        TY        TZ
        (cm-1)    (nm)                  (au**2)     (au)      (au)      (au)
-----------------------------------------------------------------------------
   0   11091.6    901.6   0.823761637  24.45018  -1.43291  -4.44106  -1.63522
   1   15162.6    659.5   0.246963971   5.36210  -0.12538  -2.19286   0.73331
   2   19183.5    521.3   0.292897151   5.02648   0.10726  -2.23420  -0.15279
   3   20221.9    494.5   0.182206693   2.96632  -0.30489  -1.56546   0.65015
   4   20774.6    481.4   0.135520716   2.14758  -0.49271  -1.36338  -0.21451
   5   21240.0    470.8   0.006579125   0.10197  -0.07908  -0.29836  -0.08187
   6   21912.3    456.4   0.034739689   0.52193   0.53110  -0.17845   0.45609
   7   23264.1    429.8   0.000306216   0.00433  -0.01784  -0.06112   0.01670
   8   23920.0    418.1   0.061057870   0.84034  -0.36496   0.77770  -0.31990
   9   24211.3    413.0   0.015933822   0.21666  -0.02238   0.43936  -0.15205
  10   24863.6    402.2   0.010121051   0.13401   0.02050  -0.11884   0.34564
  11   25321.0    394.9   0.027223095   0.35394   0.20918  -0.50053   0.24424
  12   26059.9    383.7   0.062856616   0.79406  -0.05670  -0.58977   0.66560
  13   26413.7    378.6   0.001125341   0.01403   0.00010  -0.09434   0.07159
  14   26739.6    374.0   0.027934014   0.34392   0.11376   0.56303   0.11821
  15   27213.8    367.5   0.136679218   1.65344   0.82104   0.13728   0.98004
  16   27316.6    366.1   0.035782735   0.43124   0.02685  -0.64864   0.09894
  17   27556.7    362.9   0.002024262   0.02418   0.04121   0.04203   0.14394
  18   27694.2    361.1   0.038895735   0.46237  -0.07733  -0.65285   0.17373
  19   27826.5    359.4   0.088252937   1.04411  -0.49036  -0.89583  -0.03394
  20   28646.9    349.1   0.005303039   0.06094  -0.07313  -0.23125  -0.04602
  21   28790.8    347.3   0.050167207   0.57364   0.07851  -0.70057   0.27691
  22   29151.8    343.0   0.002031953   0.02295  -0.13671   0.05112  -0.04052
  23   29254.2    341.8   0.018628716   0.20964  -0.26173  -0.19623  -0.32036
  24   29727.1    336.4   0.000821111   0.00909  -0.04586  -0.02381   0.08015
  25   30179.0    331.4   0.086706291   0.94585   0.89231   0.15815   0.35301
  26   30448.8    328.4   0.191494180   2.07043   0.40740  -1.22002   0.64499
  27   31428.9    318.2   0.072006476   0.75425   0.40707   0.75789  -0.11893
  28   31496.0    317.5   0.174469953   1.82365  -0.30287  -1.22526   0.48027
  29   31924.4    313.2   0.096419029   0.99429   0.51003   0.08572   0.85253
  30   32422.3    308.4   0.001378083   0.01399   0.11776   0.00992  -0.00524
  31   32516.3    307.5   0.060391113   0.61143  -0.00064   0.59353  -0.50907
  32   32691.0    305.9   0.715229475   7.20265  -0.86699   0.95863  -2.35202
  33   33435.2    299.1   0.172662851   1.70009  -0.09361   1.01532  -0.81268
  34   33471.5    298.8   0.020780799   0.20439   0.13686   0.38973   0.18377
  35   33604.7    297.6   0.135287900   1.32536   0.00469  -1.07644   0.40818
  36   33879.4    295.2   0.005252986   0.05104   0.00333   0.20641  -0.09181
  37   33941.3    294.6   0.030638703   0.29718  -0.04188  -0.21758   0.49808
  38   34281.0    291.7   0.069866713   0.67095  -0.47835  -0.64087   0.17727
  39   34372.8    290.9   0.062947717   0.60289  -0.60638  -0.19904  -0.44224
  40   34626.7    288.8   0.014872690   0.14140   0.13829  -0.16470   0.30847
  41   34784.7    287.5   0.173319038   1.64034  -0.01578   1.22963  -0.35792
  42   35128.7    284.7   0.008773508   0.08222   0.20475   0.19675   0.03983
  43   35369.5    282.7   0.027248069   0.25362  -0.02138   0.20700  -0.45860
  44   35506.4    281.6   0.060149480   0.55770  -0.61437  -0.33550  -0.26018
  45   35576.2    281.1   0.156415814   1.44743   0.47992   1.04746  -0.34631
  46   35886.3    278.7   0.084733094   0.77732   0.10484   0.78229  -0.39288
  47   36260.9    275.8   0.065971024   0.59895  -0.37580   0.17895  -0.65246
  48   36364.1    275.0   0.063922231   0.57870   0.48906   0.58265  -0.00590
  49   36651.6    272.8   0.050984409   0.45795  -0.19342  -0.54915   0.34493
  50   36842.4    271.4   0.184749553   1.65087  -0.14449  -0.98939   0.80690
  51   36907.3    270.9   0.037399589   0.33360   0.17905  -0.32633   0.44165
  52   37327.2    267.9   0.225042219   1.98479  -0.27794  -1.20547   0.67408
  53   37449.3    267.0   0.089087442   0.78316  -0.42862   0.10055  -0.76768
  54   37561.4    266.2   0.153587268   1.34613   0.04804   0.56954  -1.00968
  55   37676.2    265.4   0.253113038   2.21168  -0.73940  -0.46041  -1.20540
  56   37976.7    263.3   0.033134545   0.28724   0.11273   0.48635  -0.19492
  57   38139.1    262.2   0.002490552   0.02150  -0.07023  -0.08818  -0.09375
  58   38577.7    259.2   0.033166015   0.28303   0.09073   0.02840   0.52344
  59   38821.4    257.6   0.014869757   0.12610  -0.20392   0.02038  -0.29000
  60   39300.7    254.4   0.042447150   0.35557   0.09324  -0.48428   0.33519
  61   39317.1    254.3   0.001660215   0.01390  -0.11110  -0.03232   0.02267
  62   39539.9    252.9   0.148862342   1.23944  -0.32199   1.06178  -0.09158
  63   39694.3    251.9   0.045653339   0.37863   0.36672   0.22684   0.43897
  64   39986.1    250.1   0.164047057   1.35062   0.69726  -0.05120   0.92835
  65   40123.7    249.2   0.021571169   0.17699  -0.35058   0.16022  -0.16857
  66   40322.3    248.0   0.030657533   0.25030   0.11199   0.44671  -0.19547

FINAL SINGLE POINT ENERGY     -4347.510885659814

DIPOLE MOMENT
-------------
                                X             Y             Z
Electronic contribution:      0.58451       3.89462      -4.73987
Nuclear contribution   :      0.64857      -3.04840       5.59058
                        -----------------------------------------
Total Dipole Moment    :      1.23309       0.84622       0.85070
                        -----------------------------------------
Magnitude (a.u.)       :      1.72055
Magnitude (Debye)      :      4.37329

Rotational constants in cm-1:     0.001724     0.000379     0.000318
Rotational constants in MHz :    51.689477    11.361838     9.520585

                             ****ORCA TERMINATED NORMALLY****
TOTAL RUN TIME: 0 days 0 hours 12 minutes 10 seconds 352 msec
