                         Program Version 4.2.0 -  RELEASE  -
|  1> # ORCA input file
|  2> # SCF done       -192.320508826847          0.000726190433
|  3> ! CAM-B3LYP def2-SVP def2/J RIJCOSX Grid4 TightSCF
|  4> %maxcore 5000
|  5> %tddft
|  6>     Mode sTDDFT
|  7>     Ethresh 5.0
|  8>     maxcore 5000
|  9> end
| 10>
| 11> %pal
| 12>   nprocs 6
| 13>   end
| 14> * xyz 0 1
| 15>    C       -0.06024         4.57565        -5.46987
| 16>    C        0.83761         3.79967        -6.16769
| 17>    C        0.81748         3.62547        -7.56650
| 18>    N        0.86067         3.43216        -8.69811
| 19>    C        1.88483         3.05480        -5.60779
| 20>    N        2.76403         2.40849        -5.24029
| 21>    C       -1.15102         5.33343        -6.05983
| 22>    C       -1.89657         5.95599        -5.01725
| 23>    C       -2.98610         6.73586        -5.27431
| 24>    C       -3.38454         6.94576        -6.61415
| 25>    C       -2.64198         6.33218        -7.66415
| 26>    C       -1.52330         5.52180        -7.36719
| 27>    C       -3.04544         6.55151        -8.99729
| 28>    C       -4.12855         7.33817        -9.28113
| 29>    C       -4.85894         7.94065        -8.24632
| 30>    C       -4.49429         7.74821        -6.94084
| 31>    C       -1.29915         5.61506        -3.71484
| 32>    O       -1.73654         5.89204        -2.62029
| 33>    C       -0.09243         4.79379        -4.03243
| 34>    C        0.76340         4.31360        -3.10148
| 35>    C        0.75707         4.71931        -1.70225
| 36>    C        0.83094         6.08131        -1.41107
| 37>    C        0.86049         6.54283        -0.10791
| 38>    C        0.94463         8.02274         0.15315
| 39>    N        1.93544         8.63274        -0.72303
| 40>    C        0.80115         5.62246         0.93007
| 41>    C        0.72598         4.27115         0.65431
| 42>    C        0.71767         3.79713        -0.65103
| 43>    C        0.61977         2.30430        -0.88460
| 44>    N        1.65219         1.56797        -0.18907
| 45>    C        2.92914         1.40842        -0.65096
| 46>    C        3.35497         1.54139        -1.92253
| 47>    C        4.68448         1.27084        -2.36407
| 48>    N        4.97659         1.32262        -3.70428
| 49>    C        6.28658         1.00559        -3.87356
| 50>    C        7.28309         0.79987        -4.82351
| 51>    C        8.43347         0.44327        -4.11468
| 52>    N        8.15270         0.44386        -2.75886
| 53>    C        6.83904         0.75700        -2.59270
| 54>    C        5.83269         0.92086        -1.64359
| 55>    C        9.70440         0.10764        -4.65658
| 56>    C       10.85448        -0.03650        -3.96660
| 57>    C       12.11105        -0.45387        -4.56552
| 58>    C       12.11204        -1.38262        -5.60706
| 59>    C       13.28817        -1.81821        -6.19175
| 60>    C       13.24711        -2.81735        -7.31835
| 61>    N       12.10785        -3.71230        -7.18153
| 62>    C       14.49820        -1.31376        -5.73209
| 63>    C       14.51682        -0.38051        -4.71173
| 64>    C       13.34249         0.04734        -4.11404
| 65>    C       13.39293         1.14144        -3.07321
| 66>    N       12.82589         2.36195        -3.60589
| 67>    C       13.54265         3.22883        -4.31466
| 68>    C       13.00027         4.27184        -5.01940
| 69>    C       13.68690         5.23066        -5.77167
| 70>    C       15.01392         5.38276        -6.13126
| 71>    C       15.46765         6.48975        -6.95082
| 72>    C       14.78844         7.64694        -7.25009
| 73>    C       15.30856         8.67974        -8.05510
| 74>    N       15.65943         9.55926        -8.70649
| 75>    C       13.51181         8.01686        -6.78172
| 76>    N       12.49433         8.42592        -6.43513
| 77>    C       16.83905         6.21297        -7.37066
| 78>    C       17.25913         5.01389        -6.73454
| 79>    C       16.15520         4.48242        -5.91229
| 80>    O       16.23821         3.48484        -5.21143
| 81>    C       18.50679         4.49483        -6.91842
| 82>    C       19.40984         5.16169        -7.77734
| 83>    C       18.99354         6.35689        -8.42885
| 84>    C       17.69466         6.87387        -8.20977
| 85>    C       19.89775         7.00972        -9.29048
| 86>    C       21.15422         6.50905        -9.49845
| 87>    C       21.56398         5.33280        -8.85420
| 88>    C       20.71000         4.67385        -8.01189
| 89>    H       -3.53487         7.19304        -4.46421
| 90>    H       -0.98427         5.07107        -8.18517
| 91>    H       -2.47993         6.08566        -9.79100
| 92>    H       -4.42822         7.50095       -10.30561
| 93>    H       -5.71107         8.55832        -8.48796
| 94>    H       -5.05250         8.21005        -6.13930
| 95>    H        1.54861         3.63218        -3.40101
| 96>    H        0.89112         6.79909        -2.21405
| 97>    H        1.13922         8.19334         1.22601
| 98>    H       -0.02412         8.47571        -0.08648
| 99>    H        2.85749         8.25811        -0.52437
|100>    H        1.96676         9.63564        -0.57858
|101>    H        0.80373         5.96214         1.95590
|102>    H        0.66002         3.57008         1.47492
|103>    H        0.67155         2.07371        -1.94859
|104>    H       -0.34729         1.94605        -0.51338
|105>    H        1.55684         1.57004         0.81404
|106>    H        3.62407         1.07208         0.10541
|107>    H        2.67257         1.84020        -2.70314
|108>    H        4.30764         1.58799        -4.41490
|109>    H        7.21577         0.89474        -5.88892
|110>    H        8.78578         0.13537        -2.04287
|111>    H        5.90395         0.80876        -0.58049
|112>    H        9.72094        -0.01323        -5.73092
|113>    H       10.86953         0.16501        -2.90218
|114>    H       11.17946        -1.79596        -5.95708
|115>    H       14.21634        -3.34355        -7.36701
|116>    H       13.12237        -2.27440        -8.26318
|117>    H       12.19185        -4.25512        -6.32816
|118>    H       12.07136        -4.35877        -7.96155
|119>    H       15.42597        -1.64239        -6.17710
|120>    H       15.46089         0.02433        -4.37740
|121>    H       14.43006         1.33924        -2.79599
|122>    H       12.83709         0.86253        -2.17309
|123>    H       11.81738         2.37744        -3.70288
|124>    H       14.61530         3.08846        -4.29692
|125>    H       11.92230         4.38353        -4.99498
|126>    H       13.02927         5.98438        -6.18824
|127>    H       18.80179         3.58399        -6.41834
|128>    H       17.41142         7.77966        -8.72135
|129>    H       19.57770         7.91628        -9.78328
|130>    H       21.83943         7.01720       -10.16072
|131>    H       22.55918         4.95106        -9.02877
|132>    H       21.01990         3.76671        -7.51313
|133> *
|134>
|135>                          ****END OF INPUT****

CARTESIAN COORDINATES (ANGSTROEM)
---------------------------------
  C     -0.060240    4.575650   -5.469870
  C      0.837610    3.799670   -6.167690
  C      0.817480    3.625470   -7.566500
  N      0.860670    3.432160   -8.698110
  C      1.884830    3.054800   -5.607790
  N      2.764030    2.408490   -5.240290
  C     -1.151020    5.333430   -6.059830
  C     -1.896570    5.955990   -5.017250
  C     -2.986100    6.735860   -5.274310
  C     -3.384540    6.945760   -6.614150
  C     -2.641980    6.332180   -7.664150
  C     -1.523300    5.521800   -7.367190
  C     -3.045440    6.551510   -8.997290
  C     -4.128550    7.338170   -9.281130
  C     -4.858940    7.940650   -8.246320
  C     -4.494290    7.748210   -6.940840
  C     -1.299150    5.615060   -3.714840
  O     -1.736540    5.892040   -2.620290
  C     -0.092430    4.793790   -4.032430
  C      0.763400    4.313600   -3.101480
  C      0.757070    4.719310   -1.702250
  C      0.830940    6.081310   -1.411070
  C      0.860490    6.542830   -0.107910
  C      0.944630    8.022740    0.153150
  N      1.935440    8.632740   -0.723030
  C      0.801150    5.622460    0.930070
  C      0.725980    4.271150    0.654310
  C      0.717670    3.797130   -0.651030
  C      0.619770    2.304300   -0.884600
  N      1.652190    1.567970   -0.189070
  C      2.929140    1.408420   -0.650960
  C      3.354970    1.541390   -1.922530
  C      4.684480    1.270840   -2.364070
  N      4.976590    1.322620   -3.704280
  C      6.286580    1.005590   -3.873560
  C      7.283090    0.799870   -4.823510
  C      8.433470    0.443270   -4.114680
  N      8.152700    0.443860   -2.758860
  C      6.839040    0.757000   -2.592700
  C      5.832690    0.920860   -1.643590
  C      9.704400    0.107640   -4.656580
  C     10.854480   -0.036500   -3.966600
  C     12.111050   -0.453870   -4.565520
  C     12.112040   -1.382620   -5.607060
  C     13.288170   -1.818210   -6.191750
  C     13.247110   -2.817350   -7.318350
  N     12.107850   -3.712300   -7.181530
  C     14.498200   -1.313760   -5.732090
  C     14.516820   -0.380510   -4.711730
  C     13.342490    0.047340   -4.114040
  C     13.392930    1.141440   -3.073210
  N     12.825890    2.361950   -3.605890
  C     13.542650    3.228830   -4.314660
  C     13.000270    4.271840   -5.019400
  C     13.686900    5.230660   -5.771670
  C     15.013920    5.382760   -6.131260
  C     15.467650    6.489750   -6.950820
  C     14.788440    7.646940   -7.250090
  C     15.308560    8.679740   -8.055100
  N     15.659430    9.559260   -8.706490
  C     13.511810    8.016860   -6.781720
  N     12.494330    8.425920   -6.435130
  C     16.839050    6.212970   -7.370660
  C     17.259130    5.013890   -6.734540
  C     16.155200    4.482420   -5.912290
  O     16.238210    3.484840   -5.211430
  C     18.506790    4.494830   -6.918420
  C     19.409840    5.161690   -7.777340
  C     18.993540    6.356890   -8.428850
  C     17.694660    6.873870   -8.209770
  C     19.897750    7.009720   -9.290480
  C     21.154220    6.509050   -9.498450
  C     21.563980    5.332800   -8.854200
  C     20.710000    4.673850   -8.011890
  H     -3.534870    7.193040   -4.464210
  H     -0.984270    5.071070   -8.185170
  H     -2.479930    6.085660   -9.791000
  H     -4.428220    7.500950  -10.305610
  H     -5.711070    8.558320   -8.487960
  H     -5.052500    8.210050   -6.139300
  H      1.548610    3.632180   -3.401010
  H      0.891120    6.799090   -2.214050
  H      1.139220    8.193340    1.226010
  H     -0.024120    8.475710   -0.086480
  H      2.857490    8.258110   -0.524370
  H      1.966760    9.635640   -0.578580
  H      0.803730    5.962140    1.955900
  H      0.660020    3.570080    1.474920
  H      0.671550    2.073710   -1.948590
  H     -0.347290    1.946050   -0.513380
  H      1.556840    1.570040    0.814040
  H      3.624070    1.072080    0.105410
  H      2.672570    1.840200   -2.703140
  H      4.307640    1.587990   -4.414900
  H      7.215770    0.894740   -5.888920
  H      8.785780    0.135370   -2.042870
  H      5.903950    0.808760   -0.580490
  H      9.720940   -0.013230   -5.730920
  H     10.869530    0.165010   -2.902180
  H     11.179460   -1.795960   -5.957080
  H     14.216340   -3.343550   -7.367010
  H     13.122370   -2.274400   -8.263180
  H     12.191850   -4.255120   -6.328160
  H     12.071360   -4.358770   -7.961550
  H     15.425970   -1.642390   -6.177100
  H     15.460890    0.024330   -4.377400
  H     14.430060    1.339240   -2.795990
  H     12.837090    0.862530   -2.173090
  H     11.817380    2.377440   -3.702880
  H     14.615300    3.088460   -4.296920
  H     11.922300    4.383530   -4.994980
  H     13.029270    5.984380   -6.188240
  H     18.801790    3.583990   -6.418340
  H     17.411420    7.779660   -8.721350
  H     19.577700    7.916280   -9.783280
  H     21.839430    7.017200  -10.160720
  H     22.559180    4.951060   -9.028770
  H     21.019900    3.766710   -7.513130

 Total Charge           Charge          ....    0
 Multiplicity           Mult            ....    1
 Number of Electrons    NEL             ....  502
 Basis Dimension        Dim             .... 1256

ORBITAL ENERGIES
----------------

  NO   OCC          E(Eh)            E(eV)
   0   2.0000     -19.220798      -523.0245
   1   2.0000     -19.190549      -522.2014
   2   2.0000     -14.450529      -393.2189
   3   2.0000     -14.439701      -392.9242
   4   2.0000     -14.427852      -392.6018
   5   2.0000     -14.424373      -392.5071
   6   2.0000     -14.421955      -392.4414
   7   2.0000     -14.412127      -392.1739
   8   2.0000     -14.387096      -391.4928
   9   2.0000     -14.385846      -391.4588
  10   2.0000     -14.384302      -391.4167
  11   2.0000     -14.377261      -391.2252
  12   2.0000     -10.372874      -282.2603
  13   2.0000     -10.354696      -281.7656
  14   2.0000     -10.353374      -281.7296
  15   2.0000     -10.345869      -281.5254
  16   2.0000     -10.340958      -281.3918
  17   2.0000     -10.327124      -281.0153
  18   2.0000     -10.325360      -280.9673
  19   2.0000     -10.319563      -280.8096
  20   2.0000     -10.312090      -280.6062
  21   2.0000     -10.311444      -280.5887
  22   2.0000     -10.310979      -280.5760
  23   2.0000     -10.310102      -280.5521
  24   2.0000     -10.308014      -280.4953
  25   2.0000     -10.306471      -280.4533
  26   2.0000     -10.305630      -280.4305
  27   2.0000     -10.305598      -280.4296
  28   2.0000     -10.305116      -280.4165
  29   2.0000     -10.303805      -280.3808
  30   2.0000     -10.295842      -280.1641
  31   2.0000     -10.295321      -280.1499
  32   2.0000     -10.294146      -280.1180
  33   2.0000     -10.293710      -280.1061
  34   2.0000     -10.292863      -280.0830
  35   2.0000     -10.292719      -280.0791
  36   2.0000     -10.292153      -280.0637
  37   2.0000     -10.290604      -280.0216
  38   2.0000     -10.290322      -280.0139
  39   2.0000     -10.289455      -279.9903
  40   2.0000     -10.288060      -279.9524
  41   2.0000     -10.284497      -279.8554
  42   2.0000     -10.282346      -279.7969
  43   2.0000     -10.276288      -279.6320
  44   2.0000     -10.276168      -279.6287
  45   2.0000     -10.275900      -279.6215
  46   2.0000     -10.275730      -279.6168
  47   2.0000     -10.275304      -279.6052
  48   2.0000     -10.275097      -279.5996
  49   2.0000     -10.273716      -279.5620
  50   2.0000     -10.272538      -279.5300
  51   2.0000     -10.271794      -279.5097
  52   2.0000     -10.271462      -279.5007
  53   2.0000     -10.270528      -279.4753
  54   2.0000     -10.267758      -279.3999
  55   2.0000     -10.267130      -279.3828
  56   2.0000     -10.266636      -279.3694
  57   2.0000     -10.265986      -279.3517
  58   2.0000     -10.263388      -279.2810
  59   2.0000     -10.263363      -279.2803
  60   2.0000     -10.263352      -279.2800
  61   2.0000     -10.261639      -279.2334
  62   2.0000     -10.261386      -279.2265
  63   2.0000     -10.259470      -279.1744
  64   2.0000     -10.257750      -279.1276
  65   2.0000     -10.256720      -279.0995
  66   2.0000     -10.254798      -279.0472
  67   2.0000     -10.253106      -279.0012
  68   2.0000     -10.251641      -278.9613
  69   2.0000     -10.251136      -278.9476
  70   2.0000     -10.244779      -278.7746
  71   2.0000     -10.240386      -278.6551
  72   2.0000     -10.238648      -278.6078
  73   2.0000     -10.225707      -278.2556
  74   2.0000      -1.135963       -30.9111
  75   2.0000      -1.103270       -30.0215
  76   2.0000      -1.055140       -28.7118
  77   2.0000      -1.048235       -28.5239
  78   2.0000      -1.034082       -28.1388
  79   2.0000      -1.023281       -27.8449
  80   2.0000      -1.017980       -27.7007
  81   2.0000      -1.012415       -27.5492
  82   2.0000      -1.004564       -27.3356
  83   2.0000      -0.989041       -26.9132
  84   2.0000      -0.981213       -26.7002
  85   2.0000      -0.975551       -26.5461
  86   2.0000      -0.972553       -26.4645
  87   2.0000      -0.964155       -26.2360
  88   2.0000      -0.963042       -26.2057
  89   2.0000      -0.954451       -25.9719
  90   2.0000      -0.946751       -25.7624
  91   2.0000      -0.936441       -25.4819
  92   2.0000      -0.932759       -25.3817
  93   2.0000      -0.911549       -24.8045
  94   2.0000      -0.901859       -24.5408
  95   2.0000      -0.889485       -24.2041
  96   2.0000      -0.884695       -24.0738
  97   2.0000      -0.884374       -24.0650
  98   2.0000      -0.876872       -23.8609
  99   2.0000      -0.870454       -23.6863
 100   2.0000      -0.864998       -23.5378
 101   2.0000      -0.857473       -23.3330
 102   2.0000      -0.851499       -23.1705
 103   2.0000      -0.848379       -23.0856
 104   2.0000      -0.837152       -22.7801
 105   2.0000      -0.836204       -22.7543
 106   2.0000      -0.831459       -22.6251
 107   2.0000      -0.828373       -22.5412
 108   2.0000      -0.814137       -22.1538
 109   2.0000      -0.805951       -21.9310
 110   2.0000      -0.805554       -21.9202
 111   2.0000      -0.794646       -21.6234
 112   2.0000      -0.787374       -21.4255
 113   2.0000      -0.784003       -21.3338
 114   2.0000      -0.771629       -20.9971
 115   2.0000      -0.750412       -20.4198
 116   2.0000      -0.746756       -20.3203
 117   2.0000      -0.735268       -20.0077
 118   2.0000      -0.733387       -19.9565
 119   2.0000      -0.725947       -19.7540
 120   2.0000      -0.717841       -19.5335
 121   2.0000      -0.713334       -19.4108
 122   2.0000      -0.711827       -19.3698
 123   2.0000      -0.706292       -19.2192
 124   2.0000      -0.699168       -19.0253
 125   2.0000      -0.690492       -18.7892
 126   2.0000      -0.684521       -18.6268
 127   2.0000      -0.681424       -18.5425
 128   2.0000      -0.676807       -18.4168
 129   2.0000      -0.674308       -18.3488
 130   2.0000      -0.665204       -18.1011
 131   2.0000      -0.661170       -17.9914
 132   2.0000      -0.659690       -17.9511
 133   2.0000      -0.653036       -17.7700
 134   2.0000      -0.644294       -17.5321
 135   2.0000      -0.644206       -17.5297
 136   2.0000      -0.639267       -17.3953
 137   2.0000      -0.628485       -17.1019
 138   2.0000      -0.625671       -17.0254
 139   2.0000      -0.621078       -16.9004
 140   2.0000      -0.619238       -16.8503
 141   2.0000      -0.614712       -16.7272
 142   2.0000      -0.612682       -16.6719
 143   2.0000      -0.602691       -16.4000
 144   2.0000      -0.599125       -16.3030
 145   2.0000      -0.590648       -16.0724
 146   2.0000      -0.583962       -15.8904
 147   2.0000      -0.583503       -15.8779
 148   2.0000      -0.580501       -15.7962
 149   2.0000      -0.575989       -15.6735
 150   2.0000      -0.574511       -15.6332
 151   2.0000      -0.567124       -15.4322
 152   2.0000      -0.564209       -15.3529
 153   2.0000      -0.558881       -15.2079
 154   2.0000      -0.554232       -15.0814
 155   2.0000      -0.554055       -15.0766
 156   2.0000      -0.550888       -14.9904
 157   2.0000      -0.549452       -14.9514
 158   2.0000      -0.548583       -14.9277
 159   2.0000      -0.544252       -14.8098
 160   2.0000      -0.543492       -14.7892
 161   2.0000      -0.540624       -14.7111
 162   2.0000      -0.528004       -14.3677
 163   2.0000      -0.526494       -14.3266
 164   2.0000      -0.525457       -14.2984
 165   2.0000      -0.524575       -14.2744
 166   2.0000      -0.521196       -14.1825
 167   2.0000      -0.520948       -14.1757
 168   2.0000      -0.519933       -14.1481
 169   2.0000      -0.518595       -14.1117
 170   2.0000      -0.513646       -13.9770
 171   2.0000      -0.512050       -13.9336
 172   2.0000      -0.509270       -13.8579
 173   2.0000      -0.509204       -13.8561
 174   2.0000      -0.506163       -13.7734
 175   2.0000      -0.504206       -13.7201
 176   2.0000      -0.503289       -13.6952
 177   2.0000      -0.501683       -13.6515
 178   2.0000      -0.498184       -13.5563
 179   2.0000      -0.497501       -13.5377
 180   2.0000      -0.495266       -13.4769
 181   2.0000      -0.493193       -13.4205
 182   2.0000      -0.492839       -13.4108
 183   2.0000      -0.492164       -13.3925
 184   2.0000      -0.489985       -13.3332
 185   2.0000      -0.489276       -13.3139
 186   2.0000      -0.485645       -13.2151
 187   2.0000      -0.479676       -13.0527
 188   2.0000      -0.477063       -12.9815
 189   2.0000      -0.474565       -12.9136
 190   2.0000      -0.472970       -12.8702
 191   2.0000      -0.470852       -12.8125
 192   2.0000      -0.469789       -12.7836
 193   2.0000      -0.467168       -12.7123
 194   2.0000      -0.465198       -12.6587
 195   2.0000      -0.463386       -12.6094
 196   2.0000      -0.459858       -12.5134
 197   2.0000      -0.456534       -12.4229
 198   2.0000      -0.450613       -12.2618
 199   2.0000      -0.450114       -12.2482
 200   2.0000      -0.447017       -12.1640
 201   2.0000      -0.446595       -12.1525
 202   2.0000      -0.444626       -12.0989
 203   2.0000      -0.441515       -12.0142
 204   2.0000      -0.441235       -12.0066
 205   2.0000      -0.438762       -11.9393
 206   2.0000      -0.436264       -11.8713
 207   2.0000      -0.435192       -11.8422
 208   2.0000      -0.434879       -11.8337
 209   2.0000      -0.431524       -11.7424
 210   2.0000      -0.426603       -11.6085
 211   2.0000      -0.424890       -11.5619
 212   2.0000      -0.422870       -11.5069
 213   2.0000      -0.420940       -11.4543
 214   2.0000      -0.419888       -11.4257
 215   2.0000      -0.418235       -11.3807
 216   2.0000      -0.416378       -11.3302
 217   2.0000      -0.414943       -11.2912
 218   2.0000      -0.410864       -11.1802
 219   2.0000      -0.410258       -11.1637
 220   2.0000      -0.408257       -11.1092
 221   2.0000      -0.407586       -11.0910
 222   2.0000      -0.400854       -10.9078
 223   2.0000      -0.399155       -10.8616
 224   2.0000      -0.396888       -10.7999
 225   2.0000      -0.396288       -10.7835
 226   2.0000      -0.391225       -10.6458
 227   2.0000      -0.384066       -10.4510
 228   2.0000      -0.380021       -10.3409
 229   2.0000      -0.375890       -10.2285
 230   2.0000      -0.362407        -9.8616
 231   2.0000      -0.358247        -9.7484
 232   2.0000      -0.356321        -9.6960
 233   2.0000      -0.343576        -9.3492
 234   2.0000      -0.334568        -9.1041
 235   2.0000      -0.328884        -8.9494
 236   2.0000      -0.325623        -8.8607
 237   2.0000      -0.320505        -8.7214
 238   2.0000      -0.313600        -8.5335
 239   2.0000      -0.308752        -8.4016
 240   2.0000      -0.307450        -8.3662
 241   2.0000      -0.304891        -8.2965
 242   2.0000      -0.301391        -8.2013
 243   2.0000      -0.300057        -8.1650
 244   2.0000      -0.294582        -8.0160
 245   2.0000      -0.290786        -7.9127
 246   2.0000      -0.274470        -7.4687
 247   2.0000      -0.263620        -7.1735
 248   2.0000      -0.256442        -6.9781
 249   2.0000      -0.245388        -6.6773
 250   2.0000      -0.189547        -5.1578
 251   0.0000      -0.098858        -2.6901
 252   0.0000      -0.062394        -1.6978
 253   0.0000      -0.053970        -1.4686
 254   0.0000      -0.030871        -0.8400
 255   0.0000      -0.020156        -0.5485

MULLIKEN ATOMIC CHARGES
-----------------------
   0 C :    0.335298
   1 C :   -0.360318
   2 C :   -0.185765
   3 N :    0.158422
   4 C :   -0.148724
   5 N :    0.151199
   6 C :    0.039636
   7 C :   -0.002719
   8 C :   -0.075801
   9 C :    0.098422
  10 C :    0.093690
  11 C :   -0.075036
  12 C :   -0.016459
  13 C :    0.036470
  14 C :    0.037733
  15 C :   -0.014764
  16 C :    0.129901
  17 O :   -0.125628
  18 C :   -0.076529
  19 C :   -0.059202
  20 C :    0.079328
  21 C :    0.013357
  22 C :   -0.081779
  23 C :    0.213304
  24 N :   -0.239052
  25 C :    0.003428
  26 C :   -0.033811
  27 C :   -0.029290
  28 C :    0.230404
  29 N :   -0.167591
  30 C :    0.053048
  31 C :   -0.042964
  32 C :    0.105665
  33 N :   -0.028218
  34 C :    0.111156
  35 C :   -0.166706
  36 C :    0.053591
  37 N :   -0.044420
  38 C :    0.112054
  39 C :   -0.216627
  40 C :    0.057547
  41 C :   -0.122949
  42 C :    0.123492
  43 C :   -0.074537
  44 C :   -0.071566
  45 C :    0.206788
  46 N :   -0.230797
  47 C :   -0.015988
  48 C :   -0.020744
  49 C :   -0.073934
  50 C :    0.213107
  51 N :   -0.109773
  52 C :    0.095028
  53 C :   -0.064447
  54 C :    0.023966
  55 C :   -0.113452
  56 C :    0.320274
  57 C :   -0.379235
  58 C :   -0.183208
  59 N :    0.120781
  60 C :   -0.205332
  61 N :    0.142687
  62 C :    0.039524
  63 C :    0.018847
  64 C :    0.159837
  65 O :   -0.200858
  66 C :   -0.096610
  67 C :    0.101083
  68 C :    0.095457
  69 C :   -0.086399
  70 C :   -0.019312
  71 C :    0.030254
  72 C :    0.034561
  73 C :   -0.020599
  74 H :   -0.011552
  75 H :   -0.006701
  76 H :   -0.006517
  77 H :   -0.001845
  78 H :   -0.001543
  79 H :   -0.015191
  80 H :    0.027329
  81 H :   -0.023860
  82 H :   -0.017177
  83 H :    0.019082
  84 H :    0.095620
  85 H :    0.095654
  86 H :   -0.028889
  87 H :   -0.041908
  88 H :    0.007455
  89 H :    0.025334
  90 H :    0.117526
  91 H :   -0.005602
  92 H :   -0.056051
  93 H :    0.102701
  94 H :   -0.042479
  95 H :    0.113664
  96 H :   -0.061655
  97 H :   -0.011184
  98 H :   -0.044476
  99 H :   -0.025483
 100 H :   -0.015571
 101 H :    0.017701
 102 H :    0.094334
 103 H :    0.092960
 104 H :   -0.036648
 105 H :   -0.026378
 106 H :    0.018636
 107 H :    0.020863
 108 H :    0.137564
 109 H :    0.044241
 110 H :   -0.015658
 111 H :    0.011259
 112 H :   -0.025404
 113 H :   -0.013085
 114 H :   -0.014163
 115 H :   -0.011574
 116 H :   -0.013727
 117 H :   -0.025801
Sum of atomic charges:   -0.0000000

LOEWDIN ATOMIC CHARGES
----------------------
   0 C :    0.088070
   1 C :   -0.143988
   2 C :   -0.018398
   3 N :   -0.046488
   4 C :    0.022113
   5 N :   -0.047011
   6 C :   -0.030401
   7 C :   -0.055076
   8 C :    0.033913
   9 C :   -0.005439
  10 C :   -0.006826
  11 C :    0.026346
  12 C :   -0.002727
  13 C :   -0.011428
  14 C :   -0.008000
  15 C :   -0.009117
  16 C :    0.082407
  17 O :   -0.126759
  18 C :   -0.086549
  19 C :    0.091383
  20 C :   -0.036095
  21 C :    0.021869
  22 C :   -0.033212
  23 C :    0.029007
  24 N :   -0.114658
  25 C :   -0.011966
  26 C :   -0.027001
  27 C :   -0.021061
  28 C :    0.044760
  29 N :   -0.021230
  30 C :    0.031760
  31 C :   -0.133429
  32 C :    0.019791
  33 N :    0.068860
  34 C :   -0.043564
  35 C :   -0.079829
  36 C :   -0.036139
  37 N :    0.057978
  38 C :   -0.014950
  39 C :   -0.141471
  40 C :   -0.007363
  41 C :   -0.098555
  42 C :   -0.017633
  43 C :   -0.018839
  44 C :   -0.031579
  45 C :    0.026756
  46 N :   -0.112765
  47 C :   -0.036066
  48 C :   -0.021920
  49 C :   -0.054760
  50 C :    0.048005
  51 N :    0.056891
  52 C :    0.117073
  53 C :   -0.134684
  54 C :    0.077860
  55 C :   -0.141085
  56 C :    0.081516
  57 C :   -0.166796
  58 C :   -0.016665
  59 N :   -0.078531
  60 C :   -0.026146
  61 N :   -0.072627
  62 C :   -0.023305
  63 C :   -0.048755
  64 C :    0.086169
  65 O :   -0.179603
  66 C :    0.020398
  67 C :   -0.011204
  68 C :   -0.009432
  69 C :    0.013757
  70 C :   -0.007231
  71 C :   -0.021367
  72 C :   -0.019838
  73 C :   -0.013877
  74 H :    0.039808
  75 H :    0.039821
  76 H :    0.035798
  77 H :    0.034541
  78 H :    0.034276
  79 H :    0.032831
  80 H :    0.040831
  81 H :    0.028318
  82 H :    0.003927
  83 H :    0.031580
  84 H :    0.056321
  85 H :    0.056524
  86 H :    0.026391
  87 H :    0.019657
  88 H :    0.026732
  89 H :    0.037054
  90 H :    0.068912
  91 H :    0.024748
  92 H :    0.014177
  93 H :    0.057910
  94 H :    0.022375
  95 H :    0.079982
  96 H :    0.011333
  97 H :    0.036506
  98 H :    0.007993
  99 H :    0.025118
 100 H :    0.004041
 101 H :    0.030617
 102 H :    0.055128
 103 H :    0.055676
 104 H :    0.022500
 105 H :    0.026543
 106 H :    0.036350
 107 H :    0.028782
 108 H :    0.085326
 109 H :    0.029616
 110 H :    0.029139
 111 H :    0.047795
 112 H :    0.033744
 113 H :    0.037377
 114 H :    0.032917
 115 H :    0.030037
 116 H :    0.029207
 117 H :    0.028497

  Mayer bond orders larger than 0.100000
B(  0-C ,  1-C ) :   1.6227 B(  0-C ,  6-C ) :   1.0058 B(  0-C , 18-C ) :   1.0365
B(  1-C ,  2-C ) :   1.1417 B(  1-C ,  4-C ) :   1.1639 B(  2-C ,  3-N ) :   2.9660
B(  4-C ,  5-N ) :   2.9135 B(  5-N , 93-H ) :   0.1175 B(  6-C ,  7-C ) :   1.2080
B(  6-C , 11-C ) :   1.4342 B(  7-C ,  8-C ) :   1.4754 B(  7-C , 16-C ) :   0.9371
B(  8-C ,  9-C ) :   1.1804 B(  8-C , 74-H ) :   1.0157 B(  9-C , 10-C ) :   1.2524
B(  9-C , 15-C ) :   1.2441 B( 10-C , 11-C ) :   1.2151 B( 10-C , 12-C ) :   1.2373
B( 11-C , 75-H ) :   0.9888 B( 12-C , 13-C ) :   1.4921 B( 12-C , 76-H ) :   0.9974
B( 13-C , 14-C ) :   1.2573 B( 13-C , 77-H ) :   0.9892 B( 14-C , 15-C ) :   1.4882
B( 14-C , 78-H ) :   0.9894 B( 15-C , 79-H ) :   0.9981 B( 16-C , 17-O ) :   2.2616
B( 16-C , 18-C ) :   0.9107 B( 18-C , 19-C ) :   1.7461 B( 19-C , 20-C ) :   0.9932
B( 19-C , 80-H ) :   0.9264 B( 20-C , 21-C ) :   1.3257 B( 20-C , 27-C ) :   1.4061
B( 21-C , 22-C ) :   1.4108 B( 21-C , 81-H ) :   0.9903 B( 22-C , 23-C ) :   1.0325
B( 22-C , 25-C ) :   1.3729 B( 23-C , 24-N ) :   1.0721 B( 23-C , 82-H ) :   0.9351
B( 23-C , 83-H ) :   0.9217 B( 24-N , 84-H ) :   0.9731 B( 24-N , 85-H ) :   0.9693
B( 25-C , 26-C ) :   1.3938 B( 25-C , 86-H ) :   0.9937 B( 26-C , 27-C ) :   1.3721
B( 26-C , 87-H ) :   0.9863 B( 27-C , 28-C ) :   1.0318 B( 28-C , 29-N ) :   1.0456
B( 28-C , 88-H ) :   0.9119 B( 28-C , 89-H ) :   0.9319 B( 29-N , 30-C ) :   1.1705
B( 29-N , 90-H ) :   0.9431 B( 30-C , 31-C ) :   1.7132 B( 30-C , 91-H ) :   0.9563
B( 31-C , 32-C ) :   1.0931 B( 31-C , 92-H ) :   0.9375 B( 32-C , 33-N ) :   1.2370
B( 32-C , 39-C ) :   1.4138 B( 33-N , 34-C ) :   1.1553 B( 33-N , 93-H ) :   0.8959
B( 34-C , 35-C ) :   1.2505 B( 34-C , 38-C ) :   1.3262 B( 35-C , 36-C ) :   1.3562
B( 35-C , 94-H ) :   1.0415 B( 36-C , 37-N ) :   1.1743 B( 36-C , 40-C ) :   1.1599
B( 37-N , 38-C ) :   1.1672 B( 37-N , 95-H ) :   0.9342 B( 38-C , 39-C ) :   1.2485
B( 39-C , 96-H ) :   1.0274 B( 40-C , 41-C ) :   1.6601 B( 40-C , 97-H ) :   0.9618
B( 41-C , 42-C ) :   1.0457 B( 41-C , 98-H ) :   0.9504 B( 42-C , 43-C ) :   1.3412
B( 42-C , 49-C ) :   1.3510 B( 43-C , 44-C ) :   1.3831 B( 43-C , 99-H ) :   0.9961
B( 44-C , 45-C ) :   1.0194 B( 44-C , 47-C ) :   1.3844 B( 45-C , 46-N ) :   1.0839
B( 45-C ,100-H ) :   0.9381 B( 45-C ,101-H ) :   0.9201 B( 46-N ,102-H ) :   0.9726
B( 46-N ,103-H ) :   0.9680 B( 47-C , 48-C ) :   1.3747 B( 47-C ,104-H ) :   0.9943
B( 48-C , 49-C ) :   1.4055 B( 48-C ,105-H ) :   0.9897 B( 49-C , 50-C ) :   1.0582
B( 50-C , 51-N ) :   1.0047 B( 50-C ,106-H ) :   0.9240 B( 50-C ,107-H ) :   0.9238
B( 51-N , 52-C ) :   1.3717 B( 51-N ,108-H ) :   0.9216 B( 52-C , 53-C ) :   1.4049
B( 52-C ,109-H ) :   0.9167 B( 53-C , 54-C ) :   1.4153 B( 53-C ,110-H ) :   0.9555
B( 54-C , 55-C ) :   1.4025 B( 54-C ,111-H ) :   0.9350 B( 55-C , 56-C ) :   1.1314
B( 55-C , 64-C ) :   0.9872 B( 56-C , 57-C ) :   1.5748 B( 56-C , 62-C ) :   0.9701
B( 57-C , 58-C ) :   1.1556 B( 57-C , 60-C ) :   1.1470 B( 58-C , 59-N ) :   2.9559
B( 60-C , 61-N ) :   2.9853 B( 62-C , 63-C ) :   1.2230 B( 62-C , 69-C ) :   1.4617
B( 63-C , 64-C ) :   0.9598 B( 63-C , 66-C ) :   1.4766 B( 64-C , 65-O ) :   2.0832
B( 65-O ,109-H ) :   0.1344 B( 66-C , 67-C ) :   1.1663 B( 66-C ,112-H ) :   1.0167
B( 67-C , 68-C ) :   1.2667 B( 67-C , 73-C ) :   1.2457 B( 68-C , 69-C ) :   1.1936
B( 68-C , 70-C ) :   1.2429 B( 69-C ,113-H ) :   0.9907 B( 70-C , 71-C ) :   1.4847
B( 70-C ,114-H ) :   0.9973 B( 71-C , 72-C ) :   1.2629 B( 71-C ,115-H ) :   0.9886
B( 72-C , 73-C ) :   1.4855 B( 72-C ,116-H ) :   0.9884 B( 73-C ,117-H ) :   0.9975

-----------------------------------------------------------------------------
         ABSORPTION SPECTRUM VIA TRANSITION ELECTRIC DIPOLE MOMENTS
-----------------------------------------------------------------------------
State   Energy  Wavelength   fosc         T2         TX        TY        TZ
        (cm-1)    (nm)                  (au**2)     (au)      (au)      (au)
-----------------------------------------------------------------------------
   0    6032.6   1657.7   0.006581706   0.35918   0.49230  -0.29123   0.17890
   1   15813.2    632.4   0.005359884   0.11159  -0.28902   0.16733  -0.00746
   2   18417.9    543.0   0.005948092   0.10632   0.29363   0.03557  -0.13725
   3   20318.0    492.2   0.008284870   0.13424   0.31472  -0.17439   0.06914
   4   22510.6    444.2   0.004643246   0.06791   0.21902  -0.09108   0.10789
   5   24070.9    415.4   1.127507140  15.42062  -3.03269  -1.69671   1.82882
   6   24423.5    409.4   0.000089200   0.00120  -0.02810   0.01938   0.00609
   7   24743.0    404.2   0.015013323   0.19976   0.32959  -0.19353   0.23168
   8   24788.1    403.4   0.176228787   2.34050   0.47992  -0.14911   1.44497
   9   25543.9    391.5   1.214918209  15.65795   3.39890  -1.81892  -0.89270
  10   26121.8    382.8   0.070757915   0.89176  -0.88622   0.29106   0.14713
  11   26664.7    375.0   0.054566224   0.67369   0.67223  -0.46060   0.09825
  12   27313.9    366.1   0.099820948   1.20313   0.03491  -0.34391   1.04098
  13   27409.6    364.8   0.108520721   1.30343   1.09309   0.11496  -0.30879
  14   29162.9    342.9   0.073385277   0.82843  -0.22437   0.34105   0.81349
  15   29675.3    337.0   0.084276488   0.93495  -0.73816   0.61468   0.11061
  16   30015.8    333.2   0.000383310   0.00420  -0.00623  -0.04199   0.04901
  17   30318.5    329.8   0.208263826   2.26142   1.31310   0.26877  -0.68187
  18   30497.2    327.9   0.001637736   0.01768  -0.09860   0.04515  -0.07693
  19   30639.3    326.4   0.000420733   0.00452  -0.00970  -0.02362   0.06220
  20   30968.8    322.9   0.120217137   1.27796  -0.40544   0.02359  -1.05500
  21   31600.6    316.4   0.012904411   0.13444   0.25700   0.19453  -0.17478
  22   32040.4    312.1   0.018902962   0.19423   0.28385  -0.31004  -0.13239
  23   32073.3    311.8   0.263783428   2.70757  -1.51144  -0.11834   0.63962
  24   32267.3    309.9   0.004388622   0.04478  -0.10338   0.17538   0.05769
  25   32445.7    308.2   0.042135748   0.42753  -0.01325   0.15489   0.63511
  26   32588.8    306.9   0.001167493   0.01179  -0.00041   0.02183  -0.10638
  27   32718.3    305.6   0.013904564   0.13991  -0.23235   0.14492  -0.25479
  28   33122.4    301.9   0.000432382   0.00430   0.04180  -0.02955   0.04096
  29   33454.5    298.9   0.000900945   0.00887   0.05046  -0.02021   0.07688
  30   33646.4    297.2   0.008384515   0.08204  -0.05621  -0.07613  -0.27034
  31   34087.9    293.4   0.115910229   1.11943   0.93363  -0.48384   0.11691
  32   34114.8    293.1   0.886234583   8.55227  -2.22691   1.61288  -0.99588
  33   34180.2    292.6   0.002769753   0.02668   0.07781  -0.04886   0.13504
  34   34623.9    288.8   0.005219046   0.04962  -0.17494   0.13211  -0.03958
  35   34931.4    286.3   0.007730955   0.07286  -0.02240   0.05973   0.26228
  36   35276.0    283.5   0.007448251   0.06951  -0.11744  -0.12886  -0.19777
  37   35567.5    281.2   0.718128849   6.64699   2.37457  -0.81196  -0.59087
  38   36007.1    277.7   0.003272693   0.02992   0.03450  -0.16003   0.05588
  39   36574.6    273.4   0.106107193   0.95508   0.42987  -0.05495  -0.87594
  40   36582.1    273.4   0.000035169   0.00032  -0.01046   0.00261   0.01415
  41   37102.8    269.5   0.132438955   1.17513   1.00988  -0.09436  -0.38258
  42   37755.8    264.9   0.235863220   2.05661   0.57097  -1.27414   0.32737
  43   37878.5    264.0   0.003012314   0.02618  -0.09688   0.08443  -0.09832
  44   37920.1    263.7   0.009418260   0.08177   0.06820   0.11644  -0.25211
  45   37998.6    263.2   0.110350144   0.95605  -0.07114   0.92848  -0.29818
  46   38052.4    262.8   0.019981953   0.17287   0.22574  -0.33049   0.11265
  47   38396.2    260.4   0.000016357   0.00014  -0.00650   0.00484  -0.00863
  48   38703.9    258.4   0.032488679   0.27635   0.43034  -0.30188   0.00488
  49   39438.1    253.6   0.037423849   0.31240  -0.01503   0.02175   0.55830
  50   39587.6    252.6   0.001864932   0.01551   0.11536   0.04339  -0.01781
  51   39785.2    251.3   0.000083460   0.00069   0.00574   0.02558  -0.00183
  52   40126.5    249.2   0.002318822   0.01902   0.05245   0.09864  -0.08089
  53   40135.4    249.2   0.245861085   2.01668   0.56967   1.01979  -0.80759

FINAL SINGLE POINT ENERGY     -3083.036083736300

DIPOLE MOMENT
-------------
                                X             Y             Z
Electronic contribution:     -6.19218      25.01796     -19.35146
Nuclear contribution   :      2.02513     -26.63507      21.82419
                        -----------------------------------------
Total Dipole Moment    :     -4.16705      -1.61710       2.47273
                        -----------------------------------------
Magnitude (a.u.)       :      5.10820
Magnitude (Debye)      :     12.98401

Rotational constants in cm-1:     0.001121     0.000264     0.000243
Rotational constants in MHz :    33.604802     7.925007     7.280542

                             ****ORCA TERMINATED NORMALLY****
TOTAL RUN TIME: 0 days 0 hours 11 minutes 27 seconds 711 msec
