                         Program Version 4.2.0 -  RELEASE  -
|  1> # ORCA input file
|  2> # SCF done       -200.037643051797          0.000644232010
|  3> ! CAM-B3LYP def2-SVP def2/J RIJCOSX Grid4 TightSCF
|  4> %maxcore 5000
|  5> %tddft
|  6>     Mode sTDDFT
|  7>     Ethresh 5.0
|  8>     maxcore 5000
|  9> end
| 10>
| 11> %pal
| 12>   nprocs 6
| 13>   end
| 14> * xyz 0 1
| 15>    C       -0.13659         5.75820        -3.91722
| 16>    C       -1.30881         5.19051        -3.49217
| 17>    C       -2.55321         5.38055        -4.12483
| 18>    N       -3.59549         5.49907        -4.59100
| 19>    C       -1.38396         4.28172        -2.41711
| 20>    N       -1.47273         3.49324        -1.58641
| 21>    C        0.05123         6.46131        -5.17867
| 22>    C        1.43444         6.40727        -5.52280
| 23>    C        1.90064         6.94578        -6.68727
| 24>    C        0.99336         7.58391        -7.56373
| 25>    C       -0.38502         7.66334        -7.21022
| 26>    C       -0.84318         7.08816        -6.00263
| 27>    C       -1.27482         8.31540        -8.08777
| 28>    C       -0.82884         8.85750        -9.26224
| 29>    C        0.52712         8.77458        -9.61210
| 30>    C        1.41840         8.15202        -8.78088
| 31>    C        2.18194         5.73064        -4.44476
| 32>    O        3.36012         5.45784        -4.40931
| 33>    C        1.18137         5.51345        -3.36339
| 34>    C        1.57135         5.25358        -2.08678
| 35>    C        0.78487         5.44403        -0.92515
| 36>    C        0.84777         4.73787         0.26467
| 37>    O        1.69709         3.70492         0.47670
| 38>    C        1.24400         2.84237         1.50489
| 39>    C        0.78934         3.64068         2.73344
| 40>    C        1.93379         4.45243         3.33569
| 41>    O       -0.29640         4.49058         2.37960
| 42>    C       -0.12653         5.13328         1.20738
| 43>    C       -0.92443         6.18512         0.76410
| 44>    S       -0.48759         6.63526        -0.85456
| 45>    C       -2.02027         6.83057         1.40448
| 46>    C       -2.97981         7.52669         0.63612
| 47>    C       -4.18878         8.04993         1.19963
| 48>    N       -5.07408         8.66455         0.39004
| 49>    C       -4.83011         8.77711        -0.87392
| 50>    C       -3.62802         8.26349        -1.43159
| 51>    N       -2.75633         7.67077        -0.68457
| 52>    F       -3.35273         8.39342        -2.72500
| 53>    F       -5.72500         9.39898        -1.63124
| 54>    C       -4.49052         7.96144         2.57775
| 55>    C       -3.49953         7.33251         3.36752
| 56>    C       -2.27505         6.80135         2.79344
| 57>    N       -1.46959         6.30657         3.73140
| 58>    S       -2.18487         6.43060         5.15792
| 59>    N       -3.53963         7.13534         4.68374
| 60>    C       -5.73878         8.44581         3.06943
| 61>    C       -6.13532         8.74361         4.37152
| 62>    O       -5.31667         8.77230         5.44781
| 63>    C       -6.03770         8.73806         6.66446
| 64>    C       -7.15338         9.78980         6.66599
| 65>    C       -6.59251        11.20272         6.51697
| 66>    O       -8.07573         9.50007         5.62186
| 67>    C       -7.50359         9.06587         4.48383
| 68>    C       -8.18240         8.99233         3.27126
| 69>    S       -7.06336         8.68085         1.96633
| 70>    C       -9.55396         9.18198         3.01702
| 71>    C      -10.56187         8.81752         3.86739
| 72>    C      -11.96753         9.11904         3.70592
| 73>    C      -12.49349        10.10645         2.91257
| 74>    C      -13.87103        10.38566         2.81085
| 75>    N      -14.98046        10.65503         2.68714
| 76>    C      -11.72438        11.00013         2.13871
| 77>    N      -11.16169        11.77897         1.50972
| 78>    C      -12.71708         8.25901         4.61373
| 79>    C      -11.78945         7.49411         5.37663
| 80>    C      -10.41328         7.82225         4.95737
| 81>    O       -9.39560         7.29725         5.35893
| 82>    C      -12.20035         6.59092         6.31307
| 83>    C      -13.58429         6.40791         6.53483
| 84>    C      -14.51821         7.16525         5.77130
| 85>    C      -14.06247         8.09436         4.80725
| 86>    C      -15.89587         6.96632         5.99321
| 87>    C      -16.33240         6.06349         6.92430
| 88>    C      -15.41185         5.31874         7.67614
| 89>    C      -14.06712         5.48844         7.48630
| 90>    H        2.94929         6.88772        -6.93888
| 91>    H       -1.88825         7.16979        -5.74689
| 92>    H       -2.31800         8.37374        -7.81435
| 93>    H       -1.51877         9.35294        -9.92892
| 94>    H        0.86226         9.20738       -10.54291
| 95>    H        2.46393         8.08655        -9.04488
| 96>    H        2.59451         4.92460        -1.94065
| 97>    H        2.08499         2.19242         1.74798
| 98>    H        0.40574         2.24117         1.12970
| 99>    H        0.37199         2.95962         3.48170
|100>    H        2.42641         5.04497         2.56769
|101>    H        2.66313         3.78693         3.78864
|102>    H        1.53746         5.12296         4.09379
|103>    H       -5.31003         8.93204         7.45231
|104>    H       -6.48344         7.74468         6.80166
|105>    H       -7.74051         9.70825         7.58653
|106>    H       -5.93447        11.26246         5.65263
|107>    H       -6.02999        11.47212         7.40633
|108>    H       -7.40817        11.90889         6.38477
|109>    H       -9.80249         9.58077         2.04103
|110>    H      -11.47862         6.01954         6.87805
|111>    H      -14.79299         8.64582         4.23659
|112>    H      -16.60075         7.54274         5.41212
|113>    H      -17.38998         5.91783         7.08613
|114>    H      -15.77320         4.60929         8.40570
|115>    H      -13.35341         4.91682         8.06179
|116> *
|117>
|118>                          ****END OF INPUT****

CARTESIAN COORDINATES (ANGSTROEM)
---------------------------------
  C     -0.136590    5.758200   -3.917220
  C     -1.308810    5.190510   -3.492170
  C     -2.553210    5.380550   -4.124830
  N     -3.595490    5.499070   -4.591000
  C     -1.383960    4.281720   -2.417110
  N     -1.472730    3.493240   -1.586410
  C      0.051230    6.461310   -5.178670
  C      1.434440    6.407270   -5.522800
  C      1.900640    6.945780   -6.687270
  C      0.993360    7.583910   -7.563730
  C     -0.385020    7.663340   -7.210220
  C     -0.843180    7.088160   -6.002630
  C     -1.274820    8.315400   -8.087770
  C     -0.828840    8.857500   -9.262240
  C      0.527120    8.774580   -9.612100
  C      1.418400    8.152020   -8.780880
  C      2.181940    5.730640   -4.444760
  O      3.360120    5.457840   -4.409310
  C      1.181370    5.513450   -3.363390
  C      1.571350    5.253580   -2.086780
  C      0.784870    5.444030   -0.925150
  C      0.847770    4.737870    0.264670
  O      1.697090    3.704920    0.476700
  C      1.244000    2.842370    1.504890
  C      0.789340    3.640680    2.733440
  C      1.933790    4.452430    3.335690
  O     -0.296400    4.490580    2.379600
  C     -0.126530    5.133280    1.207380
  C     -0.924430    6.185120    0.764100
  S     -0.487590    6.635260   -0.854560
  C     -2.020270    6.830570    1.404480
  C     -2.979810    7.526690    0.636120
  C     -4.188780    8.049930    1.199630
  N     -5.074080    8.664550    0.390040
  C     -4.830110    8.777110   -0.873920
  C     -3.628020    8.263490   -1.431590
  N     -2.756330    7.670770   -0.684570
  F     -3.352730    8.393420   -2.725000
  F     -5.725000    9.398980   -1.631240
  C     -4.490520    7.961440    2.577750
  C     -3.499530    7.332510    3.367520
  C     -2.275050    6.801350    2.793440
  N     -1.469590    6.306570    3.731400
  S     -2.184870    6.430600    5.157920
  N     -3.539630    7.135340    4.683740
  C     -5.738780    8.445810    3.069430
  C     -6.135320    8.743610    4.371520
  O     -5.316670    8.772300    5.447810
  C     -6.037700    8.738060    6.664460
  C     -7.153380    9.789800    6.665990
  C     -6.592510   11.202720    6.516970
  O     -8.075730    9.500070    5.621860
  C     -7.503590    9.065870    4.483830
  C     -8.182400    8.992330    3.271260
  S     -7.063360    8.680850    1.966330
  C     -9.553960    9.181980    3.017020
  C    -10.561870    8.817520    3.867390
  C    -11.967530    9.119040    3.705920
  C    -12.493490   10.106450    2.912570
  C    -13.871030   10.385660    2.810850
  N    -14.980460   10.655030    2.687140
  C    -11.724380   11.000130    2.138710
  N    -11.161690   11.778970    1.509720
  C    -12.717080    8.259010    4.613730
  C    -11.789450    7.494110    5.376630
  C    -10.413280    7.822250    4.957370
  O     -9.395600    7.297250    5.358930
  C    -12.200350    6.590920    6.313070
  C    -13.584290    6.407910    6.534830
  C    -14.518210    7.165250    5.771300
  C    -14.062470    8.094360    4.807250
  C    -15.895870    6.966320    5.993210
  C    -16.332400    6.063490    6.924300
  C    -15.411850    5.318740    7.676140
  C    -14.067120    5.488440    7.486300
  H      2.949290    6.887720   -6.938880
  H     -1.888250    7.169790   -5.746890
  H     -2.318000    8.373740   -7.814350
  H     -1.518770    9.352940   -9.928920
  H      0.862260    9.207380  -10.542910
  H      2.463930    8.086550   -9.044880
  H      2.594510    4.924600   -1.940650
  H      2.084990    2.192420    1.747980
  H      0.405740    2.241170    1.129700
  H      0.371990    2.959620    3.481700
  H      2.426410    5.044970    2.567690
  H      2.663130    3.786930    3.788640
  H      1.537460    5.122960    4.093790
  H     -5.310030    8.932040    7.452310
  H     -6.483440    7.744680    6.801660
  H     -7.740510    9.708250    7.586530
  H     -5.934470   11.262460    5.652630
  H     -6.029990   11.472120    7.406330
  H     -7.408170   11.908890    6.384770
  H     -9.802490    9.580770    2.041030
  H    -11.478620    6.019540    6.878050
  H    -14.792990    8.645820    4.236590
  H    -16.600750    7.542740    5.412120
  H    -17.389980    5.917830    7.086130
  H    -15.773200    4.609290    8.405700
  H    -13.353410    4.916820    8.061790

 Total Charge           Charge          ....    0
 Multiplicity           Mult            ....    1
 Number of Electrons    NEL             ....  532
 Basis Dimension        Dim             .... 1192

ORBITAL ENERGIES
----------------

  NO   OCC          E(Eh)            E(eV)
   0   2.0000     -89.034287     -2422.7461
   1   2.0000     -88.956427     -2420.6274
   2   2.0000     -88.955759     -2420.6093
   3   2.0000     -24.817623      -675.3219
   4   2.0000     -24.815449      -675.2627
   5   2.0000     -19.263548      -524.1878
   6   2.0000     -19.258351      -524.0464
   7   2.0000     -19.254465      -523.9406
   8   2.0000     -19.254268      -523.9353
   9   2.0000     -19.204719      -522.5870
  10   2.0000     -19.201558      -522.5010
  11   2.0000     -14.457203      -393.4005
  12   2.0000     -14.456688      -393.3865
  13   2.0000     -14.440458      -392.9448
  14   2.0000     -14.438755      -392.8985
  15   2.0000     -14.406633      -392.0244
  16   2.0000     -14.405569      -391.9955
  17   2.0000     -14.403581      -391.9414
  18   2.0000     -14.402568      -391.9138
  19   2.0000     -10.433568      -283.9118
  20   2.0000     -10.433035      -283.8973
  21   2.0000     -10.356818      -281.8233
  22   2.0000     -10.352160      -281.6966
  23   2.0000     -10.346267      -281.5362
  24   2.0000     -10.345377      -281.5120
  25   2.0000     -10.345321      -281.5105
  26   2.0000     -10.345246      -281.5085
  27   2.0000     -10.344764      -281.4953
  28   2.0000     -10.343365      -281.4573
  29   2.0000     -10.342250      -281.4269
  30   2.0000     -10.340363      -281.3756
  31   2.0000     -10.336458      -281.2693
  32   2.0000     -10.335750      -281.2501
  33   2.0000     -10.335749      -281.2500
  34   2.0000     -10.333408      -281.1863
  35   2.0000     -10.331868      -281.1444
  36   2.0000     -10.330448      -281.1058
  37   2.0000     -10.328664      -281.0572
  38   2.0000     -10.327379      -281.0223
  39   2.0000     -10.317631      -280.7570
  40   2.0000     -10.317431      -280.7516
  41   2.0000     -10.317102      -280.7426
  42   2.0000     -10.314252      -280.6651
  43   2.0000     -10.311891      -280.6008
  44   2.0000     -10.310341      -280.5587
  45   2.0000     -10.309640      -280.5396
  46   2.0000     -10.308778      -280.5161
  47   2.0000     -10.306870      -280.4642
  48   2.0000     -10.305800      -280.4351
  49   2.0000     -10.300356      -280.2869
  50   2.0000     -10.297733      -280.2156
  51   2.0000     -10.294926      -280.1392
  52   2.0000     -10.292032      -280.0604
  53   2.0000     -10.290706      -280.0243
  54   2.0000     -10.290375      -280.0153
  55   2.0000     -10.289429      -279.9896
  56   2.0000     -10.289034      -279.9789
  57   2.0000     -10.288568      -279.9662
  58   2.0000     -10.288557      -279.9659
  59   2.0000     -10.287599      -279.9398
  60   2.0000     -10.287106      -279.9264
  61   2.0000     -10.286427      -279.9079
  62   2.0000     -10.284561      -279.8571
  63   2.0000     -10.281575      -279.7759
  64   2.0000     -10.280129      -279.7365
  65   2.0000     -10.279671      -279.7241
  66   2.0000     -10.279402      -279.7168
  67   2.0000     -10.279397      -279.7166
  68   2.0000     -10.278815      -279.7008
  69   2.0000     -10.278688      -279.6973
  70   2.0000     -10.278382      -279.6890
  71   2.0000     -10.278158      -279.6829
  72   2.0000     -10.277877      -279.6752
  73   2.0000     -10.269751      -279.4541
  74   2.0000     -10.268343      -279.4158
  75   2.0000      -8.125861      -221.1159
  76   2.0000      -8.049797      -219.0461
  77   2.0000      -8.049629      -219.0415
  78   2.0000      -6.096853      -165.9038
  79   2.0000      -6.089027      -165.6909
  80   2.0000      -6.088863      -165.6864
  81   2.0000      -6.019513      -163.7993
  82   2.0000      -6.019388      -163.7959
  83   2.0000      -6.015267      -163.6837
  84   2.0000      -6.015026      -163.6772
  85   2.0000      -6.011091      -163.5701
  86   2.0000      -6.011026      -163.5683
  87   2.0000      -1.345100       -36.6020
  88   2.0000      -1.331260       -36.2254
  89   2.0000      -1.189450       -32.3666
  90   2.0000      -1.188200       -32.3326
  91   2.0000      -1.150082       -31.2953
  92   2.0000      -1.148501       -31.2523
  93   2.0000      -1.132559       -30.8185
  94   2.0000      -1.119640       -30.4670
  95   2.0000      -1.117316       -30.4037
  96   2.0000      -1.114995       -30.3406
  97   2.0000      -1.044110       -28.4117
  98   2.0000      -1.010725       -27.5032
  99   2.0000      -1.006176       -27.3794
 100   2.0000      -0.994722       -27.0678
 101   2.0000      -0.992887       -27.0178
 102   2.0000      -0.989869       -26.9357
 103   2.0000      -0.987364       -26.8675
 104   2.0000      -0.984698       -26.7950
 105   2.0000      -0.981927       -26.7196
 106   2.0000      -0.979732       -26.6599
 107   2.0000      -0.965962       -26.2852
 108   2.0000      -0.962261       -26.1844
 109   2.0000      -0.960025       -26.1236
 110   2.0000      -0.918069       -24.9819
 111   2.0000      -0.915541       -24.9131
 112   2.0000      -0.904665       -24.6172
 113   2.0000      -0.895663       -24.3722
 114   2.0000      -0.890357       -24.2279
 115   2.0000      -0.888705       -24.1829
 116   2.0000      -0.881865       -23.9968
 117   2.0000      -0.880236       -23.9524
 118   2.0000      -0.874341       -23.7920
 119   2.0000      -0.872808       -23.7503
 120   2.0000      -0.869507       -23.6605
 121   2.0000      -0.860409       -23.4129
 122   2.0000      -0.835449       -22.7337
 123   2.0000      -0.824343       -22.4315
 124   2.0000      -0.820971       -22.3397
 125   2.0000      -0.819075       -22.2882
 126   2.0000      -0.816075       -22.2065
 127   2.0000      -0.811432       -22.0802
 128   2.0000      -0.809827       -22.0365
 129   2.0000      -0.792846       -21.5744
 130   2.0000      -0.788278       -21.4501
 131   2.0000      -0.781326       -21.2610
 132   2.0000      -0.773749       -21.0548
 133   2.0000      -0.759881       -20.6774
 134   2.0000      -0.753704       -20.5093
 135   2.0000      -0.751760       -20.4564
 136   2.0000      -0.749616       -20.3981
 137   2.0000      -0.735861       -20.0238
 138   2.0000      -0.725945       -19.7540
 139   2.0000      -0.722272       -19.6540
 140   2.0000      -0.706355       -19.2209
 141   2.0000      -0.696782       -18.9604
 142   2.0000      -0.694534       -18.8992
 143   2.0000      -0.693774       -18.8786
 144   2.0000      -0.686573       -18.6826
 145   2.0000      -0.683672       -18.6037
 146   2.0000      -0.680578       -18.5195
 147   2.0000      -0.675207       -18.3733
 148   2.0000      -0.668082       -18.1794
 149   2.0000      -0.666795       -18.1444
 150   2.0000      -0.665506       -18.1093
 151   2.0000      -0.661126       -17.9901
 152   2.0000      -0.648630       -17.6501
 153   2.0000      -0.638866       -17.3844
 154   2.0000      -0.632429       -17.2093
 155   2.0000      -0.631618       -17.1872
 156   2.0000      -0.628880       -17.1127
 157   2.0000      -0.625753       -17.0276
 158   2.0000      -0.620194       -16.8763
 159   2.0000      -0.616865       -16.7858
 160   2.0000      -0.614362       -16.7177
 161   2.0000      -0.610745       -16.6192
 162   2.0000      -0.605391       -16.4735
 163   2.0000      -0.599893       -16.3239
 164   2.0000      -0.597719       -16.2648
 165   2.0000      -0.595418       -16.2021
 166   2.0000      -0.594582       -16.1794
 167   2.0000      -0.589193       -16.0328
 168   2.0000      -0.584671       -15.9097
 169   2.0000      -0.573747       -15.6124
 170   2.0000      -0.571971       -15.5641
 171   2.0000      -0.566510       -15.4155
 172   2.0000      -0.563129       -15.3235
 173   2.0000      -0.559438       -15.2231
 174   2.0000      -0.550465       -14.9789
 175   2.0000      -0.546221       -14.8634
 176   2.0000      -0.543995       -14.8029
 177   2.0000      -0.542780       -14.7698
 178   2.0000      -0.542050       -14.7499
 179   2.0000      -0.538780       -14.6610
 180   2.0000      -0.537718       -14.6321
 181   2.0000      -0.533578       -14.5194
 182   2.0000      -0.532669       -14.4947
 183   2.0000      -0.529700       -14.4139
 184   2.0000      -0.526324       -14.3220
 185   2.0000      -0.525825       -14.3084
 186   2.0000      -0.524396       -14.2695
 187   2.0000      -0.521970       -14.2035
 188   2.0000      -0.520903       -14.1745
 189   2.0000      -0.518856       -14.1188
 190   2.0000      -0.515324       -14.0227
 191   2.0000      -0.514354       -13.9963
 192   2.0000      -0.510928       -13.9031
 193   2.0000      -0.508520       -13.8375
 194   2.0000      -0.508268       -13.8307
 195   2.0000      -0.506390       -13.7796
 196   2.0000      -0.504878       -13.7384
 197   2.0000      -0.503375       -13.6975
 198   2.0000      -0.499231       -13.5848
 199   2.0000      -0.495434       -13.4814
 200   2.0000      -0.494699       -13.4614
 201   2.0000      -0.492015       -13.3884
 202   2.0000      -0.491118       -13.3640
 203   2.0000      -0.489643       -13.3239
 204   2.0000      -0.484681       -13.1888
 205   2.0000      -0.483630       -13.1602
 206   2.0000      -0.481348       -13.0982
 207   2.0000      -0.477360       -12.9896
 208   2.0000      -0.476079       -12.9548
 209   2.0000      -0.473770       -12.8919
 210   2.0000      -0.471000       -12.8166
 211   2.0000      -0.470123       -12.7927
 212   2.0000      -0.467402       -12.7187
 213   2.0000      -0.463251       -12.6057
 214   2.0000      -0.457829       -12.4582
 215   2.0000      -0.456830       -12.4310
 216   2.0000      -0.455824       -12.4036
 217   2.0000      -0.453168       -12.3313
 218   2.0000      -0.450368       -12.2551
 219   2.0000      -0.446691       -12.1551
 220   2.0000      -0.442984       -12.0542
 221   2.0000      -0.437992       -11.9184
 222   2.0000      -0.437409       -11.9025
 223   2.0000      -0.434189       -11.8149
 224   2.0000      -0.432559       -11.7705
 225   2.0000      -0.431646       -11.7457
 226   2.0000      -0.430473       -11.7138
 227   2.0000      -0.427722       -11.6389
 228   2.0000      -0.425084       -11.5671
 229   2.0000      -0.424792       -11.5592
 230   2.0000      -0.422676       -11.5016
 231   2.0000      -0.420843       -11.4517
 232   2.0000      -0.418996       -11.4015
 233   2.0000      -0.416858       -11.3433
 234   2.0000      -0.415030       -11.2935
 235   2.0000      -0.413684       -11.2569
 236   2.0000      -0.409701       -11.1485
 237   2.0000      -0.408590       -11.1183
 238   2.0000      -0.407245       -11.0817
 239   2.0000      -0.405419       -11.0320
 240   2.0000      -0.398999       -10.8573
 241   2.0000      -0.398246       -10.8368
 242   2.0000      -0.397151       -10.8070
 243   2.0000      -0.395831       -10.7711
 244   2.0000      -0.391504       -10.6534
 245   2.0000      -0.387180       -10.5357
 246   2.0000      -0.379127       -10.3166
 247   2.0000      -0.377284       -10.2664
 248   2.0000      -0.368019       -10.0143
 249   2.0000      -0.366746        -9.9797
 250   2.0000      -0.359234        -9.7753
 251   2.0000      -0.352106        -9.5813
 252   2.0000      -0.347879        -9.4663
 253   2.0000      -0.340712        -9.2712
 254   2.0000      -0.338887        -9.2216
 255   2.0000      -0.326371        -8.8810
 256   2.0000      -0.324446        -8.8286
 257   2.0000      -0.315928        -8.5968
 258   2.0000      -0.308146        -8.3851
 259   2.0000      -0.304415        -8.2835
 260   2.0000      -0.290712        -7.9107
 261   2.0000      -0.287258        -7.8167
 262   2.0000      -0.284444        -7.7401
 263   2.0000      -0.282279        -7.6812
 264   2.0000      -0.274153        -7.4601
 265   2.0000      -0.239220        -6.5095
 266   0.0000      -0.115199        -3.1347
 267   0.0000      -0.077649        -2.1129
 268   0.0000      -0.072819        -1.9815
 269   0.0000      -0.045944        -1.2502
 270   0.0000      -0.044500        -1.2109

MULLIKEN ATOMIC CHARGES
-----------------------
   0 C :    0.249889
   1 C :   -0.322839
   2 C :   -0.192546
   3 N :    0.156889
   4 C :   -0.177971
   5 N :    0.152063
   6 C :    0.036010
   7 C :    0.013196
   8 C :   -0.087304
   9 C :    0.096326
  10 C :    0.096222
  11 C :   -0.082163
  12 C :   -0.019341
  13 C :    0.036084
  14 C :    0.034977
  15 C :   -0.017853
  16 C :    0.140978
  17 O :   -0.143519
  18 C :   -0.147188
  19 C :    0.082752
  20 C :   -0.218751
  21 C :    0.211498
  22 O :   -0.290134
  23 C :    0.232459
  24 C :    0.023128
  25 C :    0.065067
  26 O :   -0.263831
  27 C :    0.194531
  28 C :   -0.262910
  29 S :    0.180947
  30 C :    0.188568
  31 C :   -0.044306
  32 C :   -0.063232
  33 N :   -0.031993
  34 C :    0.153234
  35 C :    0.157324
  36 N :   -0.038614
  37 F :   -0.134694
  38 F :   -0.131293
  39 C :    0.189712
  40 C :   -0.031044
  41 C :   -0.036032
  42 N :   -0.262726
  43 S :    0.519924
  44 N :   -0.261388
  45 C :   -0.267018
  46 C :    0.177054
  47 O :   -0.277546
  48 C :    0.236162
  49 C :    0.028563
  50 C :    0.061149
  51 O :   -0.266617
  52 C :    0.194320
  53 C :   -0.154850
  54 S :    0.184642
  55 C :    0.028285
  56 C :   -0.097777
  57 C :    0.300649
  58 C :   -0.344203
  59 C :   -0.183980
  60 N :    0.141828
  61 C :   -0.210413
  62 N :    0.160063
  63 C :    0.047858
  64 C :   -0.005713
  65 C :    0.149349
  66 O :   -0.155054
  67 C :   -0.085873
  68 C :    0.100069
  69 C :    0.094560
  70 C :   -0.084391
  71 C :   -0.019621
  72 C :    0.032563
  73 C :    0.034523
  74 C :   -0.017931
  75 H :   -0.013545
  76 H :   -0.005322
  77 H :   -0.011567
  78 H :   -0.005906
  79 H :   -0.008170
  80 H :   -0.019051
  81 H :    0.028832
  82 H :    0.027321
  83 H :    0.047068
  84 H :    0.020431
  85 H :    0.027550
  86 H :    0.018354
  87 H :    0.029710
  88 H :    0.021400
  89 H :    0.039744
  90 H :    0.022405
  91 H :    0.028412
  92 H :    0.016966
  93 H :    0.036101
  94 H :    0.027803
  95 H :   -0.020773
  96 H :   -0.009874
  97 H :   -0.011144
  98 H :   -0.007564
  99 H :   -0.008531
 100 H :   -0.021402
Sum of atomic charges:   -0.0000000

LOEWDIN ATOMIC CHARGES
----------------------
   0 C :    0.061525
   1 C :   -0.144102
   2 C :   -0.021229
   3 N :   -0.059649
   4 C :   -0.024655
   5 N :   -0.064475
   6 C :   -0.021055
   7 C :   -0.056249
   8 C :    0.029962
   9 C :   -0.010023
  10 C :   -0.005697
  11 C :    0.014481
  12 C :   -0.007226
  13 C :   -0.014674
  14 C :   -0.015420
  15 C :   -0.010231
  16 C :    0.081865
  17 O :   -0.146356
  18 C :   -0.096312
  19 C :    0.061433
  20 C :   -0.215581
  21 C :    0.013170
  22 O :   -0.088436
  23 C :    0.082348
  24 C :    0.054410
  25 C :   -0.058939
  26 O :   -0.069421
  27 C :    0.007023
  28 C :   -0.179299
  29 S :    0.504747
  30 C :   -0.034842
  31 C :   -0.013170
  32 C :   -0.012202
  33 N :   -0.051789
  34 C :    0.065043
  35 C :    0.065890
  36 N :   -0.053473
  37 F :   -0.022261
  38 F :   -0.020711
  39 C :   -0.040628
  40 C :   -0.042618
  41 C :   -0.044344
  42 N :   -0.272386
  43 S :    0.658856
  44 N :   -0.272358
  45 C :   -0.174600
  46 C :   -0.002961
  47 O :   -0.074538
  48 C :    0.080608
  49 C :    0.055913
  50 C :   -0.059280
  51 O :   -0.064729
  52 C :    0.021273
  53 C :   -0.209448
  54 S :    0.480312
  55 C :    0.053885
  56 C :   -0.095922
  57 C :    0.075343
  58 C :   -0.145099
  59 C :   -0.017445
  60 N :   -0.060992
  61 C :   -0.025195
  62 N :   -0.056662
  63 C :   -0.025164
  64 C :   -0.050700
  65 C :    0.078961
  66 O :   -0.147254
  67 C :    0.024461
  68 C :   -0.009123
  69 C :   -0.008266
  70 C :    0.017069
  71 C :   -0.006059
  72 C :   -0.017315
  73 C :   -0.015661
  74 C :   -0.012309
  75 H :    0.038415
  76 H :    0.038677
  77 H :    0.033917
  78 H :    0.032460
  79 H :    0.031619
  80 H :    0.031120
  81 H :    0.051930
  82 H :    0.031980
  83 H :    0.029586
  84 H :    0.031506
  85 H :    0.031292
  86 H :    0.031095
  87 H :    0.033352
  88 H :    0.029985
  89 H :    0.027500
  90 H :    0.031769
  91 H :    0.031265
  92 H :    0.031242
  93 H :    0.035121
  94 H :    0.045406
  95 H :    0.035611
  96 H :    0.038164
  97 H :    0.033861
  98 H :    0.031832
  99 H :    0.031227
 100 H :    0.030024

  Mayer bond orders larger than 0.100000
B(  0-C ,  1-C ) :   1.6543 B(  0-C ,  6-C ) :   1.0013 B(  0-C , 18-C ) :   1.0403
B(  1-C ,  2-C ) :   1.1491 B(  1-C ,  4-C ) :   1.1524 B(  2-C ,  3-N ) :   2.9868
B(  4-C ,  5-N ) :   2.9983 B(  6-C ,  7-C ) :   1.2155 B(  6-C , 11-C ) :   1.4605
B(  7-C ,  8-C ) :   1.4730 B(  7-C , 16-C ) :   0.9172 B(  8-C ,  9-C ) :   1.1830
B(  8-C , 75-H ) :   1.0167 B(  9-C , 10-C ) :   1.2598 B(  9-C , 15-C ) :   1.2446
B( 10-C , 11-C ) :   1.2001 B( 10-C , 12-C ) :   1.2407 B( 11-C , 76-H ) :   0.9955
B( 12-C , 13-C ) :   1.4881 B( 12-C , 77-H ) :   0.9980 B( 13-C , 14-C ) :   1.2615
B( 13-C , 78-H ) :   0.9887 B( 14-C , 15-C ) :   1.4889 B( 14-C , 79-H ) :   0.9883
B( 15-C , 80-H ) :   0.9978 B( 16-C , 17-O ) :   2.2806 B( 16-C , 18-C ) :   0.9403
B( 18-C , 19-C ) :   1.6343 B( 19-C , 20-C ) :   1.1176 B( 19-C , 81-H ) :   0.9565
B( 20-C , 21-C ) :   1.4321 B( 20-C , 28-C ) :   0.1145 B( 20-C , 29-S ) :   1.0588
B( 21-C , 22-O ) :   1.1911 B( 21-C , 27-C ) :   1.1978 B( 22-O , 23-C ) :   0.9449
B( 23-C , 24-C ) :   1.0373 B( 23-C , 82-H ) :   0.9526 B( 23-C , 83-H ) :   0.9447
B( 24-C , 25-C ) :   1.0600 B( 24-C , 26-O ) :   0.9367 B( 24-C , 84-H ) :   0.9352
B( 25-C , 85-H ) :   0.9587 B( 25-C , 86-H ) :   0.9625 B( 25-C , 87-H ) :   0.9581
B( 26-O , 27-C ) :   1.1862 B( 27-C , 28-C ) :   1.4416 B( 28-C , 29-S ) :   1.1287
B( 28-C , 30-C ) :   1.1326 B( 30-C , 31-C ) :   1.3024 B( 30-C , 39-C ) :   0.1251
B( 30-C , 41-C ) :   1.1932 B( 31-C , 32-C ) :   1.1410 B( 31-C , 36-N ) :   1.3721
B( 32-C , 33-N ) :   1.3776 B( 32-C , 39-C ) :   1.2975 B( 33-N , 34-C ) :   1.6612
B( 34-C , 35-C ) :   1.1066 B( 34-C , 38-F ) :   1.1891 B( 35-C , 36-N ) :   1.6544
B( 35-C , 37-F ) :   1.1737 B( 39-C , 40-C ) :   1.1961 B( 39-C , 45-C ) :   1.1315
B( 40-C , 41-C ) :   1.0896 B( 40-C , 44-N ) :   1.5387 B( 41-C , 42-N ) :   1.5371
B( 42-N , 43-S ) :   1.2843 B( 42-N , 44-N ) :   0.1539 B( 43-S , 44-N ) :   1.2865
B( 45-C , 46-C ) :   1.4392 B( 45-C , 53-C ) :   0.1115 B( 45-C , 54-S ) :   1.1397
B( 46-C , 47-O ) :   1.1699 B( 46-C , 52-C ) :   1.1964 B( 47-O , 48-C ) :   0.9490
B( 48-C , 49-C ) :   1.0409 B( 48-C , 88-H ) :   0.9520 B( 48-C , 89-H ) :   0.9423
B( 49-C , 50-C ) :   1.0627 B( 49-C , 51-O ) :   0.9300 B( 49-C , 90-H ) :   0.9343
B( 50-C , 91-H ) :   0.9580 B( 50-C , 92-H ) :   0.9625 B( 50-C , 93-H ) :   0.9595
B( 51-O , 52-C ) :   1.1812 B( 52-C , 53-C ) :   1.4343 B( 53-C , 54-S ) :   1.0332
B( 53-C , 55-C ) :   1.1998 B( 55-C , 56-C ) :   1.5738 B( 55-C , 94-H ) :   0.9339
B( 56-C , 57-C ) :   1.0803 B( 56-C , 65-C ) :   0.9608 B( 57-C , 58-C ) :   1.6315
B( 57-C , 63-C ) :   0.9887 B( 58-C , 59-C ) :   1.1458 B( 58-C , 61-C ) :   1.1429
B( 59-C , 60-N ) :   2.9669 B( 61-C , 62-N ) :   3.0021 B( 63-C , 64-C ) :   1.2170
B( 63-C , 70-C ) :   1.4577 B( 64-C , 65-C ) :   0.9411 B( 64-C , 67-C ) :   1.4828
B( 65-C , 66-O ) :   2.2038 B( 67-C , 68-C ) :   1.1761 B( 67-C , 95-H ) :   1.0149
B( 68-C , 69-C ) :   1.2596 B( 68-C , 74-C ) :   1.2448 B( 69-C , 70-C ) :   1.2025
B( 69-C , 71-C ) :   1.2422 B( 70-C , 96-H ) :   0.9902 B( 71-C , 72-C ) :   1.4904
B( 71-C , 97-H ) :   0.9968 B( 72-C , 73-C ) :   1.2604 B( 72-C , 98-H ) :   0.9884
B( 73-C , 74-C ) :   1.4891 B( 73-C , 99-H ) :   0.9885 B( 74-C ,100-H ) :   0.9969

-----------------------------------------------------------------------------
         ABSORPTION SPECTRUM VIA TRANSITION ELECTRIC DIPOLE MOMENTS
-----------------------------------------------------------------------------
State   Energy  Wavelength   fosc         T2         TX        TY        TZ
        (cm-1)    (nm)                  (au**2)     (au)      (au)      (au)
-----------------------------------------------------------------------------
   0   11063.6    903.9   0.758615623  22.57357   3.86918  -1.26317  -2.45099
   1   18486.5    540.9   0.093051623   1.65709   1.14945   0.38891   0.42965
   2   19011.9    526.0   0.005204692   0.09012   0.25211   0.15251  -0.05750
   3   19450.7    514.1   0.186994677   3.16498   0.10793  -0.03575   1.77540
   4   19983.1    500.4   0.133907935   2.20607  -1.45194   0.25538  -0.18094
   5   21041.6    475.2   0.379601729   5.93915   2.40905  -0.20660  -0.30486
   6   23836.3    419.5   0.009208399   0.12718  -0.18648  -0.19818   0.23050
   7   25272.4    395.7   0.019246580   0.25072   0.37563  -0.12490   0.30662
   8   25797.7    387.6   0.064913746   0.82838   0.02652  -0.50119   0.75927
   9   26096.1    383.2   0.012242928   0.15445  -0.16103   0.26155   0.24517
  10   26622.8    375.6   0.052566270   0.65002   0.45984   0.13162  -0.64903
  11   26938.3    371.2   0.055063856   0.67293   0.28100   0.03985  -0.76967
  12   27338.9    365.8   0.141674113   1.70603  -0.87847  -0.16340   0.95269
  13   27664.6    361.5   0.019851429   0.23623  -0.08547   0.42566   0.21849
  14   27802.8    359.7   0.011692106   0.13845   0.31360   0.19812   0.02918
  15   28360.5    352.6   0.007105604   0.08248  -0.15549   0.16975   0.17173
  16   28480.5    351.1   0.103103189   1.19179   0.86864   0.39469  -0.53054
  17   28773.9    347.5   0.006756633   0.07730  -0.09730   0.10266  -0.23937
  18   29052.0    344.2   0.134516950   1.52432  -0.08284   0.56699  -1.09361
  19   29455.8    339.5   0.045236244   0.50558   0.69861   0.07016  -0.11226
  20   30149.8    331.7   0.109197682   1.19235   0.57747  -0.14079   0.91600
  21   30516.4    327.7   0.049907055   0.53840  -0.54179   0.12731  -0.47818
  22   30795.6    324.7   0.227907540   2.43638  -0.19240  -0.85011   1.29486
  23   31103.9    321.5   0.121188572   1.28269  -0.16346   0.52083  -0.99232
  24   31499.5    317.5   0.041154954   0.43012  -0.29537  -0.26563   0.52184
  25   31652.8    315.9   0.236236134   2.45703   1.08684   0.89486  -0.68923
  26   32404.7    308.6   0.017313975   0.17590   0.27077  -0.23677  -0.21569
  27   32787.7    305.0   0.013709219   0.13765   0.16468   0.11590   0.31161
  28   33426.7    299.2   0.046267633   0.45568  -0.53409  -0.08832   0.40328
  29   33625.8    297.4   0.095515177   0.93514   0.75104   0.25474  -0.55334
  30   33832.9    295.6   0.091467338   0.89003   0.52507  -0.11592  -0.77517
  31   33954.0    294.5   0.156351034   1.51595   1.19447  -0.25674  -0.15253
  32   34058.4    293.6   0.021241832   0.20533  -0.31088  -0.14240   0.29732
  33   34467.3    290.1   0.034916268   0.33350   0.15768   0.51037  -0.21946
  34   34807.2    287.3   0.120753853   1.14211   0.19691   0.90003  -0.54156
  35   35125.2    284.7   0.007841054   0.07349  -0.02397  -0.10280  -0.24970
  36   35283.4    283.4   0.207042204   1.93181   0.05212  -0.69488   1.20260
  37   35344.2    282.9   0.140213679   1.30601   0.10371  -0.41699   1.05895
  38   35598.5    280.9   0.150243356   1.38944  -0.52516  -0.63827   0.84040
  39   35924.6    278.4   0.471979446   4.32520   0.37637   1.69461  -1.14535
  40   36637.4    272.9   0.478793149   4.30229   0.59134   1.03338  -1.69845
  41   36854.5    271.3   0.088688801   0.79224  -0.03720   0.57802  -0.67583
  42   37021.1    270.1   0.015885383   0.14126   0.36625  -0.01516   0.08302
  43   37392.6    267.4   0.131904269   1.16131   0.04133   0.57040  -0.91337
  44   37571.4    266.2   0.169617890   1.48625   0.40813  -0.35541   1.09241
  45   38087.0    262.6   0.083738401   0.72381  -0.62107   0.29859  -0.49893
  46   38144.3    262.2   0.011922474   0.10290   0.14393  -0.02411   0.28566
  47   38349.0    260.8   0.296586819   2.54609   0.54915  -0.57557   1.38320
  48   38436.2    260.2   0.008653352   0.07412   0.23580  -0.13530   0.01454
  49   38930.8    256.9   0.016282489   0.13769  -0.32216  -0.02246  -0.18275
  50   39260.9    254.7   0.008866200   0.07435  -0.05285  -0.23541  -0.12701
  51   39683.1    252.0   0.014525166   0.12050  -0.09944   0.13323  -0.30474
  52   39787.4    251.3   0.018186948   0.15048   0.20988   0.02464  -0.32531
  53   40287.5    248.2   0.107172571   0.87577  -0.68227   0.23186  -0.59709

FINAL SINGLE POINT ENERGY     -4428.753980615089

DIPOLE MOMENT
-------------
                                X             Y             Z
Electronic contribution:      3.58277       7.68885     -25.03316
Nuclear contribution   :     -1.23156      -8.57402      28.11339
                        -----------------------------------------
Total Dipole Moment    :      2.35121      -0.88517       3.08023
                        -----------------------------------------
Magnitude (a.u.)       :      3.97486
Magnitude (Debye)      :     10.10330

Rotational constants in cm-1:     0.001487     0.000368     0.000322
Rotational constants in MHz :    44.587373    11.041515     9.644751

                             ****ORCA TERMINATED NORMALLY****
TOTAL RUN TIME: 0 days 0 hours 11 minutes 5 seconds 177 msec
