                         Program Version 4.2.0 -  RELEASE  -
|  1> # ORCA input file
|  2> # SCF done       -172.696898435924          0.000515853361
|  3> ! CAM-B3LYP def2-SVP def2/J RIJCOSX Grid4 TightSCF
|  4> %maxcore 5000
|  5> %tddft
|  6>     Mode sTDDFT
|  7>     Ethresh 5.0
|  8>     maxcore 5000
|  9> end
| 10>
| 11> %pal
| 12>   nprocs 6
| 13>   end
| 14> * xyz 0 1
| 15>    C        0.56039         5.91446        -4.38588
| 16>    C        0.73804         7.06416        -3.65270
| 17>    C        0.35281         8.34355        -4.09067
| 18>    N        0.02332         9.40454        -4.38369
| 19>    C        1.41034         7.08402        -2.41544
| 20>    N        2.00072         7.13478        -1.43101
| 21>    C        0.20191         5.86377        -5.79957
| 22>    C        0.61302         4.60157        -6.31931
| 23>    C        0.44924         4.28323        -7.63549
| 24>    C       -0.15144         5.22449        -8.50362
| 25>    C       -0.57484         6.48218        -7.98645
| 26>    C       -0.38626         6.78784        -6.61817
| 27>    C       -1.17297         7.41025        -8.86214
| 28>    C       -1.34336         7.11412       -10.18724
| 29>    C       -0.92663         5.87546       -10.69589
| 30>    C       -0.34340         4.95116        -9.87190
| 31>    C        1.18834         3.78920        -5.22718
| 32>    O        1.68014         2.68410        -5.30185
| 33>    C        0.97726         4.59127        -3.99769
| 34>    C        1.09379         4.00584        -2.76545
| 35>    C        0.51375         4.39746        -1.55125
| 36>    C        0.82764         3.94091        -0.27949
| 37>    S        2.05310         2.86683         0.28144
| 38>    C        1.51266         3.10028         1.94106
| 39>    C        2.21834         2.38162         3.03106
| 40>    C        0.46709         3.95256         2.03830
| 41>    C        0.04492         4.46412         0.77844
| 42>    C       -0.94633         5.33146         0.32227
| 43>    S       -0.86051         5.47926        -1.41854
| 44>    C       -1.92879         6.05869         1.02747
| 45>    N       -2.87566         6.80586         0.35579
| 46>    C       -3.67468         7.41485         1.26657
| 47>    C       -4.77044         8.25262         1.41786
| 48>    C       -4.96338         8.39465         2.80035
| 49>    N       -4.00955         7.65744         3.47429
| 50>    C       -3.21542         7.04319         2.55969
| 51>    C       -2.12903         6.19088         2.41082
| 52>    C       -5.96849         9.16313         3.42729
| 53>    C       -6.11398         9.37764         4.76226
| 54>    C       -7.16092        10.15147         5.30880
| 55>    C       -7.34218        10.48688         6.64307
| 56>    S       -6.44794        10.15469         8.09210
| 57>    C       -7.60800        11.07482         9.03267
| 58>    C       -7.40855        11.20913        10.49659
| 59>    C       -8.60820        11.59438         8.27582
| 60>    C       -8.47916        11.27216         6.90177
| 61>    C       -9.22611        11.55255         5.73985
| 62>    S       -8.45267        10.82181         4.34372
| 63>    C      -10.40120        12.29451         5.76545
| 64>    C      -11.26659        12.63065         4.74537
| 65>    C      -12.48357        13.39390         4.88825
| 66>    C      -12.98556        13.96006         6.03703
| 67>    C      -14.18442        14.69783         6.09413
| 68>    N      -15.15038        15.30823         6.21415
| 69>    C      -12.39319        13.89501         7.31264
| 70>    N      -11.97525        13.88565         8.38431
| 71>    C      -13.11266        13.46785         3.57075
| 72>    C      -12.28756        12.77636         2.63789
| 73>    C      -11.11010        12.24622         3.34402
| 74>    O      -10.19260        11.61054         2.84583
| 75>    C      -12.61980        12.66506         1.32000
| 76>    C      -13.82201        13.25144         0.86190
| 77>    C      -14.65286        13.94593         1.78628
| 78>    C      -14.27864        14.04571         3.14773
| 79>    C      -15.84970        14.52497         1.31982
| 80>    C      -16.21141        14.42278         0.00361
| 81>    C      -15.39282        13.73769        -0.90551
| 82>    C      -14.22274        13.16480        -0.48516
| 83>    H        0.77595         3.32604        -8.01412
| 84>    H       -0.72042         7.74496        -6.24842
| 85>    H       -1.48928         8.36410        -8.46567
| 86>    H       -1.79962         7.83365       -10.85075
| 87>    H       -1.06935         5.65705       -11.74378
| 88>    H       -0.02009         3.99558       -10.25857
| 89>    H        1.63950         3.06685        -2.73730
| 90>    H        2.17252         1.30480         2.87078
| 91>    H        1.76579         2.61607         3.99132
| 92>    H        3.26947         2.66789         3.05638
| 93>    H        0.01089         4.20796         2.97581
| 94>    H       -2.92802         6.88558        -0.64544
| 95>    H       -5.36424         8.72067         0.65942
| 96>    H       -3.94193         7.58515         4.47397
| 97>    H       -1.53995         5.73489         3.17809
| 98>    H       -6.68115         9.62607         2.75838
| 99>    H       -5.41222         8.96835         5.47849
|100>    H       -6.48927        11.75578        10.70788
|101>    H       -7.32517        10.22856        10.96425
|102>    H       -8.24495        11.74418        10.93884
|103>    H       -9.40583        12.18728         8.68661
|104>    H      -10.66327        12.64160         6.75623
|105>    H      -11.97620        12.13433         0.63405
|106>    H      -14.93193        14.57717         3.82116
|107>    H      -16.47730        15.05153         2.02394
|108>    H      -17.13118        14.86959        -0.34339
|109>    H      -15.69308        13.66548        -1.94032
|110>    H      -13.58775        12.63554        -1.18086
|111> *
|112>
|113>                          ****END OF INPUT****

CARTESIAN COORDINATES (ANGSTROEM)
---------------------------------
  C      0.560390    5.914460   -4.385880
  C      0.738040    7.064160   -3.652700
  C      0.352810    8.343550   -4.090670
  N      0.023320    9.404540   -4.383690
  C      1.410340    7.084020   -2.415440
  N      2.000720    7.134780   -1.431010
  C      0.201910    5.863770   -5.799570
  C      0.613020    4.601570   -6.319310
  C      0.449240    4.283230   -7.635490
  C     -0.151440    5.224490   -8.503620
  C     -0.574840    6.482180   -7.986450
  C     -0.386260    6.787840   -6.618170
  C     -1.172970    7.410250   -8.862140
  C     -1.343360    7.114120  -10.187240
  C     -0.926630    5.875460  -10.695890
  C     -0.343400    4.951160   -9.871900
  C      1.188340    3.789200   -5.227180
  O      1.680140    2.684100   -5.301850
  C      0.977260    4.591270   -3.997690
  C      1.093790    4.005840   -2.765450
  C      0.513750    4.397460   -1.551250
  C      0.827640    3.940910   -0.279490
  S      2.053100    2.866830    0.281440
  C      1.512660    3.100280    1.941060
  C      2.218340    2.381620    3.031060
  C      0.467090    3.952560    2.038300
  C      0.044920    4.464120    0.778440
  C     -0.946330    5.331460    0.322270
  S     -0.860510    5.479260   -1.418540
  C     -1.928790    6.058690    1.027470
  N     -2.875660    6.805860    0.355790
  C     -3.674680    7.414850    1.266570
  C     -4.770440    8.252620    1.417860
  C     -4.963380    8.394650    2.800350
  N     -4.009550    7.657440    3.474290
  C     -3.215420    7.043190    2.559690
  C     -2.129030    6.190880    2.410820
  C     -5.968490    9.163130    3.427290
  C     -6.113980    9.377640    4.762260
  C     -7.160920   10.151470    5.308800
  C     -7.342180   10.486880    6.643070
  S     -6.447940   10.154690    8.092100
  C     -7.608000   11.074820    9.032670
  C     -7.408550   11.209130   10.496590
  C     -8.608200   11.594380    8.275820
  C     -8.479160   11.272160    6.901770
  C     -9.226110   11.552550    5.739850
  S     -8.452670   10.821810    4.343720
  C    -10.401200   12.294510    5.765450
  C    -11.266590   12.630650    4.745370
  C    -12.483570   13.393900    4.888250
  C    -12.985560   13.960060    6.037030
  C    -14.184420   14.697830    6.094130
  N    -15.150380   15.308230    6.214150
  C    -12.393190   13.895010    7.312640
  N    -11.975250   13.885650    8.384310
  C    -13.112660   13.467850    3.570750
  C    -12.287560   12.776360    2.637890
  C    -11.110100   12.246220    3.344020
  O    -10.192600   11.610540    2.845830
  C    -12.619800   12.665060    1.320000
  C    -13.822010   13.251440    0.861900
  C    -14.652860   13.945930    1.786280
  C    -14.278640   14.045710    3.147730
  C    -15.849700   14.524970    1.319820
  C    -16.211410   14.422780    0.003610
  C    -15.392820   13.737690   -0.905510
  C    -14.222740   13.164800   -0.485160
  H      0.775950    3.326040   -8.014120
  H     -0.720420    7.744960   -6.248420
  H     -1.489280    8.364100   -8.465670
  H     -1.799620    7.833650  -10.850750
  H     -1.069350    5.657050  -11.743780
  H     -0.020090    3.995580  -10.258570
  H      1.639500    3.066850   -2.737300
  H      2.172520    1.304800    2.870780
  H      1.765790    2.616070    3.991320
  H      3.269470    2.667890    3.056380
  H      0.010890    4.207960    2.975810
  H     -2.928020    6.885580   -0.645440
  H     -5.364240    8.720670    0.659420
  H     -3.941930    7.585150    4.473970
  H     -1.539950    5.734890    3.178090
  H     -6.681150    9.626070    2.758380
  H     -5.412220    8.968350    5.478490
  H     -6.489270   11.755780   10.707880
  H     -7.325170   10.228560   10.964250
  H     -8.244950   11.744180   10.938840
  H     -9.405830   12.187280    8.686610
  H    -10.663270   12.641600    6.756230
  H    -11.976200   12.134330    0.634050
  H    -14.931930   14.577170    3.821160
  H    -16.477300   15.051530    2.023940
  H    -17.131180   14.869590   -0.343390
  H    -15.693080   13.665480   -1.940320
  H    -13.587750   12.635540   -1.180860

 Total Charge           Charge          ....    0
 Multiplicity           Mult            ....    1
 Number of Electrons    NEL             ....  486
 Basis Dimension        Dim             .... 1108

ORBITAL ENERGIES
----------------

  NO   OCC          E(Eh)            E(eV)
   0   2.0000     -88.972515     -2421.0652
   1   2.0000     -88.961796     -2420.7736
   2   2.0000     -88.958830     -2420.6928
   3   2.0000     -88.957159     -2420.6474
   4   2.0000     -19.206989      -522.6487
   5   2.0000     -19.201201      -522.4912
   6   2.0000     -14.474420      -393.8690
   7   2.0000     -14.472374      -393.8133
   8   2.0000     -14.406789      -392.0286
   9   2.0000     -14.405797      -392.0017
  10   2.0000     -14.401811      -391.8932
  11   2.0000     -14.399931      -391.8420
  12   2.0000     -10.355050      -281.7752
  13   2.0000     -10.353738      -281.7395
  14   2.0000     -10.334067      -281.2043
  15   2.0000     -10.330650      -281.1113
  16   2.0000     -10.329715      -281.0858
  17   2.0000     -10.328804      -281.0610
  18   2.0000     -10.327274      -281.0194
  19   2.0000     -10.324196      -280.9357
  20   2.0000     -10.321910      -280.8734
  21   2.0000     -10.319247      -280.8010
  22   2.0000     -10.317381      -280.7502
  23   2.0000     -10.317349      -280.7493
  24   2.0000     -10.315972      -280.7119
  25   2.0000     -10.315954      -280.7114
  26   2.0000     -10.314023      -280.6588
  27   2.0000     -10.312447      -280.6159
  28   2.0000     -10.311126      -280.5800
  29   2.0000     -10.311111      -280.5796
  30   2.0000     -10.309404      -280.5332
  31   2.0000     -10.309258      -280.5292
  32   2.0000     -10.307742      -280.4879
  33   2.0000     -10.304848      -280.4092
  34   2.0000     -10.304373      -280.3962
  35   2.0000     -10.302210      -280.3374
  36   2.0000     -10.300555      -280.2924
  37   2.0000     -10.295256      -280.1482
  38   2.0000     -10.295106      -280.1441
  39   2.0000     -10.294681      -280.1325
  40   2.0000     -10.293910      -280.1115
  41   2.0000     -10.291110      -280.0353
  42   2.0000     -10.289819      -280.0002
  43   2.0000     -10.289429      -279.9896
  44   2.0000     -10.288004      -279.9508
  45   2.0000     -10.287969      -279.9499
  46   2.0000     -10.287685      -279.9421
  47   2.0000     -10.287540      -279.9382
  48   2.0000     -10.286483      -279.9094
  49   2.0000     -10.286197      -279.9017
  50   2.0000     -10.286095      -279.8989
  51   2.0000     -10.285566      -279.8845
  52   2.0000     -10.284420      -279.8533
  53   2.0000     -10.283286      -279.8224
  54   2.0000     -10.282632      -279.8046
  55   2.0000     -10.281780      -279.7815
  56   2.0000     -10.280022      -279.7336
  57   2.0000     -10.279866      -279.7294
  58   2.0000     -10.279712      -279.7252
  59   2.0000     -10.279346      -279.7152
  60   2.0000     -10.279097      -279.7084
  61   2.0000     -10.278677      -279.6970
  62   2.0000     -10.278470      -279.6914
  63   2.0000     -10.277972      -279.6778
  64   2.0000     -10.277837      -279.6742
  65   2.0000     -10.277709      -279.6707
  66   2.0000     -10.277487      -279.6646
  67   2.0000     -10.276941      -279.6498
  68   2.0000      -8.067158      -219.5185
  69   2.0000      -8.057981      -219.2688
  70   2.0000      -8.053144      -219.1372
  71   2.0000      -8.051654      -219.0966
  72   2.0000      -6.036716      -164.2674
  73   2.0000      -6.032582      -164.1549
  74   2.0000      -6.028836      -164.0530
  75   2.0000      -6.027643      -164.0205
  76   2.0000      -6.023376      -163.9044
  77   2.0000      -6.022835      -163.8897
  78   2.0000      -6.021315      -163.8483
  79   2.0000      -6.019290      -163.7932
  80   2.0000      -6.018641      -163.7755
  81   2.0000      -6.016707      -163.7229
  82   2.0000      -6.014441      -163.6613
  83   2.0000      -6.013518      -163.6362
  84   2.0000      -1.121225       -30.5101
  85   2.0000      -1.115895       -30.3650
  86   2.0000      -1.107512       -30.1369
  87   2.0000      -1.071351       -29.1529
  88   2.0000      -1.018838       -27.7240
  89   2.0000      -1.011429       -27.5224
  90   2.0000      -1.006463       -27.3872
  91   2.0000      -1.005921       -27.3725
  92   2.0000      -0.988429       -26.8965
  93   2.0000      -0.988326       -26.8937
  94   2.0000      -0.982601       -26.7379
  95   2.0000      -0.981272       -26.7018
  96   2.0000      -0.963953       -26.2305
  97   2.0000      -0.961497       -26.1637
  98   2.0000      -0.956596       -26.0303
  99   2.0000      -0.952823       -25.9276
 100   2.0000      -0.922557       -25.1041
 101   2.0000      -0.918630       -24.9972
 102   2.0000      -0.910940       -24.7879
 103   2.0000      -0.905892       -24.6506
 104   2.0000      -0.894850       -24.3501
 105   2.0000      -0.886188       -24.1144
 106   2.0000      -0.881216       -23.9791
 107   2.0000      -0.878022       -23.8922
 108   2.0000      -0.872848       -23.7514
 109   2.0000      -0.871348       -23.7106
 110   2.0000      -0.867956       -23.6183
 111   2.0000      -0.860644       -23.4193
 112   2.0000      -0.850769       -23.1506
 113   2.0000      -0.844357       -22.9761
 114   2.0000      -0.841716       -22.9043
 115   2.0000      -0.826658       -22.4945
 116   2.0000      -0.820096       -22.3160
 117   2.0000      -0.818626       -22.2759
 118   2.0000      -0.807787       -21.9810
 119   2.0000      -0.799577       -21.7576
 120   2.0000      -0.785920       -21.3860
 121   2.0000      -0.783618       -21.3233
 122   2.0000      -0.776561       -21.1313
 123   2.0000      -0.754109       -20.5203
 124   2.0000      -0.751034       -20.4367
 125   2.0000      -0.748156       -20.3584
 126   2.0000      -0.735023       -20.0010
 127   2.0000      -0.712011       -19.3748
 128   2.0000      -0.709450       -19.3051
 129   2.0000      -0.707074       -19.2405
 130   2.0000      -0.697850       -18.9895
 131   2.0000      -0.694641       -18.9021
 132   2.0000      -0.694252       -18.8915
 133   2.0000      -0.690001       -18.7759
 134   2.0000      -0.682860       -18.5816
 135   2.0000      -0.673576       -18.3289
 136   2.0000      -0.666786       -18.1442
 137   2.0000      -0.664274       -18.0758
 138   2.0000      -0.659180       -17.9372
 139   2.0000      -0.648206       -17.6386
 140   2.0000      -0.642265       -17.4769
 141   2.0000      -0.639892       -17.4123
 142   2.0000      -0.633458       -17.2373
 143   2.0000      -0.631876       -17.1942
 144   2.0000      -0.622642       -16.9429
 145   2.0000      -0.620676       -16.8895
 146   2.0000      -0.612537       -16.6680
 147   2.0000      -0.605067       -16.4647
 148   2.0000      -0.598649       -16.2901
 149   2.0000      -0.598038       -16.2735
 150   2.0000      -0.596077       -16.2201
 151   2.0000      -0.594279       -16.1712
 152   2.0000      -0.585205       -15.9242
 153   2.0000      -0.577005       -15.7011
 154   2.0000      -0.570326       -15.5194
 155   2.0000      -0.563423       -15.3315
 156   2.0000      -0.553324       -15.0567
 157   2.0000      -0.549181       -14.9440
 158   2.0000      -0.548497       -14.9254
 159   2.0000      -0.541916       -14.7463
 160   2.0000      -0.540404       -14.7051
 161   2.0000      -0.538754       -14.6602
 162   2.0000      -0.538335       -14.6488
 163   2.0000      -0.538135       -14.6434
 164   2.0000      -0.533648       -14.5213
 165   2.0000      -0.529367       -14.4048
 166   2.0000      -0.528515       -14.3816
 167   2.0000      -0.528333       -14.3767
 168   2.0000      -0.527496       -14.3539
 169   2.0000      -0.522894       -14.2287
 170   2.0000      -0.522770       -14.2253
 171   2.0000      -0.519905       -14.1473
 172   2.0000      -0.513491       -13.9728
 173   2.0000      -0.510406       -13.8889
 174   2.0000      -0.509325       -13.8594
 175   2.0000      -0.506422       -13.7804
 176   2.0000      -0.505968       -13.7681
 177   2.0000      -0.503121       -13.6906
 178   2.0000      -0.501911       -13.6577
 179   2.0000      -0.499533       -13.5930
 180   2.0000      -0.498389       -13.5619
 181   2.0000      -0.497449       -13.5363
 182   2.0000      -0.496143       -13.5007
 183   2.0000      -0.489105       -13.3092
 184   2.0000      -0.488828       -13.3017
 185   2.0000      -0.485995       -13.2246
 186   2.0000      -0.485605       -13.2140
 187   2.0000      -0.483204       -13.1486
 188   2.0000      -0.481112       -13.0917
 189   2.0000      -0.476425       -12.9642
 190   2.0000      -0.474773       -12.9192
 191   2.0000      -0.473540       -12.8857
 192   2.0000      -0.467316       -12.7163
 193   2.0000      -0.462703       -12.5908
 194   2.0000      -0.460155       -12.5215
 195   2.0000      -0.458761       -12.4835
 196   2.0000      -0.455154       -12.3854
 197   2.0000      -0.454765       -12.3748
 198   2.0000      -0.453217       -12.3327
 199   2.0000      -0.441297       -12.0083
 200   2.0000      -0.440370       -11.9831
 201   2.0000      -0.434760       -11.8304
 202   2.0000      -0.434569       -11.8252
 203   2.0000      -0.432168       -11.7599
 204   2.0000      -0.431247       -11.7348
 205   2.0000      -0.430264       -11.7081
 206   2.0000      -0.428554       -11.6615
 207   2.0000      -0.426147       -11.5960
 208   2.0000      -0.424756       -11.5582
 209   2.0000      -0.424518       -11.5517
 210   2.0000      -0.423196       -11.5157
 211   2.0000      -0.421445       -11.4681
 212   2.0000      -0.421047       -11.4573
 213   2.0000      -0.419850       -11.4247
 214   2.0000      -0.418473       -11.3872
 215   2.0000      -0.415843       -11.3157
 216   2.0000      -0.414585       -11.2814
 217   2.0000      -0.412442       -11.2231
 218   2.0000      -0.406420       -11.0593
 219   2.0000      -0.404179       -10.9983
 220   2.0000      -0.396331       -10.7847
 221   2.0000      -0.395169       -10.7531
 222   2.0000      -0.392390       -10.6775
 223   2.0000      -0.386653       -10.5214
 224   2.0000      -0.378486       -10.2991
 225   2.0000      -0.373318       -10.1585
 226   2.0000      -0.365628        -9.9492
 227   2.0000      -0.362789        -9.8720
 228   2.0000      -0.340898        -9.2763
 229   2.0000      -0.333312        -9.0699
 230   2.0000      -0.327261        -8.9052
 231   2.0000      -0.323117        -8.7925
 232   2.0000      -0.322000        -8.7621
 233   2.0000      -0.310734        -8.4555
 234   2.0000      -0.308619        -8.3979
 235   2.0000      -0.307405        -8.3649
 236   2.0000      -0.305328        -8.3084
 237   2.0000      -0.303201        -8.2505
 238   2.0000      -0.291304        -7.9268
 239   2.0000      -0.286216        -7.7883
 240   2.0000      -0.283211        -7.7066
 241   2.0000      -0.255546        -6.9538
 242   2.0000      -0.223918        -6.0931
 243   0.0000      -0.101562        -2.7636
 244   0.0000      -0.082877        -2.2552
 245   0.0000      -0.051337        -1.3970
 246   0.0000      -0.046832        -1.2744
 247   0.0000      -0.036608        -0.9962

MULLIKEN ATOMIC CHARGES
-----------------------
   0 C :    0.258287
   1 C :   -0.342551
   2 C :   -0.170175
   3 N :    0.139081
   4 C :   -0.212867
   5 N :    0.164479
   6 C :    0.039187
   7 C :    0.011210
   8 C :   -0.088056
   9 C :    0.095425
  10 C :    0.097134
  11 C :   -0.088898
  12 C :   -0.020322
  13 C :    0.035487
  14 C :    0.033092
  15 C :   -0.016139
  16 C :    0.141887
  17 O :   -0.151505
  18 C :   -0.154061
  19 C :    0.026153
  20 C :   -0.150952
  21 C :    0.013240
  22 S :    0.139738
  23 C :   -0.205984
  24 C :    0.114277
  25 C :   -0.000432
  26 C :    0.111815
  27 C :   -0.066050
  28 S :    0.121837
  29 C :    0.076452
  30 N :   -0.044602
  31 C :    0.128763
  32 C :   -0.155264
  33 C :    0.082217
  34 N :   -0.031973
  35 C :    0.111428
  36 C :   -0.152431
  37 C :    0.046144
  38 C :   -0.039892
  39 C :   -0.093458
  40 C :   -0.037381
  41 S :    0.106106
  42 C :   -0.196574
  43 C :    0.112718
  44 C :   -0.007125
  45 C :    0.121593
  46 C :   -0.072693
  47 S :    0.175436
  48 C :   -0.047936
  49 C :   -0.108875
  50 C :    0.341415
  51 C :   -0.370731
  52 C :   -0.184708
  53 N :    0.136893
  54 C :   -0.187865
  55 N :    0.129289
  56 C :    0.042181
  57 C :    0.002321
  58 C :    0.164219
  59 O :   -0.195458
  60 C :   -0.089537
  61 C :    0.099979
  62 C :    0.097151
  63 C :   -0.088306
  64 C :   -0.022095
  65 C :    0.035700
  66 C :    0.034162
  67 C :   -0.018576
  68 H :   -0.015542
  69 H :   -0.010742
  70 H :   -0.014650
  71 H :   -0.007498
  72 H :   -0.008021
  73 H :   -0.020269
  74 H :    0.020246
  75 H :    0.040160
  76 H :    0.022974
  77 H :    0.043202
  78 H :   -0.029141
  79 H :    0.134834
  80 H :   -0.022426
  81 H :    0.127463
  82 H :   -0.041081
  83 H :    0.011032
  84 H :   -0.034844
  85 H :    0.042019
  86 H :    0.037221
  87 H :    0.035688
  88 H :    0.007502
  89 H :   -0.011002
  90 H :   -0.019351
  91 H :   -0.011103
  92 H :   -0.010336
  93 H :   -0.008924
  94 H :   -0.008845
  95 H :   -0.021590
Sum of atomic charges:   -0.0000000

LOEWDIN ATOMIC CHARGES
----------------------
   0 C :    0.059621
   1 C :   -0.158920
   2 C :   -0.020312
   3 N :   -0.065370
   4 C :   -0.037038
   5 N :   -0.058911
   6 C :   -0.021434
   7 C :   -0.054492
   8 C :    0.028186
   9 C :   -0.010502
  10 C :   -0.006914
  11 C :    0.010359
  12 C :   -0.008373
  13 C :   -0.016376
  14 C :   -0.016609
  15 C :   -0.010453
  16 C :    0.080158
  17 O :   -0.154706
  18 C :   -0.113684
  19 C :    0.047006
  20 C :   -0.207987
  21 C :   -0.147115
  22 S :    0.411143
  23 C :   -0.139840
  24 C :   -0.058612
  25 C :   -0.068765
  26 C :   -0.076346
  27 C :   -0.132124
  28 S :    0.452776
  29 C :   -0.012108
  30 N :    0.071472
  31 C :   -0.011352
  32 C :   -0.072812
  33 C :    0.001795
  34 N :    0.070103
  35 C :   -0.009044
  36 C :   -0.077940
  37 C :   -0.001236
  38 C :   -0.070946
  39 C :   -0.156770
  40 C :   -0.206617
  41 S :    0.380210
  42 C :   -0.128441
  43 C :   -0.058090
  44 C :   -0.069383
  45 C :   -0.033421
  46 C :   -0.189799
  47 S :    0.499266
  48 C :    0.050438
  49 C :   -0.123404
  50 C :    0.078988
  51 C :   -0.159772
  52 C :   -0.018288
  53 N :   -0.068004
  54 C :   -0.015915
  55 N :   -0.074543
  56 C :   -0.023492
  57 C :   -0.052012
  58 C :    0.082515
  59 O :   -0.182103
  60 C :    0.025907
  61 C :   -0.010107
  62 C :   -0.008025
  63 C :    0.016674
  64 C :   -0.006347
  65 C :   -0.017019
  66 C :   -0.016056
  67 C :   -0.011902
  68 H :    0.037846
  69 H :    0.037002
  70 H :    0.032813
  71 H :    0.031813
  72 H :    0.031416
  73 H :    0.030728
  74 H :    0.047609
  75 H :    0.040682
  76 H :    0.039460
  77 H :    0.042144
  78 H :    0.027064
  79 H :    0.084225
  80 H :    0.030962
  81 H :    0.089872
  82 H :    0.025473
  83 H :    0.037898
  84 H :    0.021314
  85 H :    0.042525
  86 H :    0.040273
  87 H :    0.044564
  88 H :    0.037867
  89 H :    0.048045
  90 H :    0.036393
  91 H :    0.038340
  92 H :    0.034081
  93 H :    0.031575
  94 H :    0.031159
  95 H :    0.030067

  Mayer bond orders larger than 0.100000
B(  0-C ,  1-C ) :   1.6145 B(  0-C ,  6-C ) :   1.0004 B(  0-C , 18-C ) :   1.0723
B(  1-C ,  2-C ) :   1.1412 B(  1-C ,  4-C ) :   1.1581 B(  2-C ,  3-N ) :   2.9793
B(  4-C ,  5-N ) :   3.0234 B(  6-C ,  7-C ) :   1.2154 B(  6-C , 11-C ) :   1.4659
B(  7-C ,  8-C ) :   1.4826 B(  7-C , 16-C ) :   0.9150 B(  8-C ,  9-C ) :   1.1784
B(  8-C , 68-H ) :   1.0155 B(  9-C , 10-C ) :   1.2611 B(  9-C , 15-C ) :   1.2478
B( 10-C , 11-C ) :   1.1960 B( 10-C , 12-C ) :   1.2441 B( 11-C , 69-H ) :   0.9933
B( 12-C , 13-C ) :   1.4884 B( 12-C , 70-H ) :   0.9966 B( 13-C , 14-C ) :   1.2625
B( 13-C , 71-H ) :   0.9879 B( 14-C , 15-C ) :   1.4876 B( 14-C , 72-H ) :   0.9888
B( 15-C , 73-H ) :   0.9968 B( 16-C , 17-O ) :   2.2683 B( 16-C , 18-C ) :   0.9561
B( 18-C , 19-C ) :   1.5622 B( 19-C , 20-C ) :   1.2145 B( 19-C , 74-H ) :   0.9452
B( 20-C , 21-C ) :   1.4148 B( 20-C , 28-S ) :   1.0800 B( 21-C , 22-S ) :   1.0866
B( 21-C , 26-C ) :   1.2719 B( 22-S , 23-C ) :   1.0663 B( 23-C , 24-C ) :   1.0711
B( 23-C , 25-C ) :   1.6896 B( 24-C , 75-H ) :   0.9485 B( 24-C , 76-H ) :   0.9566
B( 24-C , 77-H ) :   0.9477 B( 25-C , 26-C ) :   1.1226 B( 25-C , 78-H ) :   0.9968
B( 26-C , 27-C ) :   1.4032 B( 27-C , 28-S ) :   1.1207 B( 27-C , 29-C ) :   1.1440
B( 29-C , 30-N ) :   1.1992 B( 29-C , 36-C ) :   1.3753 B( 30-N , 31-C ) :   1.1720
B( 30-N , 79-H ) :   0.9256 B( 31-C , 32-C ) :   1.2587 B( 31-C , 35-C ) :   1.2918
B( 32-C , 33-C ) :   1.3390 B( 32-C , 80-H ) :   1.0437 B( 33-C , 34-N ) :   1.1922
B( 33-C , 37-C ) :   1.1815 B( 34-N , 35-C ) :   1.1697 B( 34-N , 81-H ) :   0.9315
B( 35-C , 36-C ) :   1.2865 B( 36-C , 82-H ) :   1.0292 B( 37-C , 38-C ) :   1.5656
B( 37-C , 83-H ) :   0.9596 B( 38-C , 39-C ) :   1.2186 B( 38-C , 84-H ) :   0.9757
B( 39-C , 40-C ) :   1.4019 B( 39-C , 47-S ) :   1.1156 B( 40-C , 41-S ) :   1.0276
B( 40-C , 45-C ) :   1.3108 B( 41-S , 42-C ) :   1.0977 B( 42-C , 43-C ) :   1.0703
B( 42-C , 44-C ) :   1.6403 B( 43-C , 85-H ) :   0.9478 B( 43-C , 86-H ) :   0.9480
B( 43-C , 87-H ) :   0.9567 B( 44-C , 45-C ) :   1.1765 B( 44-C , 88-H ) :   0.9866
B( 45-C , 46-C ) :   1.2622 B( 46-C , 47-S ) :   1.0560 B( 46-C , 48-C ) :   1.3596
B( 48-C , 49-C ) :   1.4199 B( 48-C , 89-H ) :   0.9361 B( 49-C , 50-C ) :   1.1143
B( 49-C , 58-C ) :   0.9921 B( 50-C , 51-C ) :   1.5843 B( 50-C , 56-C ) :   0.9757
B( 51-C , 52-C ) :   1.1543 B( 51-C , 54-C ) :   1.1532 B( 52-C , 53-N ) :   2.9571
B( 54-C , 55-N ) :   2.9662 B( 56-C , 57-C ) :   1.2150 B( 56-C , 63-C ) :   1.4621
B( 57-C , 58-C ) :   0.9559 B( 57-C , 60-C ) :   1.4780 B( 58-C , 59-O ) :   2.1118
B( 60-C , 61-C ) :   1.1673 B( 60-C , 90-H ) :   1.0165 B( 61-C , 62-C ) :   1.2623
B( 61-C , 67-C ) :   1.2492 B( 62-C , 63-C ) :   1.1942 B( 62-C , 64-C ) :   1.2436
B( 63-C , 91-H ) :   0.9900 B( 64-C , 65-C ) :   1.4846 B( 64-C , 92-H ) :   0.9972
B( 65-C , 66-C ) :   1.2635 B( 65-C , 93-H ) :   0.9883 B( 66-C , 67-C ) :   1.4835
B( 66-C , 94-H ) :   0.9891 B( 67-C , 95-H ) :   0.9971

-----------------------------------------------------------------------------
         ABSORPTION SPECTRUM VIA TRANSITION ELECTRIC DIPOLE MOMENTS
-----------------------------------------------------------------------------
State   Energy  Wavelength   fosc         T2         TX        TY        TZ
        (cm-1)    (nm)                  (au**2)     (au)      (au)      (au)
-----------------------------------------------------------------------------
   0   12371.4    808.3   1.687281911  44.89986   4.89573  -2.66054  -3.72199
   1   17114.0    584.3   0.711319914  13.68327   2.37272  -2.21869   1.76943
   2   21047.5    475.1   0.084487600   1.32150  -0.48515   0.42043  -0.95361
   3   23608.2    423.6   0.084948909   1.18459  -0.43354   0.88862   0.45495
   4   24427.6    409.4   0.240218297   3.23744  -0.51279   1.07217   1.35090
   5   24530.5    407.7   0.057046253   0.76559  -0.10469  -0.55847  -0.66539
   6   26258.7    380.8   0.122076849   1.53051  -0.09902  -0.27746  -1.20155
   7   26807.2    373.0   0.149223188   1.83257  -0.59375  -0.00934  -1.21653
   8   27062.4    369.5   0.024119221   0.29341  -0.00770  -0.04491  -0.53975
   9   27490.9    363.8   0.001709527   0.02047  -0.04645   0.11295  -0.07454
  10   27889.7    358.6   0.044028227   0.51971   0.18987  -0.55327  -0.42138
  11   28213.5    354.4   0.020066514   0.23415  -0.04568  -0.20584   0.43553
  12   28444.3    351.6   0.126734759   1.46682   0.82996  -0.81873  -0.32813
  13   29119.4    343.4   0.060754100   0.68686   0.11891  -0.09768  -0.81436
  14   29376.5    340.4   0.045531535   0.51026  -0.40103   0.57639  -0.13118
  15   29517.7    338.8   0.047747163   0.53253  -0.36207   0.09681  -0.62615
  16   29726.7    336.4   0.086921107   0.96262   0.40714  -0.53151   0.71718
  17   30908.2    323.5   0.032006042   0.34090   0.30400  -0.42732   0.25669
  18   32001.3    312.5   0.088016846   0.90547  -0.27936   0.82022   0.39327
  19   32294.3    309.7   0.196855023   2.00677   0.24677   0.03521   1.39450
  20   32758.1    305.3   0.055538158   0.55815   0.26250   0.47079   0.51729
  21   32940.9    303.6   0.008519840   0.08515  -0.11634  -0.05170  -0.26256
  22   33239.4    300.8   0.477331068   4.72761   0.66008   0.14390   2.06669
  23   33661.9    297.1   0.004748276   0.04644  -0.09174  -0.05043  -0.18836
  24   33870.3    295.2   0.063300735   0.61527  -0.32401   0.13043  -0.70234
  25   33971.6    294.4   0.308003560   2.98480   0.67436  -0.42452   1.53291
  26   34430.2    290.4   0.036456511   0.34859   0.30720  -0.17159  -0.47410
  27   34769.0    287.6   0.726688991   6.88068  -1.06523   0.32567  -2.37485
  28   34998.5    285.7   0.112621058   1.05937   0.07601   0.38438   0.95176
  29   35222.5    283.9   0.005981910   0.05591  -0.16736   0.07938   0.14697
  30   35358.2    282.8   0.017579559   0.16368   0.18953   0.26589   0.23886
  31   35831.6    279.1   0.058306185   0.53570   0.42006  -0.28119   0.52933
  32   36057.0    277.3   0.006343070   0.05791  -0.12352  -0.07350  -0.19302
  33   36604.2    273.2   0.155616985   1.39959  -0.39674   0.27899  -1.07906
  34   37739.4    265.0   0.092203850   0.80432   0.32816   0.23401   0.80117
  35   38012.9    263.1   0.034628376   0.29990   0.10685   0.45347   0.28783
  36   38382.0    260.5   0.357468387   3.06610  -0.23680   0.71150   1.58234
  37   38878.5    257.2   0.031667618   0.26815  -0.18761   0.35629  -0.32559
  38   38916.8    257.0   0.034402177   0.29102  -0.15678  -0.00526   0.51615
  39   39025.0    256.2   0.093195761   0.78619  -0.79074   0.35571  -0.18546
  40   39203.3    255.1   0.038436845   0.32278  -0.05654  -0.52154  -0.21812
  41   39731.2    251.7   0.001220052   0.01011  -0.02426   0.09614   0.01666
  42   40062.4    249.6   0.026066718   0.21420  -0.31071   0.13814   0.31397

FINAL SINGLE POINT ENERGY     -4218.650673289243

DIPOLE MOMENT
-------------
                                X             Y             Z
Electronic contribution:      8.68561       0.21481       1.05349
Nuclear contribution   :     -8.21133      -2.86582      -1.46347
                        -----------------------------------------
Total Dipole Moment    :      0.47428      -2.65100      -0.40998
                        -----------------------------------------
Magnitude (a.u.)       :      2.72412
Magnitude (Debye)      :      6.92417

Rotational constants in cm-1:     0.001233     0.000294     0.000243
Rotational constants in MHz :    36.975437     8.799688     7.273675

                             ****ORCA TERMINATED NORMALLY****
TOTAL RUN TIME: 0 days 0 hours 9 minutes 26 seconds 38 msec
