                         Program Version 4.2.0 -  RELEASE  -
|  1> # ORCA input file
|  2> # SCF done       -198.219377015610          0.000804943517
|  3> ! CAM-B3LYP def2-SVP def2/J RIJCOSX Grid4 TightSCF
|  4> %maxcore 5000
|  5> %tddft
|  6>     Mode sTDDFT
|  7>     Ethresh 5.0
|  8>     maxcore 5000
|  9> end
| 10>
| 11> %pal
| 12>   nprocs 6
| 13>   end
| 14> * xyz 0 1
| 15>    C       -0.58751         0.66518         0.29806
| 16>    C        0.13976         1.39539        -0.60618
| 17>    C        0.66580         0.86205        -1.80179
| 18>    N        1.12379         0.47634        -2.78073
| 19>    C        0.53269         2.73139        -0.40139
| 20>    N        0.88995         3.81377        -0.26142
| 21>    C       -0.79690        -0.77800         0.22639
| 22>    C       -1.11971        -1.25580         1.53025
| 23>    C       -1.32900        -2.58194         1.77730
| 24>    C       -1.23850        -3.50366         0.71009
| 25>    C       -0.94110        -3.02894        -0.60032
| 26>    C       -0.71944        -1.65044        -0.82513
| 27>    C       -0.86717        -3.95775        -1.65799
| 28>    C       -1.07152        -5.29209        -1.43356
| 29>    C       -1.36067        -5.75891        -0.14264
| 30>    C       -1.44235        -4.88375         0.90630
| 31>    C       -1.19703        -0.11654         2.45862
| 32>    O       -1.39504        -0.13123         3.65187
| 33>    C       -1.03771         1.09859         1.60410
| 34>    C       -1.40024         2.30162         2.12680
| 35>    C       -1.69784         3.51654         1.47106
| 36>    C       -2.01303         3.74973         0.14007
| 37>    C       -2.27433         5.09133        -0.10951
| 38>    C       -2.16975         5.89485         1.04158
| 39>    S       -1.76561         4.99490         2.42474
| 40>    C       -2.43846         7.24161         0.67707
| 41>    C       -2.70088         7.28441        -0.70498
| 42>    C       -2.59798         5.94041        -1.24568
| 43>    C       -2.74400         5.54703        -2.54386
| 44>    C       -3.04596         6.45960        -3.57616
| 45>    N       -3.29720         7.20081        -4.41415
| 46>    C       -2.60373         4.19532        -2.92311
| 47>    N       -2.49828         3.09161        -3.21628
| 48>    C       -2.98436         8.57618        -1.15568
| 49>    C       -2.94085         9.48679        -0.12415
| 50>    S       -2.54410         8.77516         1.41557
| 51>    C       -3.19864        10.90365        -0.16582
| 52>    N       -3.14346        11.54125         1.00625
| 53>    C       -3.39870        12.83670         0.99075
| 54>    C       -3.71063        13.51320        -0.17577
| 55>    C       -3.73187        12.76222        -1.36094
| 56>    N       -3.47355        11.45302        -1.34060
| 57>    C       -4.02937        13.38351        -2.63050
| 58>    C       -3.97769        12.71101        -3.79749
| 59>    C       -4.24954        13.27692        -5.07477
| 60>    C       -4.68666        14.55435        -5.38307
| 61>    C       -4.82749        14.74429        -6.75545
| 62>    C       -4.49041        13.60033        -7.50334
| 63>    S       -4.01402        12.29692        -6.51162
| 64>    C       -4.64818        13.90061        -8.87969
| 65>    C       -5.09455        15.23570        -8.99969
| 66>    C       -5.21387        15.80872        -7.66904
| 67>    C       -5.58942        17.07631        -7.33628
| 68>    C       -5.91088        18.06702        -8.29007
| 69>    N       -6.16078        18.90172        -9.03444
| 70>    C       -5.66383        17.49794        -5.99136
| 71>    N       -5.72599        17.84082        -4.89884
| 72>    C       -5.28986        15.63190       -10.31560
| 73>    C       -4.99254        14.61807       -11.21732
| 74>    S       -4.45303        13.14825       -10.38947
| 75>    C       -4.97810        14.57481       -12.62675
| 76>    C       -5.45796        15.46224       -13.54994
| 77>    C       -5.25466        15.33078       -14.98460
| 78>    C       -4.37285        14.49179       -15.61658
| 79>    C       -4.20786        14.43168       -17.01672
| 80>    N       -4.02700        14.32601       -18.14545
| 81>    C       -3.48084        13.59982       -14.98512
| 82>    N       -2.71042        12.86667       -14.55069
| 83>    C       -6.09411        16.31951       -15.64999
| 84>    C       -6.75460        17.09208       -14.65432
| 85>    C       -6.37446        16.60888       -13.31763
| 86>    O       -6.78218        17.04475       -12.26168
| 87>    C       -7.60297        18.11308       -14.97217
| 88>    C       -7.83573        18.41436       -16.33235
| 89>    C       -7.18518        17.64140       -17.33727
| 90>    C       -6.31195        16.58983       -16.97549
| 91>    C       -7.42752        17.94834       -18.69175
| 92>    C       -8.26966        18.96970       -19.03834
| 93>    C       -8.90878        19.73038       -18.04785
| 94>    C       -8.69619        19.45879       -16.72347
| 95>    H       -1.56307        -2.92429         2.77438
| 96>    H       -0.50670        -1.31590        -1.82845
| 97>    H       -0.64091        -3.59402        -2.64942
| 98>    H       -1.01085        -5.99588        -2.25009
| 99>    H       -1.51896        -6.81506         0.01657
|100>    H       -1.66527        -5.23705         1.90249
|101>    H       -1.54238         2.29867         3.20385
|102>    H       -2.09091         2.96587        -0.59092
|103>    H       -3.21550         8.85830        -2.16591
|104>    H       -3.35087        13.33854         1.94859
|105>    H       -3.92254        14.56961        -0.17921
|106>    H       -4.28601        14.43215        -2.59707
|107>    H       -3.69828        11.66666        -3.77055
|108>    H       -4.89413        15.30141        -4.64002
|109>    H       -5.63857        16.59977       -10.62634
|110>    H       -4.50845        13.67993       -13.01879
|111>    H       -8.08712        18.68407       -14.19391
|112>    H       -5.84023        16.02161       -17.76113
|113>    H       -6.93207        17.36120       -19.45103
|114>    H       -8.44777        19.19754       -20.07858
|115>    H       -9.57024        20.53244       -18.33945
|116>    H       -9.18486        20.04077       -15.95584
|117> *
|118>
|119>                          ****END OF INPUT****

CARTESIAN COORDINATES (ANGSTROEM)
---------------------------------
  C     -0.587510    0.665180    0.298060
  C      0.139760    1.395390   -0.606180
  C      0.665800    0.862050   -1.801790
  N      1.123790    0.476340   -2.780730
  C      0.532690    2.731390   -0.401390
  N      0.889950    3.813770   -0.261420
  C     -0.796900   -0.778000    0.226390
  C     -1.119710   -1.255800    1.530250
  C     -1.329000   -2.581940    1.777300
  C     -1.238500   -3.503660    0.710090
  C     -0.941100   -3.028940   -0.600320
  C     -0.719440   -1.650440   -0.825130
  C     -0.867170   -3.957750   -1.657990
  C     -1.071520   -5.292090   -1.433560
  C     -1.360670   -5.758910   -0.142640
  C     -1.442350   -4.883750    0.906300
  C     -1.197030   -0.116540    2.458620
  O     -1.395040   -0.131230    3.651870
  C     -1.037710    1.098590    1.604100
  C     -1.400240    2.301620    2.126800
  C     -1.697840    3.516540    1.471060
  C     -2.013030    3.749730    0.140070
  C     -2.274330    5.091330   -0.109510
  C     -2.169750    5.894850    1.041580
  S     -1.765610    4.994900    2.424740
  C     -2.438460    7.241610    0.677070
  C     -2.700880    7.284410   -0.704980
  C     -2.597980    5.940410   -1.245680
  C     -2.744000    5.547030   -2.543860
  C     -3.045960    6.459600   -3.576160
  N     -3.297200    7.200810   -4.414150
  C     -2.603730    4.195320   -2.923110
  N     -2.498280    3.091610   -3.216280
  C     -2.984360    8.576180   -1.155680
  C     -2.940850    9.486790   -0.124150
  S     -2.544100    8.775160    1.415570
  C     -3.198640   10.903650   -0.165820
  N     -3.143460   11.541250    1.006250
  C     -3.398700   12.836700    0.990750
  C     -3.710630   13.513200   -0.175770
  C     -3.731870   12.762220   -1.360940
  N     -3.473550   11.453020   -1.340600
  C     -4.029370   13.383510   -2.630500
  C     -3.977690   12.711010   -3.797490
  C     -4.249540   13.276920   -5.074770
  C     -4.686660   14.554350   -5.383070
  C     -4.827490   14.744290   -6.755450
  C     -4.490410   13.600330   -7.503340
  S     -4.014020   12.296920   -6.511620
  C     -4.648180   13.900610   -8.879690
  C     -5.094550   15.235700   -8.999690
  C     -5.213870   15.808720   -7.669040
  C     -5.589420   17.076310   -7.336280
  C     -5.910880   18.067020   -8.290070
  N     -6.160780   18.901720   -9.034440
  C     -5.663830   17.497940   -5.991360
  N     -5.725990   17.840820   -4.898840
  C     -5.289860   15.631900  -10.315600
  C     -4.992540   14.618070  -11.217320
  S     -4.453030   13.148250  -10.389470
  C     -4.978100   14.574810  -12.626750
  C     -5.457960   15.462240  -13.549940
  C     -5.254660   15.330780  -14.984600
  C     -4.372850   14.491790  -15.616580
  C     -4.207860   14.431680  -17.016720
  N     -4.027000   14.326010  -18.145450
  C     -3.480840   13.599820  -14.985120
  N     -2.710420   12.866670  -14.550690
  C     -6.094110   16.319510  -15.649990
  C     -6.754600   17.092080  -14.654320
  C     -6.374460   16.608880  -13.317630
  O     -6.782180   17.044750  -12.261680
  C     -7.602970   18.113080  -14.972170
  C     -7.835730   18.414360  -16.332350
  C     -7.185180   17.641400  -17.337270
  C     -6.311950   16.589830  -16.975490
  C     -7.427520   17.948340  -18.691750
  C     -8.269660   18.969700  -19.038340
  C     -8.908780   19.730380  -18.047850
  C     -8.696190   19.458790  -16.723470
  H     -1.563070   -2.924290    2.774380
  H     -0.506700   -1.315900   -1.828450
  H     -0.640910   -3.594020   -2.649420
  H     -1.010850   -5.995880   -2.250090
  H     -1.518960   -6.815060    0.016570
  H     -1.665270   -5.237050    1.902490
  H     -1.542380    2.298670    3.203850
  H     -2.090910    2.965870   -0.590920
  H     -3.215500    8.858300   -2.165910
  H     -3.350870   13.338540    1.948590
  H     -3.922540   14.569610   -0.179210
  H     -4.286010   14.432150   -2.597070
  H     -3.698280   11.666660   -3.770550
  H     -4.894130   15.301410   -4.640020
  H     -5.638570   16.599770  -10.626340
  H     -4.508450   13.679930  -13.018790
  H     -8.087120   18.684070  -14.193910
  H     -5.840230   16.021610  -17.761130
  H     -6.932070   17.361200  -19.451030
  H     -8.447770   19.197540  -20.078580
  H     -9.570240   20.532440  -18.339450
  H     -9.184860   20.040770  -15.955840

 Total Charge           Charge          ....    0
 Multiplicity           Mult            ....    1
 Number of Electrons    NEL             ....  556
 Basis Dimension        Dim             .... 1246

ORBITAL ENERGIES
----------------

  NO   OCC          E(Eh)            E(eV)
   0   2.0000     -88.998227     -2421.7649
   1   2.0000     -88.998085     -2421.7610
   2   2.0000     -88.995297     -2421.6852
   3   2.0000     -88.990278     -2421.5486
   4   2.0000     -19.217646      -522.9387
   5   2.0000     -19.213555      -522.8274
   6   2.0000     -14.436795      -392.8452
   7   2.0000     -14.431771      -392.7085
   8   2.0000     -14.431541      -392.7022
   9   2.0000     -14.431481      -392.7006
  10   2.0000     -14.423387      -392.4803
  11   2.0000     -14.422931      -392.4679
  12   2.0000     -14.416554      -392.2944
  13   2.0000     -14.416503      -392.2930
  14   2.0000     -14.413067      -392.1995
  15   2.0000     -14.411692      -392.1621
  16   2.0000     -10.371112      -282.2123
  17   2.0000     -10.369121      -282.1581
  18   2.0000     -10.365540      -282.0607
  19   2.0000     -10.364807      -282.0407
  20   2.0000     -10.363116      -281.9947
  21   2.0000     -10.357957      -281.8544
  22   2.0000     -10.353620      -281.7363
  23   2.0000     -10.348872      -281.6071
  24   2.0000     -10.343251      -281.4542
  25   2.0000     -10.342199      -281.4255
  26   2.0000     -10.341673      -281.4112
  27   2.0000     -10.341050      -281.3943
  28   2.0000     -10.341045      -281.3941
  29   2.0000     -10.340659      -281.3836
  30   2.0000     -10.340451      -281.3780
  31   2.0000     -10.337123      -281.2874
  32   2.0000     -10.334431      -281.2142
  33   2.0000     -10.333535      -281.1898
  34   2.0000     -10.333331      -281.1842
  35   2.0000     -10.332076      -281.1501
  36   2.0000     -10.331917      -281.1458
  37   2.0000     -10.330918      -281.1186
  38   2.0000     -10.330607      -281.1101
  39   2.0000     -10.328789      -281.0606
  40   2.0000     -10.327493      -281.0254
  41   2.0000     -10.324058      -280.9319
  42   2.0000     -10.319490      -280.8076
  43   2.0000     -10.317637      -280.7572
  44   2.0000     -10.317377      -280.7501
  45   2.0000     -10.316204      -280.7182
  46   2.0000     -10.315820      -280.7077
  47   2.0000     -10.314118      -280.6614
  48   2.0000     -10.312302      -280.6120
  49   2.0000     -10.311056      -280.5781
  50   2.0000     -10.310048      -280.5507
  51   2.0000     -10.308454      -280.5073
  52   2.0000     -10.308350      -280.5045
  53   2.0000     -10.307173      -280.4724
  54   2.0000     -10.306134      -280.4442
  55   2.0000     -10.302824      -280.3541
  56   2.0000     -10.302460      -280.3442
  57   2.0000     -10.301635      -280.3217
  58   2.0000     -10.301563      -280.3198
  59   2.0000     -10.299364      -280.2600
  60   2.0000     -10.296541      -280.1831
  61   2.0000     -10.296298      -280.1765
  62   2.0000     -10.296032      -280.1693
  63   2.0000     -10.295939      -280.1667
  64   2.0000     -10.295868      -280.1648
  65   2.0000     -10.295661      -280.1592
  66   2.0000     -10.295594      -280.1574
  67   2.0000     -10.295257      -280.1482
  68   2.0000     -10.295133      -280.1448
  69   2.0000     -10.294680      -280.1325
  70   2.0000     -10.287878      -279.9474
  71   2.0000     -10.287092      -279.9260
  72   2.0000     -10.285478      -279.8821
  73   2.0000     -10.284968      -279.8682
  74   2.0000     -10.284871      -279.8656
  75   2.0000     -10.284785      -279.8632
  76   2.0000     -10.284406      -279.8529
  77   2.0000     -10.284356      -279.8515
  78   2.0000     -10.284057      -279.8434
  79   2.0000     -10.283397      -279.8254
  80   2.0000      -8.092999      -220.2217
  81   2.0000      -8.092877      -220.2184
  82   2.0000      -8.090116      -220.1433
  83   2.0000      -8.084267      -219.9841
  84   2.0000      -6.062117      -164.9586
  85   2.0000      -6.061962      -164.9544
  86   2.0000      -6.059210      -164.8795
  87   2.0000      -6.057939      -164.8449
  88   2.0000      -6.057848      -164.8424
  89   2.0000      -6.055525      -164.7792
  90   2.0000      -6.055438      -164.7768
  91   2.0000      -6.055104      -164.7677
  92   2.0000      -6.053415      -164.7218
  93   2.0000      -6.052656      -164.7011
  94   2.0000      -6.049119      -164.6049
  95   2.0000      -6.046979      -164.5467
  96   2.0000      -1.133273       -30.8379
  97   2.0000      -1.128997       -30.7216
  98   2.0000      -1.098834       -29.9008
  99   2.0000      -1.053317       -28.6622
 100   2.0000      -1.047892       -28.5146
 101   2.0000      -1.027116       -27.9492
 102   2.0000      -1.023431       -27.8490
 103   2.0000      -1.018277       -27.7087
 104   2.0000      -1.017612       -27.6906
 105   2.0000      -1.011252       -27.5176
 106   2.0000      -1.009166       -27.4608
 107   2.0000      -1.007027       -27.4026
 108   2.0000      -1.001567       -27.2540
 109   2.0000      -0.998147       -27.1610
 110   2.0000      -0.997487       -27.1430
 111   2.0000      -0.996239       -27.1090
 112   2.0000      -0.993004       -27.0210
 113   2.0000      -0.991115       -26.9696
 114   2.0000      -0.972075       -26.4515
 115   2.0000      -0.970516       -26.4091
 116   2.0000      -0.966015       -26.2866
 117   2.0000      -0.961425       -26.1617
 118   2.0000      -0.932759       -25.3816
 119   2.0000      -0.928013       -25.2525
 120   2.0000      -0.923737       -25.1362
 121   2.0000      -0.919924       -25.0324
 122   2.0000      -0.911869       -24.8132
 123   2.0000      -0.901005       -24.5176
 124   2.0000      -0.895773       -24.3752
 125   2.0000      -0.885839       -24.1049
 126   2.0000      -0.880800       -23.9678
 127   2.0000      -0.879879       -23.9427
 128   2.0000      -0.877905       -23.8890
 129   2.0000      -0.876053       -23.8386
 130   2.0000      -0.864533       -23.5251
 131   2.0000      -0.862980       -23.4829
 132   2.0000      -0.859202       -23.3801
 133   2.0000      -0.857270       -23.3275
 134   2.0000      -0.827242       -22.5104
 135   2.0000      -0.826742       -22.4968
 136   2.0000      -0.819602       -22.3025
 137   2.0000      -0.817753       -22.2522
 138   2.0000      -0.800426       -21.7807
 139   2.0000      -0.795236       -21.6395
 140   2.0000      -0.782610       -21.2959
 141   2.0000      -0.777604       -21.1597
 142   2.0000      -0.762587       -20.7510
 143   2.0000      -0.761570       -20.7234
 144   2.0000      -0.759416       -20.6648
 145   2.0000      -0.751575       -20.4514
 146   2.0000      -0.731328       -19.9004
 147   2.0000      -0.722244       -19.6533
 148   2.0000      -0.713973       -19.4282
 149   2.0000      -0.705265       -19.1912
 150   2.0000      -0.704084       -19.1591
 151   2.0000      -0.701621       -19.0921
 152   2.0000      -0.700122       -19.0513
 153   2.0000      -0.698420       -19.0050
 154   2.0000      -0.694125       -18.8881
 155   2.0000      -0.687940       -18.7198
 156   2.0000      -0.683097       -18.5880
 157   2.0000      -0.678284       -18.4571
 158   2.0000      -0.675707       -18.3869
 159   2.0000      -0.667816       -18.1722
 160   2.0000      -0.663111       -18.0442
 161   2.0000      -0.652088       -17.7442
 162   2.0000      -0.647615       -17.6225
 163   2.0000      -0.638751       -17.3813
 164   2.0000      -0.635133       -17.2829
 165   2.0000      -0.632472       -17.2104
 166   2.0000      -0.629742       -17.1362
 167   2.0000      -0.623487       -16.9659
 168   2.0000      -0.620163       -16.8755
 169   2.0000      -0.616143       -16.7661
 170   2.0000      -0.613750       -16.7010
 171   2.0000      -0.605946       -16.4886
 172   2.0000      -0.605507       -16.4767
 173   2.0000      -0.599657       -16.3175
 174   2.0000      -0.596546       -16.2328
 175   2.0000      -0.592923       -16.1343
 176   2.0000      -0.588568       -16.0158
 177   2.0000      -0.574038       -15.6204
 178   2.0000      -0.568078       -15.4582
 179   2.0000      -0.560681       -15.2569
 180   2.0000      -0.556727       -15.1493
 181   2.0000      -0.555415       -15.1136
 182   2.0000      -0.552811       -15.0428
 183   2.0000      -0.551563       -15.0088
 184   2.0000      -0.547689       -14.9034
 185   2.0000      -0.545907       -14.8549
 186   2.0000      -0.544618       -14.8198
 187   2.0000      -0.541004       -14.7215
 188   2.0000      -0.540125       -14.6975
 189   2.0000      -0.537323       -14.6213
 190   2.0000      -0.536825       -14.6078
 191   2.0000      -0.535165       -14.5626
 192   2.0000      -0.530579       -14.4378
 193   2.0000      -0.525140       -14.2898
 194   2.0000      -0.522726       -14.2241
 195   2.0000      -0.520179       -14.1548
 196   2.0000      -0.518308       -14.1039
 197   2.0000      -0.515569       -14.0293
 198   2.0000      -0.511297       -13.9131
 199   2.0000      -0.511026       -13.9057
 200   2.0000      -0.510157       -13.8821
 201   2.0000      -0.509484       -13.8638
 202   2.0000      -0.506717       -13.7885
 203   2.0000      -0.506276       -13.7765
 204   2.0000      -0.504888       -13.7387
 205   2.0000      -0.502057       -13.6617
 206   2.0000      -0.500764       -13.6265
 207   2.0000      -0.498038       -13.5523
 208   2.0000      -0.496398       -13.5077
 209   2.0000      -0.494401       -13.4533
 210   2.0000      -0.493996       -13.4423
 211   2.0000      -0.491527       -13.3751
 212   2.0000      -0.487935       -13.2774
 213   2.0000      -0.484215       -13.1762
 214   2.0000      -0.482327       -13.1248
 215   2.0000      -0.476761       -12.9733
 216   2.0000      -0.475152       -12.9295
 217   2.0000      -0.471689       -12.8353
 218   2.0000      -0.467330       -12.7167
 219   2.0000      -0.465453       -12.6656
 220   2.0000      -0.463909       -12.6236
 221   2.0000      -0.463313       -12.6074
 222   2.0000      -0.462920       -12.5967
 223   2.0000      -0.459906       -12.5147
 224   2.0000      -0.459537       -12.5046
 225   2.0000      -0.454363       -12.3638
 226   2.0000      -0.453763       -12.3475
 227   2.0000      -0.449530       -12.2323
 228   2.0000      -0.449009       -12.2181
 229   2.0000      -0.448615       -12.2074
 230   2.0000      -0.447071       -12.1654
 231   2.0000      -0.445818       -12.1313
 232   2.0000      -0.443855       -12.0779
 233   2.0000      -0.443676       -12.0730
 234   2.0000      -0.442877       -12.0513
 235   2.0000      -0.442431       -12.0392
 236   2.0000      -0.441573       -12.0158
 237   2.0000      -0.440081       -11.9752
 238   2.0000      -0.439032       -11.9467
 239   2.0000      -0.437346       -11.9008
 240   2.0000      -0.434619       -11.8266
 241   2.0000      -0.433026       -11.7832
 242   2.0000      -0.432400       -11.7662
 243   2.0000      -0.430535       -11.7155
 244   2.0000      -0.429200       -11.6791
 245   2.0000      -0.428852       -11.6697
 246   2.0000      -0.428001       -11.6465
 247   2.0000      -0.425736       -11.5849
 248   2.0000      -0.424459       -11.5501
 249   2.0000      -0.421752       -11.4765
 250   2.0000      -0.418716       -11.3938
 251   2.0000      -0.416935       -11.3454
 252   2.0000      -0.408307       -11.1106
 253   2.0000      -0.408261       -11.1094
 254   2.0000      -0.404827       -11.0159
 255   2.0000      -0.401276       -10.9193
 256   2.0000      -0.395394       -10.7592
 257   2.0000      -0.394543       -10.7361
 258   2.0000      -0.388812       -10.5801
 259   2.0000      -0.378286       -10.2937
 260   2.0000      -0.375909       -10.2290
 261   2.0000      -0.365993        -9.9592
 262   2.0000      -0.360183        -9.8011
 263   2.0000      -0.356502        -9.7009
 264   2.0000      -0.348717        -9.4891
 265   2.0000      -0.341548        -9.2940
 266   2.0000      -0.340223        -9.2580
 267   2.0000      -0.337633        -9.1875
 268   2.0000      -0.330110        -8.9827
 269   2.0000      -0.328751        -8.9458
 270   2.0000      -0.322484        -8.7752
 271   2.0000      -0.318942        -8.6789
 272   2.0000      -0.314567        -8.5598
 273   2.0000      -0.312370        -8.5000
 274   2.0000      -0.293642        -7.9904
 275   2.0000      -0.293168        -7.9775
 276   2.0000      -0.269061        -7.3215
 277   2.0000      -0.265743        -7.2312
 278   0.0000      -0.116553        -3.1716
 279   0.0000      -0.110223        -2.9993
 280   0.0000      -0.091839        -2.4991
 281   0.0000      -0.087918        -2.3924
 282   0.0000      -0.063318        -1.7230

MULLIKEN ATOMIC CHARGES
-----------------------
   0 C :    0.270763
   1 C :   -0.330083
   2 C :   -0.169462
   3 N :    0.159929
   4 C :   -0.203835
   5 N :    0.167180
   6 C :    0.029230
   7 C :    0.015177
   8 C :   -0.079954
   9 C :    0.093882
  10 C :    0.090820
  11 C :   -0.076786
  12 C :   -0.015438
  13 C :    0.034983
  14 C :    0.033559
  15 C :   -0.013576
  16 C :    0.137476
  17 O :   -0.146174
  18 C :   -0.141312
  19 C :    0.082595
  20 C :   -0.110998
  21 C :    0.002035
  22 C :   -0.005975
  23 C :   -0.075902
  24 S :    0.213247
  25 C :   -0.098990
  26 C :    0.009865
  27 C :    0.303202
  28 C :   -0.289417
  29 C :   -0.188278
  30 N :    0.170854
  31 C :   -0.184460
  32 N :    0.169655
  33 C :   -0.038436
  34 C :   -0.035084
  35 S :    0.247117
  36 C :   -0.067374
  37 N :   -0.095056
  38 C :    0.091916
  39 C :   -0.051648
  40 C :    0.066485
  41 N :   -0.050317
  42 C :   -0.015466
  43 C :    0.082535
  44 C :   -0.073388
  45 C :   -0.025676
  46 C :    0.004379
  47 C :   -0.105389
  48 S :    0.225829
  49 C :   -0.082591
  50 C :   -0.014954
  51 C :    0.315019
  52 C :   -0.296693
  53 C :   -0.190889
  54 N :    0.195947
  55 C :   -0.186520
  56 N :    0.165261
  57 C :    0.005600
  58 C :   -0.113024
  59 S :    0.213625
  60 C :    0.032181
  61 C :   -0.089087
  62 C :    0.314518
  63 C :   -0.354129
  64 C :   -0.181572
  65 N :    0.148032
  66 C :   -0.199347
  67 N :    0.153955
  68 C :    0.047996
  69 C :   -0.008302
  70 C :    0.154511
  71 O :   -0.150507
  72 C :   -0.076873
  73 C :    0.097359
  74 C :    0.094551
  75 C :   -0.079940
  76 C :   -0.019044
  77 C :    0.035669
  78 C :    0.035317
  79 C :   -0.013989
  80 H :   -0.012532
  81 H :   -0.000298
  82 H :   -0.009498
  83 H :   -0.003426
  84 H :   -0.004720
  85 H :   -0.018188
  86 H :    0.020701
  87 H :    0.025219
  88 H :    0.010891
  89 H :    0.012041
  90 H :    0.001791
  91 H :   -0.009563
  92 H :    0.012639
  93 H :    0.009489
  94 H :    0.038209
  95 H :    0.014407
  96 H :   -0.009499
  97 H :   -0.009004
  98 H :   -0.009221
  99 H :   -0.005029
 100 H :   -0.004639
 101 H :   -0.016086
Sum of atomic charges:    0.0000000

LOEWDIN ATOMIC CHARGES
----------------------
   0 C :    0.066015
   1 C :   -0.136870
   2 C :   -0.018186
   3 N :   -0.046683
   4 C :   -0.015719
   5 N :   -0.046926
   6 C :   -0.022714
   7 C :   -0.057871
   8 C :    0.032688
   9 C :   -0.009424
  10 C :   -0.005127
  11 C :    0.018489
  12 C :   -0.005309
  13 C :   -0.012807
  14 C :   -0.013376
  15 C :   -0.009483
  16 C :    0.083686
  17 O :   -0.145631
  18 C :   -0.090387
  19 C :    0.041233
  20 C :   -0.180328
  21 C :    0.010087
  22 C :   -0.065061
  23 C :   -0.160525
  24 S :    0.501755
  25 C :   -0.181317
  26 C :   -0.065544
  27 C :    0.083460
  28 C :   -0.100837
  29 C :   -0.014881
  30 N :   -0.035550
  31 C :   -0.013750
  32 N :   -0.033582
  33 C :   -0.005532
  34 C :   -0.181748
  35 S :    0.524034
  36 C :    0.013390
  37 N :   -0.111174
  38 C :    0.057958
  39 C :   -0.065538
  40 C :    0.041187
  41 N :   -0.088571
  42 C :   -0.034550
  43 C :    0.001067
  44 C :   -0.160600
  45 C :   -0.020828
  46 C :   -0.055024
  47 C :   -0.189508
  48 S :    0.503055
  49 C :   -0.158935
  50 C :   -0.074717
  51 C :    0.076666
  52 C :   -0.094910
  53 C :   -0.022776
  54 N :   -0.014720
  55 C :   -0.013569
  56 N :   -0.034996
  57 C :    0.019543
  58 C :   -0.175618
  59 S :    0.501356
  60 C :    0.042723
  61 C :   -0.093861
  62 C :    0.076853
  63 C :   -0.142665
  64 C :   -0.017108
  65 N :   -0.054456
  66 C :   -0.024906
  67 N :   -0.054061
  68 C :   -0.026671
  69 C :   -0.055688
  70 C :    0.085883
  71 O :   -0.138456
  72 C :    0.033929
  73 C :   -0.008265
  74 C :   -0.006311
  75 C :    0.019788
  76 C :   -0.005362
  77 C :   -0.013370
  78 C :   -0.012299
  79 C :   -0.008867
  80 H :    0.039090
  81 H :    0.040344
  82 H :    0.034921
  83 H :    0.033389
  84 H :    0.032730
  85 H :    0.031537
  86 H :    0.045412
  87 H :    0.042768
  88 H :    0.043415
  89 H :    0.029907
  90 H :    0.036290
  91 H :    0.031183
  92 H :    0.038171
  93 H :    0.040252
  94 H :    0.043927
  95 H :    0.043277
  96 H :    0.040240
  97 H :    0.038831
  98 H :    0.034674
  99 H :    0.033087
 100 H :    0.032886
 101 H :    0.032377

  Mayer bond orders larger than 0.100000
B(  0-C ,  1-C ) :   1.6495 B(  0-C ,  6-C ) :   0.9961 B(  0-C , 18-C ) :   1.0349
B(  1-C ,  2-C ) :   1.1281 B(  1-C ,  4-C ) :   1.1738 B(  2-C ,  3-N ) :   2.9930
B(  4-C ,  5-N ) :   2.9941 B(  6-C ,  7-C ) :   1.2147 B(  6-C , 11-C ) :   1.4602
B(  7-C ,  8-C ) :   1.4742 B(  7-C , 16-C ) :   0.9242 B(  8-C ,  9-C ) :   1.1844
B(  8-C , 80-H ) :   1.0160 B(  9-C , 10-C ) :   1.2567 B(  9-C , 15-C ) :   1.2453
B( 10-C , 11-C ) :   1.2045 B( 10-C , 12-C ) :   1.2426 B( 11-C , 81-H ) :   0.9943
B( 12-C , 13-C ) :   1.4887 B( 12-C , 82-H ) :   0.9977 B( 13-C , 14-C ) :   1.2606
B( 13-C , 83-H ) :   0.9893 B( 14-C , 15-C ) :   1.4879 B( 14-C , 84-H ) :   0.9892
B( 15-C , 85-H ) :   0.9977 B( 16-C , 17-O ) :   2.2619 B( 16-C , 18-C ) :   0.9403
B( 18-C , 19-C ) :   1.6742 B( 19-C , 20-C ) :   1.1349 B( 19-C , 86-H ) :   0.9254
B( 20-C , 21-C ) :   1.3967 B( 20-C , 24-S ) :   1.0927 B( 21-C , 22-C ) :   1.3562
B( 21-C , 87-H ) :   0.9792 B( 22-C , 23-C ) :   1.4207 B( 22-C , 27-C ) :   0.9961
B( 23-C , 24-S ) :   1.1576 B( 23-C , 25-C ) :   1.1878 B( 25-C , 26-C ) :   1.4324
B( 25-C , 35-S ) :   1.1277 B( 26-C , 27-C ) :   1.0001 B( 26-C , 33-C ) :   1.2621
B( 27-C , 28-C ) :   1.7180 B( 28-C , 29-C ) :   1.1331 B( 28-C , 31-C ) :   1.1327
B( 29-C , 30-N ) :   2.9981 B( 31-C , 32-N ) :   2.9839 B( 33-C , 34-C ) :   1.4909
B( 33-C , 88-H ) :   1.0086 B( 34-C , 35-S ) :   1.1231 B( 34-C , 36-C ) :   1.0019
B( 36-C , 37-N ) :   1.5853 B( 36-C , 41-N ) :   1.6181 B( 37-N , 38-C ) :   1.5338
B( 38-C , 39-C ) :   1.3796 B( 38-C , 89-H ) :   0.9792 B( 39-C , 40-C ) :   1.3234
B( 39-C , 90-H ) :   0.9763 B( 40-C , 41-N ) :   1.5021 B( 40-C , 42-C ) :   1.0817
B( 42-C , 43-C ) :   1.7212 B( 42-C , 91-H ) :   0.9726 B( 43-C , 44-C ) :   1.0855
B( 43-C , 92-H ) :   0.9620 B( 44-C , 45-C ) :   1.4513 B( 44-C , 48-S ) :   1.1207
B( 45-C , 46-C ) :   1.3113 B( 45-C , 93-H ) :   0.9902 B( 46-C , 47-C ) :   1.4231
B( 46-C , 51-C ) :   0.9988 B( 47-C , 48-S ) :   1.1272 B( 47-C , 49-C ) :   1.2001
B( 49-C , 50-C ) :   1.3828 B( 49-C , 59-S ) :   1.1703 B( 50-C , 51-C ) :   0.9988
B( 50-C , 57-C ) :   1.3194 B( 51-C , 52-C ) :   1.7138 B( 52-C , 53-C ) :   1.1352
B( 52-C , 55-C ) :   1.1355 B( 53-C , 54-N ) :   2.9971 B( 55-C , 56-N ) :   2.9843
B( 57-C , 58-C ) :   1.4048 B( 57-C , 94-H ) :   0.9703 B( 58-C , 59-S ) :   1.0782
B( 58-C , 60-C ) :   1.2069 B( 60-C , 61-C ) :   1.5966 B( 60-C , 95-H ) :   0.9159
B( 61-C , 62-C ) :   1.0778 B( 61-C , 70-C ) :   0.9386 B( 62-C , 63-C ) :   1.6237
B( 62-C , 68-C ) :   0.9862 B( 63-C , 64-C ) :   1.1494 B( 63-C , 66-C ) :   1.1394
B( 64-C , 65-N ) :   2.9635 B( 66-C , 67-N ) :   2.9801 B( 68-C , 69-C ) :   1.2148
B( 68-C , 75-C ) :   1.4498 B( 69-C , 70-C ) :   0.9524 B( 69-C , 72-C ) :   1.4737
B( 70-C , 71-O ) :   2.1789 B( 72-C , 73-C ) :   1.1777 B( 72-C , 96-H ) :   1.0162
B( 73-C , 74-C ) :   1.2557 B( 73-C , 79-C ) :   1.2439 B( 74-C , 75-C ) :   1.2071
B( 74-C , 76-C ) :   1.2406 B( 75-C , 97-H ) :   0.9895 B( 76-C , 77-C ) :   1.4910
B( 76-C , 98-H ) :   0.9970 B( 77-C , 78-C ) :   1.2585 B( 77-C , 99-H ) :   0.9889
B( 78-C , 79-C ) :   1.4890 B( 78-C ,100-H ) :   0.9891 B( 79-C ,101-H ) :   0.9978

-----------------------------------------------------------------------------
         ABSORPTION SPECTRUM VIA TRANSITION ELECTRIC DIPOLE MOMENTS
-----------------------------------------------------------------------------
State   Energy  Wavelength   fosc         T2         TX        TY        TZ
        (cm-1)    (nm)                  (au**2)     (au)      (au)      (au)
-----------------------------------------------------------------------------
   0   14594.7    685.2   0.323915531   7.30654  -0.42797   1.01574  -2.46813
   1   15264.6    655.1   0.153185477   3.30376  -0.47045   1.75426  -0.07086
   2   21101.7    473.9   1.301735571  20.30865  -1.23175   3.19326  -2.93164
   3   21694.9    460.9   0.998200560  15.14733   0.36860  -1.14644  -3.70096
   4   23614.6    423.5   0.001203470   0.01678  -0.00904  -0.11508   0.05876
   5   23941.7    417.7   0.004087781   0.05621  -0.11194   0.13023   0.16346
   6   25031.2    399.5   0.058561455   0.77020  -0.37621   0.46045  -0.64549
   7   25589.1    390.8   0.027574828   0.35476   0.27569   0.52413  -0.06358
   8   26666.1    375.0   0.017843847   0.22029  -0.11015   0.00104  -0.45625
   9   27829.2    359.3   0.026065175   0.30834  -0.17301   0.48478   0.20833
  10   27893.3    358.5   0.147411787   1.73984  -0.27043   0.62906  -1.12738
  11   28351.3    352.7   0.144439886   1.67722   0.45177  -1.02177   0.65507
  12   28731.2    348.1   0.029060141   0.33298   0.25272  -0.42873   0.29207
  13   29048.6    344.3   0.452688494   5.13038  -0.65352   1.87791  -1.08477
  14   29406.9    340.1   0.026096988   0.29216   0.39719   0.15182   0.33369
  15   29913.1    334.3   0.334337582   3.67959  -0.47854   1.52350  -1.06279
  16   29985.6    333.5   0.138200772   1.51731  -0.13483   0.61650  -1.05786
  17   30095.5    332.3   0.098093605   1.07304   0.42365  -0.85413   0.40500
  18   30321.0    329.8   0.346312664   3.76011   0.52405   1.76903   0.59666
  19   30654.3    326.2   0.040434522   0.43425   0.50922   0.39837   0.12745
  20   30867.7    324.0   0.039006139   0.41601  -0.17135  -0.58696  -0.20525
  21   30992.8    322.7   0.141558309   1.50366  -0.14589   0.10878  -1.21266
  22   31655.1    315.9   0.412919852   4.29435   0.47514  -1.50233  -1.34596
  23   32066.8    311.8   0.403247388   4.13992  -0.11591   2.01426  -0.26316
  24   32259.3    310.0   0.102490031   1.04593   0.06761   0.29087   0.97814
  25   32399.4    308.6   0.003124065   0.03174  -0.04666   0.17193  -0.00281
  26   32565.5    307.1   0.343231272   3.46980  -0.82953   0.94222  -1.37619
  27   32742.2    305.4   0.015032836   0.15115  -0.03553   0.36321  -0.13402
  28   32849.3    304.4   0.084957674   0.85144  -0.19838  -0.81049  -0.39394
  29   33010.2    302.9   0.060451626   0.60289  -0.17234   0.16230   0.73949
  30   33333.4    300.0   0.031256621   0.30870   0.13989  -0.36376   0.39600
  31   33633.9    297.3   0.237350326   2.32321   0.04175   1.39181   0.61993
  32   33847.5    295.4   0.034406699   0.33465  -0.04273  -0.48997  -0.30455
  33   33909.4    294.9   0.347007992   3.36895   0.39241   1.57478   0.85734
  34   34008.8    294.0   0.316765088   3.06635   1.04621  -1.40233   0.07246
  35   34342.8    291.2   0.037826025   0.36260   0.22094  -0.55553   0.07194
  36   34520.5    289.7   0.207040351   1.97448   0.05983   0.16410  -1.39426
  37   34723.7    288.0   0.126531362   1.19963  -0.90300   0.60050  -0.15370
  38   34853.5    286.9   0.090046065   0.85054   0.42952  -0.72827   0.36833
  39   35048.8    285.3   0.073629761   0.69160  -0.68291   0.44730  -0.15861
  40   35095.5    284.9   0.405066643   3.79971   0.24248   1.77417  -0.77022
  41   35964.3    278.1   0.077910671   0.71318  -0.07980   0.71354  -0.44460
  42   36495.2    274.0   0.015073445   0.13597   0.19662  -0.28291   0.13143
  43   36827.9    271.5   0.003530150   0.03156   0.02377  -0.16921  -0.04859
  44   36943.9    270.7   0.061712493   0.54993  -0.19932  -0.65389  -0.28745
  45   37204.0    268.8   0.276871512   2.44999   0.62065  -1.34212  -0.51332
  46   37710.1    265.2   0.021987160   0.19195  -0.06888   0.10201  -0.42047
  47   37825.8    264.4   0.002022388   0.01760  -0.04932   0.03247  -0.11881
  48   38447.2    260.1   0.021082368   0.18052  -0.01737  -0.42409   0.01925
  49   38548.1    259.4   0.006101905   0.05211  -0.07759   0.13911  -0.16352
  50   38763.8    258.0   0.000156939   0.00133   0.00618  -0.02403   0.02678
  51   38824.9    257.6   0.002514569   0.02132   0.09753  -0.10064  -0.04103
  52   39199.8    255.1   0.001987462   0.01669   0.10119   0.06562   0.04633
  53   39366.0    254.0   0.051787322   0.43309  -0.34707   0.34622   0.43905
  54   39447.9    253.5   0.118067477   0.98533  -0.44855   0.32715   0.82287
  55   39530.8    253.0   0.074283143   0.61863  -0.22892   0.47512   0.58351
  56   39573.8    252.7   0.056497828   0.47000   0.05194  -0.52563  -0.43705
  57   39775.2    251.4   0.005620327   0.04652  -0.04393  -0.10667  -0.18224
  58   39821.0    251.1   0.000740670   0.00612  -0.03150   0.04958  -0.05170
  59   39874.6    250.8   0.131414673   1.08498   0.42668   0.14804  -0.93862
  60   39917.8    250.5   0.110560799   0.91182  -0.27689   0.03228   0.91330
  61   40305.1    248.1   0.004078724   0.03332  -0.14852   0.01153   0.10547

FINAL SINGLE POINT ENERGY     -4738.126099077746

DIPOLE MOMENT
-------------
                                X             Y             Z
Electronic contribution:     10.80770       7.52803      19.92799
Nuclear contribution   :    -13.18016      -7.29086     -17.93437
                        -----------------------------------------
Total Dipole Moment    :     -2.37247       0.23718       1.99362
                        -----------------------------------------
Magnitude (a.u.)       :      3.10795
Magnitude (Debye)      :      7.89979

Rotational constants in cm-1:     0.001226     0.000172     0.000153
Rotational constants in MHz :    36.746885     5.166880     4.601697

                             ****ORCA TERMINATED NORMALLY****
TOTAL RUN TIME: 0 days 0 hours 21 minutes 34 seconds 866 msec
