                         Program Version 4.2.0 -  RELEASE  -
|  1> # ORCA input file
|  2> # SCF done       -211.951712928360          0.000642201122
|  3> ! CAM-B3LYP def2-SVP def2/J RIJCOSX Grid4 TightSCF
|  4> %maxcore 5000
|  5> %tddft
|  6>     Mode sTDDFT
|  7>     Ethresh 5.0
|  8>     maxcore 5000
|  9> end
| 10>
| 11> %pal
| 12>   nprocs 6
| 13>   end
| 14> * xyz 0 1
| 15>    C        1.07154         0.86830         0.19623
| 16>    C       -0.05306         1.20747         0.90371
| 17>    C       -0.37116         0.67787         2.17224
| 18>    N       -0.68317         0.27337         3.19975
| 19>    C       -1.07301         2.04444         0.41335
| 20>    N       -1.94175         2.69929         0.04500
| 21>    C        2.01593        -0.17399         0.58578
| 22>    C        2.73054        -0.59736        -0.57310
| 23>    C        3.65926        -1.59648        -0.51755
| 24>    C        3.92757        -2.21931         0.72231
| 25>    C        3.23223        -1.78498         1.88809
| 26>    C        2.27107        -0.75167         1.79999
| 27>    C        3.51629        -2.40818         3.12008
| 28>    C        4.43904        -3.41559         3.19852
| 29>    C        5.12171        -3.84392         2.05023
| 30>    C        4.87157        -3.25856         0.83867
| 31>    C        2.30693         0.21257        -1.72688
| 32>    O        2.64838         0.11147        -2.88288
| 33>    C        1.39237         1.25072        -1.16326
| 34>    C        1.09875         2.34002        -1.92454
| 35>    C        0.59142         3.59353        -1.51557
| 36>    C        0.60754         4.16941        -0.25361
| 37>    C        0.02997         5.43200        -0.24441
| 38>    C       -0.43275         5.83358        -1.51405
| 39>    S       -0.12817         4.66459        -2.71242
| 40>    C       -1.02916         7.11195        -1.38612
| 41>    C       -0.94417         7.51832        -0.04181
| 42>    C       -0.29322         6.46633         0.72318
| 43>    C       -0.07751         6.42167         2.06878
| 44>    C       -0.47436         7.46262         2.93492
| 45>    N       -0.80693         8.30197         3.64109
| 46>    C        0.54462         5.30927         2.67488
| 47>    N        1.05402         4.39933         3.15172
| 48>    C       -1.50033         8.77444         0.18610
| 49>    C       -2.02091         9.33313        -0.96995
| 50>    S       -1.81456         8.27085        -2.36063
| 51>    C       -2.68771        10.58368        -1.12576
| 52>    C       -3.47718        10.86149        -2.19682
| 53>    C       -4.19683        12.07360        -2.32883
| 54>    C       -4.00467        13.12976        -1.49582
| 55>    C       -2.91129        13.04791        -0.44942
| 56>    C       -2.58440        11.60471        -0.00259
| 57>    N       -1.27781        11.50530         0.60687
| 58>    C       -0.37704        12.31031         0.25826
| 59>    C       -0.62315        13.41391        -0.68968
| 60>    N       -1.78567        13.76207        -1.01600
| 61>    F        0.42324        14.03732        -1.21375
| 62>    F        0.83604        12.19076         0.78001
| 63>    C       -4.68869        14.36935        -1.63562
| 64>    C       -4.42555        15.56441        -0.98547
| 65>    C       -5.29820        16.57805        -1.37225
| 66>    C       -6.24540        16.15784        -2.32431
| 67>    S       -6.04771        14.51580        -2.74586
| 68>    C       -7.08577        17.24813        -2.65466
| 69>    C       -6.65867        18.36921        -1.90238
| 70>    C       -5.52955        17.98147        -1.07119
| 71>    C       -4.84277        18.75519        -0.18293
| 72>    C       -5.15923        20.11236         0.03993
| 73>    N       -5.41392        21.21368         0.22972
| 74>    C       -3.77920        18.23946         0.58764
| 75>    N       -2.92405        17.81338         1.22163
| 76>    C       -7.42180        19.49143        -2.15965
| 77>    C       -8.43880        19.24772        -3.09108
| 78>    S       -8.42934        17.57514        -3.64979
| 79>    C       -9.31961        20.26196        -3.50057
| 80>    C      -10.38818        20.21510        -4.35744
| 81>    C      -11.24164        21.33174        -4.72433
| 82>    C      -11.07687        22.64971        -4.38592
| 83>    C      -11.94732        23.68346        -4.79212
| 84>    N      -12.61302        24.57151        -5.08582
| 85>    C      -10.02357        23.17718        -3.60981
| 86>    N       -9.19678        23.68597        -2.99609
| 87>    C      -12.31439        20.80582        -5.56339
| 88>    C      -12.10778        19.40744        -5.74190
| 89>    C      -10.89728        19.00555        -5.01569
| 90>    O      -10.41801        17.88381        -4.96559
| 91>    C      -12.95517        18.63810        -6.48595
| 92>    C      -14.07427        19.24454        -7.09898
| 93>    C      -14.29013        20.64214        -6.92580
| 94>    C      -13.39350        21.41235        -6.14892
| 95>    C      -15.40958        21.23722        -7.54152
| 96>    C      -16.27557        20.48936        -8.29256
| 97>    C      -16.06251        19.11333        -8.46161
| 98>    C      -14.98496        18.50396        -7.87754
| 99>    H        4.18409        -1.90836        -1.40829
|100>    H        1.76833        -0.43262         2.69954
|101>    H        2.98574        -2.07688         4.00053
|102>    H        4.64772        -3.88863         4.14636
|103>    H        5.84713        -4.63961         2.13035
|104>    H        5.39462        -3.58399        -0.04867
|105>    H        1.35125         2.24312        -2.97635
|106>    H        1.06042         3.69728         0.59907
|107>    H       -1.53576         9.26648         1.13937
|108>    H       -3.59413        10.11759        -2.97150
|109>    H       -4.91433        12.15093        -3.13264
|110>    H       -3.21624        13.61642         0.43906
|111>    H       -3.29867        11.30212         0.77603
|112>    H       -3.61640        15.69347        -0.29201
|113>    H       -7.27619        20.45859        -1.71157
|114>    H       -9.09967        21.21860        -3.04195
|115>    H      -12.77440        17.58005        -6.60490
|116>    H      -13.58873        22.46671        -6.03619
|117>    H      -15.56950        22.29713        -7.40879
|118>    H      -17.12996        20.95479        -8.76056
|119>    H      -16.75606        18.53834        -9.05672
|120>    H      -14.81561        17.44463        -8.00415
|121> *
|122>
|123>                          ****END OF INPUT****

CARTESIAN COORDINATES (ANGSTROEM)
---------------------------------
  C      1.071540    0.868300    0.196230
  C     -0.053060    1.207470    0.903710
  C     -0.371160    0.677870    2.172240
  N     -0.683170    0.273370    3.199750
  C     -1.073010    2.044440    0.413350
  N     -1.941750    2.699290    0.045000
  C      2.015930   -0.173990    0.585780
  C      2.730540   -0.597360   -0.573100
  C      3.659260   -1.596480   -0.517550
  C      3.927570   -2.219310    0.722310
  C      3.232230   -1.784980    1.888090
  C      2.271070   -0.751670    1.799990
  C      3.516290   -2.408180    3.120080
  C      4.439040   -3.415590    3.198520
  C      5.121710   -3.843920    2.050230
  C      4.871570   -3.258560    0.838670
  C      2.306930    0.212570   -1.726880
  O      2.648380    0.111470   -2.882880
  C      1.392370    1.250720   -1.163260
  C      1.098750    2.340020   -1.924540
  C      0.591420    3.593530   -1.515570
  C      0.607540    4.169410   -0.253610
  C      0.029970    5.432000   -0.244410
  C     -0.432750    5.833580   -1.514050
  S     -0.128170    4.664590   -2.712420
  C     -1.029160    7.111950   -1.386120
  C     -0.944170    7.518320   -0.041810
  C     -0.293220    6.466330    0.723180
  C     -0.077510    6.421670    2.068780
  C     -0.474360    7.462620    2.934920
  N     -0.806930    8.301970    3.641090
  C      0.544620    5.309270    2.674880
  N      1.054020    4.399330    3.151720
  C     -1.500330    8.774440    0.186100
  C     -2.020910    9.333130   -0.969950
  S     -1.814560    8.270850   -2.360630
  C     -2.687710   10.583680   -1.125760
  C     -3.477180   10.861490   -2.196820
  C     -4.196830   12.073600   -2.328830
  C     -4.004670   13.129760   -1.495820
  C     -2.911290   13.047910   -0.449420
  C     -2.584400   11.604710   -0.002590
  N     -1.277810   11.505300    0.606870
  C     -0.377040   12.310310    0.258260
  C     -0.623150   13.413910   -0.689680
  N     -1.785670   13.762070   -1.016000
  F      0.423240   14.037320   -1.213750
  F      0.836040   12.190760    0.780010
  C     -4.688690   14.369350   -1.635620
  C     -4.425550   15.564410   -0.985470
  C     -5.298200   16.578050   -1.372250
  C     -6.245400   16.157840   -2.324310
  S     -6.047710   14.515800   -2.745860
  C     -7.085770   17.248130   -2.654660
  C     -6.658670   18.369210   -1.902380
  C     -5.529550   17.981470   -1.071190
  C     -4.842770   18.755190   -0.182930
  C     -5.159230   20.112360    0.039930
  N     -5.413920   21.213680    0.229720
  C     -3.779200   18.239460    0.587640
  N     -2.924050   17.813380    1.221630
  C     -7.421800   19.491430   -2.159650
  C     -8.438800   19.247720   -3.091080
  S     -8.429340   17.575140   -3.649790
  C     -9.319610   20.261960   -3.500570
  C    -10.388180   20.215100   -4.357440
  C    -11.241640   21.331740   -4.724330
  C    -11.076870   22.649710   -4.385920
  C    -11.947320   23.683460   -4.792120
  N    -12.613020   24.571510   -5.085820
  C    -10.023570   23.177180   -3.609810
  N     -9.196780   23.685970   -2.996090
  C    -12.314390   20.805820   -5.563390
  C    -12.107780   19.407440   -5.741900
  C    -10.897280   19.005550   -5.015690
  O    -10.418010   17.883810   -4.965590
  C    -12.955170   18.638100   -6.485950
  C    -14.074270   19.244540   -7.098980
  C    -14.290130   20.642140   -6.925800
  C    -13.393500   21.412350   -6.148920
  C    -15.409580   21.237220   -7.541520
  C    -16.275570   20.489360   -8.292560
  C    -16.062510   19.113330   -8.461610
  C    -14.984960   18.503960   -7.877540
  H      4.184090   -1.908360   -1.408290
  H      1.768330   -0.432620    2.699540
  H      2.985740   -2.076880    4.000530
  H      4.647720   -3.888630    4.146360
  H      5.847130   -4.639610    2.130350
  H      5.394620   -3.583990   -0.048670
  H      1.351250    2.243120   -2.976350
  H      1.060420    3.697280    0.599070
  H     -1.535760    9.266480    1.139370
  H     -3.594130   10.117590   -2.971500
  H     -4.914330   12.150930   -3.132640
  H     -3.216240   13.616420    0.439060
  H     -3.298670   11.302120    0.776030
  H     -3.616400   15.693470   -0.292010
  H     -7.276190   20.458590   -1.711570
  H     -9.099670   21.218600   -3.041950
  H    -12.774400   17.580050   -6.604900
  H    -13.588730   22.466710   -6.036190
  H    -15.569500   22.297130   -7.408790
  H    -17.129960   20.954790   -8.760560
  H    -16.756060   18.538340   -9.056720
  H    -14.815610   17.444630   -8.004150

 Total Charge           Charge          ....    0
 Multiplicity           Mult            ....    1
 Number of Electrons    NEL             ....  586
 Basis Dimension        Dim             .... 1302

ORBITAL ENERGIES
----------------

  NO   OCC          E(Eh)            E(eV)
   0   2.0000     -88.997863     -2421.7550
   1   2.0000     -88.995819     -2421.6993
   2   2.0000     -88.995513     -2421.6910
   3   2.0000     -88.992731     -2421.6153
   4   2.0000     -24.816500      -675.2913
   5   2.0000     -24.815328      -675.2594
   6   2.0000     -19.226701      -523.1851
   7   2.0000     -19.215145      -522.8707
   8   2.0000     -14.444971      -393.0676
   9   2.0000     -14.444734      -393.0612
  10   2.0000     -14.434530      -392.7835
  11   2.0000     -14.434178      -392.7739
  12   2.0000     -14.432484      -392.7279
  13   2.0000     -14.432020      -392.7152
  14   2.0000     -14.418430      -392.3454
  15   2.0000     -14.417606      -392.3230
  16   2.0000     -14.414656      -392.2427
  17   2.0000     -14.413136      -392.2014
  18   2.0000     -10.432489      -283.8825
  19   2.0000     -10.430423      -283.8262
  20   2.0000     -10.374341      -282.3002
  21   2.0000     -10.369092      -282.1573
  22   2.0000     -10.368978      -282.1542
  23   2.0000     -10.366472      -282.0860
  24   2.0000     -10.356924      -281.8262
  25   2.0000     -10.355620      -281.7908
  26   2.0000     -10.349453      -281.6229
  27   2.0000     -10.347586      -281.5721
  28   2.0000     -10.344727      -281.4943
  29   2.0000     -10.343652      -281.4651
  30   2.0000     -10.342900      -281.4446
  31   2.0000     -10.342642      -281.4376
  32   2.0000     -10.342302      -281.4283
  33   2.0000     -10.339227      -281.3447
  34   2.0000     -10.338352      -281.3209
  35   2.0000     -10.337260      -281.2911
  36   2.0000     -10.334844      -281.2254
  37   2.0000     -10.334377      -281.2127
  38   2.0000     -10.334307      -281.2108
  39   2.0000     -10.332164      -281.1525
  40   2.0000     -10.331866      -281.1444
  41   2.0000     -10.331509      -281.1347
  42   2.0000     -10.329704      -281.0855
  43   2.0000     -10.329673      -281.0847
  44   2.0000     -10.329295      -281.0744
  45   2.0000     -10.326011      -280.9850
  46   2.0000     -10.320123      -280.8248
  47   2.0000     -10.319883      -280.8183
  48   2.0000     -10.319460      -280.8068
  49   2.0000     -10.317796      -280.7615
  50   2.0000     -10.316489      -280.7259
  51   2.0000     -10.315812      -280.7075
  52   2.0000     -10.315657      -280.7033
  53   2.0000     -10.313846      -280.6540
  54   2.0000     -10.313555      -280.6461
  55   2.0000     -10.310269      -280.5567
  56   2.0000     -10.309523      -280.5364
  57   2.0000     -10.308537      -280.5096
  58   2.0000     -10.307722      -280.4874
  59   2.0000     -10.305239      -280.4198
  60   2.0000     -10.304371      -280.3962
  61   2.0000     -10.303880      -280.3828
  62   2.0000     -10.302967      -280.3580
  63   2.0000     -10.302887      -280.3558
  64   2.0000     -10.301556      -280.3196
  65   2.0000     -10.301345      -280.3139
  66   2.0000     -10.300754      -280.2978
  67   2.0000     -10.300396      -280.2880
  68   2.0000     -10.300081      -280.2795
  69   2.0000     -10.298876      -280.2467
  70   2.0000     -10.297292      -280.2036
  71   2.0000     -10.297127      -280.1991
  72   2.0000     -10.296876      -280.1922
  73   2.0000     -10.295987      -280.1681
  74   2.0000     -10.292145      -280.0635
  75   2.0000     -10.289391      -279.9886
  76   2.0000     -10.289274      -279.9854
  77   2.0000     -10.288907      -279.9754
  78   2.0000     -10.288375      -279.9609
  79   2.0000     -10.287828      -279.9460
  80   2.0000     -10.286030      -279.8971
  81   2.0000     -10.285543      -279.8838
  82   2.0000     -10.285084      -279.8714
  83   2.0000     -10.284458      -279.8543
  84   2.0000      -8.092599      -220.2108
  85   2.0000      -8.090388      -220.1507
  86   2.0000      -8.090065      -220.1419
  87   2.0000      -8.084966      -220.0031
  88   2.0000      -6.061765      -164.9490
  89   2.0000      -6.059621      -164.8907
  90   2.0000      -6.059343      -164.8831
  91   2.0000      -6.057604      -164.8358
  92   2.0000      -6.055464      -164.7776
  93   2.0000      -6.055156      -164.7692
  94   2.0000      -6.055077      -164.7670
  95   2.0000      -6.054399      -164.7486
  96   2.0000      -6.052759      -164.7040
  97   2.0000      -6.052400      -164.6942
  98   2.0000      -6.049623      -164.6186
  99   2.0000      -6.047518      -164.5613
 100   2.0000      -1.346382       -36.6369
 101   2.0000      -1.331912       -36.2432
 102   2.0000      -1.141915       -31.0731
 103   2.0000      -1.130539       -30.7635
 104   2.0000      -1.098977       -29.9047
 105   2.0000      -1.051567       -28.6146
 106   2.0000      -1.050437       -28.5838
 107   2.0000      -1.031262       -28.0621
 108   2.0000      -1.025557       -27.9068
 109   2.0000      -1.025223       -27.8977
 110   2.0000      -1.019977       -27.7550
 111   2.0000      -1.019554       -27.7435
 112   2.0000      -1.011139       -27.5145
 113   2.0000      -1.010594       -27.4997
 114   2.0000      -1.006382       -27.3851
 115   2.0000      -1.003813       -27.3151
 116   2.0000      -1.001205       -27.2442
 117   2.0000      -0.999059       -27.1858
 118   2.0000      -0.994471       -27.0609
 119   2.0000      -0.992885       -27.0178
 120   2.0000      -0.977468       -26.5983
 121   2.0000      -0.974012       -26.5042
 122   2.0000      -0.970986       -26.4219
 123   2.0000      -0.965067       -26.2608
 124   2.0000      -0.956432       -26.0258
 125   2.0000      -0.931335       -25.3429
 126   2.0000      -0.928435       -25.2640
 127   2.0000      -0.923033       -25.1170
 128   2.0000      -0.917970       -24.9792
 129   2.0000      -0.905418       -24.6377
 130   2.0000      -0.899276       -24.4705
 131   2.0000      -0.889487       -24.2042
 132   2.0000      -0.884205       -24.0605
 133   2.0000      -0.882903       -24.0250
 134   2.0000      -0.881158       -23.9775
 135   2.0000      -0.879187       -23.9239
 136   2.0000      -0.876843       -23.8601
 137   2.0000      -0.867892       -23.6165
 138   2.0000      -0.862429       -23.4679
 139   2.0000      -0.859586       -23.3905
 140   2.0000      -0.858891       -23.3716
 141   2.0000      -0.831200       -22.6181
 142   2.0000      -0.828010       -22.5313
 143   2.0000      -0.824890       -22.4464
 144   2.0000      -0.814764       -22.1708
 145   2.0000      -0.797876       -21.7113
 146   2.0000      -0.790640       -21.5144
 147   2.0000      -0.788379       -21.4529
 148   2.0000      -0.781078       -21.2542
 149   2.0000      -0.775655       -21.1066
 150   2.0000      -0.770380       -20.9631
 151   2.0000      -0.765839       -20.8395
 152   2.0000      -0.761245       -20.7145
 153   2.0000      -0.749111       -20.3843
 154   2.0000      -0.729581       -19.8529
 155   2.0000      -0.718624       -19.5548
 156   2.0000      -0.708800       -19.2874
 157   2.0000      -0.707253       -19.2453
 158   2.0000      -0.705138       -19.1878
 159   2.0000      -0.702895       -19.1267
 160   2.0000      -0.701670       -19.0934
 161   2.0000      -0.699461       -19.0333
 162   2.0000      -0.691772       -18.8241
 163   2.0000      -0.689677       -18.7671
 164   2.0000      -0.685675       -18.6582
 165   2.0000      -0.682711       -18.5775
 166   2.0000      -0.678492       -18.4627
 167   2.0000      -0.675721       -18.3873
 168   2.0000      -0.671286       -18.2666
 169   2.0000      -0.668112       -18.1803
 170   2.0000      -0.654339       -17.8055
 171   2.0000      -0.652232       -17.7481
 172   2.0000      -0.644653       -17.5419
 173   2.0000      -0.640697       -17.4343
 174   2.0000      -0.637031       -17.3345
 175   2.0000      -0.633108       -17.2278
 176   2.0000      -0.630343       -17.1525
 177   2.0000      -0.625630       -17.0243
 178   2.0000      -0.623332       -16.9617
 179   2.0000      -0.621034       -16.8992
 180   2.0000      -0.612671       -16.6716
 181   2.0000      -0.609209       -16.5774
 182   2.0000      -0.607382       -16.5277
 183   2.0000      -0.606248       -16.4968
 184   2.0000      -0.604185       -16.4407
 185   2.0000      -0.601792       -16.3756
 186   2.0000      -0.593138       -16.1401
 187   2.0000      -0.590288       -16.0626
 188   2.0000      -0.578815       -15.7504
 189   2.0000      -0.574025       -15.6200
 190   2.0000      -0.570070       -15.5124
 191   2.0000      -0.562098       -15.2955
 192   2.0000      -0.560373       -15.2485
 193   2.0000      -0.556716       -15.1490
 194   2.0000      -0.553998       -15.0751
 195   2.0000      -0.553146       -15.0519
 196   2.0000      -0.552355       -15.0303
 197   2.0000      -0.551121       -14.9968
 198   2.0000      -0.549268       -14.9463
 199   2.0000      -0.545820       -14.8525
 200   2.0000      -0.543616       -14.7925
 201   2.0000      -0.542361       -14.7584
 202   2.0000      -0.540809       -14.7162
 203   2.0000      -0.537464       -14.6251
 204   2.0000      -0.533954       -14.5296
 205   2.0000      -0.531745       -14.4695
 206   2.0000      -0.527405       -14.3514
 207   2.0000      -0.525257       -14.2930
 208   2.0000      -0.522716       -14.2238
 209   2.0000      -0.519413       -14.1340
 210   2.0000      -0.517249       -14.0751
 211   2.0000      -0.515936       -14.0393
 212   2.0000      -0.512796       -13.9539
 213   2.0000      -0.511677       -13.9234
 214   2.0000      -0.511178       -13.9099
 215   2.0000      -0.510112       -13.8808
 216   2.0000      -0.508579       -13.8391
 217   2.0000      -0.508154       -13.8276
 218   2.0000      -0.507053       -13.7976
 219   2.0000      -0.503444       -13.6994
 220   2.0000      -0.500909       -13.6304
 221   2.0000      -0.499785       -13.5998
 222   2.0000      -0.498649       -13.5689
 223   2.0000      -0.495635       -13.4869
 224   2.0000      -0.492317       -13.3966
 225   2.0000      -0.491283       -13.3685
 226   2.0000      -0.490151       -13.3377
 227   2.0000      -0.485644       -13.2150
 228   2.0000      -0.484995       -13.1974
 229   2.0000      -0.480346       -13.0709
 230   2.0000      -0.479345       -13.0436
 231   2.0000      -0.476771       -12.9736
 232   2.0000      -0.473987       -12.8978
 233   2.0000      -0.468616       -12.7517
 234   2.0000      -0.464802       -12.6479
 235   2.0000      -0.464451       -12.6384
 236   2.0000      -0.463803       -12.6207
 237   2.0000      -0.460636       -12.5345
 238   2.0000      -0.459665       -12.5081
 239   2.0000      -0.454234       -12.3603
 240   2.0000      -0.451939       -12.2979
 241   2.0000      -0.450607       -12.2616
 242   2.0000      -0.450357       -12.2548
 243   2.0000      -0.448582       -12.2065
 244   2.0000      -0.446946       -12.1620
 245   2.0000      -0.444248       -12.0886
 246   2.0000      -0.443762       -12.0754
 247   2.0000      -0.443479       -12.0677
 248   2.0000      -0.443098       -12.0573
 249   2.0000      -0.442720       -12.0470
 250   2.0000      -0.441902       -12.0248
 251   2.0000      -0.441335       -12.0093
 252   2.0000      -0.438796       -11.9402
 253   2.0000      -0.438059       -11.9202
 254   2.0000      -0.437146       -11.8953
 255   2.0000      -0.436548       -11.8791
 256   2.0000      -0.432849       -11.7784
 257   2.0000      -0.432327       -11.7642
 258   2.0000      -0.431214       -11.7339
 259   2.0000      -0.430280       -11.7085
 260   2.0000      -0.428441       -11.6585
 261   2.0000      -0.427653       -11.6370
 262   2.0000      -0.427293       -11.6272
 263   2.0000      -0.426049       -11.5934
 264   2.0000      -0.420900       -11.4533
 265   2.0000      -0.416802       -11.3418
 266   2.0000      -0.416524       -11.3342
 267   2.0000      -0.409766       -11.1503
 268   2.0000      -0.409429       -11.1411
 269   2.0000      -0.407414       -11.0863
 270   2.0000      -0.406491       -11.0612
 271   2.0000      -0.403000       -10.9662
 272   2.0000      -0.391101       -10.6424
 273   2.0000      -0.384682       -10.4677
 274   2.0000      -0.378694       -10.3048
 275   2.0000      -0.375993       -10.2313
 276   2.0000      -0.369757       -10.0616
 277   2.0000      -0.362525        -9.8648
 278   2.0000      -0.359296        -9.7769
 279   2.0000      -0.353888        -9.6298
 280   2.0000      -0.351158        -9.5555
 281   2.0000      -0.343021        -9.3341
 282   2.0000      -0.341558        -9.2943
 283   2.0000      -0.335327        -9.1247
 284   2.0000      -0.328125        -8.9287
 285   2.0000      -0.325731        -8.8636
 286   2.0000      -0.320189        -8.7128
 287   2.0000      -0.316938        -8.6243
 288   2.0000      -0.309406        -8.4194
 289   2.0000      -0.296754        -8.0751
 290   2.0000      -0.294018        -8.0006
 291   2.0000      -0.276686        -7.5290
 292   2.0000      -0.250087        -6.8052
 293   0.0000      -0.119597        -3.2544
 294   0.0000      -0.111241        -3.0270
 295   0.0000      -0.091671        -2.4945
 296   0.0000      -0.090032        -2.4499
 297   0.0000      -0.068105        -1.8532

MULLIKEN ATOMIC CHARGES
-----------------------
   0 C :    0.273538
   1 C :   -0.333485
   2 C :   -0.171281
   3 N :    0.162351
   4 C :   -0.201545
   5 N :    0.163374
   6 C :    0.026430
   7 C :    0.014192
   8 C :   -0.077491
   9 C :    0.092487
  10 C :    0.088503
  11 C :   -0.072594
  12 C :   -0.013901
  13 C :    0.036304
  14 C :    0.033086
  15 C :   -0.013576
  16 C :    0.136136
  17 O :   -0.144576
  18 C :   -0.136495
  19 C :    0.077093
  20 C :   -0.113407
  21 C :    0.000415
  22 C :   -0.005580
  23 C :   -0.074559
  24 S :    0.213636
  25 C :   -0.100030
  26 C :    0.024956
  27 C :    0.311240
  28 C :   -0.288791
  29 C :   -0.187173
  30 N :    0.178433
  31 C :   -0.184873
  32 N :    0.172284
  33 C :   -0.031336
  34 C :   -0.074609
  35 S :    0.179747
  36 C :    0.012649
  37 C :   -0.033912
  38 C :   -0.062876
  39 C :    0.068278
  40 C :    0.058389
  41 C :    0.137990
  42 N :   -0.098401
  43 C :    0.119373
  44 C :    0.123634
  45 N :   -0.082162
  46 F :   -0.135840
  47 F :   -0.134719
  48 C :   -0.060138
  49 C :   -0.045749
  50 C :    0.026831
  51 C :   -0.100536
  52 S :    0.182335
  53 C :   -0.071147
  54 C :    0.045758
  55 C :    0.308467
  56 C :   -0.292555
  57 C :   -0.195165
  58 N :    0.186632
  59 C :   -0.184539
  60 N :    0.168543
  61 C :   -0.058438
  62 C :   -0.053632
  63 S :    0.244130
  64 C :   -0.030710
  65 C :   -0.094517
  66 C :    0.334752
  67 C :   -0.352532
  68 C :   -0.181666
  69 N :    0.145674
  70 C :   -0.194504
  71 N :    0.152529
  72 C :    0.043299
  73 C :   -0.001475
  74 C :    0.170587
  75 O :   -0.195390
  76 C :   -0.081932
  77 C :    0.099116
  78 C :    0.096051
  79 C :   -0.083418
  80 C :   -0.020845
  81 C :    0.036585
  82 C :    0.036310
  83 C :   -0.017598
  84 H :   -0.012715
  85 H :   -0.000753
  86 H :   -0.008787
  87 H :   -0.004574
  88 H :   -0.003882
  89 H :   -0.018188
  90 H :    0.021847
  91 H :    0.025813
  92 H :    0.027977
  93 H :   -0.007506
  94 H :   -0.004300
  95 H :    0.041988
  96 H :    0.045259
  97 H :    0.013879
  98 H :    0.028443
  99 H :    0.016888
 100 H :   -0.014210
 101 H :   -0.007249
 102 H :   -0.006825
 103 H :   -0.004069
 104 H :   -0.004022
 105 H :   -0.017426
Sum of atomic charges:    0.0000000

LOEWDIN ATOMIC CHARGES
----------------------
   0 C :    0.066108
   1 C :   -0.137047
   2 C :   -0.018498
   3 N :   -0.046953
   4 C :   -0.015226
   5 N :   -0.049543
   6 C :   -0.023007
   7 C :   -0.057994
   8 C :    0.032895
   9 C :   -0.009196
  10 C :   -0.005188
  11 C :    0.019502
  12 C :   -0.004941
  13 C :   -0.012517
  14 C :   -0.012909
  15 C :   -0.009404
  16 C :    0.083376
  17 O :   -0.145168
  18 C :   -0.089130
  19 C :    0.041372
  20 C :   -0.180364
  21 C :    0.008352
  22 C :   -0.064150
  23 C :   -0.160783
  24 S :    0.498425
  25 C :   -0.180410
  26 C :   -0.060686
  27 C :    0.081374
  28 C :   -0.094637
  29 C :   -0.017562
  30 N :   -0.024658
  31 C :   -0.012924
  32 N :   -0.031406
  33 C :   -0.018375
  34 C :   -0.159288
  35 S :    0.478646
  36 C :   -0.038285
  37 C :   -0.037093
  38 C :   -0.026636
  39 C :   -0.035137
  40 C :    0.023785
  41 C :    0.027097
  42 N :   -0.064675
  43 C :    0.056886
  44 C :    0.049167
  45 N :   -0.069179
  46 F :   -0.025300
  47 F :   -0.023848
  48 C :   -0.144778
  49 C :   -0.027501
  50 C :   -0.055157
  51 C :   -0.184436
  52 S :    0.480845
  53 C :   -0.166943
  54 C :   -0.077549
  55 C :    0.078232
  56 C :   -0.099143
  57 C :   -0.020536
  58 N :   -0.022471
  59 C :   -0.014838
  60 N :   -0.032779
  61 C :    0.012726
  62 C :   -0.183421
  63 S :    0.548416
  64 C :    0.056765
  65 C :   -0.110265
  66 C :    0.076495
  67 C :   -0.141244
  68 C :   -0.016932
  69 N :   -0.054345
  70 C :   -0.023584
  71 N :   -0.048743
  72 C :   -0.024616
  73 C :   -0.055974
  74 C :    0.086549
  75 O :   -0.178845
  76 C :    0.031961
  77 C :   -0.009182
  78 C :   -0.005853
  79 C :    0.020207
  80 C :   -0.004955
  81 C :   -0.012441
  82 C :   -0.012146
  83 C :   -0.009946
  84 H :    0.039142
  85 H :    0.040480
  86 H :    0.035180
  87 H :    0.033299
  88 H :    0.032902
  89 H :    0.031641
  90 H :    0.045760
  91 H :    0.042992
  92 H :    0.041881
  93 H :    0.025709
  94 H :    0.026346
  95 H :    0.042363
  96 H :    0.050309
  97 H :    0.039665
  98 H :    0.048311
  99 H :    0.053767
 100 H :    0.038444
 101 H :    0.039594
 102 H :    0.035459
 103 H :    0.033589
 104 H :    0.033083
 105 H :    0.031642

  Mayer bond orders larger than 0.100000
B(  0-C ,  1-C ) :   1.6484 B(  0-C ,  6-C ) :   0.9983 B(  0-C , 18-C ) :   1.0342
B(  1-C ,  2-C ) :   1.1301 B(  1-C ,  4-C ) :   1.1719 B(  2-C ,  3-N ) :   2.9933
B(  4-C ,  5-N ) :   2.9948 B(  6-C ,  7-C ) :   1.2139 B(  6-C , 11-C ) :   1.4590
B(  7-C ,  8-C ) :   1.4731 B(  7-C , 16-C ) :   0.9236 B(  8-C ,  9-C ) :   1.1855
B(  8-C , 84-H ) :   1.0158 B(  9-C , 10-C ) :   1.2568 B(  9-C , 15-C ) :   1.2439
B( 10-C , 11-C ) :   1.2051 B( 10-C , 12-C ) :   1.2425 B( 11-C , 85-H ) :   0.9939
B( 12-C , 13-C ) :   1.4890 B( 12-C , 86-H ) :   0.9976 B( 13-C , 14-C ) :   1.2597
B( 13-C , 87-H ) :   0.9891 B( 14-C , 15-C ) :   1.4890 B( 14-C , 88-H ) :   0.9897
B( 15-C , 89-H ) :   0.9977 B( 16-C , 17-O ) :   2.2660 B( 16-C , 18-C ) :   0.9392
B( 18-C , 19-C ) :   1.6748 B( 19-C , 20-C ) :   1.1306 B( 19-C , 90-H ) :   0.9284
B( 20-C , 21-C ) :   1.3995 B( 20-C , 24-S ) :   1.0905 B( 21-C , 22-C ) :   1.3563
B( 21-C , 91-H ) :   0.9805 B( 22-C , 23-C ) :   1.4130 B( 22-C , 27-C ) :   0.9957
B( 23-C , 24-S ) :   1.1505 B( 23-C , 25-C ) :   1.1962 B( 25-C , 26-C ) :   1.4331
B( 25-C , 35-S ) :   1.1225 B( 26-C , 27-C ) :   0.9968 B( 26-C , 33-C ) :   1.2779
B( 27-C , 28-C ) :   1.7177 B( 28-C , 29-C ) :   1.1335 B( 28-C , 31-C ) :   1.1351
B( 29-C , 30-N ) :   2.9897 B( 31-C , 32-N ) :   2.9829 B( 33-C , 34-C ) :   1.4526
B( 33-C , 92-H ) :   0.9832 B( 34-C , 35-S ) :   1.1007 B( 34-C , 36-C ) :   1.1406
B( 36-C , 37-C ) :   1.6733 B( 36-C , 41-C ) :   0.9567 B( 37-C , 38-C ) :   1.1382
B( 37-C , 93-H ) :   0.9732 B( 38-C , 39-C ) :   1.6582 B( 38-C , 94-H ) :   0.9754
B( 39-C , 40-C ) :   0.9939 B( 39-C , 48-C ) :   1.1533 B( 40-C , 41-C ) :   0.9791
B( 40-C , 45-N ) :   1.0322 B( 40-C , 95-H ) :   0.8906 B( 41-C , 42-N ) :   1.0139
B( 41-C , 96-H ) :   0.8721 B( 42-N , 43-C ) :   1.9296 B( 43-C , 44-C ) :   0.9317
B( 43-C , 47-F ) :   1.1753 B( 44-C , 45-N ) :   1.9481 B( 44-C , 46-F ) :   1.1744
B( 48-C , 49-C ) :   1.4594 B( 48-C , 52-S ) :   1.1074 B( 49-C , 50-C ) :   1.2725
B( 49-C , 97-H ) :   0.9827 B( 50-C , 51-C ) :   1.4314 B( 50-C , 55-C ) :   0.9990
B( 51-C , 52-S ) :   1.1172 B( 51-C , 53-C ) :   1.2057 B( 53-C , 54-C ) :   1.3535
B( 53-C , 63-S ) :   1.1246 B( 54-C , 55-C ) :   0.9836 B( 54-C , 61-C ) :   1.3345
B( 55-C , 56-C ) :   1.7164 B( 56-C , 57-C ) :   1.1337 B( 56-C , 59-C ) :   1.1333
B( 57-C , 58-N ) :   2.9961 B( 59-C , 60-N ) :   2.9845 B( 61-C , 62-C ) :   1.3263
B( 61-C , 98-H ) :   1.0085 B( 62-C , 63-S ) :   1.0696 B( 62-C , 64-C ) :   1.2690
B( 64-C , 65-C ) :   1.4880 B( 64-C , 99-H ) :   0.9406 B( 65-C , 66-C ) :   1.0743
B( 65-C , 74-C ) :   0.9831 B( 66-C , 67-C ) :   1.6242 B( 66-C , 72-C ) :   0.9852
B( 67-C , 68-C ) :   1.1493 B( 67-C , 70-C ) :   1.1427 B( 68-C , 69-N ) :   2.9600
B( 70-C , 71-N ) :   2.9625 B( 72-C , 73-C ) :   1.2137 B( 72-C , 79-C ) :   1.4558
B( 73-C , 74-C ) :   0.9652 B( 73-C , 76-C ) :   1.4680 B( 74-C , 75-O ) :   2.1040
B( 76-C , 77-C ) :   1.1769 B( 76-C ,100-H ) :   1.0164 B( 77-C , 78-C ) :   1.2563
B( 77-C , 83-C ) :   1.2450 B( 78-C , 79-C ) :   1.2023 B( 78-C , 80-C ) :   1.2425
B( 79-C ,101-H ) :   0.9893 B( 80-C , 81-C ) :   1.4869 B( 80-C ,102-H ) :   0.9973
B( 81-C , 82-C ) :   1.2618 B( 81-C ,103-H ) :   0.9884 B( 82-C , 83-C ) :   1.4868
B( 82-C ,104-H ) :   0.9890 B( 83-C ,105-H ) :   0.9974

-----------------------------------------------------------------------------
         ABSORPTION SPECTRUM VIA TRANSITION ELECTRIC DIPOLE MOMENTS
-----------------------------------------------------------------------------
State   Energy  Wavelength   fosc         T2         TX        TY        TZ
        (cm-1)    (nm)                  (au**2)     (au)      (au)      (au)
-----------------------------------------------------------------------------
   0   12576.3    795.1   0.857719657  22.45269  -2.40869   3.99109  -0.84975
   1   13741.7    727.7   0.050623196   1.21278   0.86944  -0.42463   0.52588
   2   18935.4    528.1   1.755337591  30.51836   2.68807  -4.65992   1.25610
   3   20753.7    481.8   0.256382735   4.06696  -1.80903   0.37124  -0.81027
   4   21336.8    468.7   0.027110605   0.41830  -0.61601  -0.11390  -0.16082
   5   22930.5    436.1   0.110025541   1.57963   0.71201  -0.73124   0.73346
   6   24707.9    404.7   0.059777472   0.79648  -0.07735  -0.86629  -0.20013
   7   25141.0    397.8   0.015929973   0.20860  -0.30042   0.33466  -0.07969
   8   25740.9    388.5   0.102195743   1.30703  -0.39019   1.05955   0.17924
   9   26031.8    384.1   0.178342561   2.25541   1.08465  -0.98812   0.32026
  10   27353.8    365.6   0.092733148   1.11607   0.51088   0.80870   0.44841
  11   27551.3    363.0   0.027728370   0.33133   0.02836   0.38384   0.42800
  12   28053.4    356.5   0.017401501   0.20421   0.28707  -0.23074  -0.26184
  13   28275.5    353.7   0.003009442   0.03504   0.09607   0.12903  -0.09571
  14   28441.3    351.6   0.071947722   0.83281   0.01168   0.76661   0.49495
  15   28859.2    346.5   0.022202274   0.25327  -0.40615   0.23718  -0.17906
  16   29032.8    344.4   0.028843519   0.32707  -0.54299  -0.02496  -0.17778
  17   29426.7    339.8   0.111330281   1.24551   0.49266  -0.90719   0.42403
  18   29613.4    337.7   0.212640822   2.36393  -0.38289   0.45370  -1.41827
  19   29930.5    334.1   0.203763596   2.24124  -0.46829  -1.00702  -1.00392
  20   30338.2    329.6   0.294581625   3.19663   1.44608  -1.04066   0.15005
  21   30565.1    327.2   0.045520532   0.49029   0.39327   0.55111  -0.17864
  22   30710.5    325.6   0.301454925   3.23155   0.59911   0.52031   1.61304
  23   31343.9    319.0   0.120287309   1.26340   0.83670  -0.23434   0.71303
  24   31840.4    314.1   0.072304878   0.74759  -0.65883   0.25487  -0.49858
  25   32170.7    310.8   0.320460117   3.27936  -0.31447   1.78023  -0.10602
  26   32333.4    309.3   0.175909319   1.79107   0.33066   1.20016   0.49128
  27   32859.9    304.3   0.683855152   6.85132  -2.14229  -0.02007  -1.50384
  28   33157.9    301.6   0.132115042   1.31172  -0.84361  -0.36919  -0.68098
  29   33524.5    298.3   0.030814641   0.30260   0.36604  -0.31257   0.26630
  30   33785.2    296.0   0.000452033   0.00440   0.00521  -0.00471   0.06600
  31   34008.1    294.0   0.014201125   0.13747   0.23710  -0.24080   0.15255
  32   34144.3    292.9   0.271206977   2.61492  -1.25840   0.96433  -0.31848
  33   34448.9    290.3   0.009207701   0.08799  -0.25118  -0.04462  -0.15137
  34   34605.2    289.0   0.161648352   1.53782  -0.81601   0.38387   0.85123
  35   34755.5    287.7   0.345501603   3.27267   0.90606   1.01391   1.19319
  36   34909.7    286.5   0.298614809   2.81605  -1.39862   0.52096  -0.76715
  37   35195.0    284.1   0.314229060   2.93928  -0.25299  -0.94357  -1.40888
  38   35424.5    282.3   0.061334310   0.57000  -0.17861  -0.63145  -0.37332
  39   35643.1    280.6   0.065713275   0.60695   0.46670   0.44726   0.43485
  40   35826.4    279.1   0.024187266   0.22226   0.08025  -0.42587   0.18561
  41   35965.4    278.0   0.017266332   0.15805  -0.34177   0.20259  -0.01415
  42   36129.6    276.8   0.112047574   1.02098  -0.87772   0.32099  -0.38413
  43   36410.8    274.6   0.047883235   0.43294  -0.49353   0.15966  -0.40482
  44   36598.4    273.2   0.018585814   0.16718   0.01733  -0.26103  -0.31424
  45   36660.4    272.8   0.016639808   0.14943   0.20561   0.13520   0.29812
  46   36948.0    270.7   0.040935071   0.36474   0.43082  -0.21706  -0.36334
  47   37290.6    268.2   0.070335511   0.62094  -0.31130   0.66953  -0.27525
  48   37497.0    266.7   0.012478266   0.10956  -0.27044   0.18815   0.03192
  49   37604.4    265.9   0.178361259   1.56149  -0.04396  -1.24292  -0.12122
  50   37842.2    264.3   0.010243894   0.08912  -0.09165   0.00687  -0.28403
  51   38006.7    263.1   0.078370556   0.67884   0.20486  -0.79583  -0.05933
  52   38255.0    261.4   0.005700884   0.04906  -0.03316  -0.11972   0.18338
  53   38679.2    258.5   0.102376472   0.87136  -0.10118   0.90689   0.19666
  54   38936.2    256.8   0.031404945   0.26553   0.45410  -0.17325   0.17121
  55   39040.6    256.1   0.028681380   0.24186  -0.06168   0.47714  -0.10195
  56   39105.1    255.7   0.009513391   0.08009  -0.03281   0.10649   0.26014
  57   39444.7    253.5   0.002708071   0.02260   0.00437  -0.01649   0.14937
  58   39555.9    252.8   0.108326120   0.90157   0.36866  -0.84769   0.21699
  59   39713.4    251.8   0.056673581   0.46981  -0.19883  -0.24076   0.61017
  60   39910.0    250.6   0.013746474   0.11339  -0.32941  -0.06738  -0.01849
  61   40202.1    248.7   0.074905609   0.61340   0.29801  -0.60183  -0.40298

FINAL SINGLE POINT ENERGY     -5013.675738034539

DIPOLE MOMENT
-------------
                                X             Y             Z
Electronic contribution:     21.02520      23.37564       9.09246
Nuclear contribution   :    -21.68749     -26.60969     -12.23847
                        -----------------------------------------
Total Dipole Moment    :     -0.66230      -3.23405      -3.14601
                        -----------------------------------------
Magnitude (a.u.)       :      4.56017
Magnitude (Debye)      :     11.59103

Rotational constants in cm-1:     0.001703     0.000149     0.000140
Rotational constants in MHz :    51.062401     4.461882     4.209629

                             ****ORCA TERMINATED NORMALLY****
TOTAL RUN TIME: 0 days 0 hours 11 minutes 29 seconds 624 msec
