                         Program Version 4.2.0 -  RELEASE  -
|  1> # ORCA input file
|  2> # SCF done       -209.589698173320          0.001265876030
|  3> ! CAM-B3LYP def2-SVP def2/J RIJCOSX Grid4 TightSCF
|  4> %maxcore 5000
|  5> %tddft
|  6>     Mode sTDDFT
|  7>     Ethresh 5.0
|  8>     maxcore 5000
|  9> end
| 10>
| 11> %pal
| 12>   nprocs 6
| 13>   end
| 14> * xyz 0 1
| 15>    C       -0.39731         3.26091         5.96006
| 16>    C       -0.84140         2.91974         4.70881
| 17>    C       -1.53950         1.72714         4.42334
| 18>    N       -2.10571         0.77189         4.13362
| 19>    C       -0.56982         3.65261         3.53757
| 20>    N       -0.34942         4.18802         2.54535
| 21>    C       -0.45036         2.38368         7.12469
| 22>    C        0.53116         2.81480         8.06475
| 23>    C        0.74791         2.14271         9.23313
| 24>    C       -0.02829         0.99804         9.52380
| 25>    C       -1.03045         0.57991         8.60087
| 26>    C       -1.22947         1.29165         7.39582
| 27>    C       -1.80507        -0.55715         8.90728
| 28>    C       -1.59645        -1.25448        10.06583
| 29>    C       -0.60718        -0.84470        10.97234
| 30>    C        0.15938         0.25773        10.70768
| 31>    C        1.18673         4.03183         7.55779
| 32>    O        2.10083         4.65323         8.04883
| 33>    C        0.44777         4.38533         6.30875
| 34>    C        0.61428         5.62432         5.77471
| 35>    C       -0.19946         6.28836         4.82652
| 36>    C       -1.53528         6.07574         4.52215
| 37>    C       -1.97732         6.91116         3.50264
| 38>    C       -0.97377         7.77326         3.02749
| 39>    S        0.49156         7.58475         3.86016
| 40>    C       -1.51275         8.53613         1.95297
| 41>    C       -2.84353         8.14990         1.75473
| 42>    C       -3.18901         7.13379         2.72965
| 43>    C       -4.39962         6.52861         2.91170
| 44>    C       -5.53098         6.87919         2.15055
| 45>    N       -6.46139         7.19887         1.55943
| 46>    C       -4.59693         5.53891         3.89789
| 47>    N       -4.75072         4.72758         4.69306
| 48>    C       -3.45538         8.84829         0.70011
| 49>    C       -2.59624         9.74040         0.12136
| 50>    S       -1.01942         9.74982         0.86420
| 51>    C       -2.88825        10.72430        -0.97662
| 52>    C       -3.13118        12.06796        -0.35449
| 53>    N       -2.16524        12.86504         0.04526
| 54>    S       -2.81095        14.19985         0.70045
| 55>    N       -4.36343        13.78374         0.48137
| 56>    C       -4.41816        12.60413        -0.09730
| 57>    C       -5.69521        11.90574        -0.43435
| 58>    C       -5.40167        10.88312        -1.49281
| 59>    C       -4.11717        10.33349        -1.73131
| 60>    N       -4.12851         9.43291        -2.68954
| 61>    S       -5.63966         9.27039        -3.25413
| 62>    N       -6.32324        10.36921        -2.27722
| 63>    C       -6.24691        11.18955         0.76574
| 64>    C       -5.57900        10.81889         1.90006
| 65>    C       -6.40195        10.08204         2.76803
| 66>    C       -7.69502         9.90933         2.26116
| 67>    S       -7.89792        10.63484         0.73146
| 68>    C       -8.45194         9.15462         3.19881
| 69>    C       -7.62290         8.84543         4.29584
| 70>    C       -6.29622         9.38578         4.03732
| 71>    C       -5.16520         9.21272         4.78149
| 72>    C       -5.11297         8.41528         5.94539
| 73>    N       -5.01804         7.74885         6.87301
| 74>    C       -3.93001         9.77177         4.39744
| 75>    N       -2.91617        10.20773         4.08269
| 76>    C       -8.28635         8.15808         5.30559
| 77>    C       -9.62192         7.94053         4.99549
| 78>    S      -10.02608         8.56132         3.38863
| 79>    C      -10.68051         7.33205         5.70379
| 80>    C      -10.80637         7.06793         7.03805
| 81>    C      -11.96226         6.41693         7.63490
| 82>    C      -12.92749         5.69669         6.98050
| 83>    C      -14.01775         5.07358         7.62407
| 84>    N      -14.93074         4.54920         8.08157
| 85>    C      -12.96792         5.44410         5.59293
| 86>    N      -13.07003         5.18338         4.47887
| 87>    C      -11.88683         6.60721         9.07795
| 88>    C      -10.67022         7.28059         9.38044
| 89>    C       -9.93645         7.56400         8.13608
| 90>    O       -8.87169         8.13839         8.05087
| 91>    C      -10.31585         7.59525        10.66042
| 92>    C      -11.18489         7.24968        11.71902
| 93>    C      -12.41203         6.58816        11.42460
| 94>    C      -12.74832         6.27047        10.08862
| 95>    C      -13.27788         6.26008        12.48770
| 96>    C      -12.94767         6.56660        13.77969
| 97>    C      -11.73713         7.21399        14.06856
| 98>    C      -10.87430         7.54792        13.06015
| 99>    H        1.50348         2.47876         9.92774
|100>    H       -2.00272         0.96146         6.71990
|101>    H       -2.56300        -0.86971         8.20433
|102>    H       -2.19252        -2.12628        10.29016
|103>    H       -0.45585        -1.40681        11.88177
|104>    H        0.92203         0.57774        11.40250
|105>    H        1.45890         6.18432         6.16454
|106>    H       -2.15158         5.36893         5.04805
|107>    H       -4.46758         8.69180         0.37350
|108>    H       -2.02505        10.77518        -1.64845
|109>    H       -6.44049        12.61967        -0.80008
|110>    H       -4.55525        11.07594         2.10249
|111>    H       -7.84204         7.83520         6.22868
|112>    H      -11.53627         7.09978         5.07976
|113>    H       -9.38412         8.10302        10.86095
|114>    H      -13.68676         5.77422         9.89925
|115>    H      -14.20798         5.76006        12.26071
|116>    H      -13.61779         6.31137        14.58690
|117>    H      -11.49207         7.44738        15.09384
|118>    H       -9.94107         8.04725        13.27569
|119> *
|120>
|121>                          ****END OF INPUT****

CARTESIAN COORDINATES (ANGSTROEM)
---------------------------------
  C     -0.397310    3.260910    5.960060
  C     -0.841400    2.919740    4.708810
  C     -1.539500    1.727140    4.423340
  N     -2.105710    0.771890    4.133620
  C     -0.569820    3.652610    3.537570
  N     -0.349420    4.188020    2.545350
  C     -0.450360    2.383680    7.124690
  C      0.531160    2.814800    8.064750
  C      0.747910    2.142710    9.233130
  C     -0.028290    0.998040    9.523800
  C     -1.030450    0.579910    8.600870
  C     -1.229470    1.291650    7.395820
  C     -1.805070   -0.557150    8.907280
  C     -1.596450   -1.254480   10.065830
  C     -0.607180   -0.844700   10.972340
  C      0.159380    0.257730   10.707680
  C      1.186730    4.031830    7.557790
  O      2.100830    4.653230    8.048830
  C      0.447770    4.385330    6.308750
  C      0.614280    5.624320    5.774710
  C     -0.199460    6.288360    4.826520
  C     -1.535280    6.075740    4.522150
  C     -1.977320    6.911160    3.502640
  C     -0.973770    7.773260    3.027490
  S      0.491560    7.584750    3.860160
  C     -1.512750    8.536130    1.952970
  C     -2.843530    8.149900    1.754730
  C     -3.189010    7.133790    2.729650
  C     -4.399620    6.528610    2.911700
  C     -5.530980    6.879190    2.150550
  N     -6.461390    7.198870    1.559430
  C     -4.596930    5.538910    3.897890
  N     -4.750720    4.727580    4.693060
  C     -3.455380    8.848290    0.700110
  C     -2.596240    9.740400    0.121360
  S     -1.019420    9.749820    0.864200
  C     -2.888250   10.724300   -0.976620
  C     -3.131180   12.067960   -0.354490
  N     -2.165240   12.865040    0.045260
  S     -2.810950   14.199850    0.700450
  N     -4.363430   13.783740    0.481370
  C     -4.418160   12.604130   -0.097300
  C     -5.695210   11.905740   -0.434350
  C     -5.401670   10.883120   -1.492810
  C     -4.117170   10.333490   -1.731310
  N     -4.128510    9.432910   -2.689540
  S     -5.639660    9.270390   -3.254130
  N     -6.323240   10.369210   -2.277220
  C     -6.246910   11.189550    0.765740
  C     -5.579000   10.818890    1.900060
  C     -6.401950   10.082040    2.768030
  C     -7.695020    9.909330    2.261160
  S     -7.897920   10.634840    0.731460
  C     -8.451940    9.154620    3.198810
  C     -7.622900    8.845430    4.295840
  C     -6.296220    9.385780    4.037320
  C     -5.165200    9.212720    4.781490
  C     -5.112970    8.415280    5.945390
  N     -5.018040    7.748850    6.873010
  C     -3.930010    9.771770    4.397440
  N     -2.916170   10.207730    4.082690
  C     -8.286350    8.158080    5.305590
  C     -9.621920    7.940530    4.995490
  S    -10.026080    8.561320    3.388630
  C    -10.680510    7.332050    5.703790
  C    -10.806370    7.067930    7.038050
  C    -11.962260    6.416930    7.634900
  C    -12.927490    5.696690    6.980500
  C    -14.017750    5.073580    7.624070
  N    -14.930740    4.549200    8.081570
  C    -12.967920    5.444100    5.592930
  N    -13.070030    5.183380    4.478870
  C    -11.886830    6.607210    9.077950
  C    -10.670220    7.280590    9.380440
  C     -9.936450    7.564000    8.136080
  O     -8.871690    8.138390    8.050870
  C    -10.315850    7.595250   10.660420
  C    -11.184890    7.249680   11.719020
  C    -12.412030    6.588160   11.424600
  C    -12.748320    6.270470   10.088620
  C    -13.277880    6.260080   12.487700
  C    -12.947670    6.566600   13.779690
  C    -11.737130    7.213990   14.068560
  C    -10.874300    7.547920   13.060150
  H      1.503480    2.478760    9.927740
  H     -2.002720    0.961460    6.719900
  H     -2.563000   -0.869710    8.204330
  H     -2.192520   -2.126280   10.290160
  H     -0.455850   -1.406810   11.881770
  H      0.922030    0.577740   11.402500
  H      1.458900    6.184320    6.164540
  H     -2.151580    5.368930    5.048050
  H     -4.467580    8.691800    0.373500
  H     -2.025050   10.775180   -1.648450
  H     -6.440490   12.619670   -0.800080
  H     -4.555250   11.075940    2.102490
  H     -7.842040    7.835200    6.228680
  H    -11.536270    7.099780    5.079760
  H     -9.384120    8.103020   10.860950
  H    -13.686760    5.774220    9.899250
  H    -14.207980    5.760060   12.260710
  H    -13.617790    6.311370   14.586900
  H    -11.492070    7.447380   15.093840
  H     -9.941070    8.047250   13.275690

 Total Charge           Charge          ....    0
 Multiplicity           Mult            ....    1
 Number of Electrons    NEL             ....  600
 Basis Dimension        Dim             .... 1300

ORBITAL ENERGIES
----------------

  NO   OCC          E(Eh)            E(eV)
   0   2.0000     -89.025735     -2422.5134
   1   2.0000     -89.024945     -2422.4919
   2   2.0000     -88.993653     -2421.6404
   3   2.0000     -88.993174     -2421.6274
   4   2.0000     -88.991949     -2421.5940
   5   2.0000     -88.990459     -2421.5535
   6   2.0000     -19.214955      -522.8655
   7   2.0000     -19.211064      -522.7596
   8   2.0000     -14.453836      -393.3089
   9   2.0000     -14.453099      -393.2888
  10   2.0000     -14.452809      -393.2809
  11   2.0000     -14.452647      -393.2765
  12   2.0000     -14.438859      -392.9013
  13   2.0000     -14.437590      -392.8668
  14   2.0000     -14.430597      -392.6765
  15   2.0000     -14.429890      -392.6573
  16   2.0000     -14.414138      -392.2286
  17   2.0000     -14.413248      -392.2044
  18   2.0000     -14.411020      -392.1438
  19   2.0000     -14.409965      -392.1151
  20   2.0000     -10.367995      -282.1275
  21   2.0000     -10.366573      -282.0888
  22   2.0000     -10.365646      -282.0636
  23   2.0000     -10.362317      -281.9730
  24   2.0000     -10.356211      -281.8068
  25   2.0000     -10.354218      -281.7526
  26   2.0000     -10.344994      -281.5016
  27   2.0000     -10.344639      -281.4919
  28   2.0000     -10.344505      -281.4883
  29   2.0000     -10.343962      -281.4735
  30   2.0000     -10.342763      -281.4409
  31   2.0000     -10.339669      -281.3567
  32   2.0000     -10.339384      -281.3489
  33   2.0000     -10.338904      -281.3359
  34   2.0000     -10.338495      -281.3247
  35   2.0000     -10.338321      -281.3200
  36   2.0000     -10.337808      -281.3061
  37   2.0000     -10.337646      -281.3016
  38   2.0000     -10.333811      -281.1973
  39   2.0000     -10.333311      -281.1837
  40   2.0000     -10.333156      -281.1795
  41   2.0000     -10.331996      -281.1479
  42   2.0000     -10.331660      -281.1388
  43   2.0000     -10.329901      -281.0909
  44   2.0000     -10.329829      -281.0889
  45   2.0000     -10.329649      -281.0840
  46   2.0000     -10.325482      -280.9706
  47   2.0000     -10.325033      -280.9584
  48   2.0000     -10.323123      -280.9065
  49   2.0000     -10.321461      -280.8612
  50   2.0000     -10.316194      -280.7179
  51   2.0000     -10.316026      -280.7133
  52   2.0000     -10.314173      -280.6629
  53   2.0000     -10.312616      -280.6205
  54   2.0000     -10.308208      -280.5006
  55   2.0000     -10.307898      -280.4922
  56   2.0000     -10.305839      -280.4361
  57   2.0000     -10.305251      -280.4201
  58   2.0000     -10.304724      -280.4058
  59   2.0000     -10.303692      -280.3777
  60   2.0000     -10.302707      -280.3509
  61   2.0000     -10.302447      -280.3438
  62   2.0000     -10.299831      -280.2727
  63   2.0000     -10.299217      -280.2559
  64   2.0000     -10.298910      -280.2476
  65   2.0000     -10.296652      -280.1861
  66   2.0000     -10.295122      -280.1445
  67   2.0000     -10.294873      -280.1377
  68   2.0000     -10.293992      -280.1138
  69   2.0000     -10.293740      -280.1069
  70   2.0000     -10.293524      -280.1010
  71   2.0000     -10.293500      -280.1004
  72   2.0000     -10.293201      -280.0922
  73   2.0000     -10.292218      -280.0655
  74   2.0000     -10.285605      -279.8855
  75   2.0000     -10.285457      -279.8815
  76   2.0000     -10.284499      -279.8554
  77   2.0000     -10.283811      -279.8367
  78   2.0000     -10.283563      -279.8300
  79   2.0000     -10.283082      -279.8169
  80   2.0000     -10.282751      -279.8079
  81   2.0000     -10.282238      -279.7939
  82   2.0000     -10.281895      -279.7846
  83   2.0000     -10.281163      -279.7647
  84   2.0000      -8.118377      -220.9123
  85   2.0000      -8.117645      -220.8924
  86   2.0000      -8.088501      -220.0993
  87   2.0000      -8.087983      -220.0852
  88   2.0000      -8.086795      -220.0529
  89   2.0000      -8.085273      -220.0115
  90   2.0000      -6.089947      -165.7159
  91   2.0000      -6.089235      -165.6965
  92   2.0000      -6.082332      -165.5087
  93   2.0000      -6.081557      -165.4876
  94   2.0000      -6.079673      -165.4363
  95   2.0000      -6.078932      -165.4161
  96   2.0000      -6.057545      -164.8342
  97   2.0000      -6.057122      -164.8227
  98   2.0000      -6.055901      -164.7895
  99   2.0000      -6.054420      -164.7492
 100   2.0000      -6.053415      -164.7218
 101   2.0000      -6.052947      -164.7091
 102   2.0000      -6.051743      -164.6763
 103   2.0000      -6.051141      -164.6599
 104   2.0000      -6.050476      -164.6418
 105   2.0000      -6.050222      -164.6349
 106   2.0000      -6.049346      -164.6111
 107   2.0000      -6.047775      -164.5683
 108   2.0000      -1.140195       -31.0263
 109   2.0000      -1.135138       -30.8887
 110   2.0000      -1.130396       -30.7597
 111   2.0000      -1.126358       -30.6498
 112   2.0000      -1.050717       -28.5915
 113   2.0000      -1.046745       -28.4834
 114   2.0000      -1.027995       -27.9732
 115   2.0000      -1.026201       -27.9243
 116   2.0000      -1.016114       -27.6499
 117   2.0000      -1.015704       -27.6387
 118   2.0000      -1.011793       -27.5323
 119   2.0000      -1.010810       -27.5055
 120   2.0000      -1.008770       -27.4500
 121   2.0000      -1.005662       -27.3655
 122   2.0000      -0.996003       -27.1026
 123   2.0000      -0.995210       -27.0810
 124   2.0000      -0.993869       -27.0446
 125   2.0000      -0.990544       -26.9541
 126   2.0000      -0.989178       -26.9169
 127   2.0000      -0.988335       -26.8939
 128   2.0000      -0.976106       -26.5612
 129   2.0000      -0.969230       -26.3741
 130   2.0000      -0.967465       -26.3260
 131   2.0000      -0.961431       -26.1619
 132   2.0000      -0.955770       -26.0078
 133   2.0000      -0.926273       -25.2052
 134   2.0000      -0.924452       -25.1556
 135   2.0000      -0.917714       -24.9723
 136   2.0000      -0.914667       -24.8893
 137   2.0000      -0.898877       -24.4597
 138   2.0000      -0.895163       -24.3586
 139   2.0000      -0.883878       -24.0515
 140   2.0000      -0.879792       -23.9404
 141   2.0000      -0.878760       -23.9123
 142   2.0000      -0.877449       -23.8766
 143   2.0000      -0.875395       -23.8207
 144   2.0000      -0.873817       -23.7778
 145   2.0000      -0.863570       -23.4989
 146   2.0000      -0.859506       -23.3883
 147   2.0000      -0.856556       -23.3081
 148   2.0000      -0.853225       -23.2174
 149   2.0000      -0.825836       -22.4721
 150   2.0000      -0.824475       -22.4351
 151   2.0000      -0.824322       -22.4309
 152   2.0000      -0.810775       -22.0623
 153   2.0000      -0.805553       -21.9202
 154   2.0000      -0.781614       -21.2688
 155   2.0000      -0.779004       -21.1978
 156   2.0000      -0.770494       -20.9662
 157   2.0000      -0.769156       -20.9298
 158   2.0000      -0.759331       -20.6625
 159   2.0000      -0.756280       -20.5794
 160   2.0000      -0.740150       -20.1405
 161   2.0000      -0.725634       -19.7455
 162   2.0000      -0.722153       -19.6508
 163   2.0000      -0.707746       -19.2588
 164   2.0000      -0.704774       -19.1779
 165   2.0000      -0.703909       -19.1543
 166   2.0000      -0.702136       -19.1061
 167   2.0000      -0.700611       -19.0646
 168   2.0000      -0.697065       -18.9681
 169   2.0000      -0.695721       -18.9315
 170   2.0000      -0.685528       -18.6542
 171   2.0000      -0.683642       -18.6028
 172   2.0000      -0.682452       -18.5705
 173   2.0000      -0.681149       -18.5350
 174   2.0000      -0.673694       -18.3321
 175   2.0000      -0.669168       -18.2090
 176   2.0000      -0.665976       -18.1221
 177   2.0000      -0.652837       -17.7646
 178   2.0000      -0.646398       -17.5894
 179   2.0000      -0.636030       -17.3073
 180   2.0000      -0.634215       -17.2579
 181   2.0000      -0.632577       -17.2133
 182   2.0000      -0.629775       -17.1371
 183   2.0000      -0.628397       -17.0996
 184   2.0000      -0.621143       -16.9022
 185   2.0000      -0.619933       -16.8692
 186   2.0000      -0.618058       -16.8182
 187   2.0000      -0.605144       -16.4668
 188   2.0000      -0.604203       -16.4412
 189   2.0000      -0.602576       -16.3969
 190   2.0000      -0.601756       -16.3746
 191   2.0000      -0.597388       -16.2558
 192   2.0000      -0.592813       -16.1313
 193   2.0000      -0.581220       -15.8158
 194   2.0000      -0.569327       -15.4922
 195   2.0000      -0.567373       -15.4390
 196   2.0000      -0.566564       -15.4170
 197   2.0000      -0.563922       -15.3451
 198   2.0000      -0.555601       -15.1187
 199   2.0000      -0.553482       -15.0610
 200   2.0000      -0.548695       -14.9308
 201   2.0000      -0.545256       -14.8372
 202   2.0000      -0.544456       -14.8154
 203   2.0000      -0.544078       -14.8051
 204   2.0000      -0.542092       -14.7511
 205   2.0000      -0.540778       -14.7153
 206   2.0000      -0.536978       -14.6119
 207   2.0000      -0.535846       -14.5811
 208   2.0000      -0.533563       -14.5190
 209   2.0000      -0.532288       -14.4843
 210   2.0000      -0.527198       -14.3458
 211   2.0000      -0.521185       -14.1822
 212   2.0000      -0.520583       -14.1658
 213   2.0000      -0.518372       -14.1056
 214   2.0000      -0.516721       -14.0607
 215   2.0000      -0.514528       -14.0010
 216   2.0000      -0.512872       -13.9560
 217   2.0000      -0.510759       -13.8985
 218   2.0000      -0.507943       -13.8218
 219   2.0000      -0.505846       -13.7648
 220   2.0000      -0.503787       -13.7087
 221   2.0000      -0.503138       -13.6911
 222   2.0000      -0.502413       -13.6714
 223   2.0000      -0.499652       -13.5962
 224   2.0000      -0.498798       -13.5730
 225   2.0000      -0.495999       -13.4968
 226   2.0000      -0.494618       -13.4592
 227   2.0000      -0.492306       -13.3963
 228   2.0000      -0.489778       -13.3275
 229   2.0000      -0.486858       -13.2481
 230   2.0000      -0.485335       -13.2066
 231   2.0000      -0.484321       -13.1791
 232   2.0000      -0.480849       -13.0846
 233   2.0000      -0.478192       -13.0123
 234   2.0000      -0.474157       -12.9025
 235   2.0000      -0.472752       -12.8642
 236   2.0000      -0.472025       -12.8445
 237   2.0000      -0.468804       -12.7568
 238   2.0000      -0.467382       -12.7181
 239   2.0000      -0.464715       -12.6455
 240   2.0000      -0.462556       -12.5868
 241   2.0000      -0.461080       -12.5466
 242   2.0000      -0.458976       -12.4894
 243   2.0000      -0.458203       -12.4683
 244   2.0000      -0.452515       -12.3136
 245   2.0000      -0.452270       -12.3069
 246   2.0000      -0.448828       -12.2132
 247   2.0000      -0.447858       -12.1868
 248   2.0000      -0.446121       -12.1396
 249   2.0000      -0.445868       -12.1327
 250   2.0000      -0.445033       -12.1100
 251   2.0000      -0.443457       -12.0671
 252   2.0000      -0.442498       -12.0410
 253   2.0000      -0.442034       -12.0284
 254   2.0000      -0.441318       -12.0089
 255   2.0000      -0.440426       -11.9846
 256   2.0000      -0.437509       -11.9052
 257   2.0000      -0.435571       -11.8525
 258   2.0000      -0.431773       -11.7491
 259   2.0000      -0.431014       -11.7285
 260   2.0000      -0.430354       -11.7105
 261   2.0000      -0.429683       -11.6923
 262   2.0000      -0.428487       -11.6597
 263   2.0000      -0.427910       -11.6440
 264   2.0000      -0.425185       -11.5699
 265   2.0000      -0.423790       -11.5319
 266   2.0000      -0.422475       -11.4961
 267   2.0000      -0.421106       -11.4589
 268   2.0000      -0.418060       -11.3760
 269   2.0000      -0.416523       -11.3342
 270   2.0000      -0.413950       -11.2641
 271   2.0000      -0.408305       -11.1106
 272   2.0000      -0.405666       -11.0387
 273   2.0000      -0.405021       -11.0212
 274   2.0000      -0.402609       -10.9556
 275   2.0000      -0.401275       -10.9192
 276   2.0000      -0.398744       -10.8504
 277   2.0000      -0.394462       -10.7339
 278   2.0000      -0.381943       -10.3932
 279   2.0000      -0.381369       -10.3776
 280   2.0000      -0.379176       -10.3179
 281   2.0000      -0.376900       -10.2560
 282   2.0000      -0.370606       -10.0847
 283   2.0000      -0.366193        -9.9646
 284   2.0000      -0.354699        -9.6519
 285   2.0000      -0.353722        -9.6253
 286   2.0000      -0.352475        -9.5913
 287   2.0000      -0.345775        -9.4090
 288   2.0000      -0.339986        -9.2515
 289   2.0000      -0.336635        -9.1603
 290   2.0000      -0.332421        -9.0456
 291   2.0000      -0.329621        -8.9694
 292   2.0000      -0.328388        -8.9359
 293   2.0000      -0.314742        -8.5646
 294   2.0000      -0.313556        -8.5323
 295   2.0000      -0.311458        -8.4752
 296   2.0000      -0.292744        -7.9660
 297   2.0000      -0.291371        -7.9286
 298   2.0000      -0.270779        -7.3683
 299   2.0000      -0.267487        -7.2787
 300   0.0000      -0.110455        -3.0056
 301   0.0000      -0.107753        -2.9321
 302   0.0000      -0.087558        -2.3826
 303   0.0000      -0.087017        -2.3678
 304   0.0000      -0.055303        -1.5049

MULLIKEN ATOMIC CHARGES
-----------------------
   0 C :    0.277597
   1 C :   -0.336359
   2 C :   -0.174962
   3 N :    0.157772
   4 C :   -0.195836
   5 N :    0.164142
   6 C :    0.024870
   7 C :    0.022517
   8 C :   -0.084372
   9 C :    0.096467
  10 C :    0.092477
  11 C :   -0.073798
  12 C :   -0.016626
  13 C :    0.035574
  14 C :    0.036981
  15 C :   -0.016425
  16 C :    0.133200
  17 O :   -0.145667
  18 C :   -0.132162
  19 C :    0.079292
  20 C :   -0.120600
  21 C :   -0.000433
  22 C :   -0.009988
  23 C :   -0.063693
  24 S :    0.220148
  25 C :   -0.073581
  26 C :   -0.005505
  27 C :    0.308613
  28 C :   -0.316010
  29 C :   -0.176465
  30 N :    0.165594
  31 C :   -0.196082
  32 N :    0.191720
  33 C :   -0.005999
  34 C :   -0.187586
  35 S :    0.229687
  36 C :    0.331628
  37 C :   -0.078387
  38 N :   -0.272202
  39 S :    0.477720
  40 N :   -0.253413
  41 C :   -0.154004
  42 C :    0.333127
  43 C :   -0.079521
  44 C :   -0.151387
  45 N :   -0.251253
  46 S :    0.481541
  47 N :   -0.273031
  48 C :   -0.187466
  49 C :   -0.004082
  50 C :   -0.011796
  51 C :   -0.071782
  52 S :    0.231869
  53 C :   -0.072656
  54 C :   -0.023652
  55 C :    0.320061
  56 C :   -0.334204
  57 C :   -0.197214
  58 N :    0.204845
  59 C :   -0.178082
  60 N :    0.169397
  61 C :    0.022245
  62 C :   -0.117001
  63 S :    0.211159
  64 C :    0.030151
  65 C :   -0.092388
  66 C :    0.311308
  67 C :   -0.350336
  68 C :   -0.182899
  69 N :    0.147146
  70 C :   -0.202499
  71 N :    0.158184
  72 C :    0.046901
  73 C :   -0.006634
  74 C :    0.157232
  75 O :   -0.153431
  76 C :   -0.078978
  77 C :    0.098423
  78 C :    0.094587
  79 C :   -0.080867
  80 C :   -0.017102
  81 C :    0.034959
  82 C :    0.036228
  83 C :   -0.015449
  84 H :   -0.012469
  85 H :    0.000133
  86 H :   -0.009096
  87 H :   -0.005250
  88 H :   -0.006586
  89 H :   -0.017980
  90 H :    0.023013
  91 H :    0.028598
  92 H :    0.016069
  93 H :    0.030160
  94 H :    0.029357
  95 H :    0.018918
  96 H :    0.036976
  97 H :    0.017178
  98 H :   -0.012374
  99 H :   -0.008707
 100 H :   -0.010545
 101 H :   -0.005242
 102 H :   -0.005949
 103 H :   -0.017702
Sum of atomic charges:   -0.0000000

LOEWDIN ATOMIC CHARGES
----------------------
   0 C :    0.068413
   1 C :   -0.137734
   2 C :   -0.018588
   3 N :   -0.049106
   4 C :   -0.015589
   5 N :   -0.050513
   6 C :   -0.022430
   7 C :   -0.056857
   8 C :    0.032220
   9 C :   -0.008826
  10 C :   -0.004840
  11 C :    0.019657
  12 C :   -0.004890
  13 C :   -0.013026
  14 C :   -0.013224
  15 C :   -0.009883
  16 C :    0.083625
  17 O :   -0.144827
  18 C :   -0.089487
  19 C :    0.044855
  20 C :   -0.183084
  21 C :    0.009369
  22 C :   -0.068799
  23 C :   -0.152236
  24 S :    0.510040
  25 C :   -0.170302
  26 C :   -0.068525
  27 C :    0.085791
  28 C :   -0.111099
  29 C :   -0.008705
  30 N :   -0.041620
  31 C :   -0.020277
  32 N :   -0.024527
  33 C :   -0.037877
  34 C :   -0.160663
  35 S :    0.507408
  36 C :   -0.032231
  37 C :   -0.056034
  38 N :   -0.270949
  39 S :    0.606222
  40 N :   -0.259792
  41 C :   -0.054359
  42 C :   -0.032062
  43 C :   -0.057306
  44 C :   -0.053970
  45 N :   -0.258008
  46 S :    0.609207
  47 N :   -0.271819
  48 C :   -0.157436
  49 C :   -0.039151
  50 C :   -0.063804
  51 C :   -0.176854
  52 S :    0.507443
  53 C :   -0.151418
  54 C :   -0.077797
  55 C :    0.081280
  56 C :   -0.109075
  57 C :   -0.026293
  58 N :   -0.016127
  59 C :   -0.009482
  60 N :   -0.041049
  61 C :    0.023343
  62 C :   -0.177726
  63 S :    0.505863
  64 C :    0.043789
  65 C :   -0.094537
  66 C :    0.076857
  67 C :   -0.142679
  68 C :   -0.017101
  69 N :   -0.055519
  70 C :   -0.025387
  71 N :   -0.052749
  72 C :   -0.026019
  73 C :   -0.054730
  74 C :    0.086081
  75 O :   -0.140227
  76 C :    0.032672
  77 C :   -0.008304
  78 C :   -0.006469
  79 C :    0.019331
  80 C :   -0.005366
  81 C :   -0.014215
  82 C :   -0.012808
  83 C :   -0.009495
  84 H :    0.039076
  85 H :    0.040501
  86 H :    0.035089
  87 H :    0.032978
  88 H :    0.032236
  89 H :    0.031500
  90 H :    0.046142
  91 H :    0.044287
  92 H :    0.036628
  93 H :    0.059275
  94 H :    0.059029
  95 H :    0.037153
  96 H :    0.045273
  97 H :    0.043504
  98 H :    0.039312
  99 H :    0.038810
 100 H :    0.034393
 101 H :    0.032980
 102 H :    0.032389
 103 H :    0.031863

  Mayer bond orders larger than 0.100000
B(  0-C ,  1-C ) :   1.6500 B(  0-C ,  6-C ) :   0.9989 B(  0-C , 18-C ) :   1.0311
B(  1-C ,  2-C ) :   1.1301 B(  1-C ,  4-C ) :   1.1693 B(  2-C ,  3-N ) :   2.9928
B(  4-C ,  5-N ) :   2.9968 B(  6-C ,  7-C ) :   1.2167 B(  6-C , 11-C ) :   1.4583
B(  7-C ,  8-C ) :   1.4714 B(  7-C , 16-C ) :   0.9222 B(  8-C ,  9-C ) :   1.1851
B(  8-C , 84-H ) :   1.0161 B(  9-C , 10-C ) :   1.2575 B(  9-C , 15-C ) :   1.2429
B( 10-C , 11-C ) :   1.2049 B( 10-C , 12-C ) :   1.2418 B( 11-C , 85-H ) :   0.9932
B( 12-C , 13-C ) :   1.4889 B( 12-C , 86-H ) :   0.9979 B( 13-C , 14-C ) :   1.2608
B( 13-C , 87-H ) :   0.9891 B( 14-C , 15-C ) :   1.4883 B( 14-C , 88-H ) :   0.9889
B( 15-C , 89-H ) :   0.9981 B( 16-C , 17-O ) :   2.2666 B( 16-C , 18-C ) :   0.9403
B( 18-C , 19-C ) :   1.6827 B( 19-C , 20-C ) :   1.1163 B( 19-C , 90-H ) :   0.9301
B( 20-C , 21-C ) :   1.4076 B( 20-C , 24-S ) :   1.0949 B( 21-C , 22-C ) :   1.3470
B( 21-C , 91-H ) :   0.9845 B( 22-C , 23-C ) :   1.4324 B( 22-C , 27-C ) :   0.9922
B( 23-C , 24-S ) :   1.1624 B( 23-C , 25-C ) :   1.1764 B( 25-C , 26-C ) :   1.4765
B( 25-C , 35-S ) :   1.1246 B( 26-C , 27-C ) :   1.0065 B( 26-C , 33-C ) :   1.2460
B( 27-C , 28-C ) :   1.7093 B( 28-C , 29-C ) :   1.1487 B( 28-C , 31-C ) :   1.1337
B( 29-C , 30-N ) :   2.9485 B( 31-C , 32-N ) :   2.9852 B( 33-C , 34-C ) :   1.5555
B( 33-C , 92-H ) :   0.9749 B( 34-C , 35-S ) :   1.1422 B( 34-C , 36-C ) :   1.0303
B( 36-C , 37-C ) :   0.9724 B( 36-C , 44-C ) :   0.9865 B( 36-C , 93-H ) :   0.8368
B( 37-C , 38-N ) :   1.6722 B( 37-C , 41-C ) :   1.2372 B( 38-N , 39-S ) :   1.2150
B( 38-N , 40-N ) :   0.1232 B( 39-S , 40-N ) :   1.2202 B( 40-N , 41-C ) :   1.6860
B( 41-C , 42-C ) :   0.9857 B( 42-C , 43-C ) :   0.9737 B( 42-C , 48-C ) :   1.0314
B( 42-C , 94-H ) :   0.8360 B( 43-C , 44-C ) :   1.2364 B( 43-C , 47-N ) :   1.6717
B( 44-C , 45-N ) :   1.6871 B( 45-N , 46-S ) :   1.2214 B( 45-N , 47-N ) :   0.1231
B( 46-S , 47-N ) :   1.2152 B( 48-C , 49-C ) :   1.5496 B( 48-C , 52-S ) :   1.1473
B( 49-C , 50-C ) :   1.2476 B( 49-C , 95-H ) :   0.9752 B( 50-C , 51-C ) :   1.4745
B( 50-C , 55-C ) :   1.0079 B( 51-C , 52-S ) :   1.1195 B( 51-C , 53-C ) :   1.1808
B( 53-C , 54-C ) :   1.3993 B( 53-C , 63-S ) :   1.1777 B( 54-C , 55-C ) :   0.9883
B( 54-C , 61-C ) :   1.3227 B( 55-C , 56-C ) :   1.7076 B( 56-C , 57-C ) :   1.1362
B( 56-C , 59-C ) :   1.1540 B( 57-C , 58-N ) :   2.9905 B( 59-C , 60-N ) :   2.9475
B( 61-C , 62-C ) :   1.4124 B( 61-C , 96-H ) :   0.9747 B( 62-C , 63-S ) :   1.0793
B( 62-C , 64-C ) :   1.1983 B( 64-C , 65-C ) :   1.6025 B( 64-C , 97-H ) :   0.9196
B( 65-C , 66-C ) :   1.0723 B( 65-C , 74-C ) :   0.9399 B( 66-C , 67-C ) :   1.6308
B( 66-C , 72-C ) :   0.9864 B( 67-C , 68-C ) :   1.1474 B( 67-C , 70-C ) :   1.1389
B( 68-C , 69-N ) :   2.9664 B( 70-C , 71-N ) :   2.9856 B( 72-C , 73-C ) :   1.2150
B( 72-C , 79-C ) :   1.4519 B( 73-C , 74-C ) :   0.9507 B( 73-C , 76-C ) :   1.4715
B( 74-C , 75-O ) :   2.1878 B( 76-C , 77-C ) :   1.1783 B( 76-C , 98-H ) :   1.0160
B( 77-C , 78-C ) :   1.2569 B( 77-C , 83-C ) :   1.2428 B( 78-C , 79-C ) :   1.2046
B( 78-C , 80-C ) :   1.2428 B( 79-C , 99-H ) :   0.9890 B( 80-C , 81-C ) :   1.4874
B( 80-C ,100-H ) :   0.9966 B( 81-C , 82-C ) :   1.2605 B( 81-C ,101-H ) :   0.9887
B( 82-C , 83-C ) :   1.4889 B( 82-C ,102-H ) :   0.9887 B( 83-C ,103-H ) :   0.9974

-----------------------------------------------------------------------------
         ABSORPTION SPECTRUM VIA TRANSITION ELECTRIC DIPOLE MOMENTS
-----------------------------------------------------------------------------
State   Energy  Wavelength   fosc         T2         TX        TY        TZ
        (cm-1)    (nm)                  (au**2)     (au)      (au)      (au)
-----------------------------------------------------------------------------
   0   14865.1    672.7   0.065010675   1.43977  -0.62710   0.80365  -0.63297
   1   15545.7    643.3   0.114478168   2.42431   0.92589   0.66679  -1.05945
   2   18959.7    527.4   0.018187218   0.31580   0.45728  -0.32664  -0.00063
   3   20452.5    488.9   0.031740195   0.51090   0.61100  -0.36957  -0.03149
   4   21074.0    474.5   0.418953854   6.54477  -1.27778   2.01330  -0.92664
   5   22724.0    440.1   1.129945215  16.37001   2.46070   1.99940  -2.51344
   6   25683.5    389.4   0.025177158   0.32272   0.01986   0.17257  -0.54088
   7   26057.5    383.8   0.065271337   0.82464  -0.34764  -0.06743   0.83621
   8   27007.3    370.3   0.104128897   1.26930   0.72421  -0.55734   0.65893
   9   27542.3    363.1   0.112003280   1.33877   0.85603   0.65605  -0.41903
  10   27657.0    361.6   0.003636788   0.04329   0.04849  -0.14240  -0.14373
  11   27814.9    359.5   0.066429306   0.78625  -0.86593  -0.14828   0.12010
  12   28159.4    355.1   0.001818243   0.02126   0.04732   0.08941  -0.10499
  13   28546.7    350.3   0.005478433   0.06318   0.12161  -0.03670  -0.21689
  14   28841.6    346.7   0.046687831   0.53292   0.20123   0.15811  -0.68368
  15   28876.0    346.3   0.001505543   0.01716  -0.01527  -0.11320  -0.06416
  16   28984.9    345.0   0.032120039   0.36482   0.51174   0.31106  -0.07862
  17   29470.1    339.3   0.020547976   0.22954  -0.21927   0.16350  -0.39336
  18   29740.9    336.2   0.000325127   0.00360   0.01589  -0.00724   0.05739
  19   30330.4    329.7   0.039384126   0.42748   0.63200  -0.14773  -0.07892
  20   30492.0    328.0   0.191128220   2.06355  -0.17170   0.43338   1.35877
  21   30805.7    324.6   0.477787903   5.10599   0.92662  -1.10505   1.73961
  22   30965.2    322.9   0.342459330   3.64092   0.31149   0.62498  -1.77575
  23   31215.8    320.4   0.030760101   0.32441   0.06926   0.28412  -0.48876
  24   31676.3    315.7   0.065587805   0.68165   0.59698  -0.11225   0.55916
  25   32232.3    310.2   0.119609396   1.22166  -1.08862   0.17540  -0.07612
  26   32341.1    309.2   0.103968727   1.05834  -0.52899  -0.68242  -0.55930
  27   32452.9    308.1   0.504366311   5.11644  -0.23596  -1.23626   1.87948
  28   32615.8    306.6   0.066420690   0.67043   0.14216   0.49190  -0.63894
  29   33016.2    302.9   0.194565445   1.94006  -0.27128   0.10459  -1.36218
  30   33161.3    301.6   0.066080277   0.65602  -0.14834   0.29233  -0.74065
  31   33412.5    299.3   0.116700331   1.14984  -0.03550  -0.16670   1.05867
  32   33763.1    296.2   0.302015333   2.94484  -0.71912  -0.88310   1.28368
  33   33846.1    295.5   0.227132104   2.20925   1.07546   0.83219  -0.60009
  34   34066.0    293.5   0.082002863   0.79247   0.03818   0.51445  -0.72550
  35   34241.5    292.0   0.058213555   0.55969   0.50265  -0.05820   0.55104
  36   34423.7    290.5   0.669016013   6.39816   1.77882   0.08848   1.79614
  37   34530.6    289.6   0.122317202   1.16616   0.90646   0.18075   0.55841
  38   34779.4    287.5   0.297348280   2.81462  -0.07135   0.58781   1.56972
  39   34906.5    286.5   0.253681607   2.39253  -0.39022   0.68417  -1.33123
  40   34992.4    285.8   0.066617439   0.62674  -0.10832   0.16525  -0.76662
  41   35516.5    281.6   0.001141591   0.01058  -0.10098  -0.00803   0.01790
  42   35968.5    278.0   0.002360158   0.02160  -0.03796  -0.09975   0.10105
  43   36046.0    277.4   0.019964141   0.18233  -0.07651   0.10051  -0.40789
  44   36127.8    276.8   0.131290397   1.19637   0.31649   0.61598  -0.84663
  45   36290.6    275.6   0.002874276   0.02607  -0.08141  -0.13478   0.03580
  46   36411.1    274.6   0.000057503   0.00052  -0.00008  -0.01195   0.01942
  47   36852.1    271.4   0.000457670   0.00409   0.01042   0.06112  -0.01561
  48   36948.6    270.6   0.002367322   0.02109   0.07521   0.03020  -0.12052
  49   37183.3    268.9   0.005894159   0.05219  -0.14069   0.06065   0.16945
  50   37719.7    265.1   0.084363800   0.73632   0.09781  -0.67914   0.51528
  51   37909.7    263.8   0.020432394   0.17744  -0.37414  -0.14785   0.12488
  52   38015.5    263.1   0.011841272   0.10254  -0.05677  -0.28321  -0.13826
  53   38060.2    262.7   0.006497095   0.05620  -0.21246  -0.10347   0.01884
  54   38120.2    262.3   0.038829840   0.33534  -0.40275   0.15983  -0.38418
  55   38186.5    261.9   0.036459846   0.31433   0.43129  -0.10101   0.34367
  56   38359.6    260.7   0.016475370   0.14140  -0.16494  -0.12101   0.31551
  57   38398.4    260.4   0.021322747   0.18281  -0.11787  -0.07529   0.40404
  58   38496.2    259.8   0.126919473   1.08539  -0.84739  -0.59986   0.08652
  59   38582.2    259.2   0.008800249   0.07509  -0.25888  -0.08422  -0.03130
  60   38877.2    257.2   0.072219791   0.61156   0.04972   0.60569  -0.49216
  61   39077.2    255.9   0.059344324   0.49996   0.40282  -0.18652   0.55036
  62   39209.3    255.0   0.130235145   1.09349   0.89030   0.51385   0.19185
  63   39469.9    253.4   0.097281061   0.81141  -0.67535  -0.55485  -0.21781
  64   39764.0    251.5   0.058714684   0.48611   0.24355   0.63949   0.13356
  65   39873.6    250.8   0.036560515   0.30186   0.42836   0.25641  -0.22939
  66   40189.8    248.8   0.131237615   1.07502  -0.59065  -0.84279  -0.12596

FINAL SINGLE POINT ENERGY     -5642.410564158308

DIPOLE MOMENT
-------------
                                X             Y             Z
Electronic contribution:     10.40836      34.75417     -60.20428
Nuclear contribution   :     -9.48386     -32.00228      61.28016
                        -----------------------------------------
Total Dipole Moment    :      0.92449       2.75189       1.07588
                        -----------------------------------------
Magnitude (a.u.)       :      3.09598
Magnitude (Debye)      :      7.86936

Rotational constants in cm-1:     0.000597     0.000508     0.000315
Rotational constants in MHz :    17.901179    15.227791     9.456342

                             ****ORCA TERMINATED NORMALLY****
TOTAL RUN TIME: 0 days 0 hours 13 minutes 29 seconds 974 msec
