                         Program Version 4.2.0 -  RELEASE  -
|  1> # ORCA input file
|  2> # SCF done       -188.627257471932          0.000660783130
|  3> ! CAM-B3LYP def2-SVP def2/J RIJCOSX Grid4 TightSCF
|  4> %maxcore 5000
|  5> %tddft
|  6>     Mode sTDDFT
|  7>     Ethresh 5.0
|  8>     maxcore 5000
|  9> end
| 10>
| 11> %pal
| 12>   nprocs 6
| 13>   end
| 14> * xyz 0 1
| 15>    C        1.80732        -0.49453        -8.31004
| 16>    C        0.96992        -0.82860        -7.28559
| 17>    C        0.80091        -2.14476        -6.80981
| 18>    N        0.64168        -3.20107        -6.39012
| 19>    C        0.11068         0.10666        -6.67186
| 20>    N       -0.65869         0.83274        -6.22754
| 21>    C        2.49648        -1.41775        -9.20137
| 22>    C        2.84562        -0.72144       -10.39691
| 23>    C        3.47219        -1.35101       -11.43478
| 24>    C        3.79468        -2.72127       -11.31708
| 25>    C        3.46161        -3.41809       -10.11910
| 26>    C        2.80389        -2.74496        -9.06448
| 27>    C        3.79791        -4.78315       -10.01235
| 28>    C        4.43079        -5.43089       -11.03781
| 29>    C        4.75711        -4.74453       -12.21730
| 30>    C        4.44519        -3.41939       -12.35414
| 31>    C        2.45193         0.69346       -10.27756
| 32>    O        2.53979         1.56935       -11.10453
| 33>    C        1.98507         0.84174        -8.86215
| 34>    C        1.98608         2.04253        -8.26361
| 35>    C        1.96824         2.31372        -6.80841
| 36>    O        2.38431         1.21471        -5.98887
| 37>    C        3.43526         1.97676        -5.39887
| 38>    C        3.13878         3.19629        -6.29256
| 39>    C        2.79605         4.47842        -5.61923
| 40>    C        1.85725         4.58809        -4.67597
| 41>    C        1.50554         5.79900        -3.95554
| 42>    C        1.86170         7.04775        -4.39527
| 43>    C        1.53897         8.19759        -3.63621
| 44>    C        1.79408         9.54621        -3.83631
| 45>    C        2.48651        10.25595        -4.95824
| 46>    C        4.02052        10.12304        -4.86808
| 47>    N        4.45728         8.74553        -5.01569
| 48>    C        1.97598         9.83524        -6.34385
| 49>    N        0.54138        10.06948        -6.42502
| 50>    C        1.25050        10.24351        -2.69130
| 51>    C        1.24878        11.54839        -2.36525
| 52>    C        0.61780        12.04532        -1.10988
| 53>    C        0.02969        10.97792        -0.24486
| 54>    C        0.04056         9.67527        -0.58238
| 55>    C        0.64089         9.25391        -1.79309
| 56>    C        0.81835         8.01784        -2.37754
| 57>    C        0.43642         6.71874        -1.96708
| 58>    C        0.76461         5.65198        -2.73622
| 59>    C       -0.44562        13.05004        -1.49563
| 60>    C       -0.29679        14.36139        -1.40277
| 61>    C       -1.34370        15.33176        -1.83118
| 62>    O       -0.95782        16.70339        -1.70652
| 63>    C       -1.21672        16.96507        -3.08310
| 64>    C       -1.53113        15.48896        -3.37368
| 65>    C       -2.88368        15.14009        -3.83874
| 66>    C       -3.15461        14.16590        -4.71845
| 67>    C       -4.47839        13.77523        -5.09878
| 68>    C       -5.56085        13.71473        -4.27783
| 69>    C       -6.91399        13.37189        -4.68864
| 70>    C       -7.42319        13.49746        -5.95341
| 71>    C       -8.75533        13.19072        -6.30040
| 72>    N       -9.82638        12.95454        -6.63931
| 73>    C       -6.70080        13.99204        -7.06015
| 74>    N       -6.18202        14.40834        -7.99579
| 75>    C       -7.65611        12.97364        -3.50153
| 76>    C       -6.81703        13.15410        -2.36527
| 77>    C       -5.50929        13.68423        -2.78840
| 78>    O       -4.58561        13.97404        -2.05762
| 79>    C       -7.24397        12.86627        -1.10066
| 80>    C       -8.55543        12.37672        -0.91136
| 81>    C       -9.39972        12.18856        -2.04389
| 82>    C       -8.92923        12.49336        -3.34165
| 83>    C      -10.70578        11.69757        -1.84217
| 84>    C      -11.15845        11.40802        -0.58376
| 85>    C      -10.32653        11.59418         0.53043
| 86>    C       -9.05293        12.06850         0.37011
| 87>    H        3.72210        -0.80871       -12.33471
| 88>    H        2.56788        -3.29114        -8.16431
| 89>    H        3.54209        -5.30782        -9.10357
| 90>    H        4.68364        -6.47660       -10.94624
| 91>    H        5.25701        -5.27129       -13.01634
| 92>    H        4.69378        -2.88572       -13.25985
| 93>    H        2.12781         2.91376        -8.89315
| 94>    H        0.98291         2.69054        -6.49832
| 95>    H        4.40935         1.50363        -5.54770
| 96>    H        3.26221         2.14355        -4.33253
| 97>    H        3.90285         3.34967        -7.05518
| 98>    H        3.37545         5.33792        -5.92260
| 99>    H        1.31304         3.70124        -4.37215
|100>    H        2.40057         7.15977        -5.32124
|101>    H        2.25867        11.32196        -4.85664
|102>    H        4.34516        10.57675        -3.91498
|103>    H        4.46510        10.70001        -5.68440
|104>    H        4.15692         8.20297        -4.21208
|105>    H        5.46995         8.70512        -5.05365
|106>    H        2.26818         8.79714        -6.54625
|107>    H        2.45555        10.46687        -7.09797
|108>    H        0.06724         9.51022        -5.72184
|109>    H        0.19281         9.78219        -7.33340
|110>    H        1.68761        12.30334        -3.00384
|111>    H        1.38628        12.58613        -0.53809
|112>    H       -0.42586        11.31719         0.67298
|113>    H       -0.39981         8.93370         0.06888
|114>    H       -0.11203         6.59384        -1.04472
|115>    H        0.48091         4.65405        -2.43367
|116>    H       -1.36114        12.62714        -1.88532
|117>    H        0.61388        14.80992        -1.03017
|118>    H       -2.29457        15.13619        -1.32130
|119>    H       -0.34084        17.37302        -3.59380
|120>    H       -2.06659        17.64265        -3.21094
|121>    H       -0.75677        14.97514        -3.94398
|122>    H       -3.68914        15.71434        -3.40439
|123>    H       -2.34370        13.66020        -5.22823
|124>    H       -4.59322        13.44675        -6.12548
|125>    H       -6.58918        13.01304        -0.25442
|126>    H       -9.58762        12.33249        -4.18069
|127>    H      -11.34315        11.55717        -2.70278
|128>    H      -12.16089        11.03377        -0.43976
|129>    H      -10.69974        11.35968         1.51610
|130>    H       -8.40754        12.21395         1.22408
|131> *
|132>
|133>                          ****END OF INPUT****

CARTESIAN COORDINATES (ANGSTROEM)
---------------------------------
  C      1.807320   -0.494530   -8.310040
  C      0.969920   -0.828600   -7.285590
  C      0.800910   -2.144760   -6.809810
  N      0.641680   -3.201070   -6.390120
  C      0.110680    0.106660   -6.671860
  N     -0.658690    0.832740   -6.227540
  C      2.496480   -1.417750   -9.201370
  C      2.845620   -0.721440  -10.396910
  C      3.472190   -1.351010  -11.434780
  C      3.794680   -2.721270  -11.317080
  C      3.461610   -3.418090  -10.119100
  C      2.803890   -2.744960   -9.064480
  C      3.797910   -4.783150  -10.012350
  C      4.430790   -5.430890  -11.037810
  C      4.757110   -4.744530  -12.217300
  C      4.445190   -3.419390  -12.354140
  C      2.451930    0.693460  -10.277560
  O      2.539790    1.569350  -11.104530
  C      1.985070    0.841740   -8.862150
  C      1.986080    2.042530   -8.263610
  C      1.968240    2.313720   -6.808410
  O      2.384310    1.214710   -5.988870
  C      3.435260    1.976760   -5.398870
  C      3.138780    3.196290   -6.292560
  C      2.796050    4.478420   -5.619230
  C      1.857250    4.588090   -4.675970
  C      1.505540    5.799000   -3.955540
  C      1.861700    7.047750   -4.395270
  C      1.538970    8.197590   -3.636210
  C      1.794080    9.546210   -3.836310
  C      2.486510   10.255950   -4.958240
  C      4.020520   10.123040   -4.868080
  N      4.457280    8.745530   -5.015690
  C      1.975980    9.835240   -6.343850
  N      0.541380   10.069480   -6.425020
  C      1.250500   10.243510   -2.691300
  C      1.248780   11.548390   -2.365250
  C      0.617800   12.045320   -1.109880
  C      0.029690   10.977920   -0.244860
  C      0.040560    9.675270   -0.582380
  C      0.640890    9.253910   -1.793090
  C      0.818350    8.017840   -2.377540
  C      0.436420    6.718740   -1.967080
  C      0.764610    5.651980   -2.736220
  C     -0.445620   13.050040   -1.495630
  C     -0.296790   14.361390   -1.402770
  C     -1.343700   15.331760   -1.831180
  O     -0.957820   16.703390   -1.706520
  C     -1.216720   16.965070   -3.083100
  C     -1.531130   15.488960   -3.373680
  C     -2.883680   15.140090   -3.838740
  C     -3.154610   14.165900   -4.718450
  C     -4.478390   13.775230   -5.098780
  C     -5.560850   13.714730   -4.277830
  C     -6.913990   13.371890   -4.688640
  C     -7.423190   13.497460   -5.953410
  C     -8.755330   13.190720   -6.300400
  N     -9.826380   12.954540   -6.639310
  C     -6.700800   13.992040   -7.060150
  N     -6.182020   14.408340   -7.995790
  C     -7.656110   12.973640   -3.501530
  C     -6.817030   13.154100   -2.365270
  C     -5.509290   13.684230   -2.788400
  O     -4.585610   13.974040   -2.057620
  C     -7.243970   12.866270   -1.100660
  C     -8.555430   12.376720   -0.911360
  C     -9.399720   12.188560   -2.043890
  C     -8.929230   12.493360   -3.341650
  C    -10.705780   11.697570   -1.842170
  C    -11.158450   11.408020   -0.583760
  C    -10.326530   11.594180    0.530430
  C     -9.052930   12.068500    0.370110
  H      3.722100   -0.808710  -12.334710
  H      2.567880   -3.291140   -8.164310
  H      3.542090   -5.307820   -9.103570
  H      4.683640   -6.476600  -10.946240
  H      5.257010   -5.271290  -13.016340
  H      4.693780   -2.885720  -13.259850
  H      2.127810    2.913760   -8.893150
  H      0.982910    2.690540   -6.498320
  H      4.409350    1.503630   -5.547700
  H      3.262210    2.143550   -4.332530
  H      3.902850    3.349670   -7.055180
  H      3.375450    5.337920   -5.922600
  H      1.313040    3.701240   -4.372150
  H      2.400570    7.159770   -5.321240
  H      2.258670   11.321960   -4.856640
  H      4.345160   10.576750   -3.914980
  H      4.465100   10.700010   -5.684400
  H      4.156920    8.202970   -4.212080
  H      5.469950    8.705120   -5.053650
  H      2.268180    8.797140   -6.546250
  H      2.455550   10.466870   -7.097970
  H      0.067240    9.510220   -5.721840
  H      0.192810    9.782190   -7.333400
  H      1.687610   12.303340   -3.003840
  H      1.386280   12.586130   -0.538090
  H     -0.425860   11.317190    0.672980
  H     -0.399810    8.933700    0.068880
  H     -0.112030    6.593840   -1.044720
  H      0.480910    4.654050   -2.433670
  H     -1.361140   12.627140   -1.885320
  H      0.613880   14.809920   -1.030170
  H     -2.294570   15.136190   -1.321300
  H     -0.340840   17.373020   -3.593800
  H     -2.066590   17.642650   -3.210940
  H     -0.756770   14.975140   -3.943980
  H     -3.689140   15.714340   -3.404390
  H     -2.343700   13.660200   -5.228230
  H     -4.593220   13.446750   -6.125480
  H     -6.589180   13.013040   -0.254420
  H     -9.587620   12.332490   -4.180690
  H    -11.343150   11.557170   -2.702780
  H    -12.160890   11.033770   -0.439760
  H    -10.699740   11.359680    1.516100
  H     -8.407540   12.213950    1.224080

 Total Charge           Charge          ....    0
 Multiplicity           Mult            ....    1
 Number of Electrons    NEL             ....  490
 Basis Dimension        Dim             .... 1228

ORBITAL ENERGIES
----------------

  NO   OCC          E(Eh)            E(eV)
   0   2.0000     -19.218801      -522.9702
   1   2.0000     -19.217156      -522.9254
   2   2.0000     -19.213887      -522.8364
   3   2.0000     -19.204878      -522.5913
   4   2.0000     -14.413653      -392.2154
   5   2.0000     -14.412590      -392.1865
   6   2.0000     -14.411536      -392.1578
   7   2.0000     -14.405271      -391.9874
   8   2.0000     -14.377268      -391.2253
   9   2.0000     -14.363794      -390.8587
  10   2.0000     -10.370707      -282.2013
  11   2.0000     -10.364821      -282.0411
  12   2.0000     -10.340928      -281.3910
  13   2.0000     -10.338671      -281.3295
  14   2.0000     -10.337715      -281.3035
  15   2.0000     -10.332951      -281.1739
  16   2.0000     -10.332536      -281.1626
  17   2.0000     -10.321780      -280.8699
  18   2.0000     -10.319554      -280.8093
  19   2.0000     -10.317589      -280.7559
  20   2.0000     -10.316397      -280.7234
  21   2.0000     -10.316227      -280.7188
  22   2.0000     -10.315353      -280.6950
  23   2.0000     -10.313355      -280.6406
  24   2.0000     -10.308646      -280.5125
  25   2.0000     -10.308537      -280.5096
  26   2.0000     -10.302673      -280.3500
  27   2.0000     -10.300331      -280.2862
  28   2.0000     -10.298206      -280.2284
  29   2.0000     -10.297950      -280.2215
  30   2.0000     -10.297801      -280.2174
  31   2.0000     -10.297400      -280.2065
  32   2.0000     -10.296993      -280.1954
  33   2.0000     -10.296368      -280.1784
  34   2.0000     -10.296197      -280.1738
  35   2.0000     -10.295783      -280.1625
  36   2.0000     -10.295578      -280.1569
  37   2.0000     -10.295533      -280.1557
  38   2.0000     -10.295216      -280.1471
  39   2.0000     -10.293237      -280.0932
  40   2.0000     -10.289588      -279.9939
  41   2.0000     -10.289362      -279.9878
  42   2.0000     -10.287500      -279.9371
  43   2.0000     -10.287224      -279.9296
  44   2.0000     -10.287085      -279.9258
  45   2.0000     -10.286554      -279.9114
  46   2.0000     -10.286104      -279.8991
  47   2.0000     -10.285564      -279.8844
  48   2.0000     -10.284719      -279.8614
  49   2.0000     -10.284280      -279.8495
  50   2.0000     -10.283997      -279.8418
  51   2.0000     -10.283654      -279.8325
  52   2.0000     -10.283312      -279.8231
  53   2.0000     -10.281575      -279.7759
  54   2.0000     -10.279664      -279.7239
  55   2.0000     -10.276357      -279.6339
  56   2.0000     -10.270881      -279.4849
  57   2.0000     -10.270107      -279.4638
  58   2.0000     -10.269326      -279.4426
  59   2.0000     -10.268981      -279.4332
  60   2.0000     -10.268926      -279.4317
  61   2.0000     -10.267808      -279.4013
  62   2.0000     -10.267689      -279.3980
  63   2.0000     -10.266696      -279.3710
  64   2.0000     -10.264135      -279.3013
  65   2.0000     -10.261981      -279.2427
  66   2.0000     -10.261040      -279.2171
  67   2.0000     -10.258910      -279.1591
  68   2.0000     -10.258865      -279.1579
  69   2.0000     -10.257859      -279.1305
  70   2.0000     -10.257429      -279.1188
  71   2.0000     -10.254137      -279.0293
  72   2.0000      -1.142979       -31.1020
  73   2.0000      -1.133602       -30.8469
  74   2.0000      -1.132324       -30.8121
  75   2.0000      -1.128957       -30.7205
  76   2.0000      -1.016600       -27.6631
  77   2.0000      -1.011834       -27.5334
  78   2.0000      -0.997619       -27.1466
  79   2.0000      -0.993895       -27.0453
  80   2.0000      -0.991678       -26.9849
  81   2.0000      -0.986837       -26.8532
  82   2.0000      -0.979420       -26.6514
  83   2.0000      -0.971526       -26.4366
  84   2.0000      -0.967729       -26.3332
  85   2.0000      -0.959694       -26.1146
  86   2.0000      -0.941719       -25.6255
  87   2.0000      -0.940038       -25.5797
  88   2.0000      -0.930313       -25.3151
  89   2.0000      -0.920904       -25.0591
  90   2.0000      -0.917320       -24.9615
  91   2.0000      -0.914105       -24.8741
  92   2.0000      -0.899897       -24.4874
  93   2.0000      -0.892896       -24.2969
  94   2.0000      -0.888040       -24.1648
  95   2.0000      -0.881208       -23.9789
  96   2.0000      -0.878858       -23.9149
  97   2.0000      -0.875569       -23.8255
  98   2.0000      -0.869122       -23.6500
  99   2.0000      -0.864668       -23.5288
 100   2.0000      -0.855104       -23.2686
 101   2.0000      -0.832743       -22.6601
 102   2.0000      -0.828504       -22.5447
 103   2.0000      -0.826454       -22.4889
 104   2.0000      -0.825674       -22.4677
 105   2.0000      -0.822083       -22.3700
 106   2.0000      -0.817726       -22.2515
 107   2.0000      -0.809507       -22.0278
 108   2.0000      -0.788993       -21.4696
 109   2.0000      -0.776121       -21.1193
 110   2.0000      -0.765216       -20.8226
 111   2.0000      -0.760974       -20.7071
 112   2.0000      -0.756569       -20.5873
 113   2.0000      -0.753321       -20.4989
 114   2.0000      -0.752806       -20.4849
 115   2.0000      -0.728943       -19.8356
 116   2.0000      -0.716538       -19.4980
 117   2.0000      -0.712200       -19.3799
 118   2.0000      -0.707373       -19.2486
 119   2.0000      -0.704130       -19.1604
 120   2.0000      -0.699880       -19.0447
 121   2.0000      -0.697930       -18.9916
 122   2.0000      -0.689648       -18.7663
 123   2.0000      -0.679126       -18.4800
 124   2.0000      -0.675386       -18.3782
 125   2.0000      -0.672781       -18.3073
 126   2.0000      -0.670833       -18.2543
 127   2.0000      -0.666209       -18.1285
 128   2.0000      -0.662462       -18.0265
 129   2.0000      -0.654280       -17.8039
 130   2.0000      -0.649460       -17.6727
 131   2.0000      -0.639235       -17.3945
 132   2.0000      -0.633756       -17.2454
 133   2.0000      -0.633345       -17.2342
 134   2.0000      -0.625380       -17.0175
 135   2.0000      -0.621190       -16.9034
 136   2.0000      -0.613903       -16.7052
 137   2.0000      -0.609608       -16.5883
 138   2.0000      -0.606564       -16.5054
 139   2.0000      -0.604570       -16.4512
 140   2.0000      -0.600517       -16.3409
 141   2.0000      -0.596178       -16.2228
 142   2.0000      -0.586170       -15.9505
 143   2.0000      -0.581817       -15.8320
 144   2.0000      -0.578047       -15.7295
 145   2.0000      -0.575522       -15.6607
 146   2.0000      -0.571131       -15.5413
 147   2.0000      -0.569417       -15.4946
 148   2.0000      -0.562788       -15.3142
 149   2.0000      -0.559830       -15.2337
 150   2.0000      -0.557113       -15.1598
 151   2.0000      -0.554220       -15.0811
 152   2.0000      -0.547408       -14.8957
 153   2.0000      -0.546941       -14.8830
 154   2.0000      -0.546035       -14.8584
 155   2.0000      -0.545643       -14.8477
 156   2.0000      -0.543631       -14.7930
 157   2.0000      -0.541029       -14.7222
 158   2.0000      -0.535112       -14.5611
 159   2.0000      -0.531204       -14.4548
 160   2.0000      -0.529469       -14.4076
 161   2.0000      -0.528994       -14.3947
 162   2.0000      -0.526795       -14.3348
 163   2.0000      -0.524108       -14.2617
 164   2.0000      -0.521692       -14.1960
 165   2.0000      -0.518984       -14.1223
 166   2.0000      -0.517378       -14.0786
 167   2.0000      -0.515322       -14.0226
 168   2.0000      -0.514676       -14.0051
 169   2.0000      -0.513050       -13.9608
 170   2.0000      -0.510329       -13.8868
 171   2.0000      -0.509403       -13.8616
 172   2.0000      -0.505922       -13.7668
 173   2.0000      -0.500274       -13.6131
 174   2.0000      -0.499214       -13.5843
 175   2.0000      -0.496430       -13.5085
 176   2.0000      -0.495369       -13.4797
 177   2.0000      -0.494737       -13.4625
 178   2.0000      -0.491643       -13.3783
 179   2.0000      -0.490567       -13.3490
 180   2.0000      -0.489012       -13.3067
 181   2.0000      -0.488366       -13.2891
 182   2.0000      -0.484606       -13.1868
 183   2.0000      -0.481973       -13.1152
 184   2.0000      -0.481362       -13.0985
 185   2.0000      -0.475103       -12.9282
 186   2.0000      -0.474284       -12.9059
 187   2.0000      -0.465479       -12.6663
 188   2.0000      -0.462816       -12.5939
 189   2.0000      -0.459348       -12.4995
 190   2.0000      -0.452844       -12.3225
 191   2.0000      -0.449115       -12.2210
 192   2.0000      -0.446908       -12.1610
 193   2.0000      -0.445671       -12.1273
 194   2.0000      -0.443295       -12.0627
 195   2.0000      -0.443016       -12.0551
 196   2.0000      -0.442746       -12.0477
 197   2.0000      -0.441599       -12.0165
 198   2.0000      -0.439792       -11.9673
 199   2.0000      -0.438972       -11.9450
 200   2.0000      -0.437446       -11.9035
 201   2.0000      -0.435949       -11.8628
 202   2.0000      -0.435688       -11.8557
 203   2.0000      -0.433315       -11.7911
 204   2.0000      -0.430882       -11.7249
 205   2.0000      -0.429285       -11.6814
 206   2.0000      -0.427020       -11.6198
 207   2.0000      -0.426719       -11.6116
 208   2.0000      -0.424401       -11.5485
 209   2.0000      -0.423735       -11.5304
 210   2.0000      -0.419937       -11.4271
 211   2.0000      -0.419442       -11.4136
 212   2.0000      -0.418538       -11.3890
 213   2.0000      -0.413566       -11.2537
 214   2.0000      -0.409825       -11.1519
 215   2.0000      -0.408485       -11.1155
 216   2.0000      -0.405598       -11.0369
 217   2.0000      -0.404020       -10.9940
 218   2.0000      -0.402835       -10.9617
 219   2.0000      -0.391029       -10.6404
 220   2.0000      -0.386248       -10.5103
 221   2.0000      -0.384819       -10.4715
 222   2.0000      -0.382501       -10.4084
 223   2.0000      -0.381274       -10.3750
 224   2.0000      -0.379835       -10.3358
 225   2.0000      -0.371321       -10.1042
 226   2.0000      -0.367430        -9.9983
 227   2.0000      -0.363417        -9.8891
 228   2.0000      -0.351201        -9.5567
 229   2.0000      -0.343543        -9.3483
 230   2.0000      -0.341023        -9.2797
 231   2.0000      -0.337580        -9.1860
 232   2.0000      -0.335448        -9.1280
 233   2.0000      -0.326257        -8.8779
 234   2.0000      -0.324659        -8.8344
 235   2.0000      -0.318831        -8.6758
 236   2.0000      -0.314605        -8.5608
 237   2.0000      -0.309951        -8.4342
 238   2.0000      -0.307576        -8.3696
 239   2.0000      -0.300668        -8.1816
 240   2.0000      -0.290245        -7.8980
 241   2.0000      -0.289068        -7.8659
 242   2.0000      -0.285066        -7.7570
 243   2.0000      -0.280658        -7.6371
 244   2.0000      -0.219040        -5.9604
 245   0.0000      -0.086446        -2.3523
 246   0.0000      -0.075735        -2.0609
 247   0.0000      -0.064597        -1.7578
 248   0.0000      -0.057092        -1.5535
 249   0.0000      -0.049351        -1.3429

MULLIKEN ATOMIC CHARGES
-----------------------
   0 C :    0.270619
   1 C :   -0.283820
   2 C :   -0.187152
   3 N :    0.149645
   4 C :   -0.159129
   5 N :    0.134289
   6 C :    0.048404
   7 C :    0.002120
   8 C :   -0.081888
   9 C :    0.095241
  10 C :    0.096294
  11 C :   -0.086672
  12 C :   -0.018503
  13 C :    0.036991
  14 C :    0.035885
  15 C :   -0.015838
  16 C :    0.141344
  17 O :   -0.136059
  18 C :   -0.105200
  19 C :   -0.018341
  20 C :    0.213562
  21 O :   -0.385157
  22 C :    0.294291
  23 C :   -0.117113
  24 C :   -0.011185
  25 C :   -0.010607
  26 C :    0.122058
  27 C :   -0.113035
  28 C :    0.030658
  29 C :   -0.099478
  30 C :   -0.002875
  31 C :    0.153238
  32 N :   -0.237276
  33 C :    0.135183
  34 N :   -0.226950
  35 C :    0.112367
  36 C :   -0.120375
  37 C :    0.132368
  38 C :   -0.047285
  39 C :    0.020831
  40 C :    0.011638
  41 C :    0.028175
  42 C :   -0.002744
  43 C :   -0.018285
  44 C :   -0.030332
  45 C :   -0.019813
  46 C :    0.188583
  47 O :   -0.376763
  48 C :    0.298344
  49 C :   -0.148649
  50 C :    0.111270
  51 C :   -0.018686
  52 C :    0.006361
  53 C :   -0.106490
  54 C :    0.290546
  55 C :   -0.338645
  56 C :   -0.179240
  57 N :    0.149771
  58 C :   -0.214313
  59 N :    0.168253
  60 C :    0.052488
  61 C :   -0.006441
  62 C :    0.155526
  63 O :   -0.153481
  64 C :   -0.079658
  65 C :    0.098295
  66 C :    0.097850
  67 C :   -0.084150
  68 C :   -0.020113
  69 C :    0.038900
  70 C :    0.035266
  71 C :   -0.016333
  72 H :   -0.012595
  73 H :   -0.005680
  74 H :   -0.011259
  75 H :   -0.005120
  76 H :   -0.005933
  77 H :   -0.018262
  78 H :    0.027454
  79 H :    0.053005
  80 H :    0.012110
  81 H :    0.012986
  82 H :    0.008118
  83 H :    0.000732
  84 H :    0.004840
  85 H :   -0.026156
  86 H :   -0.025701
  87 H :   -0.021037
  88 H :   -0.010398
  89 H :    0.102623
  90 H :    0.093255
  91 H :   -0.004037
  92 H :   -0.017613
  93 H :    0.097374
  94 H :    0.087665
  95 H :   -0.010486
  96 H :    0.029723
  97 H :   -0.011254
  98 H :   -0.037276
  99 H :   -0.038256
 100 H :   -0.029112
 101 H :    0.012462
 102 H :    0.002474
 103 H :    0.032607
 104 H :    0.012412
 105 H :    0.002605
 106 H :    0.007791
 107 H :    0.013453
 108 H :    0.014723
 109 H :    0.039025
 110 H :   -0.013944
 111 H :   -0.006702
 112 H :   -0.008302
 113 H :   -0.004316
 114 H :   -0.005100
 115 H :   -0.017485
Sum of atomic charges:   -0.0000000

LOEWDIN ATOMIC CHARGES
----------------------
   0 C :    0.070963
   1 C :   -0.113996
   2 C :   -0.015040
   3 N :   -0.051043
   4 C :   -0.008584
   5 N :   -0.057607
   6 C :   -0.020645
   7 C :   -0.060044
   8 C :    0.033001
   9 C :   -0.010340
  10 C :   -0.004517
  11 C :    0.014487
  12 C :   -0.007055
  13 C :   -0.012905
  14 C :   -0.014567
  15 C :   -0.009124
  16 C :    0.085700
  17 O :   -0.137980
  18 C :   -0.075950
  19 C :    0.057543
  20 C :    0.082025
  21 O :   -0.181885
  22 C :    0.111419
  23 C :   -0.034301
  24 C :   -0.029788
  25 C :   -0.015639
  26 C :   -0.029119
  27 C :   -0.022347
  28 C :   -0.025470
  29 C :   -0.050879
  30 C :   -0.039340
  31 C :    0.028462
  32 N :   -0.119686
  33 C :    0.027160
  34 N :   -0.127481
  35 C :   -0.018439
  36 C :    0.065629
  37 C :   -0.028496
  38 C :   -0.030294
  39 C :   -0.018366
  40 C :   -0.033563
  41 C :   -0.033199
  42 C :   -0.010099
  43 C :   -0.029864
  44 C :   -0.006904
  45 C :   -0.043891
  46 C :    0.095620
  47 O :   -0.195688
  48 C :    0.106902
  49 C :   -0.039648
  50 C :    0.060582
  51 C :   -0.061007
  52 C :    0.079998
  53 C :   -0.095763
  54 C :    0.075900
  55 C :   -0.137214
  56 C :   -0.017201
  57 N :   -0.052696
  58 C :   -0.025858
  59 N :   -0.049230
  60 C :   -0.025993
  61 C :   -0.055736
  62 C :    0.088399
  63 O :   -0.145877
  64 C :    0.032359
  65 C :   -0.008458
  66 C :   -0.005759
  67 C :    0.020084
  68 C :   -0.005171
  69 C :   -0.012466
  70 C :   -0.012018
  71 C :   -0.009529
  72 H :    0.038945
  73 H :    0.038847
  74 H :    0.034178
  75 H :    0.032978
  76 H :    0.032383
  77 H :    0.031563
  78 H :    0.046186
  79 H :    0.033708
  80 H :    0.013289
  81 H :    0.013416
  82 H :    0.028949
  83 H :    0.025882
  84 H :    0.028724
  85 H :    0.023102
  86 H :    0.025940
  87 H :   -0.001760
  88 H :    0.014518
  89 H :    0.054483
  90 H :    0.055749
  91 H :   -0.000398
  92 H :    0.014745
  93 H :    0.050714
  94 H :    0.052689
  95 H :    0.028599
  96 H :    0.056328
  97 H :    0.025263
  98 H :    0.029042
  99 H :    0.026667
 100 H :    0.025450
 101 H :    0.030755
 102 H :    0.028841
 103 H :    0.026685
 104 H :    0.014390
 105 H :    0.010832
 106 H :    0.029774
 107 H :    0.030890
 108 H :    0.037693
 109 H :    0.046519
 110 H :    0.038413
 111 H :    0.039319
 112 H :    0.035064
 113 H :    0.033502
 114 H :    0.032862
 115 H :    0.031804

  Mayer bond orders larger than 0.100000
B(  0-C ,  1-C ) :   1.7031 B(  0-C ,  6-C ) :   1.0041 B(  0-C , 18-C ) :   0.9924
B(  1-C ,  2-C ) :   1.1405 B(  1-C ,  4-C ) :   1.1475 B(  2-C ,  3-N ) :   2.9855
B(  4-C ,  5-N ) :   2.9695 B(  6-C ,  7-C ) :   1.2120 B(  6-C , 11-C ) :   1.4552
B(  7-C ,  8-C ) :   1.4705 B(  7-C , 16-C ) :   0.9195 B(  8-C ,  9-C ) :   1.1896
B(  8-C , 72-H ) :   1.0154 B(  9-C , 10-C ) :   1.2556 B(  9-C , 15-C ) :   1.2438
B( 10-C , 11-C ) :   1.2052 B( 10-C , 12-C ) :   1.2396 B( 11-C , 73-H ) :   0.9946
B( 12-C , 13-C ) :   1.4922 B( 12-C , 74-H ) :   0.9972 B( 13-C , 14-C ) :   1.2580
B( 13-C , 75-H ) :   0.9885 B( 14-C , 15-C ) :   1.4921 B( 14-C , 76-H ) :   0.9884
B( 15-C , 77-H ) :   0.9972 B( 16-C , 17-O ) :   2.2882 B( 16-C , 18-C ) :   0.9229
B( 18-C , 19-C ) :   1.8275 B( 19-C , 20-C ) :   0.9940 B( 19-C , 78-H ) :   0.9375
B( 20-C , 21-O ) :   1.0435 B( 20-C , 23-C ) :   1.0127 B( 20-C , 79-H ) :   0.8770
B( 21-O , 22-C ) :   1.0072 B( 22-C , 23-C ) :   1.0582 B( 22-C , 80-H ) :   0.9476
B( 22-C , 81-H ) :   0.9406 B( 23-C , 24-C ) :   1.0137 B( 23-C , 82-H ) :   0.9279
B( 24-C , 25-C ) :   1.8206 B( 24-C , 83-H ) :   0.9751 B( 25-C , 26-C ) :   1.0484
B( 25-C , 84-H ) :   0.9681 B( 26-C , 27-C ) :   1.5424 B( 26-C , 43-C ) :   1.1153
B( 27-C , 28-C ) :   1.1216 B( 27-C , 85-H ) :   0.9940 B( 28-C , 29-C ) :   1.4620
B( 28-C , 41-C ) :   1.1256 B( 29-C , 30-C ) :   1.0408 B( 29-C , 35-C ) :   1.1169
B( 30-C , 31-C ) :   1.0501 B( 30-C , 33-C ) :   1.0342 B( 30-C , 86-H ) :   0.8739
B( 31-C , 32-N ) :   1.0907 B( 31-C , 87-H ) :   0.9387 B( 31-C , 88-H ) :   0.9367
B( 32-N , 89-H ) :   0.9561 B( 32-N , 90-H ) :   0.9677 B( 33-C , 34-N ) :   1.0858
B( 33-C , 91-H ) :   0.9411 B( 33-C , 92-H ) :   0.9341 B( 34-N , 93-H ) :   0.9701
B( 34-N , 94-H ) :   0.9683 B( 35-C , 36-C ) :   1.6461 B( 35-C , 40-C ) :   1.0515
B( 36-C , 37-C ) :   0.9743 B( 36-C , 95-H ) :   0.9707 B( 37-C , 38-C ) :   0.9856
B( 37-C , 44-C ) :   0.9507 B( 37-C , 96-H ) :   0.8701 B( 38-C , 39-C ) :   1.7138
B( 38-C , 97-H ) :   0.9769 B( 39-C , 40-C ) :   1.1256 B( 39-C , 98-H ) :   0.9901
B( 40-C , 41-C ) :   1.4353 B( 41-C , 42-C ) :   1.1416 B( 42-C , 43-C ) :   1.6019
B( 42-C , 99-H ) :   0.9909 B( 43-C ,100-H ) :   0.9905 B( 44-C , 45-C ) :   1.8771
B( 44-C ,101-H ) :   0.9711 B( 45-C , 46-C ) :   0.9997 B( 45-C ,102-H ) :   0.9623
B( 46-C , 47-O ) :   1.0426 B( 46-C , 49-C ) :   1.0179 B( 46-C ,103-H ) :   0.9170
B( 47-O , 48-C ) :   1.0276 B( 48-C , 49-C ) :   1.0505 B( 48-C ,104-H ) :   0.9435
B( 48-C ,105-H ) :   0.9407 B( 49-C , 50-C ) :   1.0356 B( 49-C ,106-H ) :   0.9286
B( 50-C , 51-C ) :   1.7709 B( 50-C ,107-H ) :   0.9531 B( 51-C , 52-C ) :   1.1213
B( 51-C ,108-H ) :   0.9563 B( 52-C , 53-C ) :   1.6555 B( 52-C ,109-H ) :   0.9479
B( 53-C , 54-C ) :   1.0438 B( 53-C , 62-C ) :   0.9385 B( 54-C , 55-C ) :   1.6592
B( 54-C , 60-C ) :   0.9970 B( 55-C , 56-C ) :   1.1406 B( 55-C , 58-C ) :   1.1386
B( 56-C , 57-N ) :   2.9716 B( 58-C , 59-N ) :   3.0111 B( 60-C , 61-C ) :   1.2133
B( 60-C , 67-C ) :   1.4471 B( 61-C , 62-C ) :   0.9521 B( 61-C , 64-C ) :   1.4702
B( 62-C , 63-O ) :   2.1825 B( 64-C , 65-C ) :   1.1800 B( 64-C ,110-H ) :   1.0161
B( 65-C , 66-C ) :   1.2576 B( 65-C , 71-C ) :   1.2427 B( 66-C , 67-C ) :   1.2054
B( 66-C , 68-C ) :   1.2383 B( 67-C ,111-H ) :   0.9916 B( 68-C , 69-C ) :   1.4891
B( 68-C ,112-H ) :   0.9979 B( 69-C , 70-C ) :   1.2604 B( 69-C ,113-H ) :   0.9882
B( 70-C , 71-C ) :   1.4890 B( 70-C ,114-H ) :   0.9888 B( 71-C ,115-H ) :   0.9981

-----------------------------------------------------------------------------
         ABSORPTION SPECTRUM VIA TRANSITION ELECTRIC DIPOLE MOMENTS
-----------------------------------------------------------------------------
State   Energy  Wavelength   fosc         T2         TX        TY        TZ
        (cm-1)    (nm)                  (au**2)     (au)      (au)      (au)
-----------------------------------------------------------------------------
   0   14754.5    677.8   0.049358252   1.10131   0.48467   0.24469  -0.89807
   1   17544.3    570.0   0.004358322   0.08178  -0.26358   0.08616   0.06989
   2   20675.2    483.7   0.020441316   0.32549   0.07338  -0.46278  -0.32548
   3   23948.5    417.6   0.001427955   0.01963  -0.13633   0.02238   0.02328
   4   25106.4    398.3   0.195415016   2.56241   1.51731   0.20702   0.46618
   5   26642.9    375.3   0.037327984   0.46124  -0.01352  -0.67432  -0.07972
   6   27375.1    365.3   0.006413825   0.07713  -0.06989   0.18034   0.19931
   7   28037.9    356.7   0.100020084   1.17440   0.73110   0.33353  -0.72708
   8   28564.0    350.1   0.112973371   1.30206  -0.09879   1.13031   0.12128
   9   28998.2    344.8   0.084392335   0.95809  -0.80642  -0.13685  -0.53763
  10   29136.5    343.2   0.101312406   1.14473   0.75824  -0.45960  -0.59880
  11   29677.0    337.0   0.016286457   0.18067  -0.07410   0.41482   0.05568
  12   30160.5    331.6   0.062839140   0.68591   0.58438  -0.09854   0.57853
  13   30755.3    325.1   0.000445607   0.00477   0.01483   0.01711  -0.06525
  14   31257.9    319.9   0.004177223   0.04399   0.08227   0.08689   0.17227
  15   31757.3    314.9   0.176819758   1.83300  -0.07421   1.25887   0.49270
  16   32187.6    310.7   0.031037905   0.31745  -0.32788   0.30311   0.34361
  17   32262.7    310.0   0.022637337   0.23099  -0.42166  -0.16661   0.15948
  18   32621.9    306.5   0.061877339   0.62445   0.51293  -0.00861  -0.60106
  19   32770.6    305.2   0.044754511   0.44960   0.17157   0.64807   0.01314
  20   33033.8    302.7   0.306261639   3.05217   1.27699  -0.68566  -0.97537
  21   33450.4    299.0   0.292315231   2.87691  -0.20395  -1.64076  -0.37846
  22   34274.8    291.8   0.087328987   0.83880  -0.12997  -0.55095   0.71997
  23   34325.5    291.3   0.658706574   6.31758  -0.72670  -0.56602   2.33861
  24   34747.6    287.8   0.421193919   3.99055  -1.57489  -0.21368   1.21021
  25   34862.1    286.8   0.296498890   2.79992  -0.93134   0.51589   1.29088
  26   35212.7    284.0   0.006604641   0.06175  -0.12488  -0.20386   0.06780
  27   35616.3    280.8   1.616103055  14.93813   1.29716  -2.99811  -2.06564
  28   35964.7    278.1   0.037617574   0.34434  -0.31675  -0.05979   0.49034
  29   35999.9    277.8   0.145643884   1.33189  -0.75353  -0.56936   0.66325
  30   37362.4    267.6   0.148967591   1.31260  -0.27599  -1.11068   0.05300
  31   37576.0    266.1   0.159236514   1.39511  -0.75764   0.20536   0.88256
  32   37860.2    264.1   0.000624056   0.00543   0.02966  -0.02105  -0.06406
  33   37961.3    263.4   0.009423834   0.08173  -0.09776  -0.24449   0.11132
  34   38159.2    262.1   0.069246098   0.59741   0.11971   0.75478   0.11570
  35   38400.1    260.4   0.002369405   0.02031  -0.06566  -0.02170   0.12462
  36   38667.6    258.6   0.000429170   0.00365   0.02357  -0.01992  -0.05198
  37   38896.7    257.1   0.040294971   0.34105   0.06821  -0.19783  -0.54521
  38   38937.2    256.8   0.000631840   0.00534   0.05936   0.01993  -0.03771
  39   39002.8    256.4   0.003429123   0.02894  -0.16103   0.04546   0.03080
  40   39392.1    253.9   0.202761806   1.69454   0.98899   0.40959   0.74073
  41   39829.4    251.1   0.082860661   0.68489  -0.12227  -0.79710   0.18595
  42   40249.6    248.4   0.035238475   0.28822   0.06428   0.46408  -0.26215
  43   40275.5    248.3   0.001303316   0.01065   0.02061   0.09630   0.03089

FINAL SINGLE POINT ENERGY     -3014.398659529964

DIPOLE MOMENT
-------------
                                X             Y             Z
Electronic contribution:    -38.50705     -28.00387     -17.43138
Nuclear contribution   :     40.90801      27.76121      18.91585
                        -----------------------------------------
Total Dipole Moment    :      2.40096      -0.24266       1.48447
                        -----------------------------------------
Magnitude (a.u.)       :      2.83322
Magnitude (Debye)      :      7.20148

Rotational constants in cm-1:     0.001313     0.000278     0.000256
Rotational constants in MHz :    39.373313     8.320425     7.671385

                             ****ORCA TERMINATED NORMALLY****
TOTAL RUN TIME: 0 days 0 hours 10 minutes 51 seconds 647 msec
