                         Program Version 4.2.0 -  RELEASE  -
|  1> # ORCA input file
|  2> # SCF done       -203.951843127851          0.000799892602
|  3> ! CAM-B3LYP def2-SVP def2/J RIJCOSX Grid4 TightSCF
|  4> %maxcore 5000
|  5> %tddft
|  6>     Mode sTDDFT
|  7>     Ethresh 5.0
|  8>     maxcore 5000
|  9> end
| 10>
| 11> %pal
| 12>   nprocs 6
| 13>   end
| 14> * xyz 0 1
| 15>    C       -1.86029         0.75555         1.71474
| 16>    C       -2.97191         1.40827         2.18096
| 17>    C       -3.54596         1.17214         3.44821
| 18>    N       -4.05771         1.01417         4.46288
| 19>    C       -3.72816         2.32023         1.42050
| 20>    N       -4.38687         3.04859         0.82519
| 21>    C       -1.19783        -0.35262         2.39482
| 22>    C       -0.44325        -1.09046         1.43600
| 23>    C        0.25693        -2.21028         1.78227
| 24>    C        0.24283        -2.64273         3.12749
| 25>    C       -0.49281        -1.89720         4.09419
| 26>    C       -1.21388        -0.74457         3.70609
| 27>    C       -0.49066        -2.33428         5.43429
| 28>    C        0.20075        -3.45595         5.80348
| 29>    C        0.92337        -4.19014         4.85112
| 30>    C        0.94393        -3.79236         3.54177
| 31>    C       -0.55245        -0.43440         0.12333
| 32>    O       -0.09910        -0.79410        -0.93829
| 33>    C       -1.30307         0.83318         0.37972
| 34>    C       -1.26877         1.80833        -0.56750
| 35>    C       -1.55453         3.18699        -0.43479
| 36>    C       -1.58039         3.96450         0.71367
| 37>    C       -1.86410         5.29606         0.43770
| 38>    C       -2.05543         5.54415        -0.93672
| 39>    S       -1.86287         4.14183        -1.87920
| 40>    C       -2.35650         6.91863        -1.11188
| 41>    C       -2.34568         7.53616         0.15577
| 42>    C       -2.05978         6.53415         1.17054
| 43>    C       -2.02271         6.70132         2.52362
| 44>    C       -2.24555         7.95608         3.12821
| 45>    N       -2.42178         8.98099         3.61074
| 46>    C       -1.76116         5.61958         3.39103
| 47>    N       -1.54499         4.72999         4.08136
| 48>    C       -2.60982         8.89479         0.08428
| 49>    C       -2.81942         9.32626        -1.22416
| 50>    S       -2.71783         8.00232        -2.37588
| 51>    C       -3.07114        10.68231        -1.56092
| 52>    C       -3.07017        11.38146        -2.77268
| 53>    N       -2.84499        10.73774        -4.00953
| 54>    O       -3.21212         9.57428        -4.11203
| 55>    O       -2.29667        11.34468        -4.90588
| 56>    C       -3.28784        12.78271        -2.65052
| 57>    C       -3.35276        13.74110        -3.78966
| 58>    C       -3.45992        13.15418        -1.33364
| 59>    S       -3.32299        11.79304        -0.25180
| 60>    C       -3.68214        14.45037        -0.77760
| 61>    C       -4.22295        15.57326        -1.37245
| 62>    C       -4.24318        16.66642        -0.50311
| 63>    C       -3.71852        16.36953         0.76458
| 64>    S       -3.20864        14.74544         0.89076
| 65>    C       -3.76087        17.54314         1.55860
| 66>    C       -4.31898        18.58648         0.78682
| 67>    C       -4.64000        18.06637        -0.53327
| 68>    C       -5.17907        18.73697        -1.59053
| 69>    C       -5.51846        20.10756        -1.55648
| 70>    N       -5.79700        21.21886        -1.57471
| 71>    C       -5.42709        18.09165        -2.82140
| 72>    N       -5.62350        17.56020        -3.81832
| 73>    C       -4.39142        19.79308         1.47013
| 74>    C       -3.88943        19.69437         2.76173
| 75>    S       -3.32538        18.05265         3.11754
| 76>    C       -3.69993        20.63283         3.79751
| 77>    C       -4.02950        21.95580         3.89807
| 78>    C       -3.66802        22.79321         5.03422
| 79>    C       -2.85036        22.46140         6.08423
| 80>    C       -2.53601        23.33583         7.14700
| 81>    N       -2.23640        23.98661         8.04405
| 82>    C       -2.17874        21.23517         6.27311
| 83>    N       -1.58200        20.28032         6.50266
| 84>    C       -4.28626        24.09976         4.84288
| 85>    C       -4.98323        24.09264         3.60268
| 86>    C       -4.84630        22.77456         2.96499
| 87>    O       -5.33462        22.44582         1.90417
| 88>    C       -5.65529        25.18734         3.14047
| 89>    C       -5.66046        26.36797         3.91564
| 90>    C       -4.96910        26.38439         5.16158
| 91>    C       -4.28401        25.23323         5.61332
| 92>    C       -4.97979        27.56775         5.92793
| 93>    C       -5.63951        28.68202         5.48573
| 94>    C       -6.31975        28.66445         4.25881
| 95>    C       -6.33026        27.53194         3.49042
| 96>    H        0.81610        -2.75964         1.03954
| 97>    H       -1.75152        -0.19054         4.45960
| 98>    H       -1.05094        -1.76732         6.16301
| 99>    H        0.19427        -3.78413         6.83202
|100>    H        1.46401        -5.07219         5.16006
|101>    H        1.49887        -4.35356         2.80428
|102>    H       -0.90722         1.48619        -1.53968
|103>    H       -1.35688         3.57610         1.69055
|104>    H       -2.63866         9.56042         0.92890
|105>    H       -2.86991        13.33093        -4.67076
|106>    H       -2.86022        14.67345        -3.52258
|107>    H       -4.39128        13.96075        -4.03857
|108>    H       -4.61547        15.58981        -2.37012
|109>    H       -4.78773        20.71233         1.07626
|110>    H       -3.19257        20.20547         4.65454
|111>    H       -6.17346        25.15100         2.19373
|112>    H       -3.77476        25.28072         6.56236
|113>    H       -4.45397        27.57688         6.87142
|114>    H       -5.64056        29.58393         6.07928
|115>    H       -6.83515        29.55279         3.92561
|116>    H       -6.85186        27.51201         2.54479
|117> *
|118>
|119>                          ****END OF INPUT****

CARTESIAN COORDINATES (ANGSTROEM)
---------------------------------
  C     -1.860290    0.755550    1.714740
  C     -2.971910    1.408270    2.180960
  C     -3.545960    1.172140    3.448210
  N     -4.057710    1.014170    4.462880
  C     -3.728160    2.320230    1.420500
  N     -4.386870    3.048590    0.825190
  C     -1.197830   -0.352620    2.394820
  C     -0.443250   -1.090460    1.436000
  C      0.256930   -2.210280    1.782270
  C      0.242830   -2.642730    3.127490
  C     -0.492810   -1.897200    4.094190
  C     -1.213880   -0.744570    3.706090
  C     -0.490660   -2.334280    5.434290
  C      0.200750   -3.455950    5.803480
  C      0.923370   -4.190140    4.851120
  C      0.943930   -3.792360    3.541770
  C     -0.552450   -0.434400    0.123330
  O     -0.099100   -0.794100   -0.938290
  C     -1.303070    0.833180    0.379720
  C     -1.268770    1.808330   -0.567500
  C     -1.554530    3.186990   -0.434790
  C     -1.580390    3.964500    0.713670
  C     -1.864100    5.296060    0.437700
  C     -2.055430    5.544150   -0.936720
  S     -1.862870    4.141830   -1.879200
  C     -2.356500    6.918630   -1.111880
  C     -2.345680    7.536160    0.155770
  C     -2.059780    6.534150    1.170540
  C     -2.022710    6.701320    2.523620
  C     -2.245550    7.956080    3.128210
  N     -2.421780    8.980990    3.610740
  C     -1.761160    5.619580    3.391030
  N     -1.544990    4.729990    4.081360
  C     -2.609820    8.894790    0.084280
  C     -2.819420    9.326260   -1.224160
  S     -2.717830    8.002320   -2.375880
  C     -3.071140   10.682310   -1.560920
  C     -3.070170   11.381460   -2.772680
  N     -2.844990   10.737740   -4.009530
  O     -3.212120    9.574280   -4.112030
  O     -2.296670   11.344680   -4.905880
  C     -3.287840   12.782710   -2.650520
  C     -3.352760   13.741100   -3.789660
  C     -3.459920   13.154180   -1.333640
  S     -3.322990   11.793040   -0.251800
  C     -3.682140   14.450370   -0.777600
  C     -4.222950   15.573260   -1.372450
  C     -4.243180   16.666420   -0.503110
  C     -3.718520   16.369530    0.764580
  S     -3.208640   14.745440    0.890760
  C     -3.760870   17.543140    1.558600
  C     -4.318980   18.586480    0.786820
  C     -4.640000   18.066370   -0.533270
  C     -5.179070   18.736970   -1.590530
  C     -5.518460   20.107560   -1.556480
  N     -5.797000   21.218860   -1.574710
  C     -5.427090   18.091650   -2.821400
  N     -5.623500   17.560200   -3.818320
  C     -4.391420   19.793080    1.470130
  C     -3.889430   19.694370    2.761730
  S     -3.325380   18.052650    3.117540
  C     -3.699930   20.632830    3.797510
  C     -4.029500   21.955800    3.898070
  C     -3.668020   22.793210    5.034220
  C     -2.850360   22.461400    6.084230
  C     -2.536010   23.335830    7.147000
  N     -2.236400   23.986610    8.044050
  C     -2.178740   21.235170    6.273110
  N     -1.582000   20.280320    6.502660
  C     -4.286260   24.099760    4.842880
  C     -4.983230   24.092640    3.602680
  C     -4.846300   22.774560    2.964990
  O     -5.334620   22.445820    1.904170
  C     -5.655290   25.187340    3.140470
  C     -5.660460   26.367970    3.915640
  C     -4.969100   26.384390    5.161580
  C     -4.284010   25.233230    5.613320
  C     -4.979790   27.567750    5.927930
  C     -5.639510   28.682020    5.485730
  C     -6.319750   28.664450    4.258810
  C     -6.330260   27.531940    3.490420
  H      0.816100   -2.759640    1.039540
  H     -1.751520   -0.190540    4.459600
  H     -1.050940   -1.767320    6.163010
  H      0.194270   -3.784130    6.832020
  H      1.464010   -5.072190    5.160060
  H      1.498870   -4.353560    2.804280
  H     -0.907220    1.486190   -1.539680
  H     -1.356880    3.576100    1.690550
  H     -2.638660    9.560420    0.928900
  H     -2.869910   13.330930   -4.670760
  H     -2.860220   14.673450   -3.522580
  H     -4.391280   13.960750   -4.038570
  H     -4.615470   15.589810   -2.370120
  H     -4.787730   20.712330    1.076260
  H     -3.192570   20.205470    4.654540
  H     -6.173460   25.151000    2.193730
  H     -3.774760   25.280720    6.562360
  H     -4.453970   27.576880    6.871420
  H     -5.640560   29.583930    6.079280
  H     -6.835150   29.552790    3.925610
  H     -6.851860   27.512010    2.544790

 Total Charge           Charge          ....    0
 Multiplicity           Mult            ....    1
 Number of Electrons    NEL             ....  574
 Basis Dimension        Dim             .... 1259

ORBITAL ENERGIES
----------------

  NO   OCC          E(Eh)            E(eV)
   0   2.0000     -89.003969     -2421.9211
   1   2.0000     -89.000722     -2421.8328
   2   2.0000     -89.000665     -2421.8312
   3   2.0000     -88.999796     -2421.8076
   4   2.0000     -88.995504     -2421.6908
   5   2.0000     -19.264668      -524.2183
   6   2.0000     -19.264366      -524.2101
   7   2.0000     -19.220161      -523.0072
   8   2.0000     -19.217157      -522.9254
   9   2.0000     -14.670580      -399.2068
  10   2.0000     -14.439490      -392.9185
  11   2.0000     -14.437357      -392.8604
  12   2.0000     -14.436659      -392.8415
  13   2.0000     -14.434036      -392.7701
  14   2.0000     -14.420038      -392.3892
  15   2.0000     -14.419566      -392.3763
  16   2.0000     -14.415062      -392.2538
  17   2.0000     -14.414693      -392.2437
  18   2.0000     -10.374479      -282.3039
  19   2.0000     -10.371638      -282.2266
  20   2.0000     -10.371064      -282.2110
  21   2.0000     -10.368399      -282.1385
  22   2.0000     -10.362782      -281.9856
  23   2.0000     -10.360807      -281.9319
  24   2.0000     -10.359694      -281.9016
  25   2.0000     -10.351702      -281.6841
  26   2.0000     -10.351238      -281.6715
  27   2.0000     -10.346928      -281.5542
  28   2.0000     -10.346098      -281.5316
  29   2.0000     -10.345929      -281.5270
  30   2.0000     -10.344646      -281.4921
  31   2.0000     -10.344449      -281.4868
  32   2.0000     -10.344198      -281.4799
  33   2.0000     -10.343226      -281.4535
  34   2.0000     -10.342629      -281.4372
  35   2.0000     -10.339560      -281.3537
  36   2.0000     -10.338768      -281.3322
  37   2.0000     -10.337660      -281.3020
  38   2.0000     -10.336874      -281.2806
  39   2.0000     -10.336580      -281.2726
  40   2.0000     -10.333173      -281.1799
  41   2.0000     -10.332809      -281.1700
  42   2.0000     -10.332543      -281.1628
  43   2.0000     -10.330379      -281.1039
  44   2.0000     -10.327666      -281.0301
  45   2.0000     -10.324680      -280.9488
  46   2.0000     -10.322634      -280.8931
  47   2.0000     -10.321269      -280.8560
  48   2.0000     -10.319338      -280.8035
  49   2.0000     -10.317930      -280.7652
  50   2.0000     -10.317425      -280.7514
  51   2.0000     -10.317404      -280.7508
  52   2.0000     -10.315993      -280.7124
  53   2.0000     -10.314368      -280.6682
  54   2.0000     -10.314266      -280.6654
  55   2.0000     -10.313529      -280.6454
  56   2.0000     -10.312747      -280.6241
  57   2.0000     -10.309696      -280.5411
  58   2.0000     -10.304824      -280.4085
  59   2.0000     -10.304753      -280.4066
  60   2.0000     -10.303975      -280.3854
  61   2.0000     -10.303148      -280.3629
  62   2.0000     -10.298822      -280.2452
  63   2.0000     -10.298710      -280.2421
  64   2.0000     -10.298416      -280.2342
  65   2.0000     -10.297875      -280.2194
  66   2.0000     -10.297702      -280.2147
  67   2.0000     -10.297625      -280.2126
  68   2.0000     -10.297002      -280.1957
  69   2.0000     -10.296450      -280.1807
  70   2.0000     -10.290941      -280.0307
  71   2.0000     -10.288482      -279.9638
  72   2.0000     -10.287287      -279.9313
  73   2.0000     -10.286804      -279.9182
  74   2.0000     -10.286732      -279.9162
  75   2.0000     -10.286409      -279.9074
  76   2.0000     -10.286127      -279.8997
  77   2.0000     -10.285952      -279.8950
  78   2.0000     -10.285845      -279.8921
  79   2.0000     -10.285529      -279.8835
  80   2.0000     -10.280992      -279.7600
  81   2.0000      -8.098739      -220.3779
  82   2.0000      -8.095288      -220.2840
  83   2.0000      -8.094517      -220.2630
  84   2.0000      -8.093182      -220.2267
  85   2.0000      -8.091028      -220.1681
  86   2.0000      -6.068027      -165.1194
  87   2.0000      -6.064346      -165.0192
  88   2.0000      -6.063775      -165.0037
  89   2.0000      -6.063623      -164.9996
  90   2.0000      -6.062720      -164.9750
  91   2.0000      -6.061025      -164.9289
  92   2.0000      -6.060472      -164.9138
  93   2.0000      -6.060235      -164.9074
  94   2.0000      -6.059476      -164.8867
  95   2.0000      -6.057937      -164.8448
  96   2.0000      -6.057928      -164.8446
  97   2.0000      -6.057075      -164.8214
  98   2.0000      -6.056271      -164.7995
  99   2.0000      -6.055588      -164.7809
 100   2.0000      -6.052765      -164.7041
 101   2.0000      -1.344229       -36.5783
 102   2.0000      -1.161791       -31.6139
 103   2.0000      -1.135539       -30.8996
 104   2.0000      -1.132687       -30.8220
 105   2.0000      -1.057577       -28.7781
 106   2.0000      -1.054947       -28.7066
 107   2.0000      -1.037369       -28.2283
 108   2.0000      -1.029599       -28.0168
 109   2.0000      -1.028601       -27.9897
 110   2.0000      -1.021326       -27.7917
 111   2.0000      -1.020486       -27.7688
 112   2.0000      -1.014790       -27.6138
 113   2.0000      -1.013569       -27.5806
 114   2.0000      -1.010445       -27.4956
 115   2.0000      -1.003935       -27.3184
 116   2.0000      -1.000735       -27.2314
 117   2.0000      -1.000221       -27.2174
 118   2.0000      -0.994935       -27.0735
 119   2.0000      -0.994595       -27.0643
 120   2.0000      -0.974690       -26.5227
 121   2.0000      -0.973441       -26.4887
 122   2.0000      -0.969133       -26.3714
 123   2.0000      -0.966262       -26.2933
 124   2.0000      -0.936562       -25.4852
 125   2.0000      -0.932493       -25.3744
 126   2.0000      -0.927510       -25.2388
 127   2.0000      -0.924206       -25.1489
 128   2.0000      -0.918923       -25.0052
 129   2.0000      -0.908265       -24.7152
 130   2.0000      -0.900100       -24.4930
 131   2.0000      -0.896392       -24.3921
 132   2.0000      -0.883027       -24.0284
 133   2.0000      -0.882820       -24.0228
 134   2.0000      -0.881173       -23.9779
 135   2.0000      -0.880207       -23.9516
 136   2.0000      -0.870553       -23.6890
 137   2.0000      -0.868940       -23.6450
 138   2.0000      -0.867041       -23.5934
 139   2.0000      -0.863588       -23.4994
 140   2.0000      -0.836257       -22.7557
 141   2.0000      -0.829485       -22.5714
 142   2.0000      -0.828661       -22.5490
 143   2.0000      -0.825345       -22.4588
 144   2.0000      -0.811911       -22.0932
 145   2.0000      -0.799676       -21.7603
 146   2.0000      -0.787970       -21.4418
 147   2.0000      -0.785282       -21.3686
 148   2.0000      -0.776305       -21.1243
 149   2.0000      -0.768835       -20.9211
 150   2.0000      -0.763767       -20.7831
 151   2.0000      -0.760949       -20.7065
 152   2.0000      -0.747671       -20.3452
 153   2.0000      -0.729024       -19.8377
 154   2.0000      -0.721354       -19.6290
 155   2.0000      -0.710352       -19.3297
 156   2.0000      -0.707535       -19.2530
 157   2.0000      -0.705588       -19.2000
 158   2.0000      -0.703009       -19.1298
 159   2.0000      -0.700545       -19.0628
 160   2.0000      -0.697642       -18.9838
 161   2.0000      -0.695171       -18.9166
 162   2.0000      -0.691013       -18.8034
 163   2.0000      -0.684179       -18.6174
 164   2.0000      -0.678776       -18.4704
 165   2.0000      -0.677607       -18.4386
 166   2.0000      -0.670863       -18.2551
 167   2.0000      -0.663384       -18.0516
 168   2.0000      -0.658233       -17.9114
 169   2.0000      -0.652758       -17.7624
 170   2.0000      -0.642958       -17.4958
 171   2.0000      -0.639572       -17.4036
 172   2.0000      -0.638200       -17.3663
 173   2.0000      -0.633923       -17.2499
 174   2.0000      -0.632376       -17.2078
 175   2.0000      -0.628397       -17.0996
 176   2.0000      -0.623110       -16.9557
 177   2.0000      -0.618080       -16.8188
 178   2.0000      -0.611549       -16.6411
 179   2.0000      -0.608744       -16.5648
 180   2.0000      -0.607643       -16.5348
 181   2.0000      -0.606136       -16.4938
 182   2.0000      -0.600121       -16.3301
 183   2.0000      -0.593214       -16.1422
 184   2.0000      -0.591249       -16.0887
 185   2.0000      -0.577907       -15.7256
 186   2.0000      -0.570040       -15.5116
 187   2.0000      -0.563234       -15.3264
 188   2.0000      -0.560020       -15.2389
 189   2.0000      -0.558784       -15.2053
 190   2.0000      -0.557034       -15.1577
 191   2.0000      -0.552260       -15.0278
 192   2.0000      -0.547578       -14.9004
 193   2.0000      -0.547411       -14.8958
 194   2.0000      -0.545201       -14.8357
 195   2.0000      -0.541728       -14.7412
 196   2.0000      -0.540780       -14.7154
 197   2.0000      -0.539647       -14.6845
 198   2.0000      -0.538104       -14.6425
 199   2.0000      -0.536172       -14.5900
 200   2.0000      -0.530177       -14.4268
 201   2.0000      -0.529193       -14.4001
 202   2.0000      -0.524513       -14.2727
 203   2.0000      -0.522095       -14.2069
 204   2.0000      -0.520108       -14.1529
 205   2.0000      -0.517543       -14.0831
 206   2.0000      -0.515065       -14.0156
 207   2.0000      -0.513006       -13.9596
 208   2.0000      -0.512867       -13.9558
 209   2.0000      -0.512103       -13.9350
 210   2.0000      -0.511267       -13.9123
 211   2.0000      -0.510155       -13.8820
 212   2.0000      -0.508801       -13.8452
 213   2.0000      -0.506160       -13.7733
 214   2.0000      -0.503922       -13.7124
 215   2.0000      -0.500083       -13.6079
 216   2.0000      -0.497859       -13.5474
 217   2.0000      -0.497653       -13.5418
 218   2.0000      -0.496207       -13.5025
 219   2.0000      -0.494432       -13.4542
 220   2.0000      -0.487670       -13.2702
 221   2.0000      -0.486027       -13.2255
 222   2.0000      -0.485405       -13.2085
 223   2.0000      -0.485106       -13.2004
 224   2.0000      -0.480228       -13.0677
 225   2.0000      -0.475352       -12.9350
 226   2.0000      -0.470589       -12.8054
 227   2.0000      -0.468904       -12.7595
 228   2.0000      -0.467895       -12.7321
 229   2.0000      -0.466546       -12.6954
 230   2.0000      -0.466058       -12.6821
 231   2.0000      -0.465502       -12.6669
 232   2.0000      -0.464552       -12.6411
 233   2.0000      -0.459656       -12.5079
 234   2.0000      -0.458608       -12.4794
 235   2.0000      -0.452971       -12.3260
 236   2.0000      -0.452812       -12.3216
 237   2.0000      -0.451471       -12.2851
 238   2.0000      -0.451056       -12.2739
 239   2.0000      -0.447462       -12.1761
 240   2.0000      -0.447136       -12.1672
 241   2.0000      -0.446336       -12.1454
 242   2.0000      -0.446096       -12.1389
 243   2.0000      -0.445659       -12.1270
 244   2.0000      -0.444805       -12.1038
 245   2.0000      -0.441857       -12.0235
 246   2.0000      -0.440744       -11.9933
 247   2.0000      -0.440369       -11.9831
 248   2.0000      -0.439533       -11.9603
 249   2.0000      -0.435408       -11.8481
 250   2.0000      -0.434617       -11.8265
 251   2.0000      -0.434116       -11.8129
 252   2.0000      -0.433688       -11.8013
 253   2.0000      -0.433317       -11.7912
 254   2.0000      -0.431105       -11.7310
 255   2.0000      -0.429313       -11.6822
 256   2.0000      -0.427855       -11.6425
 257   2.0000      -0.426639       -11.6095
 258   2.0000      -0.420606       -11.4453
 259   2.0000      -0.420309       -11.4372
 260   2.0000      -0.412824       -11.2335
 261   2.0000      -0.410507       -11.1705
 262   2.0000      -0.408858       -11.1256
 263   2.0000      -0.406493       -11.0612
 264   2.0000      -0.405007       -11.0208
 265   2.0000      -0.397989       -10.8298
 266   2.0000      -0.395827       -10.7710
 267   2.0000      -0.385366       -10.4864
 268   2.0000      -0.384955       -10.4751
 269   2.0000      -0.378900       -10.3104
 270   2.0000      -0.374005       -10.1772
 271   2.0000      -0.364891        -9.9292
 272   2.0000      -0.361060        -9.8249
 273   2.0000      -0.355840        -9.6829
 274   2.0000      -0.354189        -9.6380
 275   2.0000      -0.345998        -9.4151
 276   2.0000      -0.341161        -9.2835
 277   2.0000      -0.337964        -9.1965
 278   2.0000      -0.331929        -9.0323
 279   2.0000      -0.329410        -8.9637
 280   2.0000      -0.320625        -8.7246
 281   2.0000      -0.317877        -8.6499
 282   2.0000      -0.313735        -8.5372
 283   2.0000      -0.296686        -8.0732
 284   2.0000      -0.294831        -8.0228
 285   2.0000      -0.280743        -7.6394
 286   2.0000      -0.259000        -7.0477
 287   0.0000      -0.121402        -3.3035
 288   0.0000      -0.114563        -3.1174
 289   0.0000      -0.094381        -2.5682
 290   0.0000      -0.093032        -2.5315
 291   0.0000      -0.075801        -2.0627

MULLIKEN ATOMIC CHARGES
-----------------------
   0 C :    0.271276
   1 C :   -0.327910
   2 C :   -0.173401
   3 N :    0.161748
   4 C :   -0.201140
   5 N :    0.166591
   6 C :    0.024707
   7 C :    0.017236
   8 C :   -0.081914
   9 C :    0.095588
  10 C :    0.092476
  11 C :   -0.074850
  12 C :   -0.015792
  13 C :    0.035493
  14 C :    0.036372
  15 C :   -0.015984
  16 C :    0.135535
  17 O :   -0.141202
  18 C :   -0.135802
  19 C :    0.079600
  20 C :   -0.111567
  21 C :    0.000367
  22 C :   -0.002957
  23 C :   -0.073644
  24 S :    0.223894
  25 C :   -0.084000
  26 C :    0.040221
  27 C :    0.303605
  28 C :   -0.285175
  29 C :   -0.186419
  30 N :    0.170818
  31 C :   -0.184869
  32 N :    0.171441
  33 C :   -0.081772
  34 C :   -0.062698
  35 S :    0.247247
  36 C :   -0.102479
  37 C :    0.108886
  38 N :    0.267207
  39 O :   -0.265497
  40 O :   -0.218965
  41 C :   -0.101228
  42 C :    0.103385
  43 C :   -0.107783
  44 S :    0.155671
  45 C :   -0.063357
  46 C :   -0.048040
  47 C :    0.011936
  48 C :   -0.099949
  49 S :    0.200713
  50 C :   -0.082701
  51 C :   -0.004851
  52 C :    0.316498
  53 C :   -0.298844
  54 C :   -0.191774
  55 N :    0.202099
  56 C :   -0.187233
  57 N :    0.166853
  58 C :   -0.014760
  59 C :   -0.113706
  60 S :    0.211593
  61 C :    0.037486
  62 C :   -0.088707
  63 C :    0.326497
  64 C :   -0.362716
  65 C :   -0.180720
  66 N :    0.145568
  67 C :   -0.186980
  68 N :    0.148132
  69 C :    0.044038
  70 C :   -0.000769
  71 C :    0.158908
  72 O :   -0.148810
  73 C :   -0.079800
  74 C :    0.097605
  75 C :    0.095908
  76 C :   -0.080685
  77 C :   -0.018444
  78 C :    0.035914
  79 C :    0.037774
  80 C :   -0.015298
  81 H :   -0.011382
  82 H :    0.000068
  83 H :   -0.008436
  84 H :   -0.003745
  85 H :   -0.004980
  86 H :   -0.016771
  87 H :    0.023403
  88 H :    0.024484
  89 H :    0.024632
  90 H :    0.049055
  91 H :    0.030763
  92 H :    0.055693
  93 H :    0.004639
  94 H :    0.040351
  95 H :    0.004458
  96 H :   -0.009469
  97 H :   -0.009631
  98 H :   -0.009342
  99 H :   -0.004188
 100 H :   -0.004993
 101 H :   -0.016308
Sum of atomic charges:   -0.0000000

LOEWDIN ATOMIC CHARGES
----------------------
   0 C :    0.065658
   1 C :   -0.135394
   2 C :   -0.018541
   3 N :   -0.045365
   4 C :   -0.015665
   5 N :   -0.047175
   6 C :   -0.023467
   7 C :   -0.058341
   8 C :    0.033524
   9 C :   -0.008979
  10 C :   -0.004928
  11 C :    0.019613
  12 C :   -0.004855
  13 C :   -0.012089
  14 C :   -0.012272
  15 C :   -0.009218
  16 C :    0.083692
  17 O :   -0.142714
  18 C :   -0.085988
  19 C :    0.040630
  20 C :   -0.177351
  21 C :    0.007211
  22 C :   -0.062577
  23 C :   -0.161836
  24 S :    0.507348
  25 C :   -0.184396
  26 C :   -0.063062
  27 C :    0.082412
  28 C :   -0.099242
  29 C :   -0.015821
  30 N :   -0.032245
  31 C :   -0.013947
  32 N :   -0.030511
  33 C :   -0.023923
  34 C :   -0.197757
  35 S :    0.544401
  36 C :   -0.142340
  37 C :   -0.079833
  38 N :    0.289740
  39 O :   -0.227556
  40 O :   -0.179365
  41 C :   -0.029470
  42 C :   -0.052627
  43 C :   -0.194341
  44 S :    0.470900
  45 C :   -0.169963
  46 C :   -0.030776
  47 C :   -0.054839
  48 C :   -0.187943
  49 S :    0.478285
  50 C :   -0.160682
  51 C :   -0.074776
  52 C :    0.075778
  53 C :   -0.092218
  54 C :   -0.024323
  55 N :   -0.010556
  56 C :   -0.013538
  57 N :   -0.032245
  58 C :    0.016596
  59 C :   -0.174833
  60 S :    0.502471
  61 C :    0.040962
  62 C :   -0.093664
  63 C :    0.077819
  64 C :   -0.142985
  65 C :   -0.016760
  66 N :   -0.054439
  67 C :   -0.023635
  68 N :   -0.054617
  69 C :   -0.027088
  70 C :   -0.055824
  71 C :    0.087426
  72 O :   -0.137299
  73 C :    0.034154
  74 C :   -0.008005
  75 C :   -0.006226
  76 C :    0.020154
  77 C :   -0.005116
  78 C :   -0.013181
  79 C :   -0.011540
  80 C :   -0.008814
  81 H :    0.039552
  82 H :    0.040573
  83 H :    0.035246
  84 H :    0.033593
  85 H :    0.032926
  86 H :    0.031971
  87 H :    0.046346
  88 H :    0.042782
  89 H :    0.033481
  90 H :    0.037455
  91 H :    0.041177
  92 H :    0.045385
  93 H :    0.041175
  94 H :    0.043285
  95 H :    0.042176
  96 H :    0.040530
  97 H :    0.038950
  98 H :    0.034848
  99 H :    0.033366
 100 H :    0.032952
 101 H :    0.032532

  Mayer bond orders larger than 0.100000
B(  0-C ,  1-C ) :   1.6532 B(  0-C ,  6-C ) :   0.9984 B(  0-C , 18-C ) :   1.0321
B(  1-C ,  2-C ) :   1.1272 B(  1-C ,  4-C ) :   1.1713 B(  2-C ,  3-N ) :   2.9936
B(  4-C ,  5-N ) :   2.9956 B(  6-C ,  7-C ) :   1.2136 B(  6-C , 11-C ) :   1.4589
B(  7-C ,  8-C ) :   1.4697 B(  7-C , 16-C ) :   0.9241 B(  8-C ,  9-C ) :   1.1857
B(  8-C , 81-H ) :   1.0168 B(  9-C , 10-C ) :   1.2555 B(  9-C , 15-C ) :   1.2428
B( 10-C , 11-C ) :   1.2042 B( 10-C , 12-C ) :   1.2424 B( 11-C , 82-H ) :   0.9942
B( 12-C , 13-C ) :   1.4885 B( 12-C , 83-H ) :   0.9980 B( 13-C , 14-C ) :   1.2589
B( 13-C , 84-H ) :   0.9893 B( 14-C , 15-C ) :   1.4896 B( 14-C , 85-H ) :   0.9891
B( 15-C , 86-H ) :   0.9981 B( 16-C , 17-O ) :   2.2696 B( 16-C , 18-C ) :   0.9351
B( 18-C , 19-C ) :   1.6863 B( 19-C , 20-C ) :   1.1233 B( 19-C , 87-H ) :   0.9269
B( 20-C , 21-C ) :   1.4034 B( 20-C , 24-S ) :   1.0958 B( 21-C , 22-C ) :   1.3505
B( 21-C , 88-H ) :   0.9811 B( 22-C , 23-C ) :   1.4129 B( 22-C , 27-C ) :   1.0001
B( 23-C , 24-S ) :   1.1549 B( 23-C , 25-C ) :   1.1871 B( 25-C , 26-C ) :   1.4034
B( 25-C , 35-S ) :   1.1113 B( 26-C , 27-C ) :   0.9878 B( 26-C , 33-C ) :   1.3490
B( 27-C , 28-C ) :   1.7181 B( 28-C , 29-C ) :   1.1325 B( 28-C , 31-C ) :   1.1333
B( 29-C , 30-N ) :   2.9869 B( 31-C , 32-N ) :   2.9834 B( 33-C , 34-C ) :   1.3902
B( 33-C , 89-H ) :   0.9787 B( 34-C , 35-S ) :   1.1114 B( 34-C , 36-C ) :   1.1891
B( 36-C , 37-C ) :   1.4440 B( 36-C , 43-C ) :   0.1061 B( 36-C , 44-S ) :   1.1805
B( 37-C , 38-N ) :   0.9494 B( 37-C , 41-C ) :   1.2406 B( 38-N , 39-O ) :   1.4430
B( 38-N , 40-O ) :   1.5399 B( 39-O , 40-O ) :   0.2467 B( 41-C , 42-C ) :   1.1189
B( 41-C , 43-C ) :   1.5825 B( 42-C , 90-H ) :   0.9219 B( 42-C , 91-H ) :   0.9265
B( 42-C , 92-H ) :   0.9319 B( 43-C , 44-S ) :   1.0782 B( 43-C , 45-C ) :   1.0937
B( 45-C , 46-C ) :   1.4735 B( 45-C , 49-S ) :   1.1126 B( 46-C , 47-C ) :   1.2785
B( 46-C , 93-H ) :   0.9938 B( 47-C , 48-C ) :   1.4432 B( 47-C , 52-C ) :   0.9941
B( 48-C , 49-S ) :   1.1153 B( 48-C , 50-C ) :   1.1951 B( 50-C , 51-C ) :   1.3852
B( 50-C , 60-S ) :   1.1691 B( 51-C , 52-C ) :   0.9951 B( 51-C , 58-C ) :   1.3046
B( 52-C , 53-C ) :   1.7160 B( 53-C , 54-C ) :   1.1357 B( 53-C , 56-C ) :   1.1379
B( 54-C , 55-N ) :   3.0000 B( 56-C , 57-N ) :   2.9797 B( 58-C , 59-C ) :   1.4035
B( 58-C , 94-H ) :   0.9690 B( 59-C , 60-S ) :   1.0796 B( 59-C , 61-C ) :   1.2140
B( 61-C , 62-C ) :   1.6014 B( 61-C , 95-H ) :   0.9048 B( 62-C , 63-C ) :   1.0803
B( 62-C , 71-C ) :   0.9330 B( 63-C , 64-C ) :   1.6155 B( 63-C , 69-C ) :   0.9834
B( 64-C , 65-C ) :   1.1498 B( 64-C , 67-C ) :   1.1410 B( 65-C , 66-N ) :   2.9599
B( 67-C , 68-N ) :   2.9610 B( 69-C , 70-C ) :   1.2174 B( 69-C , 76-C ) :   1.4460
B( 70-C , 71-C ) :   0.9546 B( 70-C , 73-C ) :   1.4695 B( 71-C , 72-O ) :   2.1657
B( 73-C , 74-C ) :   1.1748 B( 73-C , 96-H ) :   1.0170 B( 74-C , 75-C ) :   1.2579
B( 74-C , 80-C ) :   1.2439 B( 75-C , 76-C ) :   1.2079 B( 75-C , 77-C ) :   1.2389
B( 76-C , 97-H ) :   0.9886 B( 77-C , 78-C ) :   1.4901 B( 77-C , 98-H ) :   0.9968
B( 78-C , 79-C ) :   1.2603 B( 78-C , 99-H ) :   0.9881 B( 79-C , 80-C ) :   1.4887
B( 79-C ,100-H ) :   0.9885 B( 80-C ,101-H ) :   0.9975

-----------------------------------------------------------------------------
         ABSORPTION SPECTRUM VIA TRANSITION ELECTRIC DIPOLE MOMENTS
-----------------------------------------------------------------------------
State   Energy  Wavelength   fosc         T2         TX        TY        TZ
        (cm-1)    (nm)                  (au**2)     (au)      (au)      (au)
-----------------------------------------------------------------------------
   0   13616.6    734.4   0.678525594  16.40493   0.41222  -3.99987  -0.48581
   1   14452.9    691.9   0.056044228   1.27659   0.11665  -0.11001   1.11843
   2   19427.7    514.7   1.419335848  24.05136  -0.37305   4.86626  -0.48140
   3   21597.4    463.0   0.505609120   7.70705   0.06120  -1.48190  -2.34676
   4   22152.7    451.4   0.265135092   3.94017  -0.08974  -1.17126  -1.60009
   5   23495.0    425.6   0.080745017   1.13140  -0.46543  -0.74086  -0.60490
   6   23730.9    421.4   0.062184932   0.86267   0.38103  -0.10821   0.84011
   7   25162.7    397.4   0.026897540   0.35191  -0.34251   0.27224  -0.40060
   8   25219.8    396.5   0.079733624   1.04082  -0.28435   0.95404   0.22308
   9   27505.8    363.6   0.015578617   0.18646   0.00378  -0.41659   0.11354
  10   27608.9    362.2   0.003744671   0.04465   0.01987  -0.01223  -0.21002
  11   27979.0    357.4   0.086673498   1.01983  -0.32379   0.93969   0.17881
  12   28336.8    352.9   0.010696026   0.12426   0.21683   0.05476  -0.27249
  13   28704.0    348.4   0.037313809   0.42796   0.32322  -0.52933   0.20808
  14   29117.7    343.4   0.104337199   1.17966   0.49400  -0.48856   0.83482
  15   29195.6    342.5   0.255110549   2.87665   0.88797  -1.43259   0.18934
  16   29402.7    340.1   0.011301299   0.12654   0.01053  -0.31186   0.17079
  17   29661.9    337.1   0.107010228   1.18769  -0.30951  -0.18137  -1.02908
  18   29892.8    334.5   0.070798401   0.77971   0.21528  -0.67260  -0.53008
  19   30268.1    330.4   0.212642563   2.31281   0.65913  -0.86828   1.06040
  20   30534.6    327.5   0.690621029   7.44599  -0.81150   2.57670   0.38481
  21   30560.2    327.2   0.220426844   2.37456  -0.10240   0.50933  -1.45074
  22   31167.7    320.8   0.292760789   3.09232  -0.66656   1.62409  -0.10167
  23   31816.2    314.3   0.087032518   0.90055  -0.17645  -0.88292  -0.29978
  24   31923.3    313.3   0.178408754   1.83986  -0.45196   0.22211  -1.25947
  25   32000.9    312.5   0.003474494   0.03574  -0.12218  -0.13571   0.04896
  26   32326.1    309.3   0.032745848   0.33349  -0.00769  -0.34652  -0.46190
  27   32747.5    305.4   0.022280790   0.22399  -0.01863   0.10927   0.46011
  28   32782.7    305.0   0.362033166   3.63562  -0.71567   1.55167  -0.84602
  29   32972.2    303.3   0.126631559   1.26436   0.40765  -0.98394   0.36061
  30   33378.0    299.6   0.114566833   1.12999   0.19895  -0.98104  -0.35774
  31   33621.3    297.4   0.017141172   0.16784   0.07142  -0.15827   0.37107
  32   33944.2    294.6   0.010143748   0.09838   0.17438  -0.24694   0.08362
  33   34149.4    292.8   0.400584972   3.86178   1.11042  -0.90009   1.34855
  34   34365.2    291.0   0.539954929   5.17266  -1.23483   1.81737  -0.58739
  35   34496.4    289.9   0.328113078   3.13130   0.54677  -1.07142  -1.29785
  36   34902.3    286.5   0.142608540   1.34514   0.60327  -0.85876   0.49369
  37   35010.9    285.6   0.053393683   0.50207   0.15957  -0.31840   0.61256
  38   35306.3    283.2   0.049258511   0.45931  -0.02114  -0.13821  -0.66314
  39   35461.6    282.0   0.020087017   0.18648  -0.02154   0.38646   0.19147
  40   35629.2    280.7   0.033378934   0.30842   0.09643  -0.53355   0.12017
  41   35907.0    278.5   0.094657668   0.86786  -0.44525   0.68750  -0.44381
  42   36319.3    275.3   0.139665026   1.26598   0.14517   0.11094   1.11022
  43   36497.9    274.0   0.068281765   0.61590   0.41019  -0.47548   0.47071
  44   36545.1    273.6   0.055347967   0.49859  -0.35412   0.36027  -0.49335
  45   37321.8    267.9   0.010488865   0.09252  -0.09890   0.17266  -0.23007
  46   37376.0    267.6   0.055693005   0.49055  -0.12730   0.52060   0.45091
  47   37507.2    266.6   0.029412209   0.25816  -0.36177   0.35386  -0.04547
  48   37641.3    265.7   0.001605724   0.01404  -0.01964  -0.05600  -0.10257
  49   37806.4    264.5   0.002728276   0.02376   0.14645   0.04661   0.01167
  50   37986.5    263.3   0.177202710   1.53574  -0.27160   0.71793  -0.97290
  51   38079.1    262.6   0.046304299   0.40032  -0.28336   0.21757  -0.52220
  52   38363.8    260.7   0.088506868   0.75950  -0.17767   0.06815  -0.85047
  53   38452.0    260.1   0.045493627   0.38950   0.20547   0.15029   0.56982
  54   38645.8    258.8   0.017229200   0.14677   0.20818  -0.31889   0.04170
  55   38790.7    257.8   0.016068523   0.13637  -0.03352   0.10681   0.35191
  56   38879.8    257.2   0.025597870   0.21675   0.28943   0.06864   0.35814
  57   39096.8    255.8   0.029904021   0.25180   0.25418  -0.41377   0.12643
  58   39204.9    255.1   0.021646846   0.18177   0.02928  -0.42311  -0.04349
  59   39446.9    253.5   0.171434516   1.43074   0.12962  -0.61555  -1.01736
  60   39531.7    253.0   0.051484785   0.42875  -0.61776  -0.21037  -0.05358
  61   39984.9    250.1   0.109108623   0.89834  -0.41706  -0.02061  -0.85087
  62   40073.5    249.5   0.041101100   0.33765  -0.43512  -0.30847   0.23059
  63   40105.4    249.3   0.069074385   0.56701  -0.19929  -0.22816  -0.68937

FINAL SINGLE POINT ENERGY     -5193.031628935602

DIPOLE MOMENT
-------------
                                X             Y             Z
Electronic contribution:     -1.83624      -9.78987     -16.79345
Nuclear contribution   :      2.59677       9.48749      16.20347
                        -----------------------------------------
Total Dipole Moment    :      0.76053      -0.30238      -0.58998
                        -----------------------------------------
Magnitude (a.u.)       :      1.00892
Magnitude (Debye)      :      2.56448

Rotational constants in cm-1:     0.001552     0.000165     0.000151
Rotational constants in MHz :    46.537539     4.947316     4.540518

                             ****ORCA TERMINATED NORMALLY****
TOTAL RUN TIME: 0 days 0 hours 12 minutes 23 seconds 250 msec
