                         Program Version 4.2.0 -  RELEASE  -
|  1> # ORCA input file
|  2> # SCF done       -197.938307698581          0.000438188348
|  3> ! CAM-B3LYP def2-SVP def2/J RIJCOSX Grid4 TightSCF
|  4> %maxcore 5000
|  5> %tddft
|  6>     Mode sTDDFT
|  7>     Ethresh 5.0
|  8>     maxcore 5000
|  9> end
| 10>
| 11> %pal
| 12>   nprocs 6
| 13>   end
| 14> * xyz 0 1
| 15>    C        2.13336         0.71027        -1.39628
| 16>    C        3.31703         0.50928        -2.05757
| 17>    C        4.28957        -0.43585        -1.66760
| 18>    N        5.12275        -1.17583        -1.39350
| 19>    C        3.68467         1.15919        -3.25106
| 20>    N        4.01463         1.62692        -4.24725
| 21>    C        1.64830        -0.09644        -0.28695
| 22>    C        0.27988         0.22608        -0.07143
| 23>    C       -0.46759        -0.39743         0.88600
| 24>    C        0.13608        -1.38918         1.69056
| 25>    C        1.51065        -1.70897         1.48983
| 26>    C        2.25784        -1.04686         0.48902
| 27>    C        2.10231        -2.69959         2.29980
| 28>    C        1.37236        -3.34697         3.25931
| 29>    C        0.01922        -3.03230         3.45509
| 30>    C       -0.58578        -2.07402         2.68773
| 31>    C       -0.14248         1.27053        -1.01899
| 32>    O       -1.26603         1.71385        -1.11862
| 33>    C        1.08793         1.65741        -1.76562
| 34>    C        1.32869         2.78260        -2.50644
| 35>    C        0.43965         3.77488        -2.99607
| 36>    C       -0.93299         3.79668        -2.96251
| 37>    C       -1.39575         5.07066        -3.45412
| 38>    C       -2.74513         5.42639        -3.60092
| 39>    N       -3.84639         5.72463        -3.71983
| 40>    C       -0.31513         5.85654        -3.75291
| 41>    C        0.87924         5.07824        -3.55751
| 42>    C        2.11801         5.49317        -3.97689
| 43>    C        2.48645         6.90596        -4.27408
| 44>    C        3.69742         6.88669        -4.90243
| 45>    C        4.13898         5.51400        -5.01360
| 46>    C        3.21944         4.68798        -4.42133
| 47>    C        5.33473         5.12973        -5.63859
| 48>    N        6.32318         4.85330        -6.15080
| 49>    C        1.77199         8.05798        -3.83602
| 50>    C        1.90002         9.28565        -4.39815
| 51>    C        1.18377        10.41554        -3.93795
| 52>    N        0.38898        10.44562        -2.90517
| 53>    C       -0.14018        11.65374        -2.74610
| 54>    C        0.23302        12.63570        -3.69072
| 55>    S        1.32461        11.96277        -4.82482
| 56>    N       -0.30075        13.84434        -3.53334
| 57>    C       -1.06655        13.88886        -2.48753
| 58>    S       -1.21739        12.33355        -1.59814
| 59>    C       -1.84285        15.02280        -2.11917
| 60>    C       -2.37448        15.92441        -2.99349
| 61>    C       -3.26834        16.79285        -2.25937
| 62>    C       -3.96863        17.86615        -2.83013
| 63>    N       -4.53569        18.74332        -3.30441
| 64>    C       -3.30998        16.40054        -0.94623
| 65>    C       -2.36609        15.33391        -0.77229
| 66>    C       -1.84915        14.88791         0.41601
| 67>    C       -2.44055        15.01847         1.76694
| 68>    C       -1.48877        14.61778         2.66623
| 69>    C       -0.29534        14.24257         1.94488
| 70>    C       -0.52302        14.36619         0.59922
| 71>    C        0.90111        13.82401         2.54518
| 72>    N        1.87830        13.47693         3.03608
| 73>    C       -3.79387        15.35541         2.04273
| 74>    C       -4.26069        15.67953         3.27874
| 75>    C       -5.61926        15.99755         3.50058
| 76>    C       -6.14702        16.35203         4.71031
| 77>    C       -7.52859        16.69914         4.99100
| 78>    C       -8.57423        16.70382         4.10315
| 79>    C       -9.89963        17.04824         4.44371
| 80>    N      -10.99669        17.31485         4.65156
| 81>    C       -8.49505        16.36672         2.73602
| 82>    N       -8.51114        16.10631         1.61735
| 83>    C       -7.62216        17.04321         6.40566
| 84>    C       -6.33469        16.89826         6.99721
| 85>    C       -5.37127        16.45775         5.97630
| 86>    O       -4.19092        16.23061         6.14515
| 87>    C       -6.11355        17.15245         8.32021
| 88>    C       -7.19119        17.57363         9.13034
| 89>    C       -8.48255        17.72364         8.54686
| 90>    C       -8.68080        17.45195         7.17370
| 91>    C       -9.55125        18.14612         9.36353
| 92>    C       -9.35566        18.40758        10.69240
| 93>    C       -8.08384        18.25898        11.26573
| 94>    C       -7.02447        17.85094        10.50133
| 95>    H       -1.50706        -0.13955         1.02444
| 96>    H        3.29735        -1.30610         0.36542
| 97>    H        3.14358        -2.94034         2.14373
| 98>    H        1.83382        -4.10625         3.87256
| 99>    H       -0.54147        -3.55304         4.21673
|100>    H       -1.62728        -1.82767         2.83362
|101>    H        2.37174         2.98280        -2.71377
|102>    H       -1.58439         3.01865        -2.61691
|103>    H       -0.35559         6.83282        -4.19596
|104>    H        4.27959         7.73063        -5.22044
|105>    H        3.27317         3.61623        -4.44010
|106>    H        1.09849         7.95569        -2.99700
|107>    H        2.53497         9.44153        -5.25761
|108>    H       -2.20456        15.96578        -4.05194
|109>    H       -3.83850        16.90469        -0.16084
|110>    H       -1.59054        14.55019         3.73266
|111>    H        0.20884        14.23914        -0.17452
|112>    H       -4.48958        15.33482         1.21365
|113>    H       -3.58894        15.72386         4.12192
|114>    H       -6.27097        15.95696         2.63701
|115>    H       -5.12674        17.03397         8.74273
|116>    H       -9.67065        17.57654         6.76468
|117>    H      -10.52863        18.25903         8.91783
|118>    H      -10.18051        18.73062        11.30958
|119>    H       -7.94770        18.46953        12.31593
|120>    H       -6.04284        17.73491        10.93696
|121> *
|122>
|123>                          ****END OF INPUT****

CARTESIAN COORDINATES (ANGSTROEM)
---------------------------------
  C      2.133360    0.710270   -1.396280
  C      3.317030    0.509280   -2.057570
  C      4.289570   -0.435850   -1.667600
  N      5.122750   -1.175830   -1.393500
  C      3.684670    1.159190   -3.251060
  N      4.014630    1.626920   -4.247250
  C      1.648300   -0.096440   -0.286950
  C      0.279880    0.226080   -0.071430
  C     -0.467590   -0.397430    0.886000
  C      0.136080   -1.389180    1.690560
  C      1.510650   -1.708970    1.489830
  C      2.257840   -1.046860    0.489020
  C      2.102310   -2.699590    2.299800
  C      1.372360   -3.346970    3.259310
  C      0.019220   -3.032300    3.455090
  C     -0.585780   -2.074020    2.687730
  C     -0.142480    1.270530   -1.018990
  O     -1.266030    1.713850   -1.118620
  C      1.087930    1.657410   -1.765620
  C      1.328690    2.782600   -2.506440
  C      0.439650    3.774880   -2.996070
  C     -0.932990    3.796680   -2.962510
  C     -1.395750    5.070660   -3.454120
  C     -2.745130    5.426390   -3.600920
  N     -3.846390    5.724630   -3.719830
  C     -0.315130    5.856540   -3.752910
  C      0.879240    5.078240   -3.557510
  C      2.118010    5.493170   -3.976890
  C      2.486450    6.905960   -4.274080
  C      3.697420    6.886690   -4.902430
  C      4.138980    5.514000   -5.013600
  C      3.219440    4.687980   -4.421330
  C      5.334730    5.129730   -5.638590
  N      6.323180    4.853300   -6.150800
  C      1.771990    8.057980   -3.836020
  C      1.900020    9.285650   -4.398150
  C      1.183770   10.415540   -3.937950
  N      0.388980   10.445620   -2.905170
  C     -0.140180   11.653740   -2.746100
  C      0.233020   12.635700   -3.690720
  S      1.324610   11.962770   -4.824820
  N     -0.300750   13.844340   -3.533340
  C     -1.066550   13.888860   -2.487530
  S     -1.217390   12.333550   -1.598140
  C     -1.842850   15.022800   -2.119170
  C     -2.374480   15.924410   -2.993490
  C     -3.268340   16.792850   -2.259370
  C     -3.968630   17.866150   -2.830130
  N     -4.535690   18.743320   -3.304410
  C     -3.309980   16.400540   -0.946230
  C     -2.366090   15.333910   -0.772290
  C     -1.849150   14.887910    0.416010
  C     -2.440550   15.018470    1.766940
  C     -1.488770   14.617780    2.666230
  C     -0.295340   14.242570    1.944880
  C     -0.523020   14.366190    0.599220
  C      0.901110   13.824010    2.545180
  N      1.878300   13.476930    3.036080
  C     -3.793870   15.355410    2.042730
  C     -4.260690   15.679530    3.278740
  C     -5.619260   15.997550    3.500580
  C     -6.147020   16.352030    4.710310
  C     -7.528590   16.699140    4.991000
  C     -8.574230   16.703820    4.103150
  C     -9.899630   17.048240    4.443710
  N    -10.996690   17.314850    4.651560
  C     -8.495050   16.366720    2.736020
  N     -8.511140   16.106310    1.617350
  C     -7.622160   17.043210    6.405660
  C     -6.334690   16.898260    6.997210
  C     -5.371270   16.457750    5.976300
  O     -4.190920   16.230610    6.145150
  C     -6.113550   17.152450    8.320210
  C     -7.191190   17.573630    9.130340
  C     -8.482550   17.723640    8.546860
  C     -8.680800   17.451950    7.173700
  C     -9.551250   18.146120    9.363530
  C     -9.355660   18.407580   10.692400
  C     -8.083840   18.258980   11.265730
  C     -7.024470   17.850940   10.501330
  H     -1.507060   -0.139550    1.024440
  H      3.297350   -1.306100    0.365420
  H      3.143580   -2.940340    2.143730
  H      1.833820   -4.106250    3.872560
  H     -0.541470   -3.553040    4.216730
  H     -1.627280   -1.827670    2.833620
  H      2.371740    2.982800   -2.713770
  H     -1.584390    3.018650   -2.616910
  H     -0.355590    6.832820   -4.195960
  H      4.279590    7.730630   -5.220440
  H      3.273170    3.616230   -4.440100
  H      1.098490    7.955690   -2.997000
  H      2.534970    9.441530   -5.257610
  H     -2.204560   15.965780   -4.051940
  H     -3.838500   16.904690   -0.160840
  H     -1.590540   14.550190    3.732660
  H      0.208840   14.239140   -0.174520
  H     -4.489580   15.334820    1.213650
  H     -3.588940   15.723860    4.121920
  H     -6.270970   15.956960    2.637010
  H     -5.126740   17.033970    8.742730
  H     -9.670650   17.576540    6.764680
  H    -10.528630   18.259030    8.917830
  H    -10.180510   18.730620   11.309580
  H     -7.947700   18.469530   12.315930
  H     -6.042840   17.734910   10.936960

 Total Charge           Charge          ....    0
 Multiplicity           Mult            ....    1
 Number of Electrons    NEL             ....  540
 Basis Dimension        Dim             .... 1258

ORBITAL ENERGIES
----------------

  NO   OCC          E(Eh)            E(eV)
   0   2.0000     -88.988568     -2421.5020
   1   2.0000     -88.984956     -2421.4038
   2   2.0000     -19.230877      -523.2988
   3   2.0000     -19.221544      -523.0448
   4   2.0000     -14.441402      -392.9705
   5   2.0000     -14.438204      -392.8835
   6   2.0000     -14.430034      -392.6612
   7   2.0000     -14.423587      -392.4858
   8   2.0000     -14.423393      -392.4805
   9   2.0000     -14.422778      -392.4637
  10   2.0000     -14.421546      -392.4302
  11   2.0000     -14.420601      -392.4045
  12   2.0000     -14.417320      -392.3152
  13   2.0000     -14.417183      -392.3115
  14   2.0000     -10.382101      -282.5113
  15   2.0000     -10.371893      -282.2335
  16   2.0000     -10.368490      -282.1410
  17   2.0000     -10.363200      -281.9970
  18   2.0000     -10.352681      -281.7108
  19   2.0000     -10.351486      -281.6783
  20   2.0000     -10.348936      -281.6089
  21   2.0000     -10.347477      -281.5692
  22   2.0000     -10.346726      -281.5487
  23   2.0000     -10.345550      -281.5167
  24   2.0000     -10.344655      -281.4924
  25   2.0000     -10.344084      -281.4768
  26   2.0000     -10.342113      -281.4232
  27   2.0000     -10.341113      -281.3960
  28   2.0000     -10.341093      -281.3954
  29   2.0000     -10.337559      -281.2993
  30   2.0000     -10.336501      -281.2705
  31   2.0000     -10.336088      -281.2592
  32   2.0000     -10.334868      -281.2261
  33   2.0000     -10.334618      -281.2193
  34   2.0000     -10.325908      -280.9823
  35   2.0000     -10.323329      -280.9121
  36   2.0000     -10.322371      -280.8860
  37   2.0000     -10.321025      -280.8494
  38   2.0000     -10.321009      -280.8489
  39   2.0000     -10.320444      -280.8336
  40   2.0000     -10.319963      -280.8205
  41   2.0000     -10.319757      -280.8149
  42   2.0000     -10.319288      -280.8021
  43   2.0000     -10.319090      -280.7967
  44   2.0000     -10.319006      -280.7944
  45   2.0000     -10.318169      -280.7717
  46   2.0000     -10.318100      -280.7698
  47   2.0000     -10.317186      -280.7449
  48   2.0000     -10.316203      -280.7182
  49   2.0000     -10.315158      -280.6897
  50   2.0000     -10.314962      -280.6844
  51   2.0000     -10.314828      -280.6807
  52   2.0000     -10.314684      -280.6768
  53   2.0000     -10.312723      -280.6235
  54   2.0000     -10.310923      -280.5745
  55   2.0000     -10.310754      -280.5699
  56   2.0000     -10.310505      -280.5631
  57   2.0000     -10.308761      -280.5156
  58   2.0000     -10.305889      -280.4375
  59   2.0000     -10.305451      -280.4256
  60   2.0000     -10.305281      -280.4209
  61   2.0000     -10.304997      -280.4132
  62   2.0000     -10.304834      -280.4088
  63   2.0000     -10.304779      -280.4073
  64   2.0000     -10.303980      -280.3856
  65   2.0000     -10.300657      -280.2951
  66   2.0000     -10.300381      -280.2876
  67   2.0000     -10.299763      -280.2708
  68   2.0000     -10.299503      -280.2637
  69   2.0000     -10.297218      -280.2015
  70   2.0000     -10.295993      -280.1682
  71   2.0000     -10.293167      -280.0913
  72   2.0000     -10.292681      -280.0781
  73   2.0000     -10.292411      -280.0707
  74   2.0000     -10.291942      -280.0580
  75   2.0000     -10.291426      -280.0439
  76   2.0000     -10.289440      -279.9899
  77   2.0000     -10.288876      -279.9746
  78   2.0000     -10.288505      -279.9644
  79   2.0000     -10.288012      -279.9510
  80   2.0000      -8.083911      -219.9744
  81   2.0000      -8.081051      -219.8966
  82   2.0000      -6.052980      -164.7100
  83   2.0000      -6.050071      -164.6308
  84   2.0000      -6.049340      -164.6109
  85   2.0000      -6.046471      -164.5328
  86   2.0000      -6.045825      -164.5153
  87   2.0000      -6.042949      -164.4370
  88   2.0000      -1.146505       -31.1980
  89   2.0000      -1.135777       -30.9061
  90   2.0000      -1.111859       -30.2552
  91   2.0000      -1.071379       -29.1537
  92   2.0000      -1.032398       -28.0930
  93   2.0000      -1.031506       -28.0687
  94   2.0000      -1.028227       -27.9795
  95   2.0000      -1.021499       -27.7964
  96   2.0000      -1.016533       -27.6613
  97   2.0000      -1.013086       -27.5675
  98   2.0000      -1.009762       -27.4770
  99   2.0000      -1.003987       -27.3199
 100   2.0000      -1.001992       -27.2656
 101   2.0000      -1.001808       -27.2606
 102   2.0000      -0.998445       -27.1691
 103   2.0000      -0.996929       -27.1278
 104   2.0000      -0.993453       -27.0332
 105   2.0000      -0.989717       -26.9316
 106   2.0000      -0.979884       -26.6640
 107   2.0000      -0.974696       -26.5228
 108   2.0000      -0.939230       -25.5577
 109   2.0000      -0.937735       -25.5171
 110   2.0000      -0.934640       -25.4329
 111   2.0000      -0.924747       -25.1636
 112   2.0000      -0.923143       -25.1200
 113   2.0000      -0.916513       -24.9396
 114   2.0000      -0.901505       -24.5312
 115   2.0000      -0.898361       -24.4456
 116   2.0000      -0.897215       -24.4145
 117   2.0000      -0.894908       -24.3517
 118   2.0000      -0.889900       -24.2154
 119   2.0000      -0.887092       -24.1390
 120   2.0000      -0.884208       -24.0605
 121   2.0000      -0.880846       -23.9690
 122   2.0000      -0.870579       -23.6897
 123   2.0000      -0.852738       -23.2042
 124   2.0000      -0.842277       -22.9195
 125   2.0000      -0.836064       -22.7505
 126   2.0000      -0.832249       -22.6466
 127   2.0000      -0.831044       -22.6139
 128   2.0000      -0.817080       -22.2339
 129   2.0000      -0.813187       -22.1279
 130   2.0000      -0.805182       -21.9101
 131   2.0000      -0.797770       -21.7084
 132   2.0000      -0.791991       -21.5512
 133   2.0000      -0.771411       -20.9912
 134   2.0000      -0.765318       -20.8254
 135   2.0000      -0.765155       -20.8209
 136   2.0000      -0.743991       -20.2450
 137   2.0000      -0.740658       -20.1543
 138   2.0000      -0.739402       -20.1201
 139   2.0000      -0.734816       -19.9954
 140   2.0000      -0.720908       -19.6169
 141   2.0000      -0.713780       -19.4229
 142   2.0000      -0.712949       -19.4003
 143   2.0000      -0.707228       -19.2447
 144   2.0000      -0.707043       -19.2396
 145   2.0000      -0.701177       -19.0800
 146   2.0000      -0.692296       -18.8383
 147   2.0000      -0.691310       -18.8115
 148   2.0000      -0.686838       -18.6898
 149   2.0000      -0.680439       -18.5157
 150   2.0000      -0.673204       -18.3188
 151   2.0000      -0.666519       -18.1369
 152   2.0000      -0.660932       -17.9849
 153   2.0000      -0.655930       -17.8488
 154   2.0000      -0.653641       -17.7865
 155   2.0000      -0.650684       -17.7060
 156   2.0000      -0.642916       -17.4946
 157   2.0000      -0.640424       -17.4268
 158   2.0000      -0.637153       -17.3378
 159   2.0000      -0.624021       -16.9805
 160   2.0000      -0.619031       -16.8447
 161   2.0000      -0.615874       -16.7588
 162   2.0000      -0.613828       -16.7031
 163   2.0000      -0.612689       -16.6721
 164   2.0000      -0.609967       -16.5980
 165   2.0000      -0.609299       -16.5799
 166   2.0000      -0.594276       -16.1711
 167   2.0000      -0.590252       -16.0616
 168   2.0000      -0.583509       -15.8781
 169   2.0000      -0.570459       -15.5230
 170   2.0000      -0.569486       -15.4965
 171   2.0000      -0.567108       -15.4318
 172   2.0000      -0.563498       -15.3336
 173   2.0000      -0.560007       -15.2386
 174   2.0000      -0.558522       -15.1982
 175   2.0000      -0.554060       -15.0767
 176   2.0000      -0.549451       -14.9513
 177   2.0000      -0.548503       -14.9255
 178   2.0000      -0.547428       -14.8963
 179   2.0000      -0.544144       -14.8069
 180   2.0000      -0.543236       -14.7822
 181   2.0000      -0.541087       -14.7237
 182   2.0000      -0.538780       -14.6609
 183   2.0000      -0.535061       -14.5598
 184   2.0000      -0.534517       -14.5449
 185   2.0000      -0.533156       -14.5079
 186   2.0000      -0.531144       -14.4532
 187   2.0000      -0.529616       -14.4116
 188   2.0000      -0.528162       -14.3720
 189   2.0000      -0.524937       -14.2843
 190   2.0000      -0.522707       -14.2236
 191   2.0000      -0.521500       -14.1907
 192   2.0000      -0.520415       -14.1612
 193   2.0000      -0.518486       -14.1087
 194   2.0000      -0.518071       -14.0974
 195   2.0000      -0.516880       -14.0650
 196   2.0000      -0.514633       -14.0039
 197   2.0000      -0.512489       -13.9455
 198   2.0000      -0.510095       -13.8804
 199   2.0000      -0.506906       -13.7936
 200   2.0000      -0.506374       -13.7791
 201   2.0000      -0.506075       -13.7710
 202   2.0000      -0.503635       -13.7046
 203   2.0000      -0.500346       -13.6151
 204   2.0000      -0.499873       -13.6022
 205   2.0000      -0.497843       -13.5470
 206   2.0000      -0.495465       -13.4823
 207   2.0000      -0.493123       -13.4186
 208   2.0000      -0.490144       -13.3375
 209   2.0000      -0.489240       -13.3129
 210   2.0000      -0.480984       -13.0882
 211   2.0000      -0.478055       -13.0086
 212   2.0000      -0.473552       -12.8860
 213   2.0000      -0.467524       -12.7220
 214   2.0000      -0.466980       -12.7072
 215   2.0000      -0.466398       -12.6913
 216   2.0000      -0.457735       -12.4556
 217   2.0000      -0.456831       -12.4310
 218   2.0000      -0.454318       -12.3626
 219   2.0000      -0.452566       -12.3149
 220   2.0000      -0.452424       -12.3111
 221   2.0000      -0.450018       -12.2456
 222   2.0000      -0.449245       -12.2246
 223   2.0000      -0.448270       -12.1981
 224   2.0000      -0.447594       -12.1797
 225   2.0000      -0.447474       -12.1764
 226   2.0000      -0.444461       -12.0944
 227   2.0000      -0.443793       -12.0762
 228   2.0000      -0.443414       -12.0659
 229   2.0000      -0.443174       -12.0594
 230   2.0000      -0.442762       -12.0482
 231   2.0000      -0.440796       -11.9947
 232   2.0000      -0.437445       -11.9035
 233   2.0000      -0.436671       -11.8824
 234   2.0000      -0.436172       -11.8688
 235   2.0000      -0.435695       -11.8559
 236   2.0000      -0.430161       -11.7053
 237   2.0000      -0.429620       -11.6906
 238   2.0000      -0.424631       -11.5548
 239   2.0000      -0.423033       -11.5113
 240   2.0000      -0.422870       -11.5069
 241   2.0000      -0.422050       -11.4846
 242   2.0000      -0.421610       -11.4726
 243   2.0000      -0.418741       -11.3945
 244   2.0000      -0.415812       -11.3148
 245   2.0000      -0.414184       -11.2705
 246   2.0000      -0.410463       -11.1693
 247   2.0000      -0.409278       -11.1370
 248   2.0000      -0.398241       -10.8367
 249   2.0000      -0.394643       -10.7388
 250   2.0000      -0.392313       -10.6754
 251   2.0000      -0.386376       -10.5138
 252   2.0000      -0.378231       -10.2922
 253   2.0000      -0.370093       -10.0708
 254   2.0000      -0.364557        -9.9201
 255   2.0000      -0.358666        -9.7598
 256   2.0000      -0.353001        -9.6056
 257   2.0000      -0.351936        -9.5767
 258   2.0000      -0.342251        -9.3131
 259   2.0000      -0.340368        -9.2619
 260   2.0000      -0.339771        -9.2456
 261   2.0000      -0.337242        -9.1768
 262   2.0000      -0.326100        -8.8736
 263   2.0000      -0.320323        -8.7164
 264   2.0000      -0.315704        -8.5907
 265   2.0000      -0.308427        -8.3927
 266   2.0000      -0.299512        -8.1501
 267   2.0000      -0.297288        -8.0896
 268   2.0000      -0.284705        -7.7472
 269   2.0000      -0.270891        -7.3713
 270   0.0000      -0.145165        -3.9501
 271   0.0000      -0.141016        -3.8372
 272   0.0000      -0.098633        -2.6839
 273   0.0000      -0.095269        -2.5924
 274   0.0000      -0.068553        -1.8654

MULLIKEN ATOMIC CHARGES
-----------------------
   0 C :    0.282045
   1 C :   -0.342742
   2 C :   -0.176069
   3 N :    0.152142
   4 C :   -0.146729
   5 N :    0.131794
   6 C :    0.050265
   7 C :   -0.001207
   8 C :   -0.077413
   9 C :    0.095905
  10 C :    0.094231
  11 C :   -0.075438
  12 C :   -0.017478
  13 C :    0.036918
  14 C :    0.036494
  15 C :   -0.015040
  16 C :    0.163167
  17 O :   -0.153748
  18 C :   -0.078339
  19 C :   -0.016565
  20 C :    0.061817
  21 C :    0.014889
  22 C :   -0.106707
  23 C :   -0.124874
  24 N :    0.151123
  25 C :   -0.013017
  26 C :    0.040978
  27 C :    0.066369
  28 C :    0.068945
  29 C :   -0.011111
  30 C :   -0.110029
  31 C :    0.013164
  32 C :   -0.117988
  33 N :    0.154218
  34 C :   -0.010156
  35 C :    0.048574
  36 C :   -0.111840
  37 N :   -0.032232
  38 C :   -0.054520
  39 C :   -0.071026
  40 S :    0.140475
  41 N :   -0.010383
  42 C :   -0.180085
  43 S :    0.142931
  44 C :    0.114240
  45 C :    0.010933
  46 C :   -0.103191
  47 C :   -0.130042
  48 N :    0.157869
  49 C :   -0.018937
  50 C :    0.040923
  51 C :    0.049702
  52 C :    0.080977
  53 C :    0.002324
  54 C :   -0.111436
  55 C :   -0.003866
  56 C :   -0.130379
  57 N :    0.150854
  58 C :   -0.000953
  59 C :   -0.003136
  60 C :   -0.040008
  61 C :   -0.066984
  62 C :    0.337030
  63 C :   -0.350987
  64 C :   -0.179608
  65 N :    0.149297
  66 C :   -0.189524
  67 N :    0.145364
  68 C :    0.048549
  69 C :   -0.000366
  70 C :    0.150651
  71 O :   -0.154094
  72 C :   -0.081591
  73 C :    0.098572
  74 C :    0.096669
  75 C :   -0.086226
  76 C :   -0.018722
  77 C :    0.038481
  78 C :    0.037904
  79 C :   -0.017514
  80 H :   -0.010084
  81 H :   -0.004628
  82 H :   -0.006909
  83 H :   -0.001670
  84 H :   -0.001813
  85 H :   -0.014732
  86 H :    0.005731
  87 H :    0.030440
  88 H :    0.023957
  89 H :    0.000453
  90 H :   -0.022361
  91 H :    0.030079
  92 H :   -0.004002
  93 H :    0.010352
  94 H :    0.010834
  95 H :    0.016741
  96 H :    0.024272
  97 H :    0.018455
  98 H :    0.029234
  99 H :    0.007134
 100 H :   -0.013948
 101 H :   -0.008285
 102 H :   -0.008641
 103 H :   -0.003835
 104 H :   -0.003749
 105 H :   -0.017512
Sum of atomic charges:   -0.0000000

LOEWDIN ATOMIC CHARGES
----------------------
   0 C :    0.079545
   1 C :   -0.140465
   2 C :   -0.018035
   3 N :   -0.045902
   4 C :   -0.007053
   5 N :   -0.053395
   6 C :   -0.028050
   7 C :   -0.055915
   8 C :    0.034964
   9 C :   -0.007357
  10 C :   -0.005479
  11 C :    0.022048
  12 C :   -0.004489
  13 C :   -0.010824
  14 C :   -0.009699
  15 C :   -0.008525
  16 C :    0.089736
  17 O :   -0.135723
  18 C :   -0.082466
  19 C :    0.068669
  20 C :   -0.058147
  21 C :    0.081025
  22 C :   -0.062422
  23 C :   -0.030802
  24 N :   -0.032053
  25 C :    0.033728
  26 C :    0.033810
  27 C :    0.048371
  28 C :   -0.034115
  29 C :    0.021853
  30 C :   -0.038205
  31 C :   -0.001638
  32 C :   -0.027753
  33 N :   -0.026934
  34 C :    0.009615
  35 C :   -0.049044
  36 C :   -0.111234
  37 N :   -0.101101
  38 C :   -0.209357
  39 C :   -0.214470
  40 S :    0.420361
  41 N :   -0.088033
  42 C :   -0.113656
  43 S :    0.433656
  44 C :   -0.060122
  45 C :    0.041272
  46 C :   -0.041908
  47 C :   -0.030988
  48 N :   -0.026066
  49 C :    0.001456
  50 C :    0.038598
  51 C :    0.034773
  52 C :   -0.043423
  53 C :    0.047054
  54 C :   -0.057861
  55 C :    0.005733
  56 C :   -0.032066
  57 N :   -0.033989
  58 C :    0.021509
  59 C :   -0.018560
  60 C :    0.064299
  61 C :   -0.087791
  62 C :    0.074979
  63 C :   -0.137372
  64 C :   -0.017040
  65 N :   -0.051651
  66 C :   -0.019447
  67 N :   -0.052699
  68 C :   -0.025919
  69 C :   -0.056321
  70 C :    0.085779
  71 O :   -0.147938
  72 C :    0.033020
  73 C :   -0.008025
  74 C :   -0.005835
  75 C :    0.020358
  76 C :   -0.004627
  77 C :   -0.012456
  78 C :   -0.011231
  79 C :   -0.009408
  80 H :    0.039956
  81 H :    0.039782
  82 H :    0.035546
  83 H :    0.034452
  84 H :    0.034096
  85 H :    0.032836
  86 H :    0.043711
  87 H :    0.037684
  88 H :    0.042601
  89 H :    0.034966
  90 H :    0.029632
  91 H :    0.039226
  92 H :    0.032033
  93 H :    0.042956
  94 H :    0.038352
  95 H :    0.042048
  96 H :    0.034685
  97 H :    0.036779
  98 H :    0.033681
  99 H :    0.041635
 100 H :    0.038857
 101 H :    0.039261
 102 H :    0.035124
 103 H :    0.033699
 104 H :    0.033281
 105 H :    0.031991

  Mayer bond orders larger than 0.100000
B(  0-C ,  1-C ) :   1.6364 B(  0-C ,  6-C ) :   0.9960 B(  0-C , 18-C ) :   1.0550
B(  1-C ,  2-C ) :   1.1370 B(  1-C ,  4-C ) :   1.1544 B(  2-C ,  3-N ) :   2.9724
B(  4-C ,  5-N ) :   2.8939 B(  6-C ,  7-C ) :   1.2107 B(  6-C , 11-C ) :   1.4488
B(  7-C ,  8-C ) :   1.4723 B(  7-C , 16-C ) :   0.9594 B(  8-C ,  9-C ) :   1.1819
B(  8-C , 80-H ) :   1.0158 B(  9-C , 10-C ) :   1.2492 B(  9-C , 15-C ) :   1.2464
B( 10-C , 11-C ) :   1.2104 B( 10-C , 12-C ) :   1.2408 B( 11-C , 81-H ) :   0.9895
B( 12-C , 13-C ) :   1.4899 B( 12-C , 82-H ) :   0.9968 B( 13-C , 14-C ) :   1.2583
B( 13-C , 83-H ) :   0.9894 B( 14-C , 15-C ) :   1.4890 B( 14-C , 84-H ) :   0.9894
B( 15-C , 85-H ) :   0.9971 B( 16-C , 17-O ) :   2.1667 B( 16-C , 18-C ) :   0.9313
B( 18-C , 19-C ) :   1.5956 B( 19-C , 20-C ) :   1.1677 B( 19-C , 86-H ) :   0.9375
B( 20-C , 21-C ) :   1.5271 B( 20-C , 26-C ) :   1.0348 B( 21-C , 22-C ) :   1.1009
B( 21-C , 87-H ) :   0.9912 B( 22-C , 23-C ) :   1.0563 B( 22-C , 25-C ) :   1.6063
B( 23-C , 24-N ) :   3.0456 B( 25-C , 26-C ) :   1.0946 B( 25-C , 88-H ) :   1.0101
B( 26-C , 27-C ) :   1.4880 B( 27-C , 28-C ) :   1.0267 B( 27-C , 31-C ) :   1.0741
B( 28-C , 29-C ) :   1.6188 B( 28-C , 34-C ) :   1.0667 B( 29-C , 30-C ) :   1.0879
B( 29-C , 89-H ) :   1.0136 B( 30-C , 31-C ) :   1.6479 B( 30-C , 32-C ) :   1.0654
B( 31-C , 90-H ) :   0.9809 B( 32-C , 33-N ) :   3.0356 B( 34-C , 35-C ) :   1.7160
B( 34-C , 91-H ) :   0.9622 B( 35-C , 36-C ) :   1.1168 B( 35-C , 92-H ) :   0.9522
B( 36-C , 37-N ) :   1.6793 B( 36-C , 40-S ) :   1.0772 B( 37-N , 38-C ) :   1.4107
B( 38-C , 39-C ) :   1.2751 B( 38-C , 43-S ) :   1.1040 B( 39-C , 40-S ) :   1.1069
B( 39-C , 41-N ) :   1.3959 B( 41-N , 42-C ) :   1.7418 B( 41-N , 43-S ) :   0.1017
B( 42-C , 43-S ) :   1.0739 B( 42-C , 44-C ) :   1.0352 B( 44-C , 45-C ) :   1.6310
B( 44-C , 50-C ) :   1.0481 B( 45-C , 46-C ) :   1.0793 B( 45-C , 93-H ) :   1.0283
B( 46-C , 47-C ) :   1.0653 B( 46-C , 49-C ) :   1.6284 B( 47-C , 48-N ) :   3.0411
B( 49-C , 50-C ) :   1.0942 B( 49-C , 94-H ) :   1.0126 B( 50-C , 51-C ) :   1.4924
B( 51-C , 52-C ) :   1.0447 B( 51-C , 55-C ) :   1.0854 B( 52-C , 53-C ) :   1.5852
B( 52-C , 58-C ) :   1.0637 B( 53-C , 54-C ) :   1.1040 B( 53-C , 95-H ) :   1.0137
B( 54-C , 55-C ) :   1.6304 B( 54-C , 56-C ) :   1.0584 B( 55-C , 96-H ) :   1.0049
B( 56-C , 57-N ) :   3.0435 B( 58-C , 59-C ) :   1.5904 B( 58-C , 97-H ) :   0.9757
B( 59-C , 60-C ) :   1.1495 B( 59-C , 98-H ) :   0.9816 B( 60-C , 61-C ) :   1.5477
B( 60-C , 99-H ) :   0.9626 B( 61-C , 62-C ) :   1.0586 B( 61-C , 70-C ) :   0.9414
B( 62-C , 63-C ) :   1.6291 B( 62-C , 68-C ) :   0.9880 B( 63-C , 64-C ) :   1.1451
B( 63-C , 66-C ) :   1.1474 B( 64-C , 65-N ) :   2.9615 B( 66-C , 67-N ) :   2.9563
B( 68-C , 69-C ) :   1.2163 B( 68-C , 75-C ) :   1.4472 B( 69-C , 70-C ) :   0.9481
B( 69-C , 72-C ) :   1.4660 B( 70-C , 71-O ) :   2.1939 B( 72-C , 73-C ) :   1.1799
B( 72-C ,100-H ) :   1.0169 B( 73-C , 74-C ) :   1.2580 B( 73-C , 79-C ) :   1.2419
B( 74-C , 75-C ) :   1.2051 B( 74-C , 76-C ) :   1.2402 B( 75-C ,101-H ) :   0.9893
B( 76-C , 77-C ) :   1.4893 B( 76-C ,102-H ) :   0.9973 B( 77-C , 78-C ) :   1.2598
B( 77-C ,103-H ) :   0.9879 B( 78-C , 79-C ) :   1.4902 B( 78-C ,104-H ) :   0.9884
B( 79-C ,105-H ) :   0.9980

-----------------------------------------------------------------------------
         ABSORPTION SPECTRUM VIA TRANSITION ELECTRIC DIPOLE MOMENTS
-----------------------------------------------------------------------------
State   Energy  Wavelength   fosc         T2         TX        TY        TZ
        (cm-1)    (nm)                  (au**2)     (au)      (au)      (au)
-----------------------------------------------------------------------------
   0   10648.7    939.1   0.227807991   7.04282  -0.86874   2.30889   0.97835
   1   11524.0    867.8   0.068822342   1.96609  -0.77159  -0.20374   1.15293
   2   13516.9    739.8   0.020379424   0.49635  -0.49944  -0.21626   0.44738
   3   15996.5    625.1   0.052911849   1.08894  -0.08708   0.93220  -0.46083
   4   21063.4    474.8   0.054738877   0.85554  -0.63688   0.22028   0.63357
   5   21637.6    462.2   0.025103441   0.38194  -0.14156  -0.50974   0.31948
   6   21933.2    455.9   0.108714440   1.63178  -0.54465   1.10602  -0.33444
   7   22082.6    452.8   0.020981347   0.31279  -0.23763  -0.50620  -0.00934
   8   22822.0    438.2   0.203339633   2.93321  -1.21423   0.82536   0.88183
   9   23525.6    425.1   0.729392899  10.20697   2.16745  -1.12993  -2.05727
  10   24596.1    406.6   0.155660868   2.08347   0.67398   1.19310  -0.45358
  11   24859.1    402.3   0.137502435   1.82096   0.77795  -1.09529  -0.12684
  12   24945.8    400.9   0.369207521   4.87247  -0.52724  -1.85815   1.06853
  13   25241.0    396.2   0.001672054   0.02181   0.01740   0.07306   0.12715
  14   25310.7    395.1   0.125742881   1.63552  -0.06702  -1.26288  -0.19014
  15   25583.7    390.9   0.003644606   0.04690  -0.14711   0.15633   0.02860
  16   25682.0    389.4   0.065923988   0.84507   0.29242   0.87041  -0.04399
  17   26045.6    383.9   0.070864513   0.89571  -0.38117   0.74959  -0.43421
  18   26492.0    377.5   0.083083704   1.03247   0.53779  -0.10666  -0.85550
  19   27607.1    362.2   0.179165555   2.13653  -0.94602  -0.03100  -1.11383
  20   27822.5    359.4   0.188005337   2.22459   1.09685  -0.53492  -0.85753
  21   28246.5    354.0   0.094767938   1.10452  -0.04366   0.93334   0.48113
  22   28413.3    351.9   0.164909597   1.91073  -0.36621  -0.87103   1.00892
  23   28587.5    349.8   0.041537550   0.47834  -0.48060  -0.48975   0.08667
  24   28653.0    349.0   0.050558994   0.58090  -0.08058   0.64193  -0.40291
  25   29193.9    342.5   0.155717689   1.75599  -0.14920  -0.25578   1.29163
  26   29717.1    336.5   0.031869624   0.35306  -0.50257  -0.02479   0.31602
  27   29752.1    336.1   0.058464185   0.64692  -0.65342   0.20069   0.42390
  28   29959.1    333.8   0.194445350   2.13670  -0.83386   1.13688   0.38585
  29   30069.1    332.6   0.081451569   0.89177   0.15524  -0.33798   0.86801
  30   30355.3    329.4   0.280753069   3.04484   0.90555  -0.57513  -1.37625
  31   31089.6    321.7   0.007638800   0.08089  -0.20992   0.18830  -0.03695
  32   31273.0    319.8   0.676616353   7.12276   1.88144  -1.57432   1.05093
  33   31473.1    317.7   0.244752228   2.56013  -1.10925   0.44740  -1.06279
  34   31915.9    313.3   0.349642967   3.60656   1.15839  -1.46873  -0.32794
  35   32042.4    312.1   0.115272095   1.18434   0.88637  -0.53876  -0.32929
  36   32242.3    310.2   0.217910008   2.22498   0.05812   1.03049  -1.07689
  37   32714.5    305.7   0.048619110   0.48926   0.63043   0.03654  -0.30081
  38   32913.1    303.8   0.149361278   1.49398  -0.69943  -0.45562   0.89285
  39   33150.8    301.7   0.031105826   0.30890  -0.13886   0.40766  -0.35134
  40   33286.8    300.4   0.047867899   0.47342   0.59134  -0.23624  -0.26064
  41   33349.0    299.9   0.101477605   1.00176  -0.86185   0.33191   0.38575
  42   33410.7    299.3   0.033588014   0.33096   0.37424  -0.29520   0.32211
  43   33915.7    294.8   0.223825028   2.17262   0.54347  -1.26409   0.52851
  44   33917.1    294.8   0.023794032   0.23095   0.08026  -0.34716  -0.32248
  45   34117.4    293.1   0.626775782   6.04801  -0.26888  -0.30282  -2.42570
  46   34481.3    290.0   0.042434305   0.40514  -0.62258   0.04387   0.12494
  47   34760.1    287.7   0.689274333   6.52809   1.52976   0.73317  -1.91060
  48   34931.8    286.3   0.037651658   0.35485  -0.49372   0.15772   0.29361
  49   35246.1    283.7   0.012942649   0.12089   0.10903  -0.27189   0.18729
  50   35287.6    283.4   0.008147612   0.07601  -0.27536  -0.00079   0.01376
  51   35862.1    278.8   0.048035783   0.44097  -0.35633   0.11900  -0.54757
  52   36105.9    277.0   0.000223692   0.00204  -0.04155  -0.00428  -0.01716
  53   36299.8    275.5   0.001970954   0.01788   0.11751  -0.05076   0.03858
  54   36789.1    271.8   0.002260385   0.02023   0.00921  -0.04553  -0.13442
  55   36865.6    271.3   0.000131864   0.00118   0.01035  -0.03098  -0.01053
  56   37334.8    267.8   0.004858961   0.04285   0.03596  -0.07271   0.19044
  57   37434.4    267.1   0.005294510   0.04656   0.17564  -0.08432  -0.09276
  58   37579.6    266.1   0.004283389   0.03752  -0.07952   0.08055   0.15720
  59   37764.4    264.8   0.028269806   0.24644  -0.27748  -0.02158  -0.41107
  60   37874.0    264.0   0.063976768   0.55611  -0.71208   0.17274   0.13860
  61   38461.4    260.0   0.143170628   1.22548   0.92527  -0.22049   0.56633
  62   38597.3    259.1   0.013728637   0.11710  -0.02738  -0.34103  -0.00704
  63   38801.5    257.7   0.030281002   0.25692   0.09590  -0.48952   0.08995
  64   38980.5    256.5   0.028293820   0.23896   0.39458  -0.03392   0.28655
  65   39130.8    255.6   0.007918277   0.06662   0.22912  -0.07039   0.09574
  66   39239.1    254.8   0.013720461   0.11511  -0.33514  -0.02104   0.04851
  67   39439.7    253.6   0.219849689   1.83514   0.93802  -0.63992   0.73875
  68   39587.6    252.6   0.040509316   0.33688  -0.41811   0.33656  -0.22088
  69   39782.4    251.4   0.021470615   0.17768   0.13270  -0.05592   0.39616
  70   40074.5    249.5   0.077088574   0.63328  -0.73501   0.20311   0.22757
  71   40095.2    249.4   0.082089071   0.67401   0.74840  -0.10216  -0.32167

FINAL SINGLE POINT ENERGY     -4020.381444260295

DIPOLE MOMENT
-------------
                                X             Y             Z
Electronic contribution:     12.72566       7.96170     -38.16460
Nuclear contribution   :    -12.88045      -8.76887      41.79823
                        -----------------------------------------
Total Dipole Moment    :     -0.15478      -0.80717       3.63364
                        -----------------------------------------
Magnitude (a.u.)       :      3.72542
Magnitude (Debye)      :      9.46928

Rotational constants in cm-1:     0.000849     0.000227     0.000193
Rotational constants in MHz :    25.466049     6.813828     5.779662

                             ****ORCA TERMINATED NORMALLY****
TOTAL RUN TIME: 0 days 0 hours 11 minutes 57 seconds 571 msec
