                         Program Version 4.2.0 -  RELEASE  -
|  1> # ORCA input file
|  2> # SCF done       -209.433344383161          0.000621810153
|  3> ! CAM-B3LYP def2-SVP def2/J RIJCOSX Grid4 TightSCF
|  4> %maxcore 5000
|  5> %tddft
|  6>     Mode sTDDFT
|  7>     Ethresh 5.0
|  8>     maxcore 5000
|  9> end
| 10>
| 11> %pal
| 12>   nprocs 6
| 13>   end
| 14> * xyz 0 1
| 15>    C        2.84054         2.88634         2.96046
| 16>    C        3.05499         1.66841         3.55257
| 17>    C        3.91503         1.46554         4.65213
| 18>    N        4.60458         1.23460         5.54062
| 19>    C        2.43102         0.45873         3.18038
| 20>    N        1.95474        -0.56302         2.96185
| 21>    C        3.40370         4.15648         3.39990
| 22>    C        2.83559         5.20066         2.61582
| 23>    C        3.16878         6.50984         2.81054
| 24>    C        4.10233         6.84194         3.81823
| 25>    C        4.68344         5.80166         4.59941
| 26>    C        4.32002         4.45441         4.37402
| 27>    C        5.62164         6.14253         5.59503
| 28>    C        5.96853         7.44811         5.81228
| 29>    C        5.39398         8.47201         5.04433
| 30>    C        4.48063         8.17549         4.06912
| 31>    C        1.91192         4.62681         1.61951
| 32>    O        1.33243         5.22641         0.74310
| 33>    C        1.94266         3.15506         1.85221
| 34>    C        1.37422         2.22109         1.03967
| 35>    C        0.36494         2.42060         0.06609
| 36>    C       -0.72039         3.32563         0.01710
| 37>    C       -1.49240         2.96695        -1.11311
| 38>    C       -0.78335         1.87995        -1.71432
| 39>    N        0.28214         1.55267        -0.98427
| 40>    O       -1.08414         1.28792        -2.84702
| 41>    C       -0.24538         0.20601        -3.22168
| 42>    C       -2.59536         3.85683        -1.13902
| 43>    N       -2.50357         4.73753        -0.11122
| 44>    C       -1.41315         4.43892         0.59694
| 45>    O       -1.06583         5.08088         1.67968
| 46>    C       -1.83590         6.23200         1.99288
| 47>    C       -3.70536         3.86822        -2.03356
| 48>    C       -4.40241         5.05557        -2.35787
| 49>    C       -5.55702         5.04934        -3.21203
| 50>    N       -6.24155         6.19609        -3.40975
| 51>    C       -5.79743         7.28848        -2.88776
| 52>    C       -4.58949         7.31201        -2.13534
| 53>    N       -3.93722         6.22916        -1.87985
| 54>    F       -4.09428         8.46115        -1.67787
| 55>    F       -6.50332         8.40219        -3.07800
| 56>    C       -6.03840         3.85880        -3.80371
| 57>    C       -5.30930         2.68492        -3.52947
| 58>    C       -4.17656         2.68291        -2.63195
| 59>    N       -3.69390         1.45317        -2.45396
| 60>    S       -4.51388         0.43523        -3.37746
| 61>    N       -5.54433         1.47132        -4.02823
| 62>    C       -7.22568         3.81832        -4.59258
| 63>    C       -8.15431         2.75191        -4.70181
| 64>    C       -9.16115         3.19449        -5.59162
| 65>    C       -8.75877         4.51663        -5.97340
| 66>    N       -7.62478         4.86165        -5.35978
| 67>    O       -9.38157         5.29455        -6.81615
| 68>    C       -8.85292         6.60491        -6.95925
| 69>    C      -10.09798         2.14179        -5.69452
| 70>    N       -9.69397         1.09379        -4.91839
| 71>    C       -8.57211         1.44710        -4.29238
| 72>    O       -7.98152         0.68615        -3.39818
| 73>    C       -8.56383        -0.59152        -3.19114
| 74>    C      -11.25929         1.99448        -6.49376
| 75>    C      -12.11822         2.97262        -6.89332
| 76>    C      -13.22028         2.80844        -7.82427
| 77>    C      -13.40453         1.75518        -8.68195
| 78>    C      -14.47959         1.65578        -9.58987
| 79>    N      -15.33426         1.51322       -10.34310
| 80>    C      -12.54035         0.64663        -8.80756
| 81>    N      -11.88249        -0.27624        -8.99221
| 82>    C      -14.05038         4.00380        -7.75271
| 83>    C      -13.44900         4.91957        -6.84319
| 84>    C      -12.22524         4.32489        -6.27471
| 85>    O      -11.52039         4.80856        -5.41883
| 86>    C      -14.00231         6.13855        -6.57681
| 87>    C      -15.20602         6.50508        -7.21987
| 88>    C      -15.82002         5.58957        -8.12272
| 89>    C      -15.22345         4.33395        -8.37906
| 90>    C      -17.02740         5.96014        -8.74930
| 91>    C      -17.60089         7.17707        -8.49965
| 92>    C      -16.99394         8.07901        -7.61289
| 93>    C      -15.82188         7.75048        -6.98727
| 94>    H        2.72491         7.28407         2.20235
| 95>    H        4.78296         3.68914         4.97655
| 96>    H        6.06002         5.35039         6.18417
| 97>    H        6.68784         7.69924         6.57731
| 98>    H        5.67945         9.49687         5.22887
| 99>    H        4.03620         8.95994         3.47409
|100>    H        1.71812         1.19480         1.09504
|101>    H       -0.57775        -0.11010        -4.20810
|102>    H       -0.34031        -0.61130        -2.50456
|103>    H        0.79784         0.52575        -3.24764
|104>    H       -1.40973         6.64458         2.90482
|105>    H       -2.88188         5.95731         2.14083
|106>    H       -1.77907         6.95408         1.17699
|107>    H       -9.51410         7.12637        -7.64800
|108>    H       -7.83681         6.55970        -7.35552
|109>    H       -8.82547         7.10604        -5.99070
|110>    H       -8.01974        -1.04465        -2.36514
|111>    H       -8.46916        -1.20007        -4.09228
|112>    H       -9.62333        -0.49099        -2.94942
|113>    H      -11.46968         0.96555        -6.76160
|114>    H      -13.52713         6.81548        -5.88233
|115>    H      -15.71629         3.65976        -9.06143
|116>    H      -17.48995         5.26262        -9.43210
|117>    H      -18.52586         7.45158        -8.98420
|118>    H      -17.46031         9.03502        -7.42733
|119>    H      -15.35090         8.44056        -6.30253
|120> *
|121>
|122>                          ****END OF INPUT****

CARTESIAN COORDINATES (ANGSTROEM)
---------------------------------
  C      2.840540    2.886340    2.960460
  C      3.054990    1.668410    3.552570
  C      3.915030    1.465540    4.652130
  N      4.604580    1.234600    5.540620
  C      2.431020    0.458730    3.180380
  N      1.954740   -0.563020    2.961850
  C      3.403700    4.156480    3.399900
  C      2.835590    5.200660    2.615820
  C      3.168780    6.509840    2.810540
  C      4.102330    6.841940    3.818230
  C      4.683440    5.801660    4.599410
  C      4.320020    4.454410    4.374020
  C      5.621640    6.142530    5.595030
  C      5.968530    7.448110    5.812280
  C      5.393980    8.472010    5.044330
  C      4.480630    8.175490    4.069120
  C      1.911920    4.626810    1.619510
  O      1.332430    5.226410    0.743100
  C      1.942660    3.155060    1.852210
  C      1.374220    2.221090    1.039670
  C      0.364940    2.420600    0.066090
  C     -0.720390    3.325630    0.017100
  C     -1.492400    2.966950   -1.113110
  C     -0.783350    1.879950   -1.714320
  N      0.282140    1.552670   -0.984270
  O     -1.084140    1.287920   -2.847020
  C     -0.245380    0.206010   -3.221680
  C     -2.595360    3.856830   -1.139020
  N     -2.503570    4.737530   -0.111220
  C     -1.413150    4.438920    0.596940
  O     -1.065830    5.080880    1.679680
  C     -1.835900    6.232000    1.992880
  C     -3.705360    3.868220   -2.033560
  C     -4.402410    5.055570   -2.357870
  C     -5.557020    5.049340   -3.212030
  N     -6.241550    6.196090   -3.409750
  C     -5.797430    7.288480   -2.887760
  C     -4.589490    7.312010   -2.135340
  N     -3.937220    6.229160   -1.879850
  F     -4.094280    8.461150   -1.677870
  F     -6.503320    8.402190   -3.078000
  C     -6.038400    3.858800   -3.803710
  C     -5.309300    2.684920   -3.529470
  C     -4.176560    2.682910   -2.631950
  N     -3.693900    1.453170   -2.453960
  S     -4.513880    0.435230   -3.377460
  N     -5.544330    1.471320   -4.028230
  C     -7.225680    3.818320   -4.592580
  C     -8.154310    2.751910   -4.701810
  C     -9.161150    3.194490   -5.591620
  C     -8.758770    4.516630   -5.973400
  N     -7.624780    4.861650   -5.359780
  O     -9.381570    5.294550   -6.816150
  C     -8.852920    6.604910   -6.959250
  C    -10.097980    2.141790   -5.694520
  N     -9.693970    1.093790   -4.918390
  C     -8.572110    1.447100   -4.292380
  O     -7.981520    0.686150   -3.398180
  C     -8.563830   -0.591520   -3.191140
  C    -11.259290    1.994480   -6.493760
  C    -12.118220    2.972620   -6.893320
  C    -13.220280    2.808440   -7.824270
  C    -13.404530    1.755180   -8.681950
  C    -14.479590    1.655780   -9.589870
  N    -15.334260    1.513220  -10.343100
  C    -12.540350    0.646630   -8.807560
  N    -11.882490   -0.276240   -8.992210
  C    -14.050380    4.003800   -7.752710
  C    -13.449000    4.919570   -6.843190
  C    -12.225240    4.324890   -6.274710
  O    -11.520390    4.808560   -5.418830
  C    -14.002310    6.138550   -6.576810
  C    -15.206020    6.505080   -7.219870
  C    -15.820020    5.589570   -8.122720
  C    -15.223450    4.333950   -8.379060
  C    -17.027400    5.960140   -8.749300
  C    -17.600890    7.177070   -8.499650
  C    -16.993940    8.079010   -7.612890
  C    -15.821880    7.750480   -6.987270
  H      2.724910    7.284070    2.202350
  H      4.782960    3.689140    4.976550
  H      6.060020    5.350390    6.184170
  H      6.687840    7.699240    6.577310
  H      5.679450    9.496870    5.228870
  H      4.036200    8.959940    3.474090
  H      1.718120    1.194800    1.095040
  H     -0.577750   -0.110100   -4.208100
  H     -0.340310   -0.611300   -2.504560
  H      0.797840    0.525750   -3.247640
  H     -1.409730    6.644580    2.904820
  H     -2.881880    5.957310    2.140830
  H     -1.779070    6.954080    1.176990
  H     -9.514100    7.126370   -7.648000
  H     -7.836810    6.559700   -7.355520
  H     -8.825470    7.106040   -5.990700
  H     -8.019740   -1.044650   -2.365140
  H     -8.469160   -1.200070   -4.092280
  H     -9.623330   -0.490990   -2.949420
  H    -11.469680    0.965550   -6.761600
  H    -13.527130    6.815480   -5.882330
  H    -15.716290    3.659760   -9.061430
  H    -17.489950    5.262620   -9.432100
  H    -18.525860    7.451580   -8.984200
  H    -17.460310    9.035020   -7.427330
  H    -15.350900    8.440560   -6.302530

 Total Charge           Charge          ....    0
 Multiplicity           Mult            ....    1
 Number of Electrons    NEL             ....  540
 Basis Dimension        Dim             .... 1240

ORBITAL ENERGIES
----------------

  NO   OCC          E(Eh)            E(eV)
   0   2.0000     -89.040114     -2422.9047
   1   2.0000     -24.809621      -675.1041
   2   2.0000     -24.809374      -675.0974
   3   2.0000     -19.277359      -524.5636
   4   2.0000     -19.277098      -524.5565
   5   2.0000     -19.267792      -524.3033
   6   2.0000     -19.266769      -524.2754
   7   2.0000     -19.213616      -522.8291
   8   2.0000     -19.213138      -522.8161
   9   2.0000     -14.445629      -393.0855
  10   2.0000     -14.445211      -393.0742
  11   2.0000     -14.445172      -393.0731
  12   2.0000     -14.445025      -393.0691
  13   2.0000     -14.414958      -392.2509
  14   2.0000     -14.414847      -392.2479
  15   2.0000     -14.413328      -392.2066
  16   2.0000     -14.413324      -392.2065
  17   2.0000     -14.382741      -391.3743
  18   2.0000     -14.382545      -391.3690
  19   2.0000     -14.381708      -391.3462
  20   2.0000     -14.381483      -391.3400
  21   2.0000     -10.425203      -283.6842
  22   2.0000     -10.424846      -283.6745
  23   2.0000     -10.378677      -282.4182
  24   2.0000     -10.378270      -282.4071
  25   2.0000     -10.371672      -282.2275
  26   2.0000     -10.371543      -282.2240
  27   2.0000     -10.364047      -282.0201
  28   2.0000     -10.363264      -281.9988
  29   2.0000     -10.348301      -281.5916
  30   2.0000     -10.347981      -281.5829
  31   2.0000     -10.342950      -281.4460
  32   2.0000     -10.342819      -281.4424
  33   2.0000     -10.338886      -281.3354
  34   2.0000     -10.338715      -281.3307
  35   2.0000     -10.338144      -281.3152
  36   2.0000     -10.337870      -281.3078
  37   2.0000     -10.336639      -281.2742
  38   2.0000     -10.336115      -281.2600
  39   2.0000     -10.324671      -280.9486
  40   2.0000     -10.324501      -280.9439
  41   2.0000     -10.323051      -280.9045
  42   2.0000     -10.322684      -280.8945
  43   2.0000     -10.321150      -280.8528
  44   2.0000     -10.320531      -280.8359
  45   2.0000     -10.317385      -280.7503
  46   2.0000     -10.317287      -280.7477
  47   2.0000     -10.315503      -280.6991
  48   2.0000     -10.315452      -280.6977
  49   2.0000     -10.314976      -280.6848
  50   2.0000     -10.314685      -280.6768
  51   2.0000     -10.310306      -280.5577
  52   2.0000     -10.309699      -280.5412
  53   2.0000     -10.302762      -280.3524
  54   2.0000     -10.302392      -280.3423
  55   2.0000     -10.301983      -280.3312
  56   2.0000     -10.301718      -280.3240
  57   2.0000     -10.297471      -280.2084
  58   2.0000     -10.297276      -280.2031
  59   2.0000     -10.297098      -280.1983
  60   2.0000     -10.296853      -280.1916
  61   2.0000     -10.296117      -280.1716
  62   2.0000     -10.295835      -280.1639
  63   2.0000     -10.295587      -280.1572
  64   2.0000     -10.295344      -280.1506
  65   2.0000     -10.287597      -279.9397
  66   2.0000     -10.287293      -279.9315
  67   2.0000     -10.286633      -279.9135
  68   2.0000     -10.286516      -279.9103
  69   2.0000     -10.286021      -279.8969
  70   2.0000     -10.285881      -279.8930
  71   2.0000     -10.285690      -279.8879
  72   2.0000     -10.285470      -279.8819
  73   2.0000     -10.285194      -279.8744
  74   2.0000     -10.284978      -279.8685
  75   2.0000     -10.258726      -279.1541
  76   2.0000     -10.258318      -279.1430
  77   2.0000     -10.256789      -279.1014
  78   2.0000     -10.256778      -279.1011
  79   2.0000      -8.131349      -221.2653
  80   2.0000      -6.102327      -166.0527
  81   2.0000      -6.094504      -165.8399
  82   2.0000      -6.094419      -165.8376
  83   2.0000      -1.337026       -36.3823
  84   2.0000      -1.322964       -35.9997
  85   2.0000      -1.190962       -32.4077
  86   2.0000      -1.190796       -32.4032
  87   2.0000      -1.181289       -32.1445
  88   2.0000      -1.180906       -32.1341
  89   2.0000      -1.137602       -30.9557
  90   2.0000      -1.128684       -30.7130
  91   2.0000      -1.127983       -30.6940
  92   2.0000      -1.109028       -30.1782
  93   2.0000      -1.056321       -28.7440
  94   2.0000      -1.054930       -28.7061
  95   2.0000      -1.034369       -28.1466
  96   2.0000      -1.026946       -27.9446
  97   2.0000      -1.023503       -27.8509
  98   2.0000      -1.016665       -27.6649
  99   2.0000      -1.016538       -27.6614
 100   2.0000      -0.997178       -27.1346
 101   2.0000      -0.996973       -27.1290
 102   2.0000      -0.992195       -26.9990
 103   2.0000      -0.992145       -26.9976
 104   2.0000      -0.989960       -26.9382
 105   2.0000      -0.970614       -26.4118
 106   2.0000      -0.970365       -26.4050
 107   2.0000      -0.969159       -26.3722
 108   2.0000      -0.924076       -25.1454
 109   2.0000      -0.923800       -25.1379
 110   2.0000      -0.901598       -24.5337
 111   2.0000      -0.901266       -24.5247
 112   2.0000      -0.893807       -24.3217
 113   2.0000      -0.881190       -23.9784
 114   2.0000      -0.880869       -23.9697
 115   2.0000      -0.880664       -23.9641
 116   2.0000      -0.874086       -23.7851
 117   2.0000      -0.873435       -23.7674
 118   2.0000      -0.851479       -23.1699
 119   2.0000      -0.851332       -23.1659
 120   2.0000      -0.846166       -23.0254
 121   2.0000      -0.835413       -22.7327
 122   2.0000      -0.827630       -22.5210
 123   2.0000      -0.827406       -22.5149
 124   2.0000      -0.823819       -22.4172
 125   2.0000      -0.820665       -22.3314
 126   2.0000      -0.810514       -22.0552
 127   2.0000      -0.804431       -21.8897
 128   2.0000      -0.804175       -21.8827
 129   2.0000      -0.794598       -21.6221
 130   2.0000      -0.773309       -21.0428
 131   2.0000      -0.760389       -20.6912
 132   2.0000      -0.760197       -20.6860
 133   2.0000      -0.753138       -20.4939
 134   2.0000      -0.751901       -20.4603
 135   2.0000      -0.741265       -20.1708
 136   2.0000      -0.739601       -20.1256
 137   2.0000      -0.705381       -19.1944
 138   2.0000      -0.703765       -19.1504
 139   2.0000      -0.703386       -19.1401
 140   2.0000      -0.702195       -19.1077
 141   2.0000      -0.696362       -18.9490
 142   2.0000      -0.692901       -18.8548
 143   2.0000      -0.683974       -18.6119
 144   2.0000      -0.679322       -18.4853
 145   2.0000      -0.678445       -18.4614
 146   2.0000      -0.678023       -18.4500
 147   2.0000      -0.674698       -18.3595
 148   2.0000      -0.672060       -18.2877
 149   2.0000      -0.669599       -18.2207
 150   2.0000      -0.664730       -18.0882
 151   2.0000      -0.654375       -17.8064
 152   2.0000      -0.647196       -17.6111
 153   2.0000      -0.646989       -17.6055
 154   2.0000      -0.639993       -17.4151
 155   2.0000      -0.639061       -17.3897
 156   2.0000      -0.630907       -17.1679
 157   2.0000      -0.629948       -17.1417
 158   2.0000      -0.622450       -16.9377
 159   2.0000      -0.619332       -16.8529
 160   2.0000      -0.612380       -16.6637
 161   2.0000      -0.608176       -16.5493
 162   2.0000      -0.606533       -16.5046
 163   2.0000      -0.605699       -16.4819
 164   2.0000      -0.601926       -16.3792
 165   2.0000      -0.591285       -16.0897
 166   2.0000      -0.586457       -15.9583
 167   2.0000      -0.585762       -15.9394
 168   2.0000      -0.581266       -15.8170
 169   2.0000      -0.580060       -15.7842
 170   2.0000      -0.575731       -15.6664
 171   2.0000      -0.573754       -15.6126
 172   2.0000      -0.567856       -15.4522
 173   2.0000      -0.565390       -15.3850
 174   2.0000      -0.564786       -15.3686
 175   2.0000      -0.563112       -15.3231
 176   2.0000      -0.553862       -15.0714
 177   2.0000      -0.552624       -15.0377
 178   2.0000      -0.552455       -15.0331
 179   2.0000      -0.546753       -14.8779
 180   2.0000      -0.546495       -14.8709
 181   2.0000      -0.544053       -14.8044
 182   2.0000      -0.544013       -14.8034
 183   2.0000      -0.543663       -14.7938
 184   2.0000      -0.541971       -14.7478
 185   2.0000      -0.534622       -14.5478
 186   2.0000      -0.533879       -14.5276
 187   2.0000      -0.532960       -14.5026
 188   2.0000      -0.532202       -14.4819
 189   2.0000      -0.520387       -14.1604
 190   2.0000      -0.518326       -14.1044
 191   2.0000      -0.517400       -14.0792
 192   2.0000      -0.516464       -14.0537
 193   2.0000      -0.514275       -13.9941
 194   2.0000      -0.512655       -13.9500
 195   2.0000      -0.512275       -13.9397
 196   2.0000      -0.511226       -13.9112
 197   2.0000      -0.509015       -13.8510
 198   2.0000      -0.505813       -13.7639
 199   2.0000      -0.504806       -13.7365
 200   2.0000      -0.503684       -13.7059
 201   2.0000      -0.500929       -13.6310
 202   2.0000      -0.496487       -13.5101
 203   2.0000      -0.495755       -13.4902
 204   2.0000      -0.494801       -13.4642
 205   2.0000      -0.492590       -13.4041
 206   2.0000      -0.489262       -13.3135
 207   2.0000      -0.486982       -13.2515
 208   2.0000      -0.483417       -13.1545
 209   2.0000      -0.483181       -13.1480
 210   2.0000      -0.478390       -13.0177
 211   2.0000      -0.465567       -12.6687
 212   2.0000      -0.465099       -12.6560
 213   2.0000      -0.464541       -12.6408
 214   2.0000      -0.457931       -12.4609
 215   2.0000      -0.450058       -12.2467
 216   2.0000      -0.448541       -12.2054
 217   2.0000      -0.447525       -12.1778
 218   2.0000      -0.445347       -12.1185
 219   2.0000      -0.443594       -12.0708
 220   2.0000      -0.442544       -12.0422
 221   2.0000      -0.442505       -12.0412
 222   2.0000      -0.442245       -12.0341
 223   2.0000      -0.441069       -12.0021
 224   2.0000      -0.440441       -11.9850
 225   2.0000      -0.440009       -11.9733
 226   2.0000      -0.434191       -11.8149
 227   2.0000      -0.433216       -11.7884
 228   2.0000      -0.432836       -11.7781
 229   2.0000      -0.430571       -11.7164
 230   2.0000      -0.428313       -11.6550
 231   2.0000      -0.426431       -11.6038
 232   2.0000      -0.425337       -11.5740
 233   2.0000      -0.425146       -11.5688
 234   2.0000      -0.422467       -11.4959
 235   2.0000      -0.419885       -11.4256
 236   2.0000      -0.417580       -11.3629
 237   2.0000      -0.416835       -11.3427
 238   2.0000      -0.414352       -11.2751
 239   2.0000      -0.411327       -11.1928
 240   2.0000      -0.410465       -11.1693
 241   2.0000      -0.408970       -11.1286
 242   2.0000      -0.406313       -11.0563
 243   2.0000      -0.405982       -11.0473
 244   2.0000      -0.398017       -10.8306
 245   2.0000      -0.391776       -10.6608
 246   2.0000      -0.390089       -10.6149
 247   2.0000      -0.389497       -10.5988
 248   2.0000      -0.384722       -10.4688
 249   2.0000      -0.374285       -10.1848
 250   2.0000      -0.373746       -10.1702
 251   2.0000      -0.367976       -10.0131
 252   2.0000      -0.364629        -9.9221
 253   2.0000      -0.356530        -9.7017
 254   2.0000      -0.339210        -9.2304
 255   2.0000      -0.338747        -9.2178
 256   2.0000      -0.338064        -9.1992
 257   2.0000      -0.333256        -9.0684
 258   2.0000      -0.332870        -9.0578
 259   2.0000      -0.323227        -8.7954
 260   2.0000      -0.320439        -8.7196
 261   2.0000      -0.314432        -8.5561
 262   2.0000      -0.314077        -8.5465
 263   2.0000      -0.309542        -8.4231
 264   2.0000      -0.294091        -8.0026
 265   2.0000      -0.293824        -7.9954
 266   2.0000      -0.288061        -7.8386
 267   2.0000      -0.287980        -7.8363
 268   2.0000      -0.270725        -7.3668
 269   2.0000      -0.250917        -6.8278
 270   0.0000      -0.134995        -3.6734
 271   0.0000      -0.102975        -2.8021
 272   0.0000      -0.086165        -2.3447
 273   0.0000      -0.060423        -1.6442
 274   0.0000      -0.059402        -1.6164

MULLIKEN ATOMIC CHARGES
-----------------------
   0 C :    0.307083
   1 C :   -0.338479
   2 C :   -0.183176
   3 N :    0.148232
   4 C :   -0.200194
   5 N :    0.170049
   6 C :    0.050000
   7 C :   -0.008577
   8 C :   -0.082609
   9 C :    0.096704
  10 C :    0.095336
  11 C :   -0.081862
  12 C :   -0.016802
  13 C :    0.034115
  14 C :    0.036331
  15 C :   -0.017565
  16 C :    0.150480
  17 O :   -0.133229
  18 C :   -0.068805
  19 C :   -0.036386
  20 C :    0.030071
  21 C :    0.050171
  22 C :    0.046913
  23 C :    0.065853
  24 N :   -0.187879
  25 O :   -0.246200
  26 C :    0.200555
  27 C :   -0.100923
  28 N :   -0.157726
  29 C :    0.100947
  30 O :   -0.234473
  31 C :    0.201541
  32 C :    0.142489
  33 C :   -0.082206
  34 C :   -0.072088
  35 N :    0.072365
  36 C :    0.126206
  37 C :    0.125189
  38 N :    0.075037
  39 F :   -0.143383
  40 F :   -0.143344
  41 C :    0.144242
  42 C :   -0.022187
  43 C :   -0.010725
  44 N :   -0.245237
  45 S :    0.536449
  46 N :   -0.241957
  47 C :   -0.095761
  48 C :    0.039688
  49 C :    0.049921
  50 C :    0.105243
  51 N :   -0.154710
  52 O :   -0.235151
  53 C :    0.200322
  54 C :    0.034371
  55 N :   -0.190332
  56 C :    0.065346
  57 O :   -0.251919
  58 C :    0.197669
  59 C :   -0.037895
  60 C :   -0.071252
  61 C :    0.304865
  62 C :   -0.340589
  63 C :   -0.182546
  64 N :    0.151125
  65 C :   -0.199727
  66 N :    0.169974
  67 C :    0.054501
  68 C :   -0.009825
  69 C :    0.154634
  70 O :   -0.136190
  71 C :   -0.086342
  72 C :    0.101746
  73 C :    0.097954
  74 C :   -0.088763
  75 C :   -0.021275
  76 C :    0.036998
  77 C :    0.038280
  78 C :   -0.019941
  79 H :   -0.016220
  80 H :   -0.009402
  81 H :   -0.008828
  82 H :   -0.004517
  83 H :   -0.006019
  84 H :   -0.018896
  85 H :    0.033682
  86 H :    0.027911
  87 H :    0.033056
  88 H :    0.036842
  89 H :    0.032673
  90 H :    0.034967
  91 H :    0.044770
  92 H :    0.034050
  93 H :    0.034383
  94 H :    0.045951
  95 H :    0.028841
  96 H :    0.034062
  97 H :    0.037995
  98 H :    0.035029
  99 H :   -0.015227
 100 H :   -0.007699
 101 H :   -0.008668
 102 H :   -0.005495
 103 H :   -0.006030
 104 H :   -0.017973
Sum of atomic charges:   -0.0000000

LOEWDIN ATOMIC CHARGES
----------------------
   0 C :    0.071928
   1 C :   -0.129857
   2 C :   -0.016113
   3 N :   -0.051486
   4 C :   -0.024742
   5 N :   -0.042925
   6 C :   -0.026256
   7 C :   -0.053202
   8 C :    0.028420
   9 C :   -0.008086
  10 C :   -0.006798
  11 C :    0.018963
  12 C :   -0.005111
  13 C :   -0.014359
  14 C :   -0.012473
  15 C :   -0.010818
  16 C :    0.078835
  17 O :   -0.125768
  18 C :   -0.065890
  19 C :    0.063465
  20 C :    0.052469
  21 C :   -0.105335
  22 C :   -0.122812
  23 C :    0.102410
  24 N :   -0.178780
  25 O :   -0.042721
  26 C :    0.084475
  27 C :    0.086432
  28 N :   -0.168433
  29 C :    0.115849
  30 O :   -0.022604
  31 C :    0.089082
  32 C :   -0.023213
  33 C :    0.007039
  34 C :    0.006369
  35 N :   -0.018830
  36 C :    0.056850
  37 C :    0.056496
  38 N :   -0.017911
  39 F :   -0.032704
  40 F :   -0.032642
  41 C :   -0.022272
  42 C :   -0.040817
  43 C :   -0.040165
  44 N :   -0.265624
  45 S :    0.680086
  46 N :   -0.264455
  47 C :    0.087198
  48 C :   -0.122560
  49 C :   -0.106086
  50 C :    0.117991
  51 N :   -0.168170
  52 O :   -0.022601
  53 C :    0.089080
  54 C :    0.052336
  55 N :   -0.179148
  56 C :    0.102022
  57 O :   -0.046040
  58 C :    0.083758
  59 C :    0.063870
  60 C :   -0.066186
  61 C :    0.072027
  62 C :   -0.129979
  63 C :   -0.016228
  64 N :   -0.051108
  65 C :   -0.024802
  66 N :   -0.042886
  67 C :   -0.026089
  68 C :   -0.053436
  69 C :    0.080158
  70 O :   -0.126052
  71 C :    0.028764
  72 C :   -0.007968
  73 C :   -0.006509
  74 C :    0.018656
  75 C :   -0.005422
  76 C :   -0.013863
  77 C :   -0.012329
  78 C :   -0.010833
  79 H :    0.037510
  80 H :    0.038664
  81 H :    0.034818
  82 H :    0.033142
  83 H :    0.032447
  84 H :    0.031243
  85 H :    0.053678
  86 H :    0.021958
  87 H :    0.025506
  88 H :    0.026024
  89 H :    0.024620
  90 H :    0.026290
  91 H :    0.031326
  92 H :    0.024973
  93 H :    0.026655
  94 H :    0.031523
  95 H :    0.021908
  96 H :    0.025795
  97 H :    0.026230
  98 H :    0.053791
  99 H :    0.037765
 100 H :    0.038834
 101 H :    0.034770
 102 H :    0.033012
 103 H :    0.032527
 104 H :    0.031454

  Mayer bond orders larger than 0.100000
B(  0-C ,  1-C ) :   1.6439 B(  0-C ,  6-C ) :   0.9918 B(  0-C , 18-C ) :   1.0548
B(  1-C ,  2-C ) :   1.1451 B(  1-C ,  4-C ) :   1.1399 B(  2-C ,  3-N ) :   2.9645
B(  4-C ,  5-N ) :   2.9929 B(  6-C ,  7-C ) :   1.2136 B(  6-C , 11-C ) :   1.4473
B(  7-C ,  8-C ) :   1.4751 B(  7-C , 16-C ) :   0.9365 B(  8-C ,  9-C ) :   1.1809
B(  8-C , 79-H ) :   1.0152 B(  9-C , 10-C ) :   1.2556 B(  9-C , 15-C ) :   1.2441
B( 10-C , 11-C ) :   1.2096 B( 10-C , 12-C ) :   1.2380 B( 11-C , 80-H ) :   0.9894
B( 12-C , 13-C ) :   1.4906 B( 12-C , 81-H ) :   0.9972 B( 13-C , 14-C ) :   1.2578
B( 13-C , 82-H ) :   0.9891 B( 14-C , 15-C ) :   1.4911 B( 14-C , 83-H ) :   0.9892
B( 15-C , 84-H ) :   0.9972 B( 16-C , 17-O ) :   2.2355 B( 16-C , 18-C ) :   0.9326
B( 18-C , 19-C ) :   1.5943 B( 19-C , 20-C ) :   1.1481 B( 19-C , 85-H ) :   0.9367
B( 20-C , 21-C ) :   1.1871 B( 20-C , 24-N ) :   1.3951 B( 21-C , 22-C ) :   1.2917
B( 21-C , 29-C ) :   1.0545 B( 22-C , 23-C ) :   1.0776 B( 22-C , 27-C ) :   1.1845
B( 23-C , 24-N ) :   1.4708 B( 23-C , 25-O ) :   1.3075 B( 25-O , 26-C ) :   0.9179
B( 26-C , 86-H ) :   0.9787 B( 26-C , 87-H ) :   0.9744 B( 26-C , 88-H ) :   0.9693
B( 27-C , 28-N ) :   1.4846 B( 27-C , 32-C ) :   1.0401 B( 28-N , 29-C ) :   1.4361
B( 29-C , 30-O ) :   1.3246 B( 30-O , 31-C ) :   0.9053 B( 31-C , 89-H ) :   0.9786
B( 31-C , 90-H ) :   0.9710 B( 31-C , 91-H ) :   0.9731 B( 32-C , 33-C ) :   1.2999
B( 32-C , 41-C ) :   0.1538 B( 32-C , 43-C ) :   1.2465 B( 33-C , 34-C ) :   1.1038
B( 33-C , 38-N ) :   1.4613 B( 34-C , 35-N ) :   1.4630 B( 34-C , 41-C ) :   1.3021
B( 35-N , 36-C ) :   1.7004 B( 36-C , 37-C ) :   1.0870 B( 36-C , 40-F ) :   1.1697
B( 37-C , 38-N ) :   1.6986 B( 37-C , 39-F ) :   1.1701 B( 41-C , 42-C ) :   1.2431
B( 41-C , 47-C ) :   1.0290 B( 42-C , 43-C ) :   1.0841 B( 42-C , 46-N ) :   1.5316
B( 43-C , 44-N ) :   1.5281 B( 44-N , 45-S ) :   1.2902 B( 44-N , 46-N ) :   0.1521
B( 45-S , 46-N ) :   1.2903 B( 47-C , 48-C ) :   1.1900 B( 47-C , 51-N ) :   1.4893
B( 48-C , 49-C ) :   1.2922 B( 48-C , 56-C ) :   1.0798 B( 49-C , 50-C ) :   1.0517
B( 49-C , 54-C ) :   1.1936 B( 50-C , 51-N ) :   1.4300 B( 50-C , 52-O ) :   1.3283
B( 52-O , 53-C ) :   0.9047 B( 53-C , 92-H ) :   0.9784 B( 53-C , 93-H ) :   0.9726
B( 53-C , 94-H ) :   0.9719 B( 54-C , 55-N ) :   1.3920 B( 54-C , 59-C ) :   1.1435
B( 55-N , 56-C ) :   1.4722 B( 56-C , 57-O ) :   1.2997 B( 57-O , 58-C ) :   0.9170
B( 58-C , 95-H ) :   0.9786 B( 58-C , 96-H ) :   0.9747 B( 58-C , 97-H ) :   0.9690
B( 59-C , 60-C ) :   1.6049 B( 59-C , 98-H ) :   0.9359 B( 60-C , 61-C ) :   1.0511
B( 60-C , 69-C ) :   0.9316 B( 61-C , 62-C ) :   1.6483 B( 61-C , 67-C ) :   0.9916
B( 62-C , 63-C ) :   1.1448 B( 62-C , 65-C ) :   1.1397 B( 63-C , 64-N ) :   2.9665
B( 65-C , 66-N ) :   2.9955 B( 67-C , 68-C ) :   1.2131 B( 67-C , 74-C ) :   1.4458
B( 68-C , 69-C ) :   0.9397 B( 68-C , 71-C ) :   1.4735 B( 69-C , 70-O ) :   2.2292
B( 71-C , 72-C ) :   1.1796 B( 71-C , 99-H ) :   1.0158 B( 72-C , 73-C ) :   1.2550
B( 72-C , 78-C ) :   1.2426 B( 73-C , 74-C ) :   1.2070 B( 73-C , 75-C ) :   1.2396
B( 74-C ,100-H ) :   0.9903 B( 75-C , 76-C ) :   1.4894 B( 75-C ,101-H ) :   0.9974
B( 76-C , 77-C ) :   1.2590 B( 76-C ,102-H ) :   0.9889 B( 77-C , 78-C ) :   1.4887
B( 77-C ,103-H ) :   0.9890 B( 78-C ,104-H ) :   0.9980

-----------------------------------------------------------------------------
         ABSORPTION SPECTRUM VIA TRANSITION ELECTRIC DIPOLE MOMENTS
-----------------------------------------------------------------------------
State   Energy  Wavelength   fosc         T2         TX        TY        TZ
        (cm-1)    (nm)                  (au**2)     (au)      (au)      (au)
-----------------------------------------------------------------------------
   0   10379.7    963.4   0.999739926  31.70875  -4.96951  -0.10987  -2.64587
   1   12802.2    781.1   0.000981811   0.02525  -0.11790  -0.05215  -0.09289
   2   12867.9    777.1   0.029617014   0.75772  -0.77486  -0.00842  -0.39654
   3   14253.2    701.6   0.060960588   1.40803  -0.01400  -1.18279   0.09401
   4   17732.1    563.9   0.023026985   0.42752  -0.06292  -0.61752   0.20550
   5   18929.5    528.3   0.225341038   3.91901  -1.64214  -0.00341  -1.10560
   6   19450.7    514.1   0.058601478   0.99186   0.91651   0.01188   0.38951
   7   20089.0    497.8   0.000321476   0.00527  -0.00506   0.07134   0.01239
   8   21658.8    461.7   0.178557178   2.71405  -1.11805   0.05229  -1.20884
   9   22239.4    449.7   0.003551936   0.05258   0.02895   0.19495  -0.11721
  10   22253.9    449.4   0.010593648   0.15672   0.11072   0.37978   0.01486
  11   22282.9    448.8   0.000795909   0.01176  -0.00390  -0.10609  -0.02208
  12   22369.6    447.0   0.010141222   0.14925  -0.13264   0.30252   0.20033
  13   23489.7    425.7   0.002247922   0.03151  -0.02005   0.12537   0.12404
  14   23729.9    421.4   0.012322421   0.17095  -0.08356  -0.11145   0.38929
  15   24850.6    402.4   0.000772517   0.01023   0.06717   0.00680  -0.07534
  16   25383.1    394.0   0.016403342   0.21275   0.02111  -0.46041   0.01808
  17   25816.9    387.3   0.014761175   0.18823   0.31971  -0.16224   0.24433
  18   25996.5    384.7   0.033890671   0.42918   0.12914   0.62867   0.13145
  19   26323.3    379.9   0.093265068   1.16642   0.00865  -0.07114   1.07763
  20   26447.5    378.1   0.009927852   0.12358   0.09246   0.31034   0.13682
  21   26481.2    377.6   0.018075461   0.22471   0.00355  -0.43396   0.19074
  22   27471.5    364.0   0.118832201   1.42406   0.10136  -1.17978  -0.14799
  23   28393.7    352.2   0.012894739   0.14951   0.04671  -0.38240  -0.03317
  24   28739.0    348.0   0.048597936   0.55670  -0.05343   0.68291   0.29577
  25   29257.6    341.8   0.127568339   1.43542  -1.18462  -0.13923  -0.11274
  26   29284.7    341.5   0.005038638   0.05664  -0.09291   0.17563  -0.13102
  27   29668.2    337.1   0.004853965   0.05386   0.17621  -0.02230   0.14938
  28   29680.7    336.9   0.001343379   0.01490   0.06459  -0.10020   0.02625
  29   29912.3    334.3   0.043431976   0.47801   0.64988   0.20259   0.12094
  30   29939.6    334.0   0.138636578   1.52443   0.21442  -1.19901  -0.20209
  31   30224.7    330.9   0.170310093   1.85505  -0.82939   0.03708  -1.07972
  32   30360.2    329.4   0.036222266   0.39278  -0.35947   0.50377  -0.09888
  33   30410.9    328.8   0.131028747   1.41845   0.83475   0.21671   0.82139
  34   30649.0    326.3   0.040458383   0.43458  -0.00509  -0.56965  -0.33174
  35   30761.0    325.1   0.105696589   1.13119   0.39449  -0.97751   0.14158
  36   30871.7    323.9   0.042429823   0.45247  -0.29337   0.09410  -0.59795
  37   31488.1    317.6   0.108707804   1.13655  -0.17748   1.01233   0.28327
  38   32042.4    312.1   0.328854017   3.37873   1.41138  -0.02392   1.17735
  39   32192.7    310.6   0.230460409   2.35676  -0.31485   1.46677   0.32591
  40   32507.2    307.6   0.010226838   0.10357   0.19528   0.08582  -0.24098
  41   32799.0    304.9   0.036417302   0.36553   0.49358   0.00585   0.34911
  42   33254.0    300.7   0.018772160   0.18584  -0.27371   0.30538  -0.13291
  43   33429.6    299.1   0.035134639   0.34600   0.00894   0.58046   0.09484
  44   33595.1    297.7   0.033592171   0.32918   0.01292  -0.00563   0.57357
  45   33802.1    295.8   0.204816308   1.99479  -0.25515   1.35583   0.30233
  46   33839.5    295.5   0.045992754   0.44745   0.45981   0.47697   0.09230
  47   34402.8    290.7   0.067046173   0.64159   0.17702  -0.77839  -0.06608
  48   34593.4    289.1   0.053399164   0.50818   0.42393   0.01763   0.57285
  49   34839.3    287.0   0.056676434   0.53556  -0.70077  -0.10375   0.18362
  50   34905.5    286.5   0.544744922   5.13778  -0.20715   2.22612   0.37315
  51   35233.8    283.8   0.035371478   0.33050  -0.08454  -0.49822  -0.27409
  52   35384.2    282.6   0.042808699   0.39829  -0.35586   0.13497  -0.50343
  53   35905.3    278.5   0.009912030   0.09088   0.26794   0.12729   0.05376
  54   36254.4    275.8   0.019346417   0.17568   0.21061  -0.22929   0.28061
  55   36368.8    275.0   0.077393186   0.70057   0.12292  -0.81294  -0.15679
  56   36620.1    273.1   0.053199224   0.47826   0.42548   0.11655   0.53258
  57   36678.0    272.6   0.003349247   0.03006   0.04753   0.03395   0.16325
  58   36749.3    272.1   0.000012068   0.00011  -0.00357  -0.00965  -0.00150
  59   37004.0    270.2   0.002310608   0.02056   0.02620   0.12941   0.05589
  60   37354.4    267.7   0.305649449   2.69375  -0.12002   1.60766   0.30783
  61   37421.4    267.2   0.031141714   0.27397  -0.51941   0.06424   0.00689
  62   37590.5    266.0   0.035441051   0.31039  -0.03759  -0.53247  -0.15953
  63   37654.8    265.6   0.011203380   0.09795  -0.23579   0.13501  -0.15532
  64   37828.1    264.4   0.027810407   0.24203  -0.22203   0.43704  -0.04151
  65   37991.7    263.2   0.136863745   1.18597  -0.78652  -0.04224  -0.75205
  66   38371.6    260.6   0.029169789   0.25026  -0.30538   0.02120  -0.39568
  67   38426.5    260.2   0.140048258   1.19984  -0.90122  -0.01905  -0.62232
  68   38552.3    259.4   0.025698953   0.21945   0.18097  -0.43140  -0.02448
  69   38924.5    256.9   0.125751078   1.06357   0.07403  -1.01794  -0.14796
  70   39483.7    253.3   0.211850168   1.76639  -0.04101   1.32262   0.12399
  71   39585.1    252.6   0.036320917   0.30207  -0.32914   0.02934   0.43917
  72   39633.0    252.3   0.228951216   1.90179  -0.63927   0.07202  -1.21981
  73   39770.2    251.4   0.126407549   1.04638   0.08085   1.00232   0.18760
  74   39891.7    250.7   0.051962663   0.42883  -0.35107   0.04234  -0.55117
  75   40041.0    249.7   0.062169210   0.51115   0.52275   0.02724   0.48696
  76   40093.7    249.4   0.008070897   0.06627   0.21624  -0.09135   0.10567
  77   40207.7    248.7   0.032263362   0.26417  -0.28185   0.42873   0.03029
  78   40287.9    248.2   0.139782929   1.14224   0.06433  -1.03865  -0.24352

FINAL SINGLE POINT ENERGY     -3927.396914715145

DIPOLE MOMENT
-------------
                                X             Y             Z
Electronic contribution:      2.55938      -7.12914      -5.73657
Nuclear contribution   :     -2.81478      10.96126       6.31266
                        -----------------------------------------
Total Dipole Moment    :     -0.25540       3.83212       0.57609
                        -----------------------------------------
Magnitude (a.u.)       :      3.88358
Magnitude (Debye)      :      9.87128

Rotational constants in cm-1:     0.002173     0.000256     0.000235
Rotational constants in MHz :    65.150458     7.682824     7.055306

                             ****ORCA TERMINATED NORMALLY****
TOTAL RUN TIME: 0 days 0 hours 12 minutes 22 seconds 569 msec
