                         Program Version 4.2.0 -  RELEASE  -
|  1> # ORCA input file
|  2> # SCF done       -200.992700061785          0.000386091227
|  3> ! CAM-B3LYP def2-SVP def2/J RIJCOSX Grid4 TightSCF
|  4> %maxcore 5000
|  5> %tddft
|  6>     Mode sTDDFT
|  7>     Ethresh 5.0
|  8>     maxcore 5000
|  9> end
| 10>
| 11> %pal
| 12>   nprocs 6
| 13>   end
| 14> * xyz 0 1
| 15>    C        1.42001         1.20904         1.28062
| 16>    C        0.49705         1.34306         0.27579
| 17>    C        0.51641         0.58164        -0.91200
| 18>    N        0.48220        -0.01521        -1.89118
| 19>    C       -0.63208         2.17994         0.35411
| 20>    N       -1.57546         2.83377         0.39059
| 21>    C        2.45697         0.18277         1.32805
| 22>    C        2.86557         0.01126         2.68328
| 23>    C        3.80156        -0.91700         3.03838
| 24>    C        4.39182        -1.71813         2.03516
| 25>    C        4.00538        -1.53403         0.67570
| 26>    C        3.02608        -0.57141         0.33795
| 27>    C        4.61228        -2.33058        -0.31627
| 28>    C        5.55219        -3.26778         0.01666
| 29>    C        5.92951        -3.45066         1.35541
| 30>    C        5.36159        -2.69253         2.34314
| 31>    C        2.14863         0.97617         3.53184
| 32>    O        2.18948         1.09690         4.73453
| 33>    C        1.38541         1.84256         2.58248
| 34>    C        0.90378         3.02953         3.04108
| 35>    C        0.48801         4.16848         2.31592
| 36>    C        0.75422         4.51876         0.99985
| 37>    C        0.18805         5.73974         0.65683
| 38>    C       -0.51100         6.33967         1.72295
| 39>    S       -0.45327         5.40440         3.14240
| 40>    C       -1.06371         7.56189         1.26652
| 41>    C       -0.72179         7.73030        -0.09172
| 42>    C        0.06839         6.58653        -0.51911
| 43>    C        0.57270         6.32880        -1.75930
| 44>    C        0.39749         7.20590        -2.85091
| 45>    N        0.26773         7.91421        -3.74248
| 46>    C        1.31110         5.15448        -2.01987
| 47>    N        1.91515         4.19941        -2.21421
| 48>    C       -1.22601         8.91143        -0.62849
| 49>    C       -1.93743         9.63446         0.31404
| 50>    S       -1.99447         8.85310         1.87795
| 51>    C       -2.58266        10.89194         0.11977
| 52>    N       -2.54615        11.45466        -1.08107
| 53>    N       -3.10686        12.59319        -1.33595
| 54>    C       -3.76168        13.30902        -0.43251
| 55>    C       -3.87147        12.81889         0.90060
| 56>    C       -3.25919        11.55858         1.18006
| 57>    N       -3.41928        11.18841         2.44628
| 58>    S       -4.26506        12.32634         3.21138
| 59>    N       -4.46294        13.33333         1.97489
| 60>    C       -4.32904        14.54749        -0.85290
| 61>    C       -5.02238        15.46537        -0.08557
| 62>    C       -5.42519        16.56058        -0.84505
| 63>    C       -5.03160        16.45940        -2.19550
| 64>    S       -4.16485        15.02563        -2.52650
| 65>    C       -5.49160        17.61204        -2.87967
| 66>    C       -6.17273        18.44340        -1.96124
| 67>    C       -6.14803        17.80740        -0.65287
| 68>    C       -6.68026        18.27077         0.51339
| 69>    C       -7.36375        19.50178         0.62586
| 70>    N       -7.92191        20.49286         0.76525
| 71>    C       -6.58160        17.54206         1.71907
| 72>    N       -6.50670        16.95905         2.70352
| 73>    C       -6.66923        19.60449        -2.53723
| 74>    C       -6.38203        19.67950        -3.89487
| 75>    S       -5.46641        18.26572        -4.44582
| 76>    C       -6.66437        20.63787        -4.89086
| 77>    C       -7.35533        21.81715        -4.85499
| 78>    C       -7.53412        22.68195        -6.01480
| 79>    C       -6.97262        22.53650        -7.25753
| 80>    C       -7.19282        23.42549        -8.33207
| 81>    N       -7.32356        24.09981        -9.25190
| 82>    C       -6.08811        21.51811        -7.67153
| 83>    N       -5.35860        20.73998        -8.09902
| 84>    C       -8.40759        23.78228        -5.62340
| 85>    C       -8.72750        23.63681        -4.24510
| 86>    C       -8.08175        22.42831        -3.71145
| 87>    O       -8.15393        22.03523        -2.56606
| 88>    C       -9.52549        24.52669        -3.58558
| 89>    C      -10.05688        25.62758        -4.29280
| 90>    C       -9.74893        25.77891        -5.67587
| 91>    C       -8.91680        24.84113        -6.32921
| 92>    C      -10.28783        26.87872        -6.37436
| 93>    C      -11.09057        27.78641        -5.73870
| 94>    C      -11.39156        27.63698        -4.37651
| 95>    C      -10.88575        26.58043        -3.66880
| 96>    H        4.09033        -1.03784         4.07189
| 97>    H        2.75977        -0.44380        -0.69966
| 98>    H        4.31609        -2.18848        -1.34508
| 99>    H        6.01010        -3.87420        -0.75030
|100>    H        6.67278        -4.19457         1.60024
|101>    H        5.64852        -2.82831         3.37566
|102>    H        0.90412         3.12895         4.12281
|103>    H        1.36947         3.92548         0.34858
|104>    H       -1.10389         9.26130        -1.63712
|105>    H       -5.20781        15.31686         0.96279
|106>    H       -7.21878        20.37349        -2.02311
|107>    H       -6.25370        20.36152        -5.85492
|108>    H       -9.74712        24.38938        -2.53764
|109>    H       -8.70667        24.98703        -7.37647
|110>    H      -10.05270        26.99030        -7.42270
|111>    H      -11.49823        28.62543        -6.28240
|112>    H      -12.02628        28.36311        -3.89102
|113>    H      -11.11375        26.45947        -2.61994
|114> *
|115>
|116>                          ****END OF INPUT****

CARTESIAN COORDINATES (ANGSTROEM)
---------------------------------
  C      1.420010    1.209040    1.280620
  C      0.497050    1.343060    0.275790
  C      0.516410    0.581640   -0.912000
  N      0.482200   -0.015210   -1.891180
  C     -0.632080    2.179940    0.354110
  N     -1.575460    2.833770    0.390590
  C      2.456970    0.182770    1.328050
  C      2.865570    0.011260    2.683280
  C      3.801560   -0.917000    3.038380
  C      4.391820   -1.718130    2.035160
  C      4.005380   -1.534030    0.675700
  C      3.026080   -0.571410    0.337950
  C      4.612280   -2.330580   -0.316270
  C      5.552190   -3.267780    0.016660
  C      5.929510   -3.450660    1.355410
  C      5.361590   -2.692530    2.343140
  C      2.148630    0.976170    3.531840
  O      2.189480    1.096900    4.734530
  C      1.385410    1.842560    2.582480
  C      0.903780    3.029530    3.041080
  C      0.488010    4.168480    2.315920
  C      0.754220    4.518760    0.999850
  C      0.188050    5.739740    0.656830
  C     -0.511000    6.339670    1.722950
  S     -0.453270    5.404400    3.142400
  C     -1.063710    7.561890    1.266520
  C     -0.721790    7.730300   -0.091720
  C      0.068390    6.586530   -0.519110
  C      0.572700    6.328800   -1.759300
  C      0.397490    7.205900   -2.850910
  N      0.267730    7.914210   -3.742480
  C      1.311100    5.154480   -2.019870
  N      1.915150    4.199410   -2.214210
  C     -1.226010    8.911430   -0.628490
  C     -1.937430    9.634460    0.314040
  S     -1.994470    8.853100    1.877950
  C     -2.582660   10.891940    0.119770
  N     -2.546150   11.454660   -1.081070
  N     -3.106860   12.593190   -1.335950
  C     -3.761680   13.309020   -0.432510
  C     -3.871470   12.818890    0.900600
  C     -3.259190   11.558580    1.180060
  N     -3.419280   11.188410    2.446280
  S     -4.265060   12.326340    3.211380
  N     -4.462940   13.333330    1.974890
  C     -4.329040   14.547490   -0.852900
  C     -5.022380   15.465370   -0.085570
  C     -5.425190   16.560580   -0.845050
  C     -5.031600   16.459400   -2.195500
  S     -4.164850   15.025630   -2.526500
  C     -5.491600   17.612040   -2.879670
  C     -6.172730   18.443400   -1.961240
  C     -6.148030   17.807400   -0.652870
  C     -6.680260   18.270770    0.513390
  C     -7.363750   19.501780    0.625860
  N     -7.921910   20.492860    0.765250
  C     -6.581600   17.542060    1.719070
  N     -6.506700   16.959050    2.703520
  C     -6.669230   19.604490   -2.537230
  C     -6.382030   19.679500   -3.894870
  S     -5.466410   18.265720   -4.445820
  C     -6.664370   20.637870   -4.890860
  C     -7.355330   21.817150   -4.854990
  C     -7.534120   22.681950   -6.014800
  C     -6.972620   22.536500   -7.257530
  C     -7.192820   23.425490   -8.332070
  N     -7.323560   24.099810   -9.251900
  C     -6.088110   21.518110   -7.671530
  N     -5.358600   20.739980   -8.099020
  C     -8.407590   23.782280   -5.623400
  C     -8.727500   23.636810   -4.245100
  C     -8.081750   22.428310   -3.711450
  O     -8.153930   22.035230   -2.566060
  C     -9.525490   24.526690   -3.585580
  C    -10.056880   25.627580   -4.292800
  C     -9.748930   25.778910   -5.675870
  C     -8.916800   24.841130   -6.329210
  C    -10.287830   26.878720   -6.374360
  C    -11.090570   27.786410   -5.738700
  C    -11.391560   27.636980   -4.376510
  C    -10.885750   26.580430   -3.668800
  H      4.090330   -1.037840    4.071890
  H      2.759770   -0.443800   -0.699660
  H      4.316090   -2.188480   -1.345080
  H      6.010100   -3.874200   -0.750300
  H      6.672780   -4.194570    1.600240
  H      5.648520   -2.828310    3.375660
  H      0.904120    3.128950    4.122810
  H      1.369470    3.925480    0.348580
  H     -1.103890    9.261300   -1.637120
  H     -5.207810   15.316860    0.962790
  H     -7.218780   20.373490   -2.023110
  H     -6.253700   20.361520   -5.854920
  H     -9.747120   24.389380   -2.537640
  H     -8.706670   24.987030   -7.376470
  H    -10.052700   26.990300   -7.422700
  H    -11.498230   28.625430   -6.282400
  H    -12.026280   28.363110   -3.891020
  H    -11.113750   26.459470   -2.619940

 Total Charge           Charge          ....    0
 Multiplicity           Mult            ....    1
 Number of Electrons    NEL             ....  570
 Basis Dimension        Dim             .... 1244

ORBITAL ENERGIES
----------------

  NO   OCC          E(Eh)            E(eV)
   0   2.0000     -89.063279     -2423.5350
   1   2.0000     -88.998843     -2421.7817
   2   2.0000     -88.998130     -2421.7622
   3   2.0000     -88.997309     -2421.7399
   4   2.0000     -88.996268     -2421.7116
   5   2.0000     -19.219734      -522.9955
   6   2.0000     -19.216372      -522.9041
   7   2.0000     -14.478541      -393.9811
   8   2.0000     -14.477637      -393.9565
   9   2.0000     -14.461232      -393.5101
  10   2.0000     -14.459213      -393.4552
  11   2.0000     -14.434398      -392.7799
  12   2.0000     -14.434222      -392.7752
  13   2.0000     -14.431215      -392.6933
  14   2.0000     -14.430286      -392.6681
  15   2.0000     -14.419273      -392.3684
  16   2.0000     -14.419124      -392.3643
  17   2.0000     -14.414172      -392.2296
  18   2.0000     -14.413990      -392.2246
  19   2.0000     -10.370587      -282.1980
  20   2.0000     -10.369799      -282.1766
  21   2.0000     -10.369020      -282.1554
  22   2.0000     -10.367597      -282.1167
  23   2.0000     -10.360324      -281.9188
  24   2.0000     -10.359261      -281.8898
  25   2.0000     -10.356473      -281.8139
  26   2.0000     -10.356169      -281.8057
  27   2.0000     -10.355674      -281.7922
  28   2.0000     -10.355548      -281.7888
  29   2.0000     -10.347908      -281.5809
  30   2.0000     -10.345027      -281.5025
  31   2.0000     -10.344976      -281.5011
  32   2.0000     -10.343708      -281.4666
  33   2.0000     -10.342901      -281.4446
  34   2.0000     -10.342291      -281.4281
  35   2.0000     -10.340537      -281.3803
  36   2.0000     -10.338975      -281.3378
  37   2.0000     -10.334471      -281.2152
  38   2.0000     -10.334365      -281.2124
  39   2.0000     -10.332273      -281.1554
  40   2.0000     -10.331678      -281.1392
  41   2.0000     -10.331594      -281.1370
  42   2.0000     -10.330849      -281.1167
  43   2.0000     -10.330760      -281.1143
  44   2.0000     -10.329522      -281.0806
  45   2.0000     -10.329359      -281.0761
  46   2.0000     -10.326861      -281.0082
  47   2.0000     -10.322055      -280.8774
  48   2.0000     -10.320344      -280.8308
  49   2.0000     -10.317453      -280.7522
  50   2.0000     -10.316265      -280.7198
  51   2.0000     -10.315036      -280.6864
  52   2.0000     -10.313075      -280.6330
  53   2.0000     -10.311946      -280.6023
  54   2.0000     -10.311790      -280.5981
  55   2.0000     -10.311500      -280.5902
  56   2.0000     -10.309219      -280.5281
  57   2.0000     -10.308931      -280.5203
  58   2.0000     -10.307225      -280.4739
  59   2.0000     -10.304810      -280.4081
  60   2.0000     -10.303918      -280.3839
  61   2.0000     -10.302967      -280.3580
  62   2.0000     -10.302741      -280.3518
  63   2.0000     -10.298066      -280.2246
  64   2.0000     -10.297964      -280.2219
  65   2.0000     -10.297661      -280.2136
  66   2.0000     -10.297446      -280.2078
  67   2.0000     -10.297202      -280.2011
  68   2.0000     -10.296852      -280.1916
  69   2.0000     -10.296607      -280.1849
  70   2.0000     -10.295951      -280.1671
  71   2.0000     -10.290246      -280.0118
  72   2.0000     -10.287920      -279.9485
  73   2.0000     -10.286629      -279.9134
  74   2.0000     -10.286350      -279.9058
  75   2.0000     -10.286153      -279.9004
  76   2.0000     -10.285788      -279.8905
  77   2.0000     -10.285737      -279.8891
  78   2.0000     -10.285566      -279.8845
  79   2.0000     -10.285136      -279.8728
  80   2.0000     -10.285123      -279.8724
  81   2.0000      -8.154539      -221.8963
  82   2.0000      -8.093569      -220.2372
  83   2.0000      -8.092925      -220.2197
  84   2.0000      -8.091120      -220.1706
  85   2.0000      -8.090177      -220.1449
  86   2.0000      -6.125695      -166.6886
  87   2.0000      -6.117861      -166.4755
  88   2.0000      -6.117137      -166.4558
  89   2.0000      -6.062715      -164.9749
  90   2.0000      -6.061972      -164.9546
  91   2.0000      -6.060397      -164.9118
  92   2.0000      -6.059435      -164.8856
  93   2.0000      -6.058559      -164.8618
  94   2.0000      -6.057859      -164.8427
  95   2.0000      -6.056081      -164.7944
  96   2.0000      -6.055985      -164.7917
  97   2.0000      -6.055513      -164.7789
  98   2.0000      -6.055094      -164.7675
  99   2.0000      -6.053618      -164.7273
 100   2.0000      -6.052671      -164.7016
 101   2.0000      -1.166470       -31.7413
 102   2.0000      -1.137889       -30.9635
 103   2.0000      -1.135169       -30.8895
 104   2.0000      -1.131820       -30.7984
 105   2.0000      -1.053011       -28.6539
 106   2.0000      -1.052191       -28.6316
 107   2.0000      -1.026680       -27.9374
 108   2.0000      -1.025228       -27.8979
 109   2.0000      -1.023481       -27.8503
 110   2.0000      -1.020101       -27.7584
 111   2.0000      -1.019609       -27.7450
 112   2.0000      -1.010124       -27.4869
 113   2.0000      -1.009236       -27.4627
 114   2.0000      -1.005994       -27.3745
 115   2.0000      -1.004174       -27.3250
 116   2.0000      -0.999935       -27.2096
 117   2.0000      -0.999767       -27.2050
 118   2.0000      -0.994430       -27.0598
 119   2.0000      -0.993707       -27.0402
 120   2.0000      -0.974751       -26.5243
 121   2.0000      -0.973000       -26.4767
 122   2.0000      -0.969384       -26.3783
 123   2.0000      -0.965687       -26.2777
 124   2.0000      -0.948546       -25.8112
 125   2.0000      -0.939871       -25.5752
 126   2.0000      -0.927979       -25.2516
 127   2.0000      -0.927405       -25.2360
 128   2.0000      -0.918603       -24.9965
 129   2.0000      -0.916105       -24.9285
 130   2.0000      -0.899859       -24.4864
 131   2.0000      -0.897359       -24.4184
 132   2.0000      -0.881979       -23.9999
 133   2.0000      -0.881417       -23.9846
 134   2.0000      -0.879507       -23.9326
 135   2.0000      -0.878549       -23.9065
 136   2.0000      -0.871774       -23.7222
 137   2.0000      -0.866154       -23.5693
 138   2.0000      -0.862779       -23.4774
 139   2.0000      -0.862326       -23.4651
 140   2.0000      -0.838443       -22.8152
 141   2.0000      -0.828728       -22.5508
 142   2.0000      -0.828207       -22.5366
 143   2.0000      -0.818570       -22.2744
 144   2.0000      -0.811229       -22.0747
 145   2.0000      -0.791555       -21.5393
 146   2.0000      -0.784399       -21.3446
 147   2.0000      -0.781384       -21.2625
 148   2.0000      -0.778596       -21.1867
 149   2.0000      -0.763474       -20.7752
 150   2.0000      -0.763172       -20.7670
 151   2.0000      -0.759290       -20.6613
 152   2.0000      -0.747079       -20.3291
 153   2.0000      -0.731952       -19.9174
 154   2.0000      -0.720823       -19.6146
 155   2.0000      -0.710126       -19.3235
 156   2.0000      -0.707749       -19.2588
 157   2.0000      -0.705215       -19.1899
 158   2.0000      -0.701896       -19.0996
 159   2.0000      -0.700228       -19.0542
 160   2.0000      -0.696090       -18.9416
 161   2.0000      -0.692743       -18.8505
 162   2.0000      -0.687304       -18.7025
 163   2.0000      -0.685033       -18.6407
 164   2.0000      -0.679338       -18.4857
 165   2.0000      -0.675033       -18.3686
 166   2.0000      -0.669249       -18.2112
 167   2.0000      -0.663147       -18.0452
 168   2.0000      -0.652764       -17.7626
 169   2.0000      -0.650072       -17.6893
 170   2.0000      -0.638163       -17.3653
 171   2.0000      -0.636506       -17.3202
 172   2.0000      -0.632542       -17.2124
 173   2.0000      -0.630399       -17.1540
 174   2.0000      -0.623054       -16.9542
 175   2.0000      -0.622049       -16.9268
 176   2.0000      -0.619825       -16.8663
 177   2.0000      -0.608217       -16.5504
 178   2.0000      -0.607991       -16.5443
 179   2.0000      -0.605249       -16.4697
 180   2.0000      -0.602369       -16.3913
 181   2.0000      -0.597702       -16.2643
 182   2.0000      -0.592638       -16.1265
 183   2.0000      -0.590070       -16.0566
 184   2.0000      -0.582117       -15.8402
 185   2.0000      -0.578401       -15.7391
 186   2.0000      -0.560917       -15.2633
 187   2.0000      -0.559481       -15.2242
 188   2.0000      -0.554926       -15.1003
 189   2.0000      -0.554618       -15.0919
 190   2.0000      -0.553761       -15.0686
 191   2.0000      -0.548486       -14.9251
 192   2.0000      -0.547083       -14.8869
 193   2.0000      -0.546471       -14.8702
 194   2.0000      -0.539498       -14.6805
 195   2.0000      -0.538983       -14.6665
 196   2.0000      -0.537762       -14.6332
 197   2.0000      -0.532353       -14.4861
 198   2.0000      -0.531162       -14.4537
 199   2.0000      -0.529354       -14.4045
 200   2.0000      -0.526987       -14.3401
 201   2.0000      -0.523412       -14.2428
 202   2.0000      -0.520083       -14.1522
 203   2.0000      -0.519691       -14.1415
 204   2.0000      -0.514518       -14.0007
 205   2.0000      -0.513490       -13.9728
 206   2.0000      -0.511249       -13.9118
 207   2.0000      -0.510485       -13.8910
 208   2.0000      -0.509565       -13.8660
 209   2.0000      -0.508579       -13.8391
 210   2.0000      -0.507896       -13.8206
 211   2.0000      -0.505473       -13.7546
 212   2.0000      -0.504772       -13.7356
 213   2.0000      -0.504179       -13.7194
 214   2.0000      -0.499235       -13.5849
 215   2.0000      -0.497407       -13.5351
 216   2.0000      -0.495153       -13.4738
 217   2.0000      -0.493022       -13.4158
 218   2.0000      -0.490382       -13.3440
 219   2.0000      -0.486426       -13.2363
 220   2.0000      -0.484592       -13.1864
 221   2.0000      -0.480489       -13.0748
 222   2.0000      -0.477797       -13.0015
 223   2.0000      -0.477068       -12.9817
 224   2.0000      -0.468834       -12.7576
 225   2.0000      -0.465619       -12.6701
 226   2.0000      -0.465085       -12.6556
 227   2.0000      -0.464398       -12.6369
 228   2.0000      -0.463193       -12.6041
 229   2.0000      -0.461213       -12.5502
 230   2.0000      -0.459849       -12.5131
 231   2.0000      -0.458774       -12.4839
 232   2.0000      -0.454979       -12.3806
 233   2.0000      -0.452723       -12.3192
 234   2.0000      -0.451845       -12.2953
 235   2.0000      -0.450652       -12.2629
 236   2.0000      -0.448703       -12.2098
 237   2.0000      -0.444880       -12.1058
 238   2.0000      -0.444508       -12.0957
 239   2.0000      -0.443207       -12.0603
 240   2.0000      -0.442320       -12.0361
 241   2.0000      -0.441873       -12.0240
 242   2.0000      -0.441595       -12.0164
 243   2.0000      -0.439855       -11.9691
 244   2.0000      -0.439336       -11.9549
 245   2.0000      -0.438938       -11.9441
 246   2.0000      -0.435443       -11.8490
 247   2.0000      -0.434398       -11.8206
 248   2.0000      -0.433957       -11.8086
 249   2.0000      -0.432761       -11.7760
 250   2.0000      -0.430240       -11.7074
 251   2.0000      -0.429203       -11.6792
 252   2.0000      -0.427776       -11.6404
 253   2.0000      -0.427036       -11.6202
 254   2.0000      -0.426830       -11.6146
 255   2.0000      -0.424952       -11.5635
 256   2.0000      -0.419650       -11.4193
 257   2.0000      -0.419129       -11.4051
 258   2.0000      -0.411591       -11.2000
 259   2.0000      -0.410754       -11.1772
 260   2.0000      -0.407989       -11.1019
 261   2.0000      -0.405829       -11.0432
 262   2.0000      -0.404062       -10.9951
 263   2.0000      -0.400597       -10.9008
 264   2.0000      -0.394859       -10.7447
 265   2.0000      -0.392095       -10.6695
 266   2.0000      -0.383848       -10.4450
 267   2.0000      -0.378904       -10.3105
 268   2.0000      -0.373302       -10.1581
 269   2.0000      -0.365418        -9.9435
 270   2.0000      -0.355562        -9.6753
 271   2.0000      -0.353552        -9.6206
 272   2.0000      -0.345862        -9.4114
 273   2.0000      -0.340649        -9.2695
 274   2.0000      -0.337635        -9.1875
 275   2.0000      -0.329236        -8.9590
 276   2.0000      -0.326350        -8.8804
 277   2.0000      -0.321414        -8.7461
 278   2.0000      -0.321226        -8.7410
 279   2.0000      -0.317256        -8.6330
 280   2.0000      -0.314865        -8.5679
 281   2.0000      -0.296130        -8.0581
 282   2.0000      -0.294522        -8.0144
 283   2.0000      -0.280725        -7.6389
 284   2.0000      -0.260303        -7.0832
 285   0.0000      -0.126324        -3.4375
 286   0.0000      -0.112191        -3.0529
 287   0.0000      -0.097883        -2.6635
 288   0.0000      -0.090668        -2.4672
 289   0.0000      -0.089067        -2.4236

MULLIKEN ATOMIC CHARGES
-----------------------
   0 C :    0.273217
   1 C :   -0.329860
   2 C :   -0.168026
   3 N :    0.159551
   4 C :   -0.201535
   5 N :    0.167109
   6 C :    0.026865
   7 C :    0.016981
   8 C :   -0.079741
   9 C :    0.092826
  10 C :    0.091985
  11 C :   -0.074580
  12 C :   -0.015253
  13 C :    0.035832
  14 C :    0.034158
  15 C :   -0.013890
  16 C :    0.135248
  17 O :   -0.145625
  18 C :   -0.137955
  19 C :    0.078993
  20 C :   -0.106358
  21 C :   -0.004923
  22 C :   -0.001946
  23 C :   -0.072887
  24 S :    0.213853
  25 C :   -0.084475
  26 C :    0.041679
  27 C :    0.303296
  28 C :   -0.289064
  29 C :   -0.193058
  30 N :    0.189912
  31 C :   -0.184675
  32 N :    0.170332
  33 C :   -0.058197
  34 C :   -0.114053
  35 S :    0.226027
  36 C :    0.018125
  37 N :   -0.037284
  38 N :   -0.054118
  39 C :    0.002023
  40 C :    0.041570
  41 C :    0.011249
  42 N :   -0.291499
  43 S :    0.567974
  44 N :   -0.248224
  45 C :   -0.122030
  46 C :   -0.059488
  47 C :    0.014662
  48 C :   -0.088816
  49 S :    0.259963
  50 C :   -0.087493
  51 C :    0.001394
  52 C :    0.320495
  53 C :   -0.304751
  54 C :   -0.196578
  55 N :    0.200264
  56 C :   -0.189460
  57 N :    0.170763
  58 C :   -0.021591
  59 C :   -0.111957
  60 S :    0.213039
  61 C :    0.037654
  62 C :   -0.086517
  63 C :    0.327210
  64 C :   -0.362866
  65 C :   -0.181004
  66 N :    0.148120
  67 C :   -0.182267
  68 N :    0.143997
  69 C :    0.045079
  70 C :   -0.003260
  71 C :    0.159151
  72 O :   -0.148353
  73 C :   -0.079491
  74 C :    0.098517
  75 C :    0.095358
  76 C :   -0.081645
  77 C :   -0.019822
  78 C :    0.036281
  79 C :    0.035868
  80 C :   -0.015050
  81 H :   -0.011924
  82 H :    0.000041
  83 H :   -0.008785
  84 H :   -0.003576
  85 H :   -0.004419
  86 H :   -0.017666
  87 H :    0.021675
  88 H :    0.026649
  89 H :    0.027697
  90 H :    0.019797
  91 H :    0.041434
  92 H :    0.001003
  93 H :   -0.008170
  94 H :   -0.008007
  95 H :   -0.008247
  96 H :   -0.004717
  97 H :   -0.004234
  98 H :   -0.015505
Sum of atomic charges:   -0.0000000

LOEWDIN ATOMIC CHARGES
----------------------
   0 C :    0.065669
   1 C :   -0.135453
   2 C :   -0.018244
   3 N :   -0.045098
   4 C :   -0.015568
   5 N :   -0.046869
   6 C :   -0.023032
   7 C :   -0.058168
   8 C :    0.033226
   9 C :   -0.009161
  10 C :   -0.004841
  11 C :    0.019277
  12 C :   -0.005005
  13 C :   -0.012117
  14 C :   -0.012688
  15 C :   -0.009296
  16 C :    0.083885
  17 O :   -0.144504
  18 C :   -0.087011
  19 C :    0.039631
  20 C :   -0.176921
  21 C :    0.008154
  22 C :   -0.060912
  23 C :   -0.163699
  24 S :    0.499823
  25 C :   -0.178967
  26 C :   -0.061948
  27 C :    0.079549
  28 C :   -0.094164
  29 C :   -0.020224
  30 N :   -0.020860
  31 C :   -0.012270
  32 N :   -0.031646
  33 C :    0.008778
  34 C :   -0.178480
  35 S :    0.517410
  36 C :   -0.027607
  37 N :   -0.043524
  38 N :   -0.059063
  39 C :   -0.029492
  40 C :   -0.053227
  41 C :   -0.064222
  42 N :   -0.285725
  43 S :    0.689935
  44 N :   -0.259334
  45 C :   -0.173644
  46 C :   -0.013490
  47 C :   -0.061453
  48 C :   -0.179411
  49 S :    0.527885
  50 C :   -0.162392
  51 C :   -0.070754
  52 C :    0.074790
  53 C :   -0.094392
  54 C :   -0.024558
  55 N :   -0.013899
  56 C :   -0.015095
  57 N :   -0.032167
  58 C :    0.014103
  59 C :   -0.172917
  60 S :    0.503873
  61 C :    0.040783
  62 C :   -0.092343
  63 C :    0.077881
  64 C :   -0.142388
  65 C :   -0.016632
  66 N :   -0.054149
  67 C :   -0.023552
  68 N :   -0.053611
  69 C :   -0.027147
  70 C :   -0.055790
  71 C :    0.087832
  72 O :   -0.135795
  73 C :    0.034002
  74 C :   -0.007952
  75 C :   -0.006213
  76 C :    0.020013
  77 C :   -0.005323
  78 C :   -0.013228
  79 C :   -0.011769
  80 C :   -0.008966
  81 H :    0.039305
  82 H :    0.040584
  83 H :    0.035175
  84 H :    0.033564
  85 H :    0.032929
  86 H :    0.031682
  87 H :    0.045727
  88 H :    0.042961
  89 H :    0.050063
  90 H :    0.041145
  91 H :    0.042965
  92 H :    0.042068
  93 H :    0.040710
  94 H :    0.039070
  95 H :    0.034947
  96 H :    0.033290
  97 H :    0.033059
  98 H :    0.032629

  Mayer bond orders larger than 0.100000
B(  0-C ,  1-C ) :   1.6523 B(  0-C ,  6-C ) :   0.9963 B(  0-C , 18-C ) :   1.0322
B(  1-C ,  2-C ) :   1.1273 B(  1-C ,  4-C ) :   1.1720 B(  2-C ,  3-N ) :   2.9930
B(  4-C ,  5-N ) :   2.9951 B(  6-C ,  7-C ) :   1.2145 B(  6-C , 11-C ) :   1.4603
B(  7-C ,  8-C ) :   1.4753 B(  7-C , 16-C ) :   0.9235 B(  8-C ,  9-C ) :   1.1844
B(  8-C , 81-H ) :   1.0159 B(  9-C , 10-C ) :   1.2566 B(  9-C , 15-C ) :   1.2462
B( 10-C , 11-C ) :   1.2064 B( 10-C , 12-C ) :   1.2410 B( 11-C , 82-H ) :   0.9942
B( 12-C , 13-C ) :   1.4892 B( 12-C , 83-H ) :   0.9980 B( 13-C , 14-C ) :   1.2608
B( 13-C , 84-H ) :   0.9888 B( 14-C , 15-C ) :   1.4882 B( 14-C , 85-H ) :   0.9893
B( 15-C , 86-H ) :   0.9978 B( 16-C , 17-O ) :   2.2628 B( 16-C , 18-C ) :   0.9383
B( 18-C , 19-C ) :   1.6787 B( 19-C , 20-C ) :   1.1308 B( 19-C , 87-H ) :   0.9265
B( 20-C , 21-C ) :   1.3988 B( 20-C , 24-S ) :   1.0941 B( 21-C , 22-C ) :   1.3550
B( 21-C , 88-H ) :   0.9791 B( 22-C , 23-C ) :   1.4121 B( 22-C , 27-C ) :   0.9981
B( 23-C , 24-S ) :   1.1502 B( 23-C , 25-C ) :   1.1950 B( 25-C , 26-C ) :   1.4109
B( 25-C , 35-S ) :   1.1163 B( 26-C , 27-C ) :   0.9882 B( 26-C , 33-C ) :   1.2596
B( 27-C , 28-C ) :   1.7244 B( 28-C , 29-C ) :   1.1322 B( 28-C , 31-C ) :   1.1351
B( 29-C , 30-N ) :   3.0034 B( 31-C , 32-N ) :   2.9814 B( 33-C , 34-C ) :   1.4201
B( 33-C , 89-H ) :   1.0164 B( 34-C , 35-S ) :   1.1206 B( 34-C , 36-C ) :   1.1539
B( 36-C , 37-N ) :   1.7095 B( 36-C , 39-C ) :   0.1147 B( 36-C , 41-C ) :   1.0891
B( 37-N , 38-N ) :   1.2285 B( 38-N , 39-C ) :   1.7076 B( 39-C , 40-C ) :   1.1269
B( 39-C , 45-C ) :   1.1656 B( 40-C , 41-C ) :   1.2026 B( 40-C , 44-N ) :   1.5476
B( 41-C , 42-N ) :   1.5197 B( 42-N , 43-S ) :   1.2710 B( 42-N , 44-N ) :   0.1436
B( 43-S , 44-N ) :   1.2822 B( 45-C , 46-C ) :   1.4792 B( 45-C , 49-S ) :   1.0955
B( 46-C , 47-C ) :   1.2700 B( 46-C , 90-H ) :   0.9815 B( 47-C , 48-C ) :   1.4248
B( 47-C , 52-C ) :   0.9955 B( 48-C , 49-S ) :   1.1202 B( 48-C , 50-C ) :   1.1986
B( 50-C , 51-C ) :   1.3846 B( 50-C , 60-S ) :   1.1670 B( 51-C , 52-C ) :   0.9932
B( 51-C , 58-C ) :   1.3000 B( 52-C , 53-C ) :   1.7128 B( 53-C , 54-C ) :   1.1370
B( 53-C , 56-C ) :   1.1397 B( 54-C , 55-N ) :   3.0003 B( 56-C , 57-N ) :   2.9853
B( 58-C , 59-C ) :   1.3998 B( 58-C , 91-H ) :   0.9688 B( 59-C , 60-S ) :   1.0838
B( 59-C , 61-C ) :   1.2151 B( 61-C , 62-C ) :   1.6042 B( 61-C , 92-H ) :   0.9017
B( 62-C , 63-C ) :   1.0810 B( 62-C , 71-C ) :   0.9296 B( 63-C , 64-C ) :   1.6148
B( 63-C , 69-C ) :   0.9834 B( 64-C , 65-C ) :   1.1521 B( 64-C , 67-C ) :   1.1383
B( 65-C , 66-N ) :   2.9599 B( 67-C , 68-N ) :   2.9551 B( 69-C , 70-C ) :   1.2146
B( 69-C , 76-C ) :   1.4470 B( 70-C , 71-C ) :   0.9573 B( 70-C , 73-C ) :   1.4717
B( 71-C , 72-O ) :   2.1611 B( 72-O , 91-H ) :   0.1036 B( 73-C , 74-C ) :   1.1763
B( 73-C , 93-H ) :   1.0165 B( 74-C , 75-C ) :   1.2543 B( 74-C , 80-C ) :   1.2446
B( 75-C , 76-C ) :   1.2088 B( 75-C , 77-C ) :   1.2401 B( 76-C , 94-H ) :   0.9883
B( 77-C , 78-C ) :   1.4901 B( 77-C , 95-H ) :   0.9968 B( 78-C , 79-C ) :   1.2587
B( 78-C , 96-H ) :   0.9884 B( 79-C , 80-C ) :   1.4885 B( 79-C , 97-H ) :   0.9890
B( 80-C , 98-H ) :   0.9974

-----------------------------------------------------------------------------
         ABSORPTION SPECTRUM VIA TRANSITION ELECTRIC DIPOLE MOMENTS
-----------------------------------------------------------------------------
State   Energy  Wavelength   fosc         T2         TX        TY        TZ
        (cm-1)    (nm)                  (au**2)     (au)      (au)      (au)
-----------------------------------------------------------------------------
   0   13559.0    737.5   1.372059952  33.31347  -2.25684   5.09370  -1.50812
   1   15266.2    655.0   0.034544456   0.74494   0.18232  -0.45061   0.71320
   2   17909.0    558.4   0.762806261  14.02230  -1.53004   3.33645  -0.74121
   3   19452.6    514.1   0.000026869   0.00045   0.00397   0.02035   0.00498
   4   21144.6    472.9   0.103218681   1.60707  -0.00768   0.33212   1.22340
   5   21863.5    457.4   0.160126527   2.41112   0.22936  -1.50261   0.31732
   6   22871.5    437.2   0.572416605   8.23937   0.63818  -2.16131   1.77787
   7   24345.7    410.8   0.019631864   0.26547  -0.45525   0.06872   0.23130
   8   24908.4    401.5   0.004572875   0.06044   0.15663   0.18925   0.00950
   9   25387.5    393.9   0.081633556   1.05858   0.46174  -0.83463   0.38570
  10   27006.9    370.3   0.010304515   0.12561  -0.27897   0.20853  -0.06558
  11   27539.6    363.1   0.012960407   0.15493  -0.09302   0.31850   0.21175
  12   27599.9    362.3   0.008072515   0.09629   0.10066  -0.19702  -0.21757
  13   28017.1    356.9   0.020819116   0.24463   0.14219  -0.32540   0.34428
  14   28745.0    347.9   0.013367697   0.15310  -0.34807   0.17845   0.00994
  15   28746.3    347.9   0.007400521   0.08475   0.14517  -0.23630  -0.08855
  16   28816.6    347.0   0.002233288   0.02551   0.10354   0.11599   0.03661
  17   28953.2    345.4   0.233184922   2.65143  -0.50434   0.19985   1.53529
  18   29152.7    343.0   0.005503046   0.06214   0.04500  -0.08557   0.22978
  19   29501.7    339.0   0.023479791   0.26201  -0.05518  -0.30083   0.41045
  20   29909.4    334.3   0.069135070   0.76097  -0.38080   0.78209  -0.06553
  21   30213.6    331.0   0.033551171   0.36558   0.38572  -0.44071  -0.15025
  22   30237.0    330.7   0.761307611   8.28891  -1.85779   2.11060   0.61880
  23   30406.0    328.9   0.125997759   1.36420   0.78226  -0.63384   0.59205
  24   30850.0    324.1   0.014785657   0.15778   0.32080  -0.18564  -0.14286
  25   31314.2    319.3   0.236696904   2.48843  -0.48115   1.03759  -1.08643
  26   31390.6    318.6   0.186928593   1.96043  -0.62920   1.14539  -0.50260
  27   31533.4    317.1   0.079943338   0.83462  -0.18589   0.88704  -0.11498
  28   31926.0    313.2   0.037116330   0.38273   0.40831  -0.42666   0.18434
  29   32137.1    311.2   0.031288709   0.32052  -0.29826   0.40059  -0.26663
  30   32521.7    307.5   0.052591926   0.53238   0.04645   0.27555  -0.67402
  31   32735.8    305.5   0.010073616   0.10131  -0.24605   0.10213   0.17417
  32   32896.5    304.0   0.790877308   7.91472   1.50487  -2.01995  -1.25295
  33   33027.5    302.8   0.312186905   3.11182  -1.03237   1.31698   0.55821
  34   33372.4    299.6   0.000053590   0.00053  -0.00961   0.01053  -0.01804
  35   33538.9    298.2   0.109181274   1.07170   0.53510  -0.39100  -0.79530
  36   33948.2    294.6   0.008773725   0.08508  -0.23041   0.17710  -0.02507
  37   34028.1    293.9   0.248184302   2.40111   1.08928  -0.88102   0.66211
  38   34479.1    290.0   0.277393439   2.64859  -0.73157   1.42337  -0.29565
  39   34628.2    288.8   0.257123953   2.44449   1.11156  -0.73516  -0.81760
  40   34740.1    287.9   0.063682231   0.60348  -0.21812   0.61889   0.41579
  41   35015.8    285.6   0.251959064   2.36887  -0.73044   0.71287  -1.15202
  42   35258.1    283.6   0.180678717   1.68703   0.57776  -0.05456  -1.16201
  43   35385.6    282.6   0.064329411   0.59849   0.11355  -0.31578   0.69705
  44   35693.9    280.2   0.190714229   1.75900  -0.56918   0.03982   1.19727
  45   35774.8    279.5   0.007330165   0.06745   0.18740   0.10154   0.14841
  46   36022.9    277.6   0.002158916   0.01973  -0.00974  -0.10875   0.08837
  47   36366.8    275.0   0.228264626   2.06638   1.02156  -0.99955   0.15394
  48   36660.4    272.8   0.004750175   0.04266   0.02207  -0.20293   0.03145
  49   36799.6    271.7   0.035620910   0.31867   0.41826  -0.28880  -0.24560
  50   37184.0    268.9   0.040446630   0.35810   0.10080  -0.23680  -0.54024
  51   37381.0    267.5   0.021644911   0.19063  -0.02383   0.11461  -0.42062
  52   37493.7    266.7   0.011726284   0.10296   0.04195  -0.25492   0.19031
  53   37859.5    264.1   0.018542087   0.16123  -0.10686   0.29374  -0.25206
  54   37935.2    263.6   0.012424767   0.10783  -0.00012  -0.15796   0.28788
  55   37947.3    263.5   0.009965138   0.08645   0.00756   0.17324  -0.23745
  56   38162.1    262.0   0.032821285   0.28314   0.05661   0.01711  -0.52881
  57   38214.1    261.7   0.013621716   0.11735   0.11599   0.04593  -0.31904
  58   38522.0    259.6   0.022380791   0.19127   0.21251  -0.34804  -0.15803
  59   38674.4    258.6   0.098383372   0.83748   0.09389   0.20865  -0.88608
  60   39017.4    256.3   0.007179336   0.06058   0.01474   0.04527  -0.24147
  61   39241.3    254.8   0.034845558   0.29233   0.13915  -0.37188  -0.36699
  62   39423.0    253.7   0.098928433   0.82613   0.02049  -0.25821   0.87123
  63   39603.9    252.5   0.042762362   0.35547  -0.47759  -0.09758  -0.34330
  64   39779.2    251.4   0.061150799   0.50608   0.44586  -0.49739  -0.24473
  65   39815.4    251.2   0.001818949   0.01504  -0.00233  -0.08884  -0.08451
  66   39826.3    251.1   0.038420205   0.31759   0.14018   0.13558  -0.52873
  67   39963.2    250.2   0.091600369   0.75459   0.03473   0.38762  -0.77662
  68   40055.0    249.7   0.000051983   0.00043   0.01198   0.01317  -0.01050

FINAL SINGLE POINT ENERGY     -5167.006096541801

DIPOLE MOMENT
-------------
                                X             Y             Z
Electronic contribution:     -3.91748      -0.82110      11.73164
Nuclear contribution   :      4.23261       0.85219      -8.42343
                        -----------------------------------------
Total Dipole Moment    :      0.31513       0.03109       3.30820
                        -----------------------------------------
Magnitude (a.u.)       :      3.32333
Magnitude (Debye)      :      8.44722

Rotational constants in cm-1:     0.002559     0.000143     0.000136
Rotational constants in MHz :    76.723910     4.272878     4.077989

                             ****ORCA TERMINATED NORMALLY****
TOTAL RUN TIME: 0 days 0 hours 11 minutes 0 seconds 173 msec
