                         Program Version 4.2.0 -  RELEASE  -
|  1> # ORCA input file
|  2> # SCF done       -192.436664469733          0.000768604711
|  3> ! CAM-B3LYP def2-SVP def2/J RIJCOSX Grid4 TightSCF
|  4> %maxcore 5000
|  5> %tddft
|  6>     Mode sTDDFT
|  7>     Ethresh 5.0
|  8>     maxcore 5000
|  9> end
| 10>
| 11> %pal
| 12>   nprocs 6
| 13>   end
| 14> * xyz 0 1
| 15>    C        8.87345         6.49809        -7.41879
| 16>    C        9.42120         6.62338        -6.16778
| 17>    C       10.75652         6.28800        -5.85328
| 18>    N       11.83008         6.04539        -5.52777
| 19>    C        8.76482         7.08793        -5.00840
| 20>    N        8.30196         7.43634        -4.01566
| 21>    C        9.56555         5.97540        -8.58954
| 22>    C        8.66655         5.98413        -9.69389
| 23>    C        9.03464         5.53612       -10.93011
| 24>    C       10.34674         5.05094       -11.12452
| 25>    C       11.25349         5.03796       -10.02504
| 26>    C       10.84295         5.50648        -8.75667
| 27>    C       12.56045         4.54938       -10.22816
| 28>    C       12.95450         4.09609       -11.45756
| 29>    C       12.06123         4.11038       -12.53949
| 30>    C       10.78515         4.57771       -12.37679
| 31>    C        7.36860         6.53406        -9.27201
| 32>    O        6.38776         6.68341        -9.96804
| 33>    C        7.51631         6.84562        -7.82393
| 34>    C        6.55137         7.28828        -6.97311
| 35>    C        5.20523         7.67891        -7.22077
| 36>    C        4.64118         8.23211        -8.33625
| 37>    C        3.30854         8.68697        -8.00064
| 38>    C        2.42511         9.28384        -8.91229
| 39>    N        1.70836         9.78725        -9.65309
| 40>    C        3.07028         8.46026        -6.67065
| 41>    C        4.21312         7.78331        -6.12340
| 42>    C        4.33316         7.21713        -4.88108
| 43>    C        3.59650         7.55979        -3.63771
| 44>    C        4.00187         6.67870        -2.67583
| 45>    C        4.95180         5.75473        -3.25388
| 46>    C        5.18101         6.10418        -4.55747
| 47>    C        5.52192         4.67244        -2.56881
| 48>    N        5.97493         3.78100        -2.00613
| 49>    C        2.75468         8.69743        -3.46755
| 50>    C        2.06335         8.97645        -2.34002
| 51>    C        1.23277        10.13864        -2.20190
| 52>    C        0.71237        10.52497        -0.95063
| 53>    N       -0.11761        11.52815        -0.82036
| 54>    C       -0.46471        12.22485        -1.90814
| 55>    C        0.14275        11.91103        -3.13976
| 56>    N        0.94800        10.88835        -3.27547
| 57>    C       -1.38158        13.32300        -1.72354
| 58>    C       -1.37596        14.13597        -0.63442
| 59>    C       -2.33467        15.20348        -0.85117
| 60>    C       -2.62710        16.20402         0.08615
| 61>    N       -2.85867        17.02087         0.85796
| 62>    C       -2.89951        15.05372        -2.08682
| 63>    C       -2.37376        13.85161        -2.68106
| 64>    C       -2.86125        13.22869        -3.79922
| 65>    C       -3.79438        13.79769        -4.79884
| 66>    C       -4.23887        12.76521        -5.57582
| 67>    C       -3.60552        11.54297        -5.13162
| 68>    C       -2.75372        11.82543        -4.09789
| 69>    C       -3.84249        10.27462        -5.68169
| 70>    N       -4.03295         9.23634        -6.13109
| 71>    C       -4.07920        15.18301        -4.97805
| 72>    C       -5.20210        15.65384        -5.57953
| 73>    C       -5.44199        17.04117        -5.72143
| 74>    C       -6.59213        17.58622        -6.21492
| 75>    C       -6.89768        18.99989        -6.34885
| 76>    C       -6.03470        20.04904        -6.16277
| 77>    C       -6.39075        21.40441        -6.32886
| 78>    N       -6.61302        22.52435        -6.44798
| 79>    C       -4.67473        19.93888        -5.80560
| 80>    N       -3.56190        19.92984        -5.52097
| 81>    C       -8.29395        19.11557        -6.75394
| 82>    C       -8.82655        17.80715        -6.93617
| 83>    C       -7.78799        16.80750        -6.63956
| 84>    O       -7.89852        15.60179        -6.71853
| 85>    C      -10.12183        17.60050        -7.31490
| 86>    C      -10.96395        18.71463        -7.52660
| 87>    C      -10.44124        20.02724        -7.34083
| 88>    C       -9.09405        20.20996        -6.95340
| 89>    C      -11.29211        21.13220        -7.54759
| 90>    C      -12.59640        20.95118        -7.91963
| 91>    C      -13.10967        19.65837        -8.10285
| 92>    C      -12.31071        18.56386        -7.91115
| 93>    H        8.33150         5.55270       -11.74963
| 94>    H       11.55377         5.48003        -7.94649
| 95>    H       13.24433         4.54054        -9.39218
| 96>    H       13.95734         3.72376       -11.60334
| 97>    H       12.38929         3.74885       -13.50247
| 98>    H       10.09311         4.59071       -13.20601
| 99>    H        6.83261         7.37265        -5.93178
|100>    H        5.09472         8.35685        -9.29990
|101>    H        2.13776         8.62818        -6.16695
|102>    H        3.70992         6.65641        -1.64338
|103>    H        5.77995         5.55151        -5.25541
|104>    H        2.67822         9.40239        -4.28170
|105>    H        2.11813         8.33032        -1.47634
|106>    H        0.97518         9.99612        -0.04471
|107>    H       -0.03043        12.51139        -4.02339
|108>    H       -0.75609        14.03514         0.23559
|109>    H       -3.69137        15.65430        -2.48924
|110>    H       -4.90842        12.82559        -6.41266
|111>    H       -2.19905        11.10478        -3.52958
|112>    H       -3.34463        15.89108        -4.61464
|113>    H       -5.96345        14.97074        -5.92387
|114>    H       -4.65430        17.70235        -5.38202
|115>    H      -10.50015        16.59763        -7.44703
|116>    H       -8.73136        21.21635        -6.81769
|117>    H      -10.89238        22.12557        -7.40587
|118>    H      -13.24040        21.80376        -8.07468
|119>    H      -14.14133        19.53410        -8.39609
|120>    H      -12.70037        17.56605        -8.05027
|121> *
|122>
|123>                          ****END OF INPUT****

CARTESIAN COORDINATES (ANGSTROEM)
---------------------------------
  C      8.873450    6.498090   -7.418790
  C      9.421200    6.623380   -6.167780
  C     10.756520    6.288000   -5.853280
  N     11.830080    6.045390   -5.527770
  C      8.764820    7.087930   -5.008400
  N      8.301960    7.436340   -4.015660
  C      9.565550    5.975400   -8.589540
  C      8.666550    5.984130   -9.693890
  C      9.034640    5.536120  -10.930110
  C     10.346740    5.050940  -11.124520
  C     11.253490    5.037960  -10.025040
  C     10.842950    5.506480   -8.756670
  C     12.560450    4.549380  -10.228160
  C     12.954500    4.096090  -11.457560
  C     12.061230    4.110380  -12.539490
  C     10.785150    4.577710  -12.376790
  C      7.368600    6.534060   -9.272010
  O      6.387760    6.683410   -9.968040
  C      7.516310    6.845620   -7.823930
  C      6.551370    7.288280   -6.973110
  C      5.205230    7.678910   -7.220770
  C      4.641180    8.232110   -8.336250
  C      3.308540    8.686970   -8.000640
  C      2.425110    9.283840   -8.912290
  N      1.708360    9.787250   -9.653090
  C      3.070280    8.460260   -6.670650
  C      4.213120    7.783310   -6.123400
  C      4.333160    7.217130   -4.881080
  C      3.596500    7.559790   -3.637710
  C      4.001870    6.678700   -2.675830
  C      4.951800    5.754730   -3.253880
  C      5.181010    6.104180   -4.557470
  C      5.521920    4.672440   -2.568810
  N      5.974930    3.781000   -2.006130
  C      2.754680    8.697430   -3.467550
  C      2.063350    8.976450   -2.340020
  C      1.232770   10.138640   -2.201900
  C      0.712370   10.524970   -0.950630
  N     -0.117610   11.528150   -0.820360
  C     -0.464710   12.224850   -1.908140
  C      0.142750   11.911030   -3.139760
  N      0.948000   10.888350   -3.275470
  C     -1.381580   13.323000   -1.723540
  C     -1.375960   14.135970   -0.634420
  C     -2.334670   15.203480   -0.851170
  C     -2.627100   16.204020    0.086150
  N     -2.858670   17.020870    0.857960
  C     -2.899510   15.053720   -2.086820
  C     -2.373760   13.851610   -2.681060
  C     -2.861250   13.228690   -3.799220
  C     -3.794380   13.797690   -4.798840
  C     -4.238870   12.765210   -5.575820
  C     -3.605520   11.542970   -5.131620
  C     -2.753720   11.825430   -4.097890
  C     -3.842490   10.274620   -5.681690
  N     -4.032950    9.236340   -6.131090
  C     -4.079200   15.183010   -4.978050
  C     -5.202100   15.653840   -5.579530
  C     -5.441990   17.041170   -5.721430
  C     -6.592130   17.586220   -6.214920
  C     -6.897680   18.999890   -6.348850
  C     -6.034700   20.049040   -6.162770
  C     -6.390750   21.404410   -6.328860
  N     -6.613020   22.524350   -6.447980
  C     -4.674730   19.938880   -5.805600
  N     -3.561900   19.929840   -5.520970
  C     -8.293950   19.115570   -6.753940
  C     -8.826550   17.807150   -6.936170
  C     -7.787990   16.807500   -6.639560
  O     -7.898520   15.601790   -6.718530
  C    -10.121830   17.600500   -7.314900
  C    -10.963950   18.714630   -7.526600
  C    -10.441240   20.027240   -7.340830
  C     -9.094050   20.209960   -6.953400
  C    -11.292110   21.132200   -7.547590
  C    -12.596400   20.951180   -7.919630
  C    -13.109670   19.658370   -8.102850
  C    -12.310710   18.563860   -7.911150
  H      8.331500    5.552700  -11.749630
  H     11.553770    5.480030   -7.946490
  H     13.244330    4.540540   -9.392180
  H     13.957340    3.723760  -11.603340
  H     12.389290    3.748850  -13.502470
  H     10.093110    4.590710  -13.206010
  H      6.832610    7.372650   -5.931780
  H      5.094720    8.356850   -9.299900
  H      2.137760    8.628180   -6.166950
  H      3.709920    6.656410   -1.643380
  H      5.779950    5.551510   -5.255410
  H      2.678220    9.402390   -4.281700
  H      2.118130    8.330320   -1.476340
  H      0.975180    9.996120   -0.044710
  H     -0.030430   12.511390   -4.023390
  H     -0.756090   14.035140    0.235590
  H     -3.691370   15.654300   -2.489240
  H     -4.908420   12.825590   -6.412660
  H     -2.199050   11.104780   -3.529580
  H     -3.344630   15.891080   -4.614640
  H     -5.963450   14.970740   -5.923870
  H     -4.654300   17.702350   -5.382020
  H    -10.500150   16.597630   -7.447030
  H     -8.731360   21.216350   -6.817690
  H    -10.892380   22.125570   -7.405870
  H    -13.240400   21.803760   -8.074680
  H    -14.141330   19.534100   -8.396090
  H    -12.700370   17.566050   -8.050270

 Total Charge           Charge          ....    0
 Multiplicity           Mult            ....    1
 Number of Electrons    NEL             ....  510
 Basis Dimension        Dim             .... 1232

ORBITAL ENERGIES
----------------

  NO   OCC          E(Eh)            E(eV)
   0   2.0000     -19.227117      -523.1964
   1   2.0000     -19.221590      -523.0460
   2   2.0000     -14.438524      -392.8922
   3   2.0000     -14.438310      -392.8864
   4   2.0000     -14.427467      -392.5913
   5   2.0000     -14.422322      -392.4513
   6   2.0000     -14.421776      -392.4365
   7   2.0000     -14.421582      -392.4312
   8   2.0000     -14.421559      -392.4306
   9   2.0000     -14.420586      -392.4041
  10   2.0000     -14.419963      -392.3871
  11   2.0000     -14.417457      -392.3189
  12   2.0000     -10.378000      -282.3997
  13   2.0000     -10.372152      -282.2406
  14   2.0000     -10.351729      -281.6849
  15   2.0000     -10.350427      -281.6494
  16   2.0000     -10.346045      -281.5302
  17   2.0000     -10.344295      -281.4826
  18   2.0000     -10.343180      -281.4522
  19   2.0000     -10.341734      -281.4129
  20   2.0000     -10.341571      -281.4085
  21   2.0000     -10.339828      -281.3610
  22   2.0000     -10.338404      -281.3223
  23   2.0000     -10.337832      -281.3067
  24   2.0000     -10.337697      -281.3030
  25   2.0000     -10.337568      -281.2995
  26   2.0000     -10.337130      -281.2876
  27   2.0000     -10.335161      -281.2340
  28   2.0000     -10.334119      -281.2057
  29   2.0000     -10.330382      -281.1040
  30   2.0000     -10.330144      -281.0975
  31   2.0000     -10.329954      -281.0924
  32   2.0000     -10.324267      -280.9376
  33   2.0000     -10.323196      -280.9084
  34   2.0000     -10.320914      -280.8464
  35   2.0000     -10.320748      -280.8418
  36   2.0000     -10.320300      -280.8297
  37   2.0000     -10.320148      -280.8255
  38   2.0000     -10.319548      -280.8092
  39   2.0000     -10.319403      -280.8052
  40   2.0000     -10.319350      -280.8038
  41   2.0000     -10.317509      -280.7537
  42   2.0000     -10.317397      -280.7506
  43   2.0000     -10.316681      -280.7312
  44   2.0000     -10.316504      -280.7263
  45   2.0000     -10.314025      -280.6589
  46   2.0000     -10.313923      -280.6561
  47   2.0000     -10.313455      -280.6434
  48   2.0000     -10.312401      -280.6147
  49   2.0000     -10.310952      -280.5753
  50   2.0000     -10.310380      -280.5597
  51   2.0000     -10.310344      -280.5587
  52   2.0000     -10.309723      -280.5418
  53   2.0000     -10.309451      -280.5344
  54   2.0000     -10.308842      -280.5179
  55   2.0000     -10.305947      -280.4391
  56   2.0000     -10.304721      -280.4057
  57   2.0000     -10.304436      -280.3980
  58   2.0000     -10.304242      -280.3927
  59   2.0000     -10.303923      -280.3840
  60   2.0000     -10.303880      -280.3828
  61   2.0000     -10.303462      -280.3714
  62   2.0000     -10.300570      -280.2928
  63   2.0000     -10.300314      -280.2858
  64   2.0000     -10.299752      -280.2705
  65   2.0000     -10.299584      -280.2659
  66   2.0000     -10.298027      -280.2236
  67   2.0000     -10.296612      -280.1851
  68   2.0000     -10.295911      -280.1660
  69   2.0000     -10.292604      -280.0760
  70   2.0000     -10.292038      -280.0606
  71   2.0000     -10.291681      -280.0509
  72   2.0000     -10.291591      -280.0484
  73   2.0000     -10.291197      -280.0377
  74   2.0000     -10.289191      -279.9831
  75   2.0000     -10.288659      -279.9686
  76   2.0000     -10.288336      -279.9598
  77   2.0000     -10.287840      -279.9463
  78   2.0000      -1.142223       -31.0815
  79   2.0000      -1.135932       -30.9103
  80   2.0000      -1.097427       -29.8625
  81   2.0000      -1.031040       -28.0560
  82   2.0000      -1.030125       -28.0311
  83   2.0000      -1.026495       -27.9323
  84   2.0000      -1.021620       -27.7997
  85   2.0000      -1.019565       -27.7438
  86   2.0000      -1.013339       -27.5744
  87   2.0000      -1.012158       -27.5422
  88   2.0000      -1.007363       -27.4117
  89   2.0000      -1.001970       -27.2650
  90   2.0000      -1.001906       -27.2633
  91   2.0000      -1.000288       -27.2192
  92   2.0000      -0.999159       -27.1885
  93   2.0000      -0.996992       -27.1295
  94   2.0000      -0.990650       -26.9570
  95   2.0000      -0.990236       -26.9457
  96   2.0000      -0.978498       -26.6263
  97   2.0000      -0.974767       -26.5247
  98   2.0000      -0.938200       -25.5297
  99   2.0000      -0.933293       -25.3962
 100   2.0000      -0.928820       -25.2745
 101   2.0000      -0.923373       -25.1263
 102   2.0000      -0.915468       -24.9112
 103   2.0000      -0.900879       -24.5142
 104   2.0000      -0.899529       -24.4774
 105   2.0000      -0.895571       -24.3697
 106   2.0000      -0.891908       -24.2701
 107   2.0000      -0.888281       -24.1713
 108   2.0000      -0.884271       -24.0622
 109   2.0000      -0.883784       -24.0490
 110   2.0000      -0.872266       -23.7356
 111   2.0000      -0.857052       -23.3216
 112   2.0000      -0.841899       -22.9092
 113   2.0000      -0.835155       -22.7257
 114   2.0000      -0.832201       -22.6453
 115   2.0000      -0.830989       -22.6124
 116   2.0000      -0.821017       -22.3410
 117   2.0000      -0.813347       -22.1323
 118   2.0000      -0.812024       -22.0963
 119   2.0000      -0.796955       -21.6862
 120   2.0000      -0.791884       -21.5483
 121   2.0000      -0.777013       -21.1436
 122   2.0000      -0.770846       -20.9758
 123   2.0000      -0.765171       -20.8214
 124   2.0000      -0.763441       -20.7743
 125   2.0000      -0.742233       -20.1972
 126   2.0000      -0.740803       -20.1583
 127   2.0000      -0.737282       -20.0625
 128   2.0000      -0.734370       -19.9832
 129   2.0000      -0.720194       -19.5975
 130   2.0000      -0.711895       -19.3716
 131   2.0000      -0.707957       -19.2645
 132   2.0000      -0.706477       -19.2242
 133   2.0000      -0.704771       -19.1778
 134   2.0000      -0.697887       -18.9905
 135   2.0000      -0.687703       -18.7134
 136   2.0000      -0.685210       -18.6455
 137   2.0000      -0.679624       -18.4935
 138   2.0000      -0.674070       -18.3424
 139   2.0000      -0.665950       -18.1214
 140   2.0000      -0.659830       -17.9549
 141   2.0000      -0.654792       -17.8178
 142   2.0000      -0.653102       -17.7718
 143   2.0000      -0.649926       -17.6854
 144   2.0000      -0.646519       -17.5927
 145   2.0000      -0.642186       -17.4748
 146   2.0000      -0.637099       -17.3364
 147   2.0000      -0.621828       -16.9208
 148   2.0000      -0.616851       -16.7854
 149   2.0000      -0.615457       -16.7474
 150   2.0000      -0.613204       -16.6861
 151   2.0000      -0.611095       -16.6287
 152   2.0000      -0.609257       -16.5787
 153   2.0000      -0.608940       -16.5701
 154   2.0000      -0.599869       -16.3233
 155   2.0000      -0.594374       -16.1737
 156   2.0000      -0.589141       -16.0313
 157   2.0000      -0.570295       -15.5185
 158   2.0000      -0.568699       -15.4751
 159   2.0000      -0.566134       -15.4053
 160   2.0000      -0.559281       -15.2188
 161   2.0000      -0.556982       -15.1562
 162   2.0000      -0.553147       -15.0519
 163   2.0000      -0.551663       -15.0115
 164   2.0000      -0.549417       -14.9504
 165   2.0000      -0.548587       -14.9278
 166   2.0000      -0.546489       -14.8707
 167   2.0000      -0.544400       -14.8139
 168   2.0000      -0.544116       -14.8061
 169   2.0000      -0.540442       -14.7062
 170   2.0000      -0.539771       -14.6879
 171   2.0000      -0.534436       -14.5427
 172   2.0000      -0.532391       -14.4871
 173   2.0000      -0.530060       -14.4237
 174   2.0000      -0.528910       -14.3924
 175   2.0000      -0.526592       -14.3293
 176   2.0000      -0.525453       -14.2983
 177   2.0000      -0.523505       -14.2453
 178   2.0000      -0.522992       -14.2313
 179   2.0000      -0.520561       -14.1652
 180   2.0000      -0.519111       -14.1257
 181   2.0000      -0.517378       -14.0786
 182   2.0000      -0.514388       -13.9972
 183   2.0000      -0.514071       -13.9886
 184   2.0000      -0.510469       -13.8906
 185   2.0000      -0.508519       -13.8375
 186   2.0000      -0.506533       -13.7835
 187   2.0000      -0.506297       -13.7770
 188   2.0000      -0.505306       -13.7501
 189   2.0000      -0.503718       -13.7069
 190   2.0000      -0.502806       -13.6820
 191   2.0000      -0.500501       -13.6193
 192   2.0000      -0.499712       -13.5978
 193   2.0000      -0.497031       -13.5249
 194   2.0000      -0.492743       -13.4082
 195   2.0000      -0.492276       -13.3955
 196   2.0000      -0.489829       -13.3289
 197   2.0000      -0.477853       -13.0030
 198   2.0000      -0.472385       -12.8542
 199   2.0000      -0.471990       -12.8435
 200   2.0000      -0.468457       -12.7474
 201   2.0000      -0.466486       -12.6937
 202   2.0000      -0.460558       -12.5324
 203   2.0000      -0.458276       -12.4703
 204   2.0000      -0.455842       -12.4041
 205   2.0000      -0.454431       -12.3657
 206   2.0000      -0.452524       -12.3138
 207   2.0000      -0.451503       -12.2860
 208   2.0000      -0.449315       -12.2265
 209   2.0000      -0.448399       -12.2016
 210   2.0000      -0.448100       -12.1934
 211   2.0000      -0.447513       -12.1775
 212   2.0000      -0.447216       -12.1694
 213   2.0000      -0.446640       -12.1537
 214   2.0000      -0.445889       -12.1333
 215   2.0000      -0.442908       -12.0521
 216   2.0000      -0.441367       -12.0102
 217   2.0000      -0.440991       -12.0000
 218   2.0000      -0.438508       -11.9324
 219   2.0000      -0.436621       -11.8811
 220   2.0000      -0.436012       -11.8645
 221   2.0000      -0.434454       -11.8221
 222   2.0000      -0.430993       -11.7279
 223   2.0000      -0.428170       -11.6511
 224   2.0000      -0.427033       -11.6202
 225   2.0000      -0.423679       -11.5289
 226   2.0000      -0.422948       -11.5090
 227   2.0000      -0.422154       -11.4874
 228   2.0000      -0.420417       -11.4401
 229   2.0000      -0.419291       -11.4095
 230   2.0000      -0.418278       -11.3819
 231   2.0000      -0.413256       -11.2453
 232   2.0000      -0.412215       -11.2169
 233   2.0000      -0.409631       -11.1466
 234   2.0000      -0.402006       -10.9391
 235   2.0000      -0.399444       -10.8694
 236   2.0000      -0.392324       -10.6757
 237   2.0000      -0.385227       -10.4826
 238   2.0000      -0.377819       -10.2810
 239   2.0000      -0.369410       -10.0521
 240   2.0000      -0.364218        -9.9109
 241   2.0000      -0.349429        -9.5084
 242   2.0000      -0.348477        -9.4825
 243   2.0000      -0.341837        -9.3018
 244   2.0000      -0.339740        -9.2448
 245   2.0000      -0.338796        -9.2191
 246   2.0000      -0.337422        -9.1817
 247   2.0000      -0.325063        -8.8454
 248   2.0000      -0.320782        -8.7289
 249   2.0000      -0.319375        -8.6906
 250   2.0000      -0.308326        -8.3900
 251   2.0000      -0.299872        -8.1599
 252   2.0000      -0.296786        -8.0760
 253   2.0000      -0.286961        -7.8086
 254   2.0000      -0.279689        -7.6107
 255   0.0000      -0.143404        -3.9022
 256   0.0000      -0.138570        -3.7707
 257   0.0000      -0.097518        -2.6536
 258   0.0000      -0.094742        -2.5781
 259   0.0000      -0.065084        -1.7710

MULLIKEN ATOMIC CHARGES
-----------------------
   0 C :    0.326404
   1 C :   -0.362722
   2 C :   -0.179698
   3 N :    0.154377
   4 C :   -0.182763
   5 N :    0.154920
   6 C :    0.050132
   7 C :   -0.010502
   8 C :   -0.080600
   9 C :    0.101578
  10 C :    0.099728
  11 C :   -0.085456
  12 C :   -0.021946
  13 C :    0.039545
  14 C :    0.038187
  15 C :   -0.018038
  16 C :    0.144617
  17 O :   -0.146318
  18 C :   -0.062542
  19 C :   -0.086141
  20 C :    0.086161
  21 C :    0.032512
  22 C :   -0.115123
  23 C :   -0.124810
  24 N :    0.152684
  25 C :    0.001459
  26 C :    0.028171
  27 C :    0.066497
  28 C :    0.101450
  29 C :   -0.016393
  30 C :   -0.076329
  31 C :   -0.033683
  32 C :   -0.129334
  33 N :    0.153653
  34 C :    0.005126
  35 C :    0.004245
  36 C :    0.002157
  37 C :    0.012119
  38 N :   -0.026204
  39 C :   -0.111623
  40 C :    0.013621
  41 N :   -0.040825
  42 C :    0.120585
  43 C :    0.015319
  44 C :   -0.092952
  45 C :   -0.129178
  46 N :    0.151806
  47 C :   -0.035559
  48 C :    0.063255
  49 C :    0.044228
  50 C :    0.077122
  51 C :    0.002527
  52 C :   -0.102148
  53 C :   -0.024916
  54 C :   -0.128991
  55 N :    0.152518
  56 C :   -0.004371
  57 C :   -0.001962
  58 C :   -0.039729
  59 C :   -0.064572
  60 C :    0.329985
  61 C :   -0.345258
  62 C :   -0.180749
  63 N :    0.149148
  64 C :   -0.191997
  65 N :    0.148559
  66 C :    0.048113
  67 C :   -0.000733
  68 C :    0.151998
  69 O :   -0.153159
  70 C :   -0.081538
  71 C :    0.100146
  72 C :    0.097150
  73 C :   -0.085954
  74 C :   -0.019492
  75 C :    0.036727
  76 C :    0.039386
  77 C :   -0.018292
  78 H :   -0.009854
  79 H :   -0.006038
  80 H :   -0.005667
  81 H :   -0.002387
  82 H :   -0.002917
  83 H :   -0.014421
  84 H :    0.025497
  85 H :    0.022069
  86 H :    0.020586
  87 H :   -0.001185
  88 H :    0.013586
  89 H :    0.005098
  90 H :   -0.010972
  91 H :    0.004982
  92 H :    0.012426
  93 H :    0.005072
  94 H :    0.007250
  95 H :    0.013378
  96 H :    0.024144
  97 H :    0.025044
  98 H :    0.031232
  99 H :    0.009801
 100 H :   -0.012855
 101 H :   -0.007160
 102 H :   -0.008173
 103 H :   -0.003115
 104 H :   -0.003722
 105 H :   -0.017018
Sum of atomic charges:   -0.0000000

LOEWDIN ATOMIC CHARGES
----------------------
   0 C :    0.076739
   1 C :   -0.137083
   2 C :   -0.016869
   3 N :   -0.047779
   4 C :   -0.021460
   5 N :   -0.049054
   6 C :   -0.028024
   7 C :   -0.057848
   8 C :    0.034603
   9 C :   -0.007228
  10 C :   -0.005459
  11 C :    0.022506
  12 C :   -0.004144
  13 C :   -0.010847
  14 C :   -0.009340
  15 C :   -0.008649
  16 C :    0.084336
  17 O :   -0.138572
  18 C :   -0.083592
  19 C :    0.063419
  20 C :   -0.051808
  21 C :    0.077530
  22 C :   -0.056070
  23 C :   -0.030898
  24 N :   -0.031043
  25 C :    0.026551
  26 C :    0.034403
  27 C :    0.049773
  28 C :   -0.030326
  29 C :    0.025047
  30 C :   -0.035198
  31 C :    0.000435
  32 C :   -0.028520
  33 N :   -0.029723
  34 C :    0.007862
  35 C :   -0.024442
  36 C :   -0.010474
  37 C :    0.009713
  38 N :   -0.037130
  39 C :   -0.019298
  40 C :    0.009100
  41 N :   -0.046474
  42 C :   -0.040085
  43 C :    0.042295
  44 C :   -0.044439
  45 C :   -0.031023
  46 N :   -0.029736
  47 C :    0.001980
  48 C :    0.042892
  49 C :    0.035290
  50 C :   -0.038487
  51 C :    0.041171
  52 C :   -0.051498
  53 C :    0.012173
  54 C :   -0.031617
  55 N :   -0.031889
  56 C :    0.020209
  57 C :   -0.017807
  58 C :    0.063773
  59 C :   -0.085293
  60 C :    0.074997
  61 C :   -0.136085
  62 C :   -0.017078
  63 N :   -0.050771
  64 C :   -0.020057
  65 N :   -0.051822
  66 C :   -0.025949
  67 C :   -0.056407
  68 C :    0.086065
  69 O :   -0.145782
  70 C :    0.033392
  71 C :   -0.007844
  72 C :   -0.005636
  73 C :    0.020445
  74 C :   -0.004759
  75 C :   -0.012187
  76 C :   -0.010915
  77 C :   -0.009188
  78 H :    0.039968
  79 H :    0.039805
  80 H :    0.035817
  81 H :    0.034375
  82 H :    0.033846
  83 H :    0.032875
  84 H :    0.044845
  85 H :    0.040387
  86 H :    0.042106
  87 H :    0.034202
  88 H :    0.036762
  89 H :    0.033099
  90 H :    0.030158
  91 H :    0.026902
  92 H :    0.026803
  93 H :    0.040694
  94 H :    0.036988
  95 H :    0.041418
  96 H :    0.038402
  97 H :    0.037463
  98 H :    0.035019
  99 H :    0.041973
 100 H :    0.039163
 101 H :    0.039378
 102 H :    0.035161
 103 H :    0.033852
 104 H :    0.033381
 105 H :    0.032161

  Mayer bond orders larger than 0.100000
B(  0-C ,  1-C ) :   1.6309 B(  0-C ,  6-C ) :   0.9923 B(  0-C , 18-C ) :   1.0515
B(  1-C ,  2-C ) :   1.1493 B(  1-C ,  4-C ) :   1.1462 B(  2-C ,  3-N ) :   2.9619
B(  4-C ,  5-N ) :   2.9454 B(  6-C ,  7-C ) :   1.2109 B(  6-C , 11-C ) :   1.4406
B(  7-C ,  8-C ) :   1.4668 B(  7-C , 16-C ) :   0.9484 B(  8-C ,  9-C ) :   1.1799
B(  8-C , 78-H ) :   1.0167 B(  9-C , 10-C ) :   1.2540 B(  9-C , 15-C ) :   1.2429
B( 10-C , 11-C ) :   1.2103 B( 10-C , 12-C ) :   1.2376 B( 11-C , 79-H ) :   0.9895
B( 12-C , 13-C ) :   1.4900 B( 12-C , 80-H ) :   0.9980 B( 13-C , 14-C ) :   1.2593
B( 13-C , 81-H ) :   0.9882 B( 14-C , 15-C ) :   1.4897 B( 14-C , 82-H ) :   0.9885
B( 15-C , 83-H ) :   0.9983 B( 16-C , 17-O ) :   2.2169 B( 16-C , 18-C ) :   0.9219
B( 18-C , 19-C ) :   1.6443 B( 19-C , 20-C ) :   1.0896 B( 19-C , 84-H ) :   0.9253
B( 20-C , 21-C ) :   1.5690 B( 20-C , 26-C ) :   1.0442 B( 21-C , 22-C ) :   1.0907
B( 21-C , 85-H ) :   1.0077 B( 22-C , 23-C ) :   1.0596 B( 22-C , 25-C ) :   1.6182
B( 23-C , 24-N ) :   3.0432 B( 25-C , 26-C ) :   1.0834 B( 25-C , 86-H ) :   1.0116
B( 26-C , 27-C ) :   1.4868 B( 27-C , 28-C ) :   1.0395 B( 27-C , 31-C ) :   1.0830
B( 28-C , 29-C ) :   1.6012 B( 28-C , 34-C ) :   1.0692 B( 29-C , 30-C ) :   1.1015
B( 29-C , 87-H ) :   1.0091 B( 30-C , 31-C ) :   1.6296 B( 30-C , 32-C ) :   1.0589
B( 31-C , 88-H ) :   1.0138 B( 32-C , 33-N ) :   3.0392 B( 34-C , 35-C ) :   1.7123
B( 34-C , 89-H ) :   0.9640 B( 35-C , 36-C ) :   1.0741 B( 35-C , 90-H ) :   0.9738
B( 36-C , 37-C ) :   1.2760 B( 36-C , 41-N ) :   1.4971 B( 37-C , 38-N ) :   1.5905
B( 37-C , 91-H ) :   0.9821 B( 38-N , 39-C ) :   1.5640 B( 39-C , 40-C ) :   1.3020
B( 39-C , 42-C ) :   0.9522 B( 40-C , 41-N ) :   1.6001 B( 40-C , 92-H ) :   0.9799
B( 42-C , 43-C ) :   1.6573 B( 42-C , 48-C ) :   1.0711 B( 43-C , 44-C ) :   1.0647
B( 43-C , 93-H ) :   1.0258 B( 44-C , 45-C ) :   1.0622 B( 44-C , 47-C ) :   1.6450
B( 45-C , 46-N ) :   3.0392 B( 47-C , 48-C ) :   1.0756 B( 47-C , 94-H ) :   1.0137
B( 48-C , 49-C ) :   1.5015 B( 49-C , 50-C ) :   1.0426 B( 49-C , 53-C ) :   1.0830
B( 50-C , 51-C ) :   1.6057 B( 50-C , 56-C ) :   1.0489 B( 51-C , 52-C ) :   1.0934
B( 51-C , 95-H ) :   1.0169 B( 52-C , 53-C ) :   1.6381 B( 52-C , 54-C ) :   1.0601
B( 53-C , 96-H ) :   1.0060 B( 54-C , 55-N ) :   3.0428 B( 56-C , 57-C ) :   1.6114
B( 56-C , 97-H ) :   0.9681 B( 57-C , 58-C ) :   1.1451 B( 57-C , 98-H ) :   0.9810
B( 58-C , 59-C ) :   1.5628 B( 58-C , 99-H ) :   0.9614 B( 59-C , 60-C ) :   1.0542
B( 59-C , 68-C ) :   0.9387 B( 60-C , 61-C ) :   1.6356 B( 60-C , 66-C ) :   0.9892
B( 61-C , 62-C ) :   1.1432 B( 61-C , 64-C ) :   1.1453 B( 62-C , 63-N ) :   2.9639
B( 64-C , 65-N ) :   2.9648 B( 66-C , 67-C ) :   1.2155 B( 66-C , 73-C ) :   1.4462
B( 67-C , 68-C ) :   0.9469 B( 67-C , 70-C ) :   1.4665 B( 68-C , 69-O ) :   2.1978
B( 70-C , 71-C ) :   1.1801 B( 70-C ,100-H ) :   1.0173 B( 71-C , 72-C ) :   1.2556
B( 71-C , 77-C ) :   1.2417 B( 72-C , 73-C ) :   1.2061 B( 72-C , 74-C ) :   1.2395
B( 73-C ,101-H ) :   0.9902 B( 74-C , 75-C ) :   1.4886 B( 74-C ,102-H ) :   0.9981
B( 75-C , 76-C ) :   1.2589 B( 75-C ,103-H ) :   0.9890 B( 76-C , 77-C ) :   1.4895
B( 76-C ,104-H ) :   0.9885 B( 77-C ,105-H ) :   0.9986

-----------------------------------------------------------------------------
         ABSORPTION SPECTRUM VIA TRANSITION ELECTRIC DIPOLE MOMENTS
-----------------------------------------------------------------------------
State   Energy  Wavelength   fosc         T2         TX        TY        TZ
        (cm-1)    (nm)                  (au**2)     (au)      (au)      (au)
-----------------------------------------------------------------------------
   0   11634.3    859.5   0.115254373   3.26131  -1.31476   0.92147   0.82681
   1   13591.9    735.7   0.140192128   3.39561  -1.21966   1.16164  -0.74743
   2   15054.2    664.3   0.007706594   0.16853  -0.04418  -0.17827   0.36715
   3   15733.7    635.6   0.039320541   0.82274  -0.81228   0.08348   0.39494
   4   21051.1    475.0   0.019942942   0.31188  -0.26846   0.17163   0.45864
   5   21917.4    456.3   0.003866635   0.05808  -0.08344  -0.06757  -0.21576
   6   22134.8    451.8   0.028301167   0.42092   0.06756  -0.35124  -0.54128
   7   22644.6    441.6   0.014376957   0.20901  -0.19936  -0.40548   0.06969
   8   23418.3    427.0   0.052176009   0.73349   0.57858  -0.38138  -0.50327
   9   23954.2    417.5   0.133068752   1.82882  -0.95352   0.90298  -0.32287
  10   24206.1    413.1   0.668308105   9.08923  -1.78371   2.25746  -0.90084
  11   24508.2    408.0   0.147475770   1.98100  -1.17723   0.73701  -0.22792
  12   24860.6    402.2   0.164472744   2.17800   0.50918   0.36267  -1.33687
  13   25376.8    394.1   0.165291352   2.14432  -1.19589  -0.16179   0.82945
  14   25517.2    391.9   0.004142189   0.05344  -0.01644   0.18590   0.13643
  15   25700.4    389.1   0.013226897   0.16943   0.24417   0.26131  -0.20379
  16   25957.4    385.2   0.081442176   1.03291  -0.22750   0.92887  -0.34404
  17   26000.3    384.6   0.128545489   1.62762   0.74985  -0.20294  -1.01201
  18   26573.8    376.3   0.058417917   0.72371   0.72141  -0.39987  -0.20828
  19   27810.9    359.6   0.061459274   0.72753   0.75326  -0.23111   0.32668
  20   28046.8    356.5   0.083452357   0.97956   0.38628  -0.89521   0.17015
  21   28304.4    353.3   0.170408588   1.98204  -1.31404   0.34059   0.37329
  22   28384.5    352.3   0.176628690   2.04859   0.14124  -0.53819  -1.31871
  23   28739.4    348.0   0.094075471   1.07764   0.13011  -0.27559   0.99235
  24   29207.5    342.4   0.109124740   1.23000   0.70115  -0.71271   0.48004
  25   29463.4    339.4   0.162757502   1.81859  -0.82464   1.02837   0.28463
  26   29804.2    335.5   0.073122025   0.80769   0.71597   0.12866   0.52776
  27   30292.3    330.1   0.086269107   0.93756   0.24062  -0.58594  -0.73235
  28   30422.3    328.7   0.725136621   7.84700   1.89615   0.23365   2.04866
  29   31153.4    321.0   0.308814144   3.26338   0.35102  -0.98360  -1.47401
  30   31379.2    318.7   0.003080818   0.03232  -0.07941   0.13653   0.08588
  31   31635.9    316.1   0.122613473   1.27595   0.96504  -0.47611  -0.34345
  32   31907.3    313.4   0.252086663   2.60097  -1.12680   1.14660   0.12888
  33   32080.7    311.7   0.082013454   0.84162  -0.88087   0.25323  -0.03953
  34   32275.8    309.8   0.065642483   0.66955  -0.53933  -0.61102  -0.07299
  35   32509.1    307.6   0.058825593   0.59571   0.59616  -0.39913  -0.28460
  36   32728.9    305.5   0.491863724   4.94753  -1.01735   1.96285  -0.24444
  37   33131.7    301.8   0.019184611   0.19063   0.41098   0.00788  -0.14717
  38   33477.5    298.7   0.542118207   5.33110  -1.42178   1.60684   0.85305
  39   33730.4    296.5   0.154239098   1.50539  -0.73862   0.73674  -0.64579
  40   33865.5    295.3   0.006308130   0.06132  -0.23590  -0.05745  -0.04870
  41   33923.7    294.8   0.083250944   0.80791  -0.78633   0.40325   0.16427
  42   34031.1    293.8   0.264713267   2.56080  -0.59330   0.67898   1.32204
  43   34200.6    292.4   0.053848951   0.51835   0.62989  -0.32644   0.12256
  44   34240.8    292.0   0.498402609   4.79195   2.09305   0.30020   0.56655
  45   34675.8    288.4   0.005255143   0.04989  -0.21540  -0.05653   0.01729
  46   34694.0    288.2   0.517621873   4.91172   0.52258  -0.64007  -2.05644
  47   35223.2    283.9   0.006280487   0.05870   0.14017  -0.04765   0.19179
  48   35618.0    280.8   0.000113422   0.00105   0.02491  -0.00356  -0.02037
  49   35729.3    279.9   0.038451466   0.35429   0.38118  -0.01188   0.45701
  50   36181.4    276.4   0.013469058   0.12255  -0.10468   0.33405  -0.00240
  51   36217.4    276.1   0.124955007   1.13583  -0.29598   0.83894  -0.58685
  52   36717.9    272.3   0.013195304   0.11831  -0.19989   0.26960  -0.07531
  53   36753.0    272.1   0.037274368   0.33388  -0.26991   0.49671  -0.11962
  54   36838.0    271.5   0.012929365   0.11555   0.14726   0.13452   0.27525
  55   37554.2    266.3   0.000313316   0.00275  -0.01141   0.02179  -0.04628
  56   37964.3    263.4   0.098550062   0.85459  -0.60747  -0.65744  -0.23096
  57   38406.5    260.4   0.039450670   0.33816  -0.22072   0.40839  -0.35023
  58   38420.7    260.3   0.020386558   0.17468  -0.33329   0.10918  -0.22733
  59   38526.5    259.6   0.051679433   0.44160  -0.51640   0.19157  -0.37180
  60   38754.2    258.0   0.062711727   0.53273   0.64709  -0.20847  -0.26560
  61   38795.5    257.8   0.066548742   0.56472  -0.30473   0.26822   0.63239
  62   39144.7    255.5   0.124444444   1.04659   0.52121  -0.42862  -0.76891
  63   39364.4    254.0   0.164599926   1.37658  -0.47442  -0.98410  -0.42785
  64   39464.8    253.4   0.082405982   0.68742  -0.32884  -0.54930  -0.52684
  65   39590.4    252.6   0.019393547   0.16127   0.21663   0.24491   0.23314
  66   39838.8    251.0   0.026508569   0.21906   0.36043  -0.10958   0.27774
  67   39902.9    250.6   0.224920983   1.85567   0.99529  -0.79296   0.48610
  68   40074.5    249.5   0.080427393   0.66071   0.68241   0.28007   0.34145
  69   40232.4    248.6   0.004014860   0.03285  -0.05413   0.16160  -0.06172

FINAL SINGLE POINT ENERGY     -3225.432714344380

DIPOLE MOMENT
-------------
                                X             Y             Z
Electronic contribution:      9.56122      -1.20098      11.80922
Nuclear contribution   :    -10.31210       0.11555     -13.93486
                        -----------------------------------------
Total Dipole Moment    :     -0.75088      -1.08543      -2.12565
                        -----------------------------------------
Magnitude (a.u.)       :      2.50207
Magnitude (Debye)      :      6.35976

Rotational constants in cm-1:     0.001500     0.000209     0.000195
Rotational constants in MHz :    44.969468     6.255425     5.846362

                             ****ORCA TERMINATED NORMALLY****
TOTAL RUN TIME: 0 days 0 hours 13 minutes 55 seconds 762 msec
