                         Program Version 4.2.0 -  RELEASE  -
|  1> # ORCA input file
|  2> # SCF done       -193.210103603978          0.000769948647
|  3> ! CAM-B3LYP def2-SVP def2/J RIJCOSX Grid4 TightSCF
|  4> %maxcore 5000
|  5> %tddft
|  6>     Mode sTDDFT
|  7>     Ethresh 5.0
|  8>     maxcore 5000
|  9> end
| 10>
| 11> %pal
| 12>   nprocs 6
| 13>   end
| 14> * xyz 0 1
| 15>    C        2.08579         3.33319        -3.66598
| 16>    C        2.60867         4.57967        -3.44206
| 17>    C        3.27414         5.33827        -4.42629
| 18>    N        3.80584         6.00173        -5.19733
| 19>    C        2.61313         5.20289        -2.17740
| 20>    N        2.66632         5.71662        -1.15216
| 21>    C        2.30238         2.52972        -4.86245
| 22>    C        2.09750         1.15791        -4.52942
| 23>    C        2.27892         0.16411        -5.44794
| 24>    C        2.67018         0.50358        -6.76276
| 25>    C        2.85940         1.87428        -7.10527
| 26>    C        2.66979         2.88259        -6.13288
| 27>    C        3.24465         2.19871        -8.42191
| 28>    C        3.43863         1.21797        -9.35611
| 29>    C        3.25357        -0.13103        -9.01801
| 30>    C        2.87771        -0.48060        -7.74932
| 31>    C        1.67887         1.05336        -3.12073
| 32>    O        1.46931         0.05684        -2.47051
| 33>    C        1.49352         2.46551        -2.66668
| 34>    C        0.77695         2.71917        -1.54290
| 35>    C        0.14140         3.92301        -1.14091
| 36>    C       -0.21574         4.26235         0.15279
| 37>    C       -0.84999         5.50132         0.21530
| 38>    C       -1.02024         6.08861        -1.05029
| 39>    S       -0.38039         5.13587        -2.30555
| 40>    C       -1.67376         7.33822        -0.89050
| 41>    C       -1.90240         7.54687         0.48367
| 42>    C       -1.40006         6.39823         1.22150
| 43>    C       -1.43674         6.19882         2.56923
| 44>    C       -1.99445         7.14329         3.45829
| 45>    N       -2.44773         7.89991         4.19018
| 46>    C       -0.93007         5.02544         3.16894
| 47>    N       -0.52998         4.07147         3.66258
| 48>    C       -2.52488         8.76873         0.74196
| 49>    C       -2.76469         9.46264        -0.42522
| 50>    S       -2.22872         8.62479        -1.85873
| 51>    C       -3.37290        10.75014        -0.59019
| 52>    N       -3.53748        11.17727        -1.83946
| 53>    C       -4.08874        12.38067        -1.97037
| 54>    N       -4.45910        13.15454        -0.94525
| 55>    C       -4.25850        12.62622         0.24616
| 56>    N       -3.73298        11.44296         0.49503
| 57>    C       -4.29487        12.85169        -3.30905
| 58>    C       -4.80192        14.06483        -3.72368
| 59>    C       -4.85833        14.13912        -5.11628
| 60>    C       -4.39312        12.96325        -5.73742
| 61>    S       -3.87891        11.78148        -4.62203
| 62>    C       -4.50579        13.12236        -7.14243
| 63>    C       -5.03216        14.40296        -7.41076
| 64>    C       -5.27950        15.07840        -6.14439
| 65>    C       -5.81248        16.31855        -5.95771
| 66>    C       -6.23783        17.14352        -7.02265
| 67>    N       -6.61257        17.82854        -7.86140
| 68>    C       -6.00080        16.86803        -4.67030
| 69>    N       -6.15731        17.32571        -3.63121
| 70>    C       -5.17100        14.66255        -8.76924
| 71>    C       -4.76362        13.58828        -9.54901
| 72>    S       -4.20868        12.23338        -8.55789
| 73>    C       -4.77792        13.36426       -10.94336
| 74>    C       -4.95799        14.23370       -11.98041
| 75>    C       -5.04824        13.82634       -13.37451
| 76>    C       -5.28408        12.55937       -13.84195
| 77>    C       -5.38687        12.23048       -15.21043
| 78>    N       -5.47373        11.89194       -16.30389
| 79>    C       -5.49803        11.41531       -13.04452
| 80>    N       -5.70158        10.44386       -12.46618
| 81>    C       -4.93776        15.02234       -14.19850
| 82>    C       -4.86828        16.15615       -13.34060
| 83>    C       -4.91391        15.72025       -11.93573
| 84>    O       -4.86989        16.43943       -10.96109
| 85>    C       -4.76942        17.42744       -13.82841
| 86>    C       -4.73224        17.62629       -15.22649
| 87>    C       -4.79365        16.49632       -16.09287
| 88>    C       -4.89695        15.19210       -15.55750
| 89>    C       -4.75094        16.70609       -17.48632
| 90>    C       -4.65362        17.97021       -18.00107
| 91>    C       -4.59379        19.08184       -17.14725
| 92>    C       -4.63279        18.91372       -15.78952
| 93>    H        2.12828        -0.86973        -5.17495
| 94>    H        2.80955         3.91360        -6.41878
| 95>    H        3.38930         3.23842        -8.67618
| 96>    H        3.73664         1.47633       -10.36112
| 97>    H        3.41029        -0.89180        -9.76785
| 98>    H        2.73399        -1.51761        -7.48361
| 99>    H        0.60998         1.86432        -0.89371
|100>    H        0.01697         3.64086         0.99849
|101>    H       -2.79688         9.15609         1.70672
|102>    H       -4.55359        13.22084         1.10142
|103>    H       -5.10333        14.82818        -3.03005
|104>    H       -5.53928        15.57949        -9.19171
|105>    H       -4.60053        12.32787       -11.20785
|106>    H       -4.72181        18.26985       -13.15450
|107>    H       -4.93477        14.35779       -16.23970
|108>    H       -4.79891        15.84724       -18.13961
|109>    H       -4.62249        18.12056       -19.06976
|110>    H       -4.51650        20.07199       -17.57076
|111>    H       -4.58729        19.76562       -15.12709
|112> *
|113>
|114>                          ****END OF INPUT****

CARTESIAN COORDINATES (ANGSTROEM)
---------------------------------
  C      2.085790    3.333190   -3.665980
  C      2.608670    4.579670   -3.442060
  C      3.274140    5.338270   -4.426290
  N      3.805840    6.001730   -5.197330
  C      2.613130    5.202890   -2.177400
  N      2.666320    5.716620   -1.152160
  C      2.302380    2.529720   -4.862450
  C      2.097500    1.157910   -4.529420
  C      2.278920    0.164110   -5.447940
  C      2.670180    0.503580   -6.762760
  C      2.859400    1.874280   -7.105270
  C      2.669790    2.882590   -6.132880
  C      3.244650    2.198710   -8.421910
  C      3.438630    1.217970   -9.356110
  C      3.253570   -0.131030   -9.018010
  C      2.877710   -0.480600   -7.749320
  C      1.678870    1.053360   -3.120730
  O      1.469310    0.056840   -2.470510
  C      1.493520    2.465510   -2.666680
  C      0.776950    2.719170   -1.542900
  C      0.141400    3.923010   -1.140910
  C     -0.215740    4.262350    0.152790
  C     -0.849990    5.501320    0.215300
  C     -1.020240    6.088610   -1.050290
  S     -0.380390    5.135870   -2.305550
  C     -1.673760    7.338220   -0.890500
  C     -1.902400    7.546870    0.483670
  C     -1.400060    6.398230    1.221500
  C     -1.436740    6.198820    2.569230
  C     -1.994450    7.143290    3.458290
  N     -2.447730    7.899910    4.190180
  C     -0.930070    5.025440    3.168940
  N     -0.529980    4.071470    3.662580
  C     -2.524880    8.768730    0.741960
  C     -2.764690    9.462640   -0.425220
  S     -2.228720    8.624790   -1.858730
  C     -3.372900   10.750140   -0.590190
  N     -3.537480   11.177270   -1.839460
  C     -4.088740   12.380670   -1.970370
  N     -4.459100   13.154540   -0.945250
  C     -4.258500   12.626220    0.246160
  N     -3.732980   11.442960    0.495030
  C     -4.294870   12.851690   -3.309050
  C     -4.801920   14.064830   -3.723680
  C     -4.858330   14.139120   -5.116280
  C     -4.393120   12.963250   -5.737420
  S     -3.878910   11.781480   -4.622030
  C     -4.505790   13.122360   -7.142430
  C     -5.032160   14.402960   -7.410760
  C     -5.279500   15.078400   -6.144390
  C     -5.812480   16.318550   -5.957710
  C     -6.237830   17.143520   -7.022650
  N     -6.612570   17.828540   -7.861400
  C     -6.000800   16.868030   -4.670300
  N     -6.157310   17.325710   -3.631210
  C     -5.171000   14.662550   -8.769240
  C     -4.763620   13.588280   -9.549010
  S     -4.208680   12.233380   -8.557890
  C     -4.777920   13.364260  -10.943360
  C     -4.957990   14.233700  -11.980410
  C     -5.048240   13.826340  -13.374510
  C     -5.284080   12.559370  -13.841950
  C     -5.386870   12.230480  -15.210430
  N     -5.473730   11.891940  -16.303890
  C     -5.498030   11.415310  -13.044520
  N     -5.701580   10.443860  -12.466180
  C     -4.937760   15.022340  -14.198500
  C     -4.868280   16.156150  -13.340600
  C     -4.913910   15.720250  -11.935730
  O     -4.869890   16.439430  -10.961090
  C     -4.769420   17.427440  -13.828410
  C     -4.732240   17.626290  -15.226490
  C     -4.793650   16.496320  -16.092870
  C     -4.896950   15.192100  -15.557500
  C     -4.750940   16.706090  -17.486320
  C     -4.653620   17.970210  -18.001070
  C     -4.593790   19.081840  -17.147250
  C     -4.632790   18.913720  -15.789520
  H      2.128280   -0.869730   -5.174950
  H      2.809550    3.913600   -6.418780
  H      3.389300    3.238420   -8.676180
  H      3.736640    1.476330  -10.361120
  H      3.410290   -0.891800   -9.767850
  H      2.733990   -1.517610   -7.483610
  H      0.609980    1.864320   -0.893710
  H      0.016970    3.640860    0.998490
  H     -2.796880    9.156090    1.706720
  H     -4.553590   13.220840    1.101420
  H     -5.103330   14.828180   -3.030050
  H     -5.539280   15.579490   -9.191710
  H     -4.600530   12.327870  -11.207850
  H     -4.721810   18.269850  -13.154500
  H     -4.934770   14.357790  -16.239700
  H     -4.798910   15.847240  -18.139610
  H     -4.622490   18.120560  -19.069760
  H     -4.516500   20.071990  -17.570760
  H     -4.587290   19.765620  -15.127090

 Total Charge           Charge          ....    0
 Multiplicity           Mult            ....    1
 Number of Electrons    NEL             ....  542
 Basis Dimension        Dim             .... 1203

ORBITAL ENERGIES
----------------

  NO   OCC          E(Eh)            E(eV)
   0   2.0000     -89.001863     -2421.8638
   1   2.0000     -89.001659     -2421.8583
   2   2.0000     -89.001412     -2421.8515
   3   2.0000     -89.000671     -2421.8314
   4   2.0000     -19.222145      -523.0611
   5   2.0000     -19.220855      -523.0260
   6   2.0000     -14.440377      -392.9426
   7   2.0000     -14.435647      -392.8139
   8   2.0000     -14.435108      -392.7992
   9   2.0000     -14.434798      -392.7908
  10   2.0000     -14.433040      -392.7430
  11   2.0000     -14.431343      -392.6968
  12   2.0000     -14.431213      -392.6933
  13   2.0000     -14.422959      -392.4687
  14   2.0000     -14.422188      -392.4477
  15   2.0000     -14.420927      -392.4134
  16   2.0000     -14.417750      -392.3269
  17   2.0000     -10.385067      -282.5920
  18   2.0000     -10.384722      -282.5827
  19   2.0000     -10.373698      -282.2827
  20   2.0000     -10.372639      -282.2539
  21   2.0000     -10.372616      -282.2532
  22   2.0000     -10.372289      -282.2443
  23   2.0000     -10.366987      -282.1001
  24   2.0000     -10.359385      -281.8932
  25   2.0000     -10.359132      -281.8863
  26   2.0000     -10.351448      -281.6772
  27   2.0000     -10.350234      -281.6442
  28   2.0000     -10.349747      -281.6309
  29   2.0000     -10.347842      -281.5791
  30   2.0000     -10.345918      -281.5267
  31   2.0000     -10.345564      -281.5171
  32   2.0000     -10.344904      -281.4991
  33   2.0000     -10.344827      -281.4970
  34   2.0000     -10.335820      -281.2520
  35   2.0000     -10.335578      -281.2454
  36   2.0000     -10.335426      -281.2413
  37   2.0000     -10.334653      -281.2202
  38   2.0000     -10.334408      -281.2135
  39   2.0000     -10.333141      -281.1790
  40   2.0000     -10.332105      -281.1509
  41   2.0000     -10.331231      -281.1271
  42   2.0000     -10.328954      -281.0651
  43   2.0000     -10.327228      -281.0182
  44   2.0000     -10.325200      -280.9630
  45   2.0000     -10.324005      -280.9304
  46   2.0000     -10.323961      -280.9293
  47   2.0000     -10.320682      -280.8400
  48   2.0000     -10.318155      -280.7713
  49   2.0000     -10.316959      -280.7387
  50   2.0000     -10.315604      -280.7019
  51   2.0000     -10.315434      -280.6972
  52   2.0000     -10.315264      -280.6926
  53   2.0000     -10.315125      -280.6888
  54   2.0000     -10.314651      -280.6759
  55   2.0000     -10.312398      -280.6146
  56   2.0000     -10.310048      -280.5507
  57   2.0000     -10.307588      -280.4837
  58   2.0000     -10.307566      -280.4831
  59   2.0000     -10.305652      -280.4310
  60   2.0000     -10.303592      -280.3750
  61   2.0000     -10.303294      -280.3669
  62   2.0000     -10.303118      -280.3621
  63   2.0000     -10.302900      -280.3561
  64   2.0000     -10.300289      -280.2851
  65   2.0000     -10.300067      -280.2791
  66   2.0000     -10.299759      -280.2707
  67   2.0000     -10.299228      -280.2562
  68   2.0000     -10.295740      -280.1613
  69   2.0000     -10.291462      -280.0449
  70   2.0000     -10.291336      -280.0415
  71   2.0000     -10.291029      -280.0331
  72   2.0000     -10.290746      -280.0254
  73   2.0000     -10.290427      -280.0168
  74   2.0000     -10.288739      -279.9708
  75   2.0000     -10.288295      -279.9588
  76   2.0000     -10.288102      -279.9535
  77   2.0000     -10.287711      -279.9428
  78   2.0000      -8.096781      -220.3246
  79   2.0000      -8.095987      -220.3030
  80   2.0000      -8.095711      -220.2955
  81   2.0000      -8.094868      -220.2726
  82   2.0000      -6.065853      -165.0602
  83   2.0000      -6.065238      -165.0435
  84   2.0000      -6.064881      -165.0338
  85   2.0000      -6.064010      -165.0101
  86   2.0000      -6.061728      -164.9480
  87   2.0000      -6.060994      -164.9280
  88   2.0000      -6.060595      -164.9172
  89   2.0000      -6.059755      -164.8943
  90   2.0000      -6.059331      -164.8828
  91   2.0000      -6.058390      -164.8572
  92   2.0000      -6.058300      -164.8547
  93   2.0000      -6.057511      -164.8333
  94   2.0000      -1.141532       -31.0627
  95   2.0000      -1.137824       -30.9618
  96   2.0000      -1.136529       -30.9265
  97   2.0000      -1.056714       -28.7547
  98   2.0000      -1.055816       -28.7302
  99   2.0000      -1.028643       -27.9908
 100   2.0000      -1.027883       -27.9701
 101   2.0000      -1.026914       -27.9437
 102   2.0000      -1.023491       -27.8506
 103   2.0000      -1.021874       -27.8066
 104   2.0000      -1.019487       -27.7417
 105   2.0000      -1.012474       -27.5508
 106   2.0000      -1.010883       -27.5075
 107   2.0000      -1.004952       -27.3461
 108   2.0000      -1.003990       -27.3200
 109   2.0000      -1.002763       -27.2866
 110   2.0000      -1.001232       -27.2449
 111   2.0000      -0.998513       -27.1709
 112   2.0000      -0.997329       -27.1387
 113   2.0000      -0.978001       -26.6128
 114   2.0000      -0.975152       -26.5352
 115   2.0000      -0.965738       -26.2791
 116   2.0000      -0.965392       -26.2696
 117   2.0000      -0.933363       -25.3981
 118   2.0000      -0.931853       -25.3570
 119   2.0000      -0.923878       -25.1400
 120   2.0000      -0.922387       -25.0994
 121   2.0000      -0.905270       -24.6336
 122   2.0000      -0.902271       -24.5520
 123   2.0000      -0.887611       -24.1531
 124   2.0000      -0.884469       -24.0676
 125   2.0000      -0.883155       -24.0319
 126   2.0000      -0.881919       -23.9982
 127   2.0000      -0.875216       -23.8158
 128   2.0000      -0.874246       -23.7895
 129   2.0000      -0.866785       -23.5864
 130   2.0000      -0.866128       -23.5685
 131   2.0000      -0.842734       -22.9320
 132   2.0000      -0.834115       -22.6974
 133   2.0000      -0.832077       -22.6420
 134   2.0000      -0.830861       -22.6089
 135   2.0000      -0.813860       -22.1463
 136   2.0000      -0.805958       -21.9312
 137   2.0000      -0.787879       -21.4393
 138   2.0000      -0.784976       -21.3603
 139   2.0000      -0.772560       -21.0224
 140   2.0000      -0.766890       -20.8681
 141   2.0000      -0.765662       -20.8347
 142   2.0000      -0.763603       -20.7787
 143   2.0000      -0.737936       -20.0803
 144   2.0000      -0.727496       -19.7962
 145   2.0000      -0.716434       -19.4952
 146   2.0000      -0.713166       -19.4062
 147   2.0000      -0.707866       -19.2620
 148   2.0000      -0.707087       -19.2408
 149   2.0000      -0.703745       -19.1499
 150   2.0000      -0.700627       -19.0650
 151   2.0000      -0.695459       -18.9244
 152   2.0000      -0.691710       -18.8224
 153   2.0000      -0.689699       -18.7677
 154   2.0000      -0.683427       -18.5970
 155   2.0000      -0.681685       -18.5496
 156   2.0000      -0.672063       -18.2878
 157   2.0000      -0.663402       -18.0521
 158   2.0000      -0.659087       -17.9347
 159   2.0000      -0.648288       -17.6408
 160   2.0000      -0.639661       -17.4061
 161   2.0000      -0.639036       -17.3890
 162   2.0000      -0.635582       -17.2951
 163   2.0000      -0.630648       -17.1608
 164   2.0000      -0.626632       -17.0515
 165   2.0000      -0.625203       -17.0126
 166   2.0000      -0.620158       -16.8753
 167   2.0000      -0.613473       -16.6934
 168   2.0000      -0.610427       -16.6106
 169   2.0000      -0.608377       -16.5548
 170   2.0000      -0.602678       -16.3997
 171   2.0000      -0.598126       -16.2758
 172   2.0000      -0.592156       -16.1134
 173   2.0000      -0.574304       -15.6276
 174   2.0000      -0.572803       -15.5868
 175   2.0000      -0.567231       -15.4352
 176   2.0000      -0.562691       -15.3116
 177   2.0000      -0.561599       -15.2819
 178   2.0000      -0.557848       -15.1798
 179   2.0000      -0.554798       -15.0968
 180   2.0000      -0.552245       -15.0273
 181   2.0000      -0.549759       -14.9597
 182   2.0000      -0.548304       -14.9201
 183   2.0000      -0.545307       -14.8386
 184   2.0000      -0.544486       -14.8162
 185   2.0000      -0.541362       -14.7312
 186   2.0000      -0.540462       -14.7067
 187   2.0000      -0.534583       -14.5467
 188   2.0000      -0.529384       -14.4053
 189   2.0000      -0.527129       -14.3439
 190   2.0000      -0.524059       -14.2604
 191   2.0000      -0.522489       -14.2176
 192   2.0000      -0.521810       -14.1992
 193   2.0000      -0.517804       -14.0902
 194   2.0000      -0.515701       -14.0329
 195   2.0000      -0.515036       -14.0148
 196   2.0000      -0.512295       -13.9402
 197   2.0000      -0.511663       -13.9231
 198   2.0000      -0.509675       -13.8690
 199   2.0000      -0.508157       -13.8277
 200   2.0000      -0.507567       -13.8116
 201   2.0000      -0.504642       -13.7320
 202   2.0000      -0.501840       -13.6558
 203   2.0000      -0.499873       -13.6022
 204   2.0000      -0.499284       -13.5862
 205   2.0000      -0.495921       -13.4947
 206   2.0000      -0.494252       -13.4493
 207   2.0000      -0.493298       -13.4233
 208   2.0000      -0.488049       -13.2805
 209   2.0000      -0.485934       -13.2229
 210   2.0000      -0.478925       -13.0322
 211   2.0000      -0.477958       -13.0059
 212   2.0000      -0.476744       -12.9729
 213   2.0000      -0.471320       -12.8253
 214   2.0000      -0.468049       -12.7363
 215   2.0000      -0.465480       -12.6663
 216   2.0000      -0.464556       -12.6412
 217   2.0000      -0.462339       -12.5809
 218   2.0000      -0.460500       -12.5308
 219   2.0000      -0.459215       -12.4959
 220   2.0000      -0.458466       -12.4755
 221   2.0000      -0.456476       -12.4213
 222   2.0000      -0.453208       -12.3324
 223   2.0000      -0.452423       -12.3111
 224   2.0000      -0.450815       -12.2673
 225   2.0000      -0.449699       -12.2369
 226   2.0000      -0.448874       -12.2145
 227   2.0000      -0.447798       -12.1852
 228   2.0000      -0.445327       -12.1180
 229   2.0000      -0.444871       -12.1056
 230   2.0000      -0.444292       -12.0898
 231   2.0000      -0.443831       -12.0772
 232   2.0000      -0.443308       -12.0630
 233   2.0000      -0.442319       -12.0361
 234   2.0000      -0.441587       -12.0162
 235   2.0000      -0.439116       -11.9490
 236   2.0000      -0.436923       -11.8893
 237   2.0000      -0.436359       -11.8739
 238   2.0000      -0.435892       -11.8612
 239   2.0000      -0.433502       -11.7962
 240   2.0000      -0.431522       -11.7423
 241   2.0000      -0.430204       -11.7065
 242   2.0000      -0.429682       -11.6922
 243   2.0000      -0.424723       -11.5573
 244   2.0000      -0.423302       -11.5186
 245   2.0000      -0.419265       -11.4088
 246   2.0000      -0.416167       -11.3245
 247   2.0000      -0.411459       -11.1964
 248   2.0000      -0.411303       -11.1921
 249   2.0000      -0.408384       -11.1127
 250   2.0000      -0.405612       -11.0373
 251   2.0000      -0.387477       -10.5438
 252   2.0000      -0.385667       -10.4945
 253   2.0000      -0.376362       -10.2413
 254   2.0000      -0.374583       -10.1929
 255   2.0000      -0.362255        -9.8575
 256   2.0000      -0.362037        -9.8515
 257   2.0000      -0.360055        -9.7976
 258   2.0000      -0.357578        -9.7302
 259   2.0000      -0.348034        -9.4705
 260   2.0000      -0.346067        -9.4170
 261   2.0000      -0.338469        -9.2102
 262   2.0000      -0.336449        -9.1552
 263   2.0000      -0.328863        -8.9488
 264   2.0000      -0.328228        -8.9315
 265   2.0000      -0.321618        -8.7517
 266   2.0000      -0.319780        -8.7017
 267   2.0000      -0.300963        -8.1896
 268   2.0000      -0.298037        -8.1100
 269   2.0000      -0.279738        -7.6121
 270   2.0000      -0.278813        -7.5869
 271   0.0000      -0.119410        -3.2493
 272   0.0000      -0.119336        -3.2473
 273   0.0000      -0.094781        -2.5791
 274   0.0000      -0.093934        -2.5561
 275   0.0000      -0.066147        -1.7999

MULLIKEN ATOMIC CHARGES
-----------------------
   0 C :    0.247539
   1 C :   -0.326103
   2 C :   -0.173470
   3 N :    0.158628
   4 C :   -0.203393
   5 N :    0.172586
   6 C :    0.037634
   7 C :    0.011846
   8 C :   -0.081827
   9 C :    0.095428
  10 C :    0.095353
  11 C :   -0.080398
  12 C :   -0.019460
  13 C :    0.039424
  14 C :    0.036055
  15 C :   -0.016546
  16 C :    0.144194
  17 O :   -0.137630
  18 C :   -0.139504
  19 C :    0.049926
  20 C :   -0.103009
  21 C :    0.014668
  22 C :    0.029441
  23 C :   -0.089137
  24 S :    0.210470
  25 C :   -0.090284
  26 C :    0.011913
  27 C :    0.298996
  28 C :   -0.289180
  29 C :   -0.194690
  30 N :    0.185588
  31 C :   -0.188667
  32 N :    0.181705
  33 C :   -0.030767
  34 C :   -0.064821
  35 S :    0.244801
  36 C :   -0.016070
  37 N :   -0.092147
  38 C :   -0.019202
  39 N :   -0.086727
  40 C :    0.123940
  41 N :   -0.087547
  42 C :   -0.063097
  43 C :   -0.027802
  44 C :    0.006928
  45 C :   -0.092131
  46 S :    0.244478
  47 C :   -0.087529
  48 C :   -0.006660
  49 C :    0.307058
  50 C :   -0.293876
  51 C :   -0.190656
  52 N :    0.193746
  53 C :   -0.194852
  54 N :    0.184671
  55 C :    0.005060
  56 C :   -0.109475
  57 S :    0.210809
  58 C :    0.029806
  59 C :   -0.086490
  60 C :    0.306436
  61 C :   -0.345180
  62 C :   -0.182230
  63 N :    0.147834
  64 C :   -0.203299
  65 N :    0.156440
  66 C :    0.045717
  67 C :   -0.007942
  68 C :    0.157200
  69 O :   -0.147328
  70 C :   -0.075722
  71 C :    0.096353
  72 C :    0.095888
  73 C :   -0.079987
  74 C :   -0.018874
  75 C :    0.034097
  76 C :    0.037244
  77 C :   -0.015501
  78 H :   -0.008819
  79 H :   -0.004275
  80 H :   -0.009603
  81 H :   -0.003182
  82 H :   -0.001998
  83 H :   -0.014969
  84 H :    0.037478
  85 H :    0.019309
  86 H :    0.026602
  87 H :    0.028943
  88 H :    0.027680
  89 H :    0.038932
  90 H :    0.017727
  91 H :   -0.007825
  92 H :   -0.006981
  93 H :   -0.008260
  94 H :   -0.002579
  95 H :   -0.004454
  96 H :   -0.014416
Sum of atomic charges:   -0.0000000

LOEWDIN ATOMIC CHARGES
----------------------
   0 C :    0.060759
   1 C :   -0.141792
   2 C :   -0.019851
   3 N :   -0.048489
   4 C :   -0.035254
   5 N :   -0.047129
   6 C :   -0.024129
   7 C :   -0.057822
   8 C :    0.034685
   9 C :   -0.008391
  10 C :   -0.005063
  11 C :    0.016693
  12 C :   -0.006235
  13 C :   -0.010851
  14 C :   -0.011127
  15 C :   -0.008276
  16 C :    0.084145
  17 O :   -0.138205
  18 C :   -0.092647
  19 C :    0.049811
  20 C :   -0.173982
  21 C :    0.011550
  22 C :   -0.063120
  23 C :   -0.160690
  24 S :    0.509967
  25 C :   -0.172553
  26 C :   -0.064782
  27 C :    0.077761
  28 C :   -0.093330
  29 C :   -0.018916
  30 N :   -0.022693
  31 C :   -0.017005
  32 N :   -0.025663
  33 C :    0.011246
  34 C :   -0.192324
  35 S :    0.520365
  36 C :    0.038143
  37 N :   -0.137797
  38 C :    0.037266
  39 N :   -0.108026
  40 C :    0.085898
  41 N :   -0.107506
  42 C :   -0.189668
  43 C :    0.009295
  44 C :   -0.062750
  45 C :   -0.176504
  46 S :    0.519703
  47 C :   -0.166285
  48 C :   -0.067776
  49 C :    0.073347
  50 C :   -0.090661
  51 C :   -0.021799
  52 N :   -0.015148
  53 C :   -0.018256
  54 N :   -0.023639
  55 C :    0.018203
  56 C :   -0.172207
  57 S :    0.499753
  58 C :    0.041440
  59 C :   -0.089429
  60 C :    0.076624
  61 C :   -0.140995
  62 C :   -0.017501
  63 N :   -0.052631
  64 C :   -0.024915
  65 N :   -0.054038
  66 C :   -0.027175
  67 C :   -0.055960
  68 C :    0.086150
  69 O :   -0.135603
  70 C :    0.034959
  71 C :   -0.007869
  72 C :   -0.005981
  73 C :    0.020280
  74 C :   -0.005278
  75 C :   -0.012651
  76 C :   -0.011048
  77 C :   -0.008469
  78 H :    0.040484
  79 H :    0.038832
  80 H :    0.034591
  81 H :    0.033931
  82 H :    0.033899
  83 H :    0.032710
  84 H :    0.055993
  85 H :    0.047726
  86 H :    0.050181
  87 H :    0.028452
  88 H :    0.050363
  89 H :    0.044760
  90 H :    0.043295
  91 H :    0.040748
  92 H :    0.039109
  93 H :    0.034892
  94 H :    0.033811
  95 H :    0.033230
  96 H :    0.032832

  Mayer bond orders larger than 0.100000
B(  0-C ,  1-C ) :   1.6609 B(  0-C ,  6-C ) :   1.0047 B(  0-C , 18-C ) :   1.0261
B(  1-C ,  2-C ) :   1.1333 B(  1-C ,  4-C ) :   1.1538 B(  2-C ,  3-N ) :   2.9919
B(  4-C ,  5-N ) :   3.0168 B(  6-C ,  7-C ) :   1.2131 B(  6-C , 11-C ) :   1.4552
B(  7-C ,  8-C ) :   1.4729 B(  7-C , 16-C ) :   0.9221 B(  8-C ,  9-C ) :   1.1860
B(  8-C , 78-H ) :   1.0169 B(  9-C , 10-C ) :   1.2553 B(  9-C , 15-C ) :   1.2441
B( 10-C , 11-C ) :   1.2048 B( 10-C , 12-C ) :   1.2402 B( 11-C , 79-H ) :   0.9945
B( 12-C , 13-C ) :   1.4905 B( 12-C , 80-H ) :   0.9980 B( 13-C , 14-C ) :   1.2595
B( 13-C , 81-H ) :   0.9885 B( 14-C , 15-C ) :   1.4891 B( 14-C , 82-H ) :   0.9893
B( 15-C , 83-H ) :   0.9985 B( 16-C , 17-O ) :   2.2772 B( 16-C , 18-C ) :   0.9293
B( 18-C , 19-C ) :   1.6756 B( 19-C , 20-C ) :   1.1120 B( 19-C , 84-H ) :   0.9448
B( 20-C , 21-C ) :   1.4160 B( 20-C , 24-S ) :   1.0994 B( 21-C , 22-C ) :   1.2959
B( 21-C , 85-H ) :   0.9999 B( 22-C , 23-C ) :   1.4237 B( 22-C , 27-C ) :   0.9908
B( 23-C , 24-S ) :   1.1488 B( 23-C , 25-C ) :   1.1984 B( 25-C , 26-C ) :   1.4234
B( 25-C , 35-S ) :   1.1403 B( 26-C , 27-C ) :   0.9927 B( 26-C , 33-C ) :   1.2695
B( 27-C , 28-C ) :   1.7246 B( 28-C , 29-C ) :   1.1349 B( 28-C , 31-C ) :   1.1316
B( 29-C , 30-N ) :   2.9996 B( 31-C , 32-N ) :   2.9938 B( 33-C , 34-C ) :   1.4771
B( 33-C , 86-H ) :   1.0076 B( 34-C , 35-S ) :   1.1132 B( 34-C , 36-C ) :   1.0281
B( 36-C , 37-N ) :   1.5597 B( 36-C , 41-N ) :   1.5933 B( 37-N , 38-C ) :   1.5643
B( 38-C , 39-N ) :   1.5954 B( 38-C , 42-C ) :   1.0249 B( 39-N , 40-C ) :   1.4983
B( 40-C , 41-N ) :   1.4996 B( 40-C , 87-H ) :   0.9764 B( 42-C , 43-C ) :   1.4796
B( 42-C , 46-S ) :   1.1148 B( 43-C , 44-C ) :   1.2680 B( 43-C , 88-H ) :   1.0063
B( 44-C , 45-C ) :   1.4271 B( 44-C , 49-C ) :   0.9935 B( 45-C , 46-S ) :   1.1362
B( 45-C , 47-C ) :   1.1922 B( 47-C , 48-C ) :   1.3968 B( 47-C , 57-S ) :   1.1638
B( 48-C , 49-C ) :   0.9955 B( 48-C , 55-C ) :   1.3124 B( 49-C , 50-C ) :   1.7219
B( 50-C , 51-C ) :   1.1353 B( 50-C , 53-C ) :   1.1349 B( 51-C , 52-N ) :   2.9946
B( 53-C , 54-N ) :   2.9984 B( 55-C , 56-C ) :   1.4146 B( 55-C , 89-H ) :   0.9723
B( 56-C , 57-S ) :   1.0849 B( 56-C , 58-C ) :   1.1918 B( 58-C , 59-C ) :   1.6113
B( 58-C , 90-H ) :   0.9189 B( 59-C , 60-C ) :   1.0715 B( 59-C , 68-C ) :   0.9363
B( 60-C , 61-C ) :   1.6302 B( 60-C , 66-C ) :   0.9897 B( 61-C , 62-C ) :   1.1459
B( 61-C , 64-C ) :   1.1390 B( 62-C , 63-N ) :   2.9665 B( 64-C , 65-N ) :   2.9870
B( 66-C , 67-C ) :   1.2116 B( 66-C , 73-C ) :   1.4511 B( 67-C , 68-C ) :   0.9508
B( 67-C , 70-C ) :   1.4729 B( 68-C , 69-O ) :   2.1876 B( 70-C , 71-C ) :   1.1808
B( 70-C , 91-H ) :   1.0163 B( 71-C , 72-C ) :   1.2522 B( 71-C , 77-C ) :   1.2444
B( 72-C , 73-C ) :   1.2084 B( 72-C , 74-C ) :   1.2408 B( 73-C , 92-H ) :   0.9897
B( 74-C , 75-C ) :   1.4899 B( 74-C , 93-H ) :   0.9973 B( 75-C , 76-C ) :   1.2575
B( 75-C , 94-H ) :   0.9891 B( 76-C , 77-C ) :   1.4899 B( 76-C , 95-H ) :   0.9895
B( 77-C , 96-H ) :   0.9980

-----------------------------------------------------------------------------
         ABSORPTION SPECTRUM VIA TRANSITION ELECTRIC DIPOLE MOMENTS
-----------------------------------------------------------------------------
State   Energy  Wavelength   fosc         T2         TX        TY        TZ
        (cm-1)    (nm)                  (au**2)     (au)      (au)      (au)
-----------------------------------------------------------------------------
   0   15977.1    625.9   0.221596173   4.56605  -1.27128   1.67865  -0.36335
   1   16622.6    601.6   0.273888922   5.42439   0.08130   0.01889  -2.32754
   2   21849.9    457.7   0.437165442   6.58677   1.91554  -1.69673  -0.19639
   3   22842.7    437.8   1.294745840  18.66006  -0.24864   0.05490   4.31222
   4   24105.5    414.8   0.003353579   0.04580  -0.09009  -0.01747  -0.19334
   5   24591.1    406.7   0.002282230   0.03055  -0.03377   0.07022  -0.15647
   6   24983.1    400.3   0.089635456   1.18116   0.09912  -0.70054  -0.82497
   7   25169.6    397.3   0.146178599   1.91198   0.07042   0.54588  -1.26848
   8   27325.7    366.0   0.025414921   0.30619   0.12867  -0.37146   0.38943
   9   27407.3    364.9   0.009659127   0.11602   0.21076   0.26731  -0.01222
  10   28400.2    352.1   0.068990067   0.79972  -0.14607   0.37633  -0.79797
  11   29061.9    344.1   0.014585879   0.16523   0.10240  -0.37823   0.10809
  12   29471.4    339.3   0.074325611   0.83026  -0.20533   0.75694   0.46382
  13   29715.8    336.5   0.273367455   3.02855   0.15293  -1.01416   1.40593
  14   29933.0    334.1   0.525904834   5.78406  -0.54002   2.23546   0.70367
  15   30253.8    330.5   0.508429704   5.53257  -0.59545  -0.17711   2.26862
  16   30328.3    329.7   0.785766873   8.52944  -1.04276   2.69566  -0.41892
  17   30685.8    325.9   0.159524384   1.71145  -0.14927  -1.01634   0.81007
  18   31085.6    321.7   0.200136379   2.11955  -0.38281   1.05337  -0.92921
  19   31586.9    316.6   0.094621550   0.98619  -0.19319   0.83274  -0.50538
  20   31615.9    316.3   0.153030107   1.59348   0.05856   0.81097   0.96560
  21   31864.5    313.8   0.015929784   0.16458  -0.18076  -0.00768   0.36311
  22   31939.2    313.1   0.035840487   0.36942   0.14278  -0.26462  -0.52822
  23   32562.5    307.1   0.044328463   0.44817  -0.09797   0.66041  -0.04933
  24   32796.0    304.9   0.021927279   0.22011   0.12851   0.43697  -0.11248
  25   32876.5    304.2   0.332174377   3.32626  -0.00312   1.00875  -1.51943
  26   32928.5    303.7   0.265374220   2.65315   0.69713  -1.16593  -0.89876
  27   33174.4    301.4   0.071521810   0.70976   0.12053  -0.45397  -0.69939
  28   33687.3    296.8   0.329536130   3.22042  -0.32094   0.62047  -1.65301
  29   33814.5    295.7   0.213527772   2.07887   0.36982  -0.78762   1.14967
  30   33997.5    294.1   0.006642298   0.06432  -0.02938   0.14283  -0.20750
  31   34275.2    291.8   0.002838703   0.02727  -0.09410   0.08145  -0.10852
  32   34395.2    290.7   0.081243343   0.77762   0.25529   0.64656   0.54259
  33   34647.9    288.6   0.011901122   0.11308   0.17497   0.22266  -0.18135
  34   34700.5    288.2   0.029994787   0.28457   0.10420  -0.52117   0.04574
  35   34759.4    287.7   0.024332315   0.23046  -0.12889   0.20239   0.41579
  36   34867.0    286.8   0.470621025   4.44357  -0.14092  -2.02619   0.56414
  37   35019.0    285.6   0.040647039   0.38212   0.06904   0.56259  -0.24667
  38   35218.3    283.9   0.037015202   0.34601   0.07520   0.42767   0.39680
  39   35500.4    281.7   0.173617047   1.61003  -0.69296   0.71103   0.79011
  40   35570.6    281.1   0.291167271   2.69480   0.05240   1.11225   1.20621
  41   35597.1    280.9   0.021866358   0.20223   0.15471   0.29100   0.30596
  42   35772.4    279.5   0.381790647   3.51361   0.33677  -1.04868  -1.51672
  43   36309.4    275.4   0.000590619   0.00536  -0.05264  -0.02396  -0.04483
  44   36482.3    274.1   0.037191214   0.33561   0.03522  -0.24769  -0.52251
  45   37119.5    269.4   0.050365415   0.44669   0.13437  -0.37244  -0.53844
  46   37236.6    268.6   0.107793435   0.95301   0.05584  -0.52807  -0.81917
  47   37392.3    267.4   0.006140296   0.05406  -0.21102   0.09536   0.02095
  48   38056.3    262.8   0.005584145   0.04831  -0.04477   0.21364   0.02570
  49   38322.7    260.9   0.002269036   0.01949  -0.02852  -0.13590  -0.01451
  50   38509.4    259.7   0.059561591   0.50918   0.03650  -0.11220  -0.70375
  51   38668.3    258.6   0.122506645   1.04299   0.01253   0.97751   0.29548
  52   38751.6    258.1   0.000552889   0.00470   0.04568   0.04476  -0.02464
  53   38953.1    256.7   0.002427555   0.02052  -0.01330  -0.08087  -0.11747
  54   39309.8    254.4   0.094337322   0.79006   0.40820  -0.77921   0.12754
  55   39762.7    251.5   0.032154233   0.26622  -0.18457   0.32427   0.35637
  56   39838.5    251.0   0.038074218   0.31463   0.07547   0.54991   0.08087
  57   40144.4    249.1   0.002380707   0.01952   0.02776   0.10902  -0.08288

FINAL SINGLE POINT ENERGY     -4676.856372161963

DIPOLE MOMENT
-------------
                                X             Y             Z
Electronic contribution:    -10.53662       1.87359      47.48686
Nuclear contribution   :     11.02570      -2.27413     -50.58930
                        -----------------------------------------
Total Dipole Moment    :      0.48908      -0.40054      -3.10245
                        -----------------------------------------
Magnitude (a.u.)       :      3.16620
Magnitude (Debye)      :      8.04784

Rotational constants in cm-1:     0.000832     0.000285     0.000219
Rotational constants in MHz :    24.950898     8.542022     6.557888

                             ****ORCA TERMINATED NORMALLY****
TOTAL RUN TIME: 0 days 0 hours 9 minutes 13 seconds 577 msec
