                         Program Version 4.2.0 -  RELEASE  -
|  1> # ORCA input file
|  2> # SCF done       -199.818453776569          0.000912335207
|  3> ! CAM-B3LYP def2-SVP def2/J RIJCOSX Grid4 TightSCF
|  4> %maxcore 5000
|  5> %tddft
|  6>     Mode sTDDFT
|  7>     Ethresh 5.0
|  8>     maxcore 5000
|  9> end
| 10>
| 11> %pal
| 12>   nprocs 6
| 13>   end
| 14> * xyz 0 1
| 15>    C        3.84833         3.89453         2.14783
| 16>    C        2.59221         3.41009         1.89056
| 17>    C        1.84467         2.64261         2.80497
| 18>    N        1.17922         2.04866         3.52832
| 19>    C        1.93179         3.56155         0.65325
| 20>    N        1.35990         3.59676        -0.34118
| 21>    C        4.67880         3.52386         3.28915
| 22>    C        6.03759         3.81636         2.97219
| 23>    C        7.05339         3.53466         3.83882
| 24>    C        6.75100         2.94858         5.08867
| 25>    C        5.39339         2.66981         5.41916
| 26>    C        4.36180         2.96472         4.49799
| 27>    C        5.10550         2.09216         6.67250
| 28>    C        6.10844         1.79959         7.55604
| 29>    C        7.44493         2.07259         7.22874
| 30>    C        7.75912         2.63458         6.02126
| 31>    C        6.10293         4.44450         1.63957
| 32>    O        7.08781         4.77657         1.02114
| 33>    C        4.68241         4.64414         1.22964
| 34>    C        4.40326         5.49802         0.21337
| 35>    C        3.17310         6.14570        -0.13721
| 36>    C        2.99650         6.59597        -1.46567
| 37>    O        3.97429         6.27769        -2.34338
| 38>    C        3.80172         6.61070        -3.70162
| 39>    C        1.85251         7.30906        -1.78827
| 40>    C        0.87307         7.58275        -0.84171
| 41>    C        1.01142         7.08133         0.47174
| 42>    C        2.16900         6.40152         0.80277
| 43>    O       -0.03700         7.25612         1.31183
| 44>    C        0.03999         6.72116         2.61056
| 45>    C       -0.29001         8.37642        -1.22465
| 46>    C       -0.78234         9.41812        -0.42525
| 47>    C       -1.97947        10.14035        -0.76494
| 48>    N       -2.40342        11.15160         0.03548
| 49>    C       -1.73030        11.42381         1.09649
| 50>    C       -0.52496        10.72954         1.41611
| 51>    N       -0.07106         9.78512         0.67091
| 52>    F        0.19107        11.07873         2.48626
| 53>    F       -2.16698        12.41101         1.87921
| 54>    C       -2.70514         9.86548        -1.93020
| 55>    C       -2.16880         8.88847        -2.77807
| 56>    C       -0.97224         8.14936        -2.42945
| 57>    N       -0.66188         7.24843        -3.37106
| 58>    S       -1.75033         7.32248        -4.54067
| 59>    N       -2.67211         8.48603        -3.95219
| 60>    C       -3.94611        10.56665        -2.25389
| 61>    C       -4.99683        10.64841        -1.31266
| 62>    O       -4.83762         9.97007        -0.15199
| 63>    C       -5.92175         9.92575         0.74648
| 64>    C       -6.12577        11.36465        -1.65178
| 65>    C       -6.28609        11.98991        -2.89812
| 66>    C       -5.25419        11.86508        -3.84718
| 67>    C       -4.10946        11.14764        -3.49498
| 68>    O       -5.23650        12.28759        -5.13625
| 69>    C       -6.28104        13.02452        -5.72083
| 70>    C       -7.49061        12.76278        -3.10806
| 71>    C       -8.75619        12.39044        -2.78332
| 72>    C       -9.94539        13.21884        -2.93469
| 73>    C       -9.98850        14.54134        -3.29264
| 74>    C      -11.17764        15.29364        -3.40220
| 75>    N      -12.10255        15.96508        -3.50965
| 76>    C       -8.87829        15.34613        -3.62198
| 77>    N       -8.03332        16.06456        -3.92349
| 78>    C      -11.10708        12.38939        -2.64056
| 79>    C      -10.66033        11.07656        -2.31990
| 80>    C       -9.18927        11.02275        -2.38143
| 81>    O       -8.49958        10.04610        -2.18004
| 82>    C      -11.53098        10.06919        -2.01910
| 83>    C      -12.91845        10.33354        -2.02280
| 84>    C      -13.37534        11.64504        -2.34116
| 85>    C      -12.44943        12.66747        -2.64924
| 86>    C      -14.76255        11.89747        -2.34719
| 87>    C      -15.65605        10.90372        -2.05380
| 88>    C      -15.20469         9.61283        -1.74021
| 89>    C      -13.86499         9.33404        -1.72410
| 90>    H        8.07678         3.75595         3.57457
| 91>    H        3.34175         2.74951         4.77659
| 92>    H        4.07535         1.88021         6.91906
| 93>    H        5.87752         1.35522         8.51267
| 94>    H        8.22390         1.83569         7.93800
| 95>    H        8.78630         2.84752         5.76325
| 96>    H        5.25929         5.78134        -0.39138
| 97>    H        2.88687         6.16788        -4.10500
| 98>    H        4.66621         6.19303        -4.21519
| 99>    H        3.78164         7.69487        -3.85008
|100>    H        1.70487         7.68781        -2.78536
|101>    H        2.33746         6.08490         1.81931
|102>    H        0.84186         7.18762         3.19151
|103>    H        0.18095         5.63504         2.59108
|104>    H       -0.91716         6.94782         3.07763
|105>    H       -6.82557         9.54774         0.25882
|106>    H       -6.12126        10.91056         1.18095
|107>    H       -5.62029         9.24056         1.53737
|108>    H       -6.91627        11.49639        -0.93277
|109>    H       -3.32881        11.06613        -4.23354
|110>    H       -6.09533        12.98257        -6.79465
|111>    H       -6.27212        14.07183        -5.40434
|112>    H       -7.25871        12.58005        -5.50730
|113>    H       -7.35421        13.75043        -3.52276
|114>    H      -11.16369         9.08133        -1.78317
|115>    H      -12.82931        13.64735        -2.89022
|116>    H      -15.10523        12.89278        -2.58939
|117>    H      -16.71648        11.10668        -2.06199
|118>    H      -15.92383         8.84055        -1.51152
|119>    H      -13.51119         8.34209        -1.48376
|120> *
|121>
|122>                          ****END OF INPUT****

CARTESIAN COORDINATES (ANGSTROEM)
---------------------------------
  C      3.848330    3.894530    2.147830
  C      2.592210    3.410090    1.890560
  C      1.844670    2.642610    2.804970
  N      1.179220    2.048660    3.528320
  C      1.931790    3.561550    0.653250
  N      1.359900    3.596760   -0.341180
  C      4.678800    3.523860    3.289150
  C      6.037590    3.816360    2.972190
  C      7.053390    3.534660    3.838820
  C      6.751000    2.948580    5.088670
  C      5.393390    2.669810    5.419160
  C      4.361800    2.964720    4.497990
  C      5.105500    2.092160    6.672500
  C      6.108440    1.799590    7.556040
  C      7.444930    2.072590    7.228740
  C      7.759120    2.634580    6.021260
  C      6.102930    4.444500    1.639570
  O      7.087810    4.776570    1.021140
  C      4.682410    4.644140    1.229640
  C      4.403260    5.498020    0.213370
  C      3.173100    6.145700   -0.137210
  C      2.996500    6.595970   -1.465670
  O      3.974290    6.277690   -2.343380
  C      3.801720    6.610700   -3.701620
  C      1.852510    7.309060   -1.788270
  C      0.873070    7.582750   -0.841710
  C      1.011420    7.081330    0.471740
  C      2.169000    6.401520    0.802770
  O     -0.037000    7.256120    1.311830
  C      0.039990    6.721160    2.610560
  C     -0.290010    8.376420   -1.224650
  C     -0.782340    9.418120   -0.425250
  C     -1.979470   10.140350   -0.764940
  N     -2.403420   11.151600    0.035480
  C     -1.730300   11.423810    1.096490
  C     -0.524960   10.729540    1.416110
  N     -0.071060    9.785120    0.670910
  F      0.191070   11.078730    2.486260
  F     -2.166980   12.411010    1.879210
  C     -2.705140    9.865480   -1.930200
  C     -2.168800    8.888470   -2.778070
  C     -0.972240    8.149360   -2.429450
  N     -0.661880    7.248430   -3.371060
  S     -1.750330    7.322480   -4.540670
  N     -2.672110    8.486030   -3.952190
  C     -3.946110   10.566650   -2.253890
  C     -4.996830   10.648410   -1.312660
  O     -4.837620    9.970070   -0.151990
  C     -5.921750    9.925750    0.746480
  C     -6.125770   11.364650   -1.651780
  C     -6.286090   11.989910   -2.898120
  C     -5.254190   11.865080   -3.847180
  C     -4.109460   11.147640   -3.494980
  O     -5.236500   12.287590   -5.136250
  C     -6.281040   13.024520   -5.720830
  C     -7.490610   12.762780   -3.108060
  C     -8.756190   12.390440   -2.783320
  C     -9.945390   13.218840   -2.934690
  C     -9.988500   14.541340   -3.292640
  C    -11.177640   15.293640   -3.402200
  N    -12.102550   15.965080   -3.509650
  C     -8.878290   15.346130   -3.621980
  N     -8.033320   16.064560   -3.923490
  C    -11.107080   12.389390   -2.640560
  C    -10.660330   11.076560   -2.319900
  C     -9.189270   11.022750   -2.381430
  O     -8.499580   10.046100   -2.180040
  C    -11.530980   10.069190   -2.019100
  C    -12.918450   10.333540   -2.022800
  C    -13.375340   11.645040   -2.341160
  C    -12.449430   12.667470   -2.649240
  C    -14.762550   11.897470   -2.347190
  C    -15.656050   10.903720   -2.053800
  C    -15.204690    9.612830   -1.740210
  C    -13.864990    9.334040   -1.724100
  H      8.076780    3.755950    3.574570
  H      3.341750    2.749510    4.776590
  H      4.075350    1.880210    6.919060
  H      5.877520    1.355220    8.512670
  H      8.223900    1.835690    7.938000
  H      8.786300    2.847520    5.763250
  H      5.259290    5.781340   -0.391380
  H      2.886870    6.167880   -4.105000
  H      4.666210    6.193030   -4.215190
  H      3.781640    7.694870   -3.850080
  H      1.704870    7.687810   -2.785360
  H      2.337460    6.084900    1.819310
  H      0.841860    7.187620    3.191510
  H      0.180950    5.635040    2.591080
  H     -0.917160    6.947820    3.077630
  H     -6.825570    9.547740    0.258820
  H     -6.121260   10.910560    1.180950
  H     -5.620290    9.240560    1.537370
  H     -6.916270   11.496390   -0.932770
  H     -3.328810   11.066130   -4.233540
  H     -6.095330   12.982570   -6.794650
  H     -6.272120   14.071830   -5.404340
  H     -7.258710   12.580050   -5.507300
  H     -7.354210   13.750430   -3.522760
  H    -11.163690    9.081330   -1.783170
  H    -12.829310   13.647350   -2.890220
  H    -15.105230   12.892780   -2.589390
  H    -16.716480   11.106680   -2.061990
  H    -15.923830    8.840550   -1.511520
  H    -13.511190    8.342090   -1.483760

 Total Charge           Charge          ....    0
 Multiplicity           Mult            ....    1
 Number of Electrons    NEL             ....  516
 Basis Dimension        Dim             .... 1204

ORBITAL ENERGIES
----------------

  NO   OCC          E(Eh)            E(eV)
   0   2.0000     -89.032618     -2422.7007
   1   2.0000     -24.802127      -674.9002
   2   2.0000     -24.801806      -674.8915
   3   2.0000     -19.249438      -523.8038
   4   2.0000     -19.246029      -523.7111
   5   2.0000     -19.241795      -523.5959
   6   2.0000     -19.238119      -523.4958
   7   2.0000     -19.214660      -522.8575
   8   2.0000     -19.205379      -522.6049
   9   2.0000     -14.438721      -392.8976
  10   2.0000     -14.438647      -392.8956
  11   2.0000     -14.437512      -392.8647
  12   2.0000     -14.437307      -392.8591
  13   2.0000     -14.420047      -392.3894
  14   2.0000     -14.415533      -392.2666
  15   2.0000     -14.411476      -392.1562
  16   2.0000     -14.405367      -391.9900
  17   2.0000     -10.416047      -283.4350
  18   2.0000     -10.415781      -283.4278
  19   2.0000     -10.366873      -282.0969
  20   2.0000     -10.356557      -281.8162
  21   2.0000     -10.343162      -281.4517
  22   2.0000     -10.342391      -281.4308
  23   2.0000     -10.336776      -281.2780
  24   2.0000     -10.335517      -281.2437
  25   2.0000     -10.335120      -281.2329
  26   2.0000     -10.334403      -281.2134
  27   2.0000     -10.331059      -281.1224
  28   2.0000     -10.330708      -281.1128
  29   2.0000     -10.330057      -281.0951
  30   2.0000     -10.327581      -281.0278
  31   2.0000     -10.326930      -281.0100
  32   2.0000     -10.325458      -280.9700
  33   2.0000     -10.323090      -280.9056
  34   2.0000     -10.322928      -280.9011
  35   2.0000     -10.322913      -280.9007
  36   2.0000     -10.320535      -280.8360
  37   2.0000     -10.318786      -280.7884
  38   2.0000     -10.318674      -280.7854
  39   2.0000     -10.315619      -280.7023
  40   2.0000     -10.314333      -280.6673
  41   2.0000     -10.307194      -280.4730
  42   2.0000     -10.304297      -280.3942
  43   2.0000     -10.303777      -280.3800
  44   2.0000     -10.300296      -280.2853
  45   2.0000     -10.299829      -280.2726
  46   2.0000     -10.299094      -280.2526
  47   2.0000     -10.298804      -280.2447
  48   2.0000     -10.298366      -280.2328
  49   2.0000     -10.298212      -280.2286
  50   2.0000     -10.298207      -280.2285
  51   2.0000     -10.297368      -280.2056
  52   2.0000     -10.293492      -280.1002
  53   2.0000     -10.292998      -280.0867
  54   2.0000     -10.292173      -280.0643
  55   2.0000     -10.291560      -280.0476
  56   2.0000     -10.290168      -280.0097
  57   2.0000     -10.288833      -279.9734
  58   2.0000     -10.288039      -279.9518
  59   2.0000     -10.288010      -279.9510
  60   2.0000     -10.287458      -279.9360
  61   2.0000     -10.287229      -279.9297
  62   2.0000     -10.286749      -279.9167
  63   2.0000     -10.286179      -279.9012
  64   2.0000     -10.285914      -279.8939
  65   2.0000     -10.283419      -279.8260
  66   2.0000     -10.283282      -279.8223
  67   2.0000     -10.282650      -279.8051
  68   2.0000     -10.282358      -279.7972
  69   2.0000     -10.282067      -279.7893
  70   2.0000     -10.281771      -279.7812
  71   2.0000     -10.275155      -279.6012
  72   2.0000     -10.272679      -279.5338
  73   2.0000     -10.270387      -279.4714
  74   2.0000     -10.266837      -279.3748
  75   2.0000      -8.124031      -221.0661
  76   2.0000      -6.094943      -165.8518
  77   2.0000      -6.087236      -165.6421
  78   2.0000      -6.087098      -165.6384
  79   2.0000      -1.329414       -36.1752
  80   2.0000      -1.315191       -35.7882
  81   2.0000      -1.155326       -31.4380
  82   2.0000      -1.150181       -31.2980
  83   2.0000      -1.149099       -31.2686
  84   2.0000      -1.144938       -31.1554
  85   2.0000      -1.129652       -30.7394
  86   2.0000      -1.128508       -30.7083
  87   2.0000      -1.120557       -30.4919
  88   2.0000      -1.096827       -29.8462
  89   2.0000      -1.022851       -27.8332
  90   2.0000      -1.020187       -27.7607
  91   2.0000      -1.011657       -27.5286
  92   2.0000      -1.000353       -27.2210
  93   2.0000      -0.995602       -27.0917
  94   2.0000      -0.992430       -27.0054
  95   2.0000      -0.986661       -26.8484
  96   2.0000      -0.983194       -26.7541
  97   2.0000      -0.973403       -26.4876
  98   2.0000      -0.970099       -26.3977
  99   2.0000      -0.966060       -26.2878
 100   2.0000      -0.954499       -25.9732
 101   2.0000      -0.946712       -25.7613
 102   2.0000      -0.925467       -25.1832
 103   2.0000      -0.918723       -24.9997
 104   2.0000      -0.908071       -24.7099
 105   2.0000      -0.899505       -24.4768
 106   2.0000      -0.887375       -24.1467
 107   2.0000      -0.882502       -24.0141
 108   2.0000      -0.879049       -23.9201
 109   2.0000      -0.876032       -23.8380
 110   2.0000      -0.869504       -23.6604
 111   2.0000      -0.862195       -23.4615
 112   2.0000      -0.848930       -23.1006
 113   2.0000      -0.846198       -23.0262
 114   2.0000      -0.837489       -22.7892
 115   2.0000      -0.829426       -22.5698
 116   2.0000      -0.823593       -22.4111
 117   2.0000      -0.822757       -22.3884
 118   2.0000      -0.807080       -21.9618
 119   2.0000      -0.801188       -21.8014
 120   2.0000      -0.795965       -21.6593
 121   2.0000      -0.792151       -21.5555
 122   2.0000      -0.785711       -21.3803
 123   2.0000      -0.763293       -20.7703
 124   2.0000      -0.761171       -20.7125
 125   2.0000      -0.758598       -20.6425
 126   2.0000      -0.754674       -20.5357
 127   2.0000      -0.749107       -20.3842
 128   2.0000      -0.741541       -20.1784
 129   2.0000      -0.726583       -19.7713
 130   2.0000      -0.716774       -19.5044
 131   2.0000      -0.706092       -19.2137
 132   2.0000      -0.703148       -19.1336
 133   2.0000      -0.701100       -19.0779
 134   2.0000      -0.697363       -18.9762
 135   2.0000      -0.689333       -18.7577
 136   2.0000      -0.685529       -18.6542
 137   2.0000      -0.680116       -18.5069
 138   2.0000      -0.674573       -18.3561
 139   2.0000      -0.669900       -18.2289
 140   2.0000      -0.666559       -18.1380
 141   2.0000      -0.663733       -18.0611
 142   2.0000      -0.662996       -18.0410
 143   2.0000      -0.651328       -17.7235
 144   2.0000      -0.644230       -17.5304
 145   2.0000      -0.638355       -17.3705
 146   2.0000      -0.632281       -17.2052
 147   2.0000      -0.626789       -17.0558
 148   2.0000      -0.620495       -16.8845
 149   2.0000      -0.617437       -16.8013
 150   2.0000      -0.612406       -16.6644
 151   2.0000      -0.611495       -16.6396
 152   2.0000      -0.607757       -16.5379
 153   2.0000      -0.603977       -16.4350
 154   2.0000      -0.602397       -16.3920
 155   2.0000      -0.601168       -16.3586
 156   2.0000      -0.598097       -16.2751
 157   2.0000      -0.594015       -16.1640
 158   2.0000      -0.586416       -15.9572
 159   2.0000      -0.581875       -15.8336
 160   2.0000      -0.578596       -15.7444
 161   2.0000      -0.577092       -15.7035
 162   2.0000      -0.559913       -15.2360
 163   2.0000      -0.558222       -15.1900
 164   2.0000      -0.557133       -15.1604
 165   2.0000      -0.553179       -15.0528
 166   2.0000      -0.550983       -14.9930
 167   2.0000      -0.548984       -14.9386
 168   2.0000      -0.547519       -14.8987
 169   2.0000      -0.547009       -14.8849
 170   2.0000      -0.545778       -14.8514
 171   2.0000      -0.543312       -14.7843
 172   2.0000      -0.542488       -14.7618
 173   2.0000      -0.541722       -14.7410
 174   2.0000      -0.537902       -14.6370
 175   2.0000      -0.535558       -14.5733
 176   2.0000      -0.531501       -14.4629
 177   2.0000      -0.531118       -14.4524
 178   2.0000      -0.529210       -14.4005
 179   2.0000      -0.529062       -14.3965
 180   2.0000      -0.523307       -14.2399
 181   2.0000      -0.519299       -14.1308
 182   2.0000      -0.518802       -14.1173
 183   2.0000      -0.516673       -14.0594
 184   2.0000      -0.512248       -13.9390
 185   2.0000      -0.511404       -13.9160
 186   2.0000      -0.509063       -13.8523
 187   2.0000      -0.507282       -13.8039
 188   2.0000      -0.506532       -13.7834
 189   2.0000      -0.502886       -13.6842
 190   2.0000      -0.501977       -13.6595
 191   2.0000      -0.500517       -13.6198
 192   2.0000      -0.498173       -13.5560
 193   2.0000      -0.497785       -13.5454
 194   2.0000      -0.494956       -13.4684
 195   2.0000      -0.491167       -13.3653
 196   2.0000      -0.490987       -13.3604
 197   2.0000      -0.485784       -13.2189
 198   2.0000      -0.483136       -13.1468
 199   2.0000      -0.482440       -13.1279
 200   2.0000      -0.480453       -13.0738
 201   2.0000      -0.475501       -12.9390
 202   2.0000      -0.471616       -12.8333
 203   2.0000      -0.468827       -12.7574
 204   2.0000      -0.466751       -12.7010
 205   2.0000      -0.465402       -12.6642
 206   2.0000      -0.458986       -12.4896
 207   2.0000      -0.453823       -12.3492
 208   2.0000      -0.450764       -12.2659
 209   2.0000      -0.449532       -12.2324
 210   2.0000      -0.446271       -12.1436
 211   2.0000      -0.444669       -12.1001
 212   2.0000      -0.441021       -12.0008
 213   2.0000      -0.437129       -11.8949
 214   2.0000      -0.436557       -11.8793
 215   2.0000      -0.435495       -11.8504
 216   2.0000      -0.435178       -11.8418
 217   2.0000      -0.433538       -11.7972
 218   2.0000      -0.432935       -11.7808
 219   2.0000      -0.429866       -11.6973
 220   2.0000      -0.428188       -11.6516
 221   2.0000      -0.427014       -11.6196
 222   2.0000      -0.424915       -11.5625
 223   2.0000      -0.422151       -11.4873
 224   2.0000      -0.421021       -11.4566
 225   2.0000      -0.417461       -11.3597
 226   2.0000      -0.416272       -11.3273
 227   2.0000      -0.414781       -11.2868
 228   2.0000      -0.412038       -11.2121
 229   2.0000      -0.409132       -11.1331
 230   2.0000      -0.408009       -11.1025
 231   2.0000      -0.407481       -11.0881
 232   2.0000      -0.401987       -10.9386
 233   2.0000      -0.400791       -10.9061
 234   2.0000      -0.398604       -10.8466
 235   2.0000      -0.394546       -10.7361
 236   2.0000      -0.390881       -10.6364
 237   2.0000      -0.388405       -10.5690
 238   2.0000      -0.379798       -10.3348
 239   2.0000      -0.374115       -10.1802
 240   2.0000      -0.373831       -10.1725
 241   2.0000      -0.369804       -10.0629
 242   2.0000      -0.364306        -9.9133
 243   2.0000      -0.354825        -9.6553
 244   2.0000      -0.349286        -9.5045
 245   2.0000      -0.345292        -9.3959
 246   2.0000      -0.337051        -9.1716
 247   2.0000      -0.327596        -8.9143
 248   2.0000      -0.326718        -8.8905
 249   2.0000      -0.319337        -8.6896
 250   2.0000      -0.314040        -8.5455
 251   2.0000      -0.308172        -8.3858
 252   2.0000      -0.302922        -8.2429
 253   2.0000      -0.294296        -8.0082
 254   2.0000      -0.289284        -7.8718
 255   2.0000      -0.280661        -7.6372
 256   2.0000      -0.264307        -7.1922
 257   2.0000      -0.254741        -6.9318
 258   0.0000      -0.096145        -2.6162
 259   0.0000      -0.085929        -2.3383
 260   0.0000      -0.077790        -2.1168
 261   0.0000      -0.056591        -1.5399
 262   0.0000      -0.046965        -1.2780

MULLIKEN ATOMIC CHARGES
-----------------------
   0 C :    0.271746
   1 C :   -0.354524
   2 C :   -0.179143
   3 N :    0.150930
   4 C :   -0.201770
   5 N :    0.180012
   6 C :    0.036363
   7 C :    0.018522
   8 C :   -0.091117
   9 C :    0.098965
  10 C :    0.098372
  11 C :   -0.090833
  12 C :   -0.022198
  13 C :    0.039039
  14 C :    0.034979
  15 C :   -0.018079
  16 C :    0.135817
  17 O :   -0.143853
  18 C :   -0.118653
  19 C :    0.052043
  20 C :    0.010735
  21 C :    0.244268
  22 O :   -0.303159
  23 C :    0.175298
  24 C :   -0.115369
  25 C :   -0.010736
  26 C :    0.247542
  27 C :   -0.149275
  28 O :   -0.306746
  29 C :    0.179399
  30 C :    0.083507
  31 C :   -0.054415
  32 C :   -0.047590
  33 N :    0.039457
  34 C :    0.118799
  35 C :    0.116027
  36 N :    0.038559
  37 F :   -0.148610
  38 F :   -0.147534
  39 C :    0.081281
  40 C :   -0.014389
  41 C :   -0.003696
  42 N :   -0.278820
  43 S :    0.533179
  44 N :   -0.261181
  45 C :   -0.017028
  46 C :    0.242288
  47 O :   -0.309553
  48 C :    0.174719
  49 C :   -0.097968
  50 C :    0.015160
  51 C :    0.203991
  52 C :   -0.054971
  53 O :   -0.304551
  54 C :    0.165161
  55 C :   -0.067534
  56 C :   -0.087199
  57 C :    0.321118
  58 C :   -0.357022
  59 C :   -0.182340
  60 N :    0.146912
  61 C :   -0.185646
  62 N :    0.145893
  63 C :    0.047230
  64 C :   -0.009248
  65 C :    0.137012
  66 O :   -0.136216
  67 C :   -0.081591
  68 C :    0.099305
  69 C :    0.094923
  70 C :   -0.081937
  71 C :   -0.017183
  72 C :    0.034214
  73 C :    0.036785
  74 C :   -0.015129
  75 H :   -0.013108
  76 H :   -0.008864
  77 H :   -0.012539
  78 H :   -0.007224
  79 H :   -0.006181
  80 H :   -0.017988
  81 H :    0.030462
  82 H :    0.036624
  83 H :    0.041307
  84 H :    0.024042
  85 H :   -0.032369
  86 H :   -0.023569
  87 H :    0.026732
  88 H :    0.028413
  89 H :    0.034338
  90 H :    0.034667
  91 H :    0.022187
  92 H :    0.031348
  93 H :   -0.037245
  94 H :   -0.025674
  95 H :    0.037167
  96 H :    0.044759
  97 H :    0.034386
  98 H :    0.033495
  99 H :   -0.014761
 100 H :   -0.008827
 101 H :   -0.009001
 102 H :   -0.003519
 103 H :   -0.003776
 104 H :   -0.018024
Sum of atomic charges:   -0.0000000

LOEWDIN ATOMIC CHARGES
----------------------
   0 C :    0.067379
   1 C :   -0.144263
   2 C :   -0.020303
   3 N :   -0.059411
   4 C :   -0.022112
   5 N :   -0.042703
   6 C :   -0.023348
   7 C :   -0.055673
   8 C :    0.030830
   9 C :   -0.009301
  10 C :   -0.006345
  11 C :    0.012916
  12 C :   -0.007483
  13 C :   -0.014619
  14 C :   -0.014659
  15 C :   -0.009701
  16 C :    0.083663
  17 O :   -0.143622
  18 C :   -0.097773
  19 C :    0.093948
  20 C :   -0.056638
  21 C :    0.066548
  22 O :   -0.092307
  23 C :    0.079692
  24 C :   -0.038714
  25 C :   -0.007253
  26 C :    0.058065
  27 C :   -0.038591
  28 O :   -0.093491
  29 C :    0.077204
  30 C :   -0.013480
  31 C :   -0.002790
  32 C :   -0.003421
  33 N :   -0.028322
  34 C :    0.052794
  35 C :    0.052122
  36 N :   -0.028822
  37 F :   -0.038151
  38 F :   -0.036784
  39 C :   -0.008036
  40 C :   -0.043803
  41 C :   -0.041769
  42 N :   -0.291215
  43 S :    0.674522
  44 N :   -0.285534
  45 C :   -0.013899
  46 C :    0.051928
  47 O :   -0.097800
  48 C :    0.076567
  49 C :   -0.029551
  50 C :   -0.071137
  51 C :    0.063363
  52 C :   -0.013407
  53 O :   -0.095720
  54 C :    0.076913
  55 C :    0.084559
  56 C :   -0.100086
  57 C :    0.078717
  58 C :   -0.142847
  59 C :   -0.017156
  60 N :   -0.054283
  61 C :   -0.019745
  62 N :   -0.055039
  63 C :   -0.028230
  64 C :   -0.056029
  65 C :    0.079783
  66 O :   -0.136689
  67 C :    0.031114
  68 C :   -0.007762
  69 C :   -0.006771
  70 C :    0.020547
  71 C :   -0.004790
  72 C :   -0.013615
  73 C :   -0.011609
  74 C :   -0.009771
  75 H :    0.038800
  76 H :    0.037458
  77 H :    0.033452
  78 H :    0.032280
  79 H :    0.032254
  80 H :    0.031537
  81 H :    0.047628
  82 H :    0.022166
  83 H :    0.030973
  84 H :    0.015693
  85 H :    0.030103
  86 H :    0.029733
  87 H :    0.016253
  88 H :    0.018106
  89 H :    0.028982
  90 H :    0.020213
  91 H :    0.014775
  92 H :    0.026774
  93 H :    0.028352
  94 H :    0.035296
  95 H :    0.030772
  96 H :    0.020319
  97 H :    0.018797
  98 H :    0.041799
  99 H :    0.038348
 100 H :    0.038923
 101 H :    0.034844
 102 H :    0.033539
 103 H :    0.033229
 104 H :    0.031803

  Mayer bond orders larger than 0.100000
B(  0-C ,  1-C ) :   1.6517 B(  0-C ,  6-C ) :   1.0007 B(  0-C , 18-C ) :   1.0273
B(  1-C ,  2-C ) :   1.1366 B(  1-C ,  4-C ) :   1.1607 B(  2-C ,  3-N ) :   2.9794
B(  4-C ,  5-N ) :   3.0125 B(  6-C ,  7-C ) :   1.2160 B(  6-C , 11-C ) :   1.4552
B(  7-C ,  8-C ) :   1.4724 B(  7-C , 16-C ) :   0.9169 B(  8-C ,  9-C ) :   1.1816
B(  8-C , 75-H ) :   1.0173 B(  9-C , 10-C ) :   1.2581 B(  9-C , 15-C ) :   1.2438
B( 10-C , 11-C ) :   1.2009 B( 10-C , 12-C ) :   1.2400 B( 11-C , 76-H ) :   0.9951
B( 12-C , 13-C ) :   1.4917 B( 12-C , 77-H ) :   0.9975 B( 13-C , 14-C ) :   1.2587
B( 13-C , 78-H ) :   0.9880 B( 14-C , 15-C ) :   1.4892 B( 14-C , 79-H ) :   0.9892
B( 15-C , 80-H ) :   0.9982 B( 16-C , 17-O ) :   2.2696 B( 16-C , 18-C ) :   0.9391
B( 18-C , 19-C ) :   1.6606 B( 19-C , 20-C ) :   1.0856 B( 19-C , 81-H ) :   0.9344
B( 20-C , 21-C ) :   1.3324 B( 20-C , 27-C ) :   1.2894 B( 21-C , 22-O ) :   1.1989
B( 21-C , 24-C ) :   1.2740 B( 22-O , 23-C ) :   0.9550 B( 23-C , 82-H ) :   0.9695
B( 23-C , 83-H ) :   0.9781 B( 23-C , 84-H ) :   0.9693 B( 24-C , 25-C ) :   1.3698
B( 24-C , 85-H ) :   0.9917 B( 25-C , 26-C ) :   1.3631 B( 25-C , 30-C ) :   0.9473
B( 26-C , 27-C ) :   1.3266 B( 26-C , 28-O ) :   1.1699 B( 27-C , 86-H ) :   0.9880
B( 28-O , 29-C ) :   0.9618 B( 29-C , 87-H ) :   0.9655 B( 29-C , 88-H ) :   0.9688
B( 29-C , 89-H ) :   0.9768 B( 30-C , 31-C ) :   1.3808 B( 30-C , 39-C ) :   0.1442
B( 30-C , 41-C ) :   1.2735 B( 31-C , 32-C ) :   1.0854 B( 31-C , 36-N ) :   1.3890
B( 32-C , 33-N ) :   1.3939 B( 32-C , 39-C ) :   1.3891 B( 33-N , 34-C ) :   1.7306
B( 34-C , 35-C ) :   1.0729 B( 34-C , 38-F ) :   1.1679 B( 35-C , 36-N ) :   1.7293
B( 35-C , 37-F ) :   1.1672 B( 39-C , 40-C ) :   1.2928 B( 39-C , 45-C ) :   0.9253
B( 40-C , 41-C ) :   1.1034 B( 40-C , 44-N ) :   1.4979 B( 41-C , 42-N ) :   1.4829
B( 42-N , 43-S ) :   1.2924 B( 42-N , 44-N ) :   0.1614 B( 43-S , 44-N ) :   1.2990
B( 45-C , 46-C ) :   1.3352 B( 45-C , 52-C ) :   1.4232 B( 46-C , 47-O ) :   1.1647
B( 46-C , 49-C ) :   1.3537 B( 47-O , 48-C ) :   0.9628 B( 48-C , 90-H ) :   0.9668
B( 48-C , 91-H ) :   0.9679 B( 48-C , 92-H ) :   0.9777 B( 49-C , 50-C ) :   1.2786
B( 49-C , 93-H ) :   0.9843 B( 50-C , 51-C ) :   1.3047 B( 50-C , 55-C ) :   1.0505
B( 51-C , 52-C ) :   1.2989 B( 51-C , 53-O ) :   1.1726 B( 52-C , 94-H ) :   1.0009
B( 53-O , 54-C ) :   0.9497 B( 54-C , 95-H ) :   0.9723 B( 54-C , 96-H ) :   0.9677
B( 54-C , 97-H ) :   0.9533 B( 55-C , 56-C ) :   1.6793 B( 55-C , 98-H ) :   0.9207
B( 56-C , 57-C ) :   1.0494 B( 56-C , 65-C ) :   0.9217 B( 57-C , 58-C ) :   1.6329
B( 57-C , 63-C ) :   0.9950 B( 58-C , 59-C ) :   1.1440 B( 58-C , 61-C ) :   1.1493
B( 59-C , 60-N ) :   2.9631 B( 61-C , 62-N ) :   2.9456 B( 63-C , 64-C ) :   1.2101
B( 63-C , 70-C ) :   1.4432 B( 64-C , 65-C ) :   0.9420 B( 64-C , 67-C ) :   1.4731
B( 65-C , 66-O ) :   2.2322 B( 67-C , 68-C ) :   1.1786 B( 67-C , 99-H ) :   1.0161
B( 68-C , 69-C ) :   1.2550 B( 68-C , 74-C ) :   1.2444 B( 69-C , 70-C ) :   1.2098
B( 69-C , 71-C ) :   1.2388 B( 70-C ,100-H ) :   0.9887 B( 71-C , 72-C ) :   1.4907
B( 71-C ,101-H ) :   0.9970 B( 72-C , 73-C ) :   1.2582 B( 72-C ,102-H ) :   0.9889
B( 73-C , 74-C ) :   1.4900 B( 73-C ,103-H ) :   0.9884 B( 74-C ,104-H ) :   0.9973

-----------------------------------------------------------------------------
         ABSORPTION SPECTRUM VIA TRANSITION ELECTRIC DIPOLE MOMENTS
-----------------------------------------------------------------------------
State   Energy  Wavelength   fosc         T2         TX        TY        TZ
        (cm-1)    (nm)                  (au**2)     (au)      (au)      (au)
-----------------------------------------------------------------------------
   0   17018.7    587.6   0.572009454  11.06501  -2.58616   1.77880  -1.10121
   1   18764.9    532.9   0.079034643   1.38658   0.52203   0.51706  -0.92017
   2   20704.0    483.0   0.179035305   2.84682  -1.52326   0.69841  -0.19674
   3   21087.0    474.2   0.106328651   1.66001  -0.14647  -0.85102   0.95620
   4   22770.9    439.2   0.377590329   5.45905   1.94038  -1.17175   0.56654
   5   24945.3    400.9   0.025142403   0.33181  -0.54062   0.15338  -0.12655
   6   26617.2    375.7   0.032416358   0.40094   0.59080   0.19530  -0.11725
   7   26684.3    374.8   0.034365761   0.42398  -0.06879   0.64463  -0.06081
   8   27531.1    363.2   0.005052508   0.06042   0.14126   0.19784  -0.03636
   9   27739.4    360.5   0.046624359   0.55334   0.47641   0.06911   0.56709
  10   28011.4    357.0   0.118871666   1.39707   1.00993   0.56163  -0.24839
  11   28798.1    347.2   0.027956059   0.31959  -0.26632  -0.41212   0.28074
  12   28969.1    345.2   0.072779261   0.82708  -0.65879   0.24816  -0.57575
  13   29496.6    339.0   0.089974847   1.00421   0.80278  -0.39021   0.45551
  14   29938.8    334.0   0.013225629   0.14543  -0.34304   0.16424  -0.02790
  15   30068.7    332.6   0.092286098   1.01041  -0.21584   0.90951  -0.36962
  16   30372.1    329.2   0.029774802   0.32274  -0.03419   0.15804  -0.54460
  17   30570.8    327.1   0.030428410   0.32768  -0.45011   0.24350  -0.25649
  18   31054.4    322.0   0.037040758   0.39267  -0.11735   0.20020  -0.58208
  19   31767.4    314.8   0.057392868   0.59477   0.59365   0.04264   0.49044
  20   31943.9    313.0   0.134529153   1.38645  -0.06555  -0.56921  -1.02867
  21   32315.8    309.4   0.078349433   0.79817  -0.88066  -0.04252   0.14423
  22   32648.9    306.3   0.255038102   2.57166   0.22580   0.90428   1.30497
  23   33181.1    301.4   0.101256366   1.00463   0.74694  -0.05286   0.66627
  24   33391.7    299.5   0.138683146   1.36729  -0.85966   0.49939  -0.61554
  25   33682.9    296.9   0.136851325   1.33757  -0.05937  -1.14129   0.17748
  26   33946.4    294.6   0.093286454   0.90469   0.67989   0.66111  -0.07327
  27   33989.8    294.2   0.010463368   0.10134  -0.06882   0.30593   0.05490
  28   34434.5    290.4   0.123049363   1.17642   0.13342  -0.48156   0.96266
  29   34822.5    287.2   1.103477986  10.43227  -3.03080  -1.04588  -0.39075
  30   34977.9    285.9   0.462035020   4.34867   0.34351  -1.17028   1.69149
  31   35436.0    282.2   0.111764656   1.03833  -0.92628  -0.38256  -0.18436
  32   36161.8    276.5   0.019733348   0.17965  -0.29992   0.29677  -0.04034
  33   36762.8    272.0   0.062675901   0.56126  -0.35996   0.64318  -0.13422
  34   37037.5    270.0   0.016579409   0.14737  -0.08594   0.18672  -0.32422
  35   37195.6    268.8   0.169668411   1.50171  -0.88712   0.77425  -0.33949
  36   37592.2    266.0   0.043430984   0.38035   0.28065   0.04281   0.54749
  37   37858.2    264.1   0.024945274   0.21692  -0.41869  -0.14404  -0.14448
  38   37997.9    263.2   0.076558150   0.66330  -0.80380  -0.13113  -0.00087
  39   38136.1    262.2   0.071399393   0.61636   0.12513   0.77476  -0.02125
  40   38830.6    257.5   0.113204140   0.95976  -0.48290   0.66230  -0.53659
  41   38999.0    256.4   0.015304881   0.12920   0.06511   0.35120   0.04019
  42   39190.7    255.2   0.037087874   0.31155  -0.47163   0.27828  -0.10807
  43   39429.9    253.6   0.015135178   0.12637  -0.25619   0.23533  -0.07316
  44   39471.4    253.3   0.033102160   0.27609   0.50696  -0.13736  -0.01450
  45   39620.5    252.4   0.008034313   0.06676   0.10394   0.21250  -0.10393
  46   39699.3    251.9   0.010376523   0.08605  -0.03319   0.27623  -0.09299
  47   40064.3    249.6   0.080454276   0.66110  -0.62307   0.50464  -0.13497
  48   40177.8    248.9   0.040880986   0.33497  -0.43877  -0.22965   0.29952
  49   40317.4    248.0   0.015811019   0.12910  -0.20234   0.25429   0.15331

FINAL SINGLE POINT ENERGY     -3711.126275648184

DIPOLE MOMENT
-------------
                                X             Y             Z
Electronic contribution:     11.14179      16.54078      -4.89637
Nuclear contribution   :    -11.79253     -17.70840       5.74086
                        -----------------------------------------
Total Dipole Moment    :     -0.65074      -1.16761       0.84449
                        -----------------------------------------
Magnitude (a.u.)       :      1.58113
Magnitude (Debye)      :      4.01890

Rotational constants in cm-1:     0.002013     0.000285     0.000274
Rotational constants in MHz :    60.338385     8.558467     8.204295

                             ****ORCA TERMINATED NORMALLY****
TOTAL RUN TIME: 0 days 0 hours 11 minutes 2 seconds 253 msec
