                         Program Version 4.2.0 -  RELEASE  -
|  1> # ORCA input file
|  2> # SCF done       -205.437908683623          0.000991914714
|  3> ! CAM-B3LYP def2-SVP def2/J RIJCOSX Grid4 TightSCF
|  4> %maxcore 5000
|  5> %tddft
|  6>     Mode sTDDFT
|  7>     Ethresh 5.0
|  8>     maxcore 5000
|  9> end
| 10>
| 11> %pal
| 12>   nprocs 6
| 13>   end
| 14> * xyz 0 1
| 15>    C       -6.61358         1.88773        -3.72857
| 16>    C       -7.09426         1.80148        -2.44707
| 17>    C       -7.24008         0.58890        -1.74573
| 18>    N       -7.35664        -0.37141        -1.12771
| 19>    C       -7.59150         2.91428        -1.73900
| 20>    N       -8.05142         3.79190        -1.15890
| 21>    C       -6.39706         0.76253        -4.63064
| 22>    C       -6.43345         1.24811        -5.97109
| 23>    C       -6.30489         0.40892        -7.03969
| 24>    C       -6.11890        -0.97382        -6.81217
| 25>    C       -6.06610        -1.46196        -5.47452
| 26>    C       -6.21118        -0.57071        -4.38610
| 27>    C       -5.87383        -2.84215        -5.26276
| 28>    C       -5.74263        -3.70145        -6.31956
| 29>    C       -5.79581        -3.22031        -7.63609
| 30>    C       -5.98048        -1.88579        -7.87693
| 31>    C       -6.60725         2.71310        -5.95679
| 32>    O       -6.73151         3.46042        -6.89941
| 33>    C       -6.52509         3.09567        -4.51850
| 34>    C       -6.27575         4.38902        -4.17689
| 35>    C       -5.73386         4.90329        -2.98011
| 36>    S       -4.81926         3.97165        -1.79647
| 37>    C       -4.44156         5.34601        -0.78139
| 38>    C       -5.00801         6.45394        -1.36941
| 39>    C       -5.68843         6.21886        -2.56992
| 40>    O       -6.17397         7.40600        -3.02148
| 41>    C       -5.80100         8.35482        -2.11798
| 42>    O       -6.05265         9.50868        -2.20175
| 43>    O       -5.08594         7.79382        -1.10394
| 44>    C       -3.66509         5.24124         0.41472
| 45>    C       -3.38721         6.37999         1.14363
| 46>    C       -2.60639         6.29486         2.31008
| 47>    C       -2.16776         7.26013         3.21068
| 48>    C       -2.38337         8.73314         3.23837
| 49>    C       -1.24183         9.45165         2.47762
| 50>    N       -0.03496         9.48169         3.28698
| 51>    C       -3.73992         9.20358         2.69156
| 52>    N       -3.98312        10.56286         3.14959
| 53>    C       -1.31720         6.57849         4.15976
| 54>    C       -0.57832         7.05564         5.17833
| 55>    C        0.32945         6.17119         5.95563
| 56>    C        0.22120         4.70932         5.62229
| 57>    C       -0.54487         4.25134         4.61760
| 58>    C       -1.30327         5.15019         3.82739
| 59>    C       -2.08903         4.98609         2.70746
| 60>    C       -2.41332         3.83643         1.94742
| 61>    C       -3.17909         3.96136         0.83731
| 62>    C        0.22622         6.33525         7.44361
| 63>    C       -0.79687         6.90998         8.08492
| 64>    C       -0.84076         7.01322         9.51227
| 65>    S       -2.12107         7.85413        10.34889
| 66>    C       -1.43955         7.59670        11.94866
| 67>    C       -0.28898         6.85661        11.79002
| 68>    C        0.03639         6.54436        10.46000
| 69>    O        1.17144         5.78789        10.47588
| 70>    C        1.51149         5.61908        11.78795
| 71>    O        2.44404         4.99497        12.16181
| 72>    O        0.61762         6.25160        12.59542
| 73>    C       -2.08653         8.07418        13.11467
| 74>    C       -1.44417         8.38873        14.27363
| 75>    C       -2.05420         8.68985        15.55645
| 76>    C       -3.36646         8.48974        15.89645
| 77>    C       -3.90409         8.76732        17.17105
| 78>    N       -4.40162         8.97846        18.18347
| 79>    C       -4.35158         7.96376        15.03466
| 80>    N       -5.19685         7.52963        14.39013
| 81>    C       -1.00231         9.15874        16.44915
| 82>    C        0.23762         9.13472        15.74776
| 83>    C        0.01601         8.67561        14.36839
| 84>    O        0.82526         8.65805        13.46676
| 85>    C        1.40857         9.51478        16.33793
| 86>    C        1.39471         9.93938        17.68531
| 87>    C        0.15758         9.97449        18.39206
| 88>    C       -1.03972         9.57928        17.75293
| 89>    C        0.15421        10.40806        19.73362
| 90>    C        1.31601        10.78647        20.34973
| 91>    C        2.53357        10.74912        19.65372
| 92>    C        2.57229        10.33404        18.35004
| 93>    H       -6.34502         0.79353        -8.04797
| 94>    H       -6.16066        -0.96261        -3.38203
| 95>    H       -5.83711        -3.20824        -4.24721
| 96>    H       -5.59781        -4.75739        -6.14667
| 97>    H       -5.68984        -3.91203        -8.45840
| 98>    H       -6.02258        -1.50969        -8.88870
| 99>    H       -6.43385         5.12505        -4.95971
|100>    H       -3.75917         7.32984         0.80057
|101>    H       -2.32475         9.06611         4.28085
|102>    H       -1.60869        10.45369         2.21564
|103>    H       -1.02824         8.90377         1.55693
|104>    H       -0.11457        10.20133         3.99825
|105>    H        0.77362         9.69904         2.71684
|106>    H       -4.52146         8.49003         2.99858
|107>    H       -3.71236         9.23717         1.60101
|108>    H       -4.18836        10.57259         4.14352
|109>    H       -4.77909        10.96284         2.66632
|110>    H       -0.56061         8.10589         5.42605
|111>    H        1.35321         6.48474         5.68149
|112>    H        0.81150         4.04089         6.22946
|113>    H       -0.58282         3.19520         4.39421
|114>    H       -2.04118         2.87219         2.25902
|115>    H       -3.43974         3.10126         0.23813
|116>    H        1.03908         5.90891         8.01517
|117>    H       -1.63577         7.33099         7.55057
|118>    H       -3.15829         8.20108        13.03593
|119>    H        2.33531         9.48567        15.78442
|120>    H       -1.96042         9.62375        18.31272
|121>    H       -0.78527        10.43344        20.26591
|122>    H        1.30325        11.11636        21.37767
|123>    H        3.44060        11.05114        20.15555
|124>    H        3.50673        10.30306        17.80919
|125> *
|126>
|127>                          ****END OF INPUT****

CARTESIAN COORDINATES (ANGSTROEM)
---------------------------------
  C     -6.613580    1.887730   -3.728570
  C     -7.094260    1.801480   -2.447070
  C     -7.240080    0.588900   -1.745730
  N     -7.356640   -0.371410   -1.127710
  C     -7.591500    2.914280   -1.739000
  N     -8.051420    3.791900   -1.158900
  C     -6.397060    0.762530   -4.630640
  C     -6.433450    1.248110   -5.971090
  C     -6.304890    0.408920   -7.039690
  C     -6.118900   -0.973820   -6.812170
  C     -6.066100   -1.461960   -5.474520
  C     -6.211180   -0.570710   -4.386100
  C     -5.873830   -2.842150   -5.262760
  C     -5.742630   -3.701450   -6.319560
  C     -5.795810   -3.220310   -7.636090
  C     -5.980480   -1.885790   -7.876930
  C     -6.607250    2.713100   -5.956790
  O     -6.731510    3.460420   -6.899410
  C     -6.525090    3.095670   -4.518500
  C     -6.275750    4.389020   -4.176890
  C     -5.733860    4.903290   -2.980110
  S     -4.819260    3.971650   -1.796470
  C     -4.441560    5.346010   -0.781390
  C     -5.008010    6.453940   -1.369410
  C     -5.688430    6.218860   -2.569920
  O     -6.173970    7.406000   -3.021480
  C     -5.801000    8.354820   -2.117980
  O     -6.052650    9.508680   -2.201750
  O     -5.085940    7.793820   -1.103940
  C     -3.665090    5.241240    0.414720
  C     -3.387210    6.379990    1.143630
  C     -2.606390    6.294860    2.310080
  C     -2.167760    7.260130    3.210680
  C     -2.383370    8.733140    3.238370
  C     -1.241830    9.451650    2.477620
  N     -0.034960    9.481690    3.286980
  C     -3.739920    9.203580    2.691560
  N     -3.983120   10.562860    3.149590
  C     -1.317200    6.578490    4.159760
  C     -0.578320    7.055640    5.178330
  C      0.329450    6.171190    5.955630
  C      0.221200    4.709320    5.622290
  C     -0.544870    4.251340    4.617600
  C     -1.303270    5.150190    3.827390
  C     -2.089030    4.986090    2.707460
  C     -2.413320    3.836430    1.947420
  C     -3.179090    3.961360    0.837310
  C      0.226220    6.335250    7.443610
  C     -0.796870    6.909980    8.084920
  C     -0.840760    7.013220    9.512270
  S     -2.121070    7.854130   10.348890
  C     -1.439550    7.596700   11.948660
  C     -0.288980    6.856610   11.790020
  C      0.036390    6.544360   10.460000
  O      1.171440    5.787890   10.475880
  C      1.511490    5.619080   11.787950
  O      2.444040    4.994970   12.161810
  O      0.617620    6.251600   12.595420
  C     -2.086530    8.074180   13.114670
  C     -1.444170    8.388730   14.273630
  C     -2.054200    8.689850   15.556450
  C     -3.366460    8.489740   15.896450
  C     -3.904090    8.767320   17.171050
  N     -4.401620    8.978460   18.183470
  C     -4.351580    7.963760   15.034660
  N     -5.196850    7.529630   14.390130
  C     -1.002310    9.158740   16.449150
  C      0.237620    9.134720   15.747760
  C      0.016010    8.675610   14.368390
  O      0.825260    8.658050   13.466760
  C      1.408570    9.514780   16.337930
  C      1.394710    9.939380   17.685310
  C      0.157580    9.974490   18.392060
  C     -1.039720    9.579280   17.752930
  C      0.154210   10.408060   19.733620
  C      1.316010   10.786470   20.349730
  C      2.533570   10.749120   19.653720
  C      2.572290   10.334040   18.350040
  H     -6.345020    0.793530   -8.047970
  H     -6.160660   -0.962610   -3.382030
  H     -5.837110   -3.208240   -4.247210
  H     -5.597810   -4.757390   -6.146670
  H     -5.689840   -3.912030   -8.458400
  H     -6.022580   -1.509690   -8.888700
  H     -6.433850    5.125050   -4.959710
  H     -3.759170    7.329840    0.800570
  H     -2.324750    9.066110    4.280850
  H     -1.608690   10.453690    2.215640
  H     -1.028240    8.903770    1.556930
  H     -0.114570   10.201330    3.998250
  H      0.773620    9.699040    2.716840
  H     -4.521460    8.490030    2.998580
  H     -3.712360    9.237170    1.601010
  H     -4.188360   10.572590    4.143520
  H     -4.779090   10.962840    2.666320
  H     -0.560610    8.105890    5.426050
  H      1.353210    6.484740    5.681490
  H      0.811500    4.040890    6.229460
  H     -0.582820    3.195200    4.394210
  H     -2.041180    2.872190    2.259020
  H     -3.439740    3.101260    0.238130
  H      1.039080    5.908910    8.015170
  H     -1.635770    7.330990    7.550570
  H     -3.158290    8.201080   13.035930
  H      2.335310    9.485670   15.784420
  H     -1.960420    9.623750   18.312720
  H     -0.785270   10.433440   20.265910
  H      1.303250   11.116360   21.377670
  H      3.440600   11.051140   20.155550
  H      3.506730   10.303060   17.809190

 Total Charge           Charge          ....    0
 Multiplicity           Mult            ....    1
 Number of Electrons    NEL             ....  542
 Basis Dimension        Dim             .... 1260

ORBITAL ENERGIES
----------------

  NO   OCC          E(Eh)            E(eV)
   0   2.0000     -88.986158     -2421.4365
   1   2.0000     -88.979242     -2421.2483
   2   2.0000     -19.320792      -525.7455
   3   2.0000     -19.320159      -525.7283
   4   2.0000     -19.319647      -525.7143
   5   2.0000     -19.317377      -525.6526
   6   2.0000     -19.230178      -523.2797
   7   2.0000     -19.228635      -523.2377
   8   2.0000     -19.219250      -522.9824
   9   2.0000     -19.211078      -522.7600
  10   2.0000     -14.419248      -392.3677
  11   2.0000     -14.417286      -392.3143
  12   2.0000     -14.413692      -392.2165
  13   2.0000     -14.410391      -392.1267
  14   2.0000     -14.389541      -391.5593
  15   2.0000     -14.386057      -391.4645
  16   2.0000     -10.474939      -285.0376
  17   2.0000     -10.473887      -285.0090
  18   2.0000     -10.373516      -282.2777
  19   2.0000     -10.370266      -282.1893
  20   2.0000     -10.369872      -282.1786
  21   2.0000     -10.363226      -281.9977
  22   2.0000     -10.363043      -281.9927
  23   2.0000     -10.356979      -281.8277
  24   2.0000     -10.345599      -281.5181
  25   2.0000     -10.343779      -281.4685
  26   2.0000     -10.343772      -281.4683
  27   2.0000     -10.340743      -281.3859
  28   2.0000     -10.339029      -281.3393
  29   2.0000     -10.338118      -281.3145
  30   2.0000     -10.335393      -281.2403
  31   2.0000     -10.331994      -281.1478
  32   2.0000     -10.330370      -281.1037
  33   2.0000     -10.324408      -280.9414
  34   2.0000     -10.321762      -280.8694
  35   2.0000     -10.319834      -280.8170
  36   2.0000     -10.316183      -280.7176
  37   2.0000     -10.312815      -280.6260
  38   2.0000     -10.306502      -280.4542
  39   2.0000     -10.306423      -280.4520
  40   2.0000     -10.306102      -280.4433
  41   2.0000     -10.305947      -280.4391
  42   2.0000     -10.305233      -280.4197
  43   2.0000     -10.305016      -280.4137
  44   2.0000     -10.301446      -280.3166
  45   2.0000     -10.299461      -280.2626
  46   2.0000     -10.299231      -280.2563
  47   2.0000     -10.298860      -280.2462
  48   2.0000     -10.298214      -280.2286
  49   2.0000     -10.296569      -280.1839
  50   2.0000     -10.296053      -280.1699
  51   2.0000     -10.296002      -280.1684
  52   2.0000     -10.295573      -280.1568
  53   2.0000     -10.294813      -280.1361
  54   2.0000     -10.294647      -280.1316
  55   2.0000     -10.290630      -280.0223
  56   2.0000     -10.288292      -279.9587
  57   2.0000     -10.288196      -279.9561
  58   2.0000     -10.287590      -279.9396
  59   2.0000     -10.287357      -279.9332
  60   2.0000     -10.287211      -279.9292
  61   2.0000     -10.286890      -279.9205
  62   2.0000     -10.284812      -279.8640
  63   2.0000     -10.284401      -279.8528
  64   2.0000     -10.284179      -279.8467
  65   2.0000     -10.283953      -279.8406
  66   2.0000     -10.283926      -279.8399
  67   2.0000     -10.283673      -279.8330
  68   2.0000     -10.278528      -279.6930
  69   2.0000     -10.278024      -279.6792
  70   2.0000     -10.277332      -279.6604
  71   2.0000     -10.276916      -279.6491
  72   2.0000     -10.276158      -279.6285
  73   2.0000     -10.272342      -279.5246
  74   2.0000     -10.271741      -279.5083
  75   2.0000     -10.270179      -279.4658
  76   2.0000     -10.268009      -279.4067
  77   2.0000     -10.266595      -279.3683
  78   2.0000      -8.081333      -219.9042
  79   2.0000      -8.073338      -219.6867
  80   2.0000      -6.050894      -164.6532
  81   2.0000      -6.046972      -164.5465
  82   2.0000      -6.042998      -164.4383
  83   2.0000      -6.042636      -164.4285
  84   2.0000      -6.039013      -164.3299
  85   2.0000      -6.034612      -164.2102
  86   2.0000      -1.297071       -35.2951
  87   2.0000      -1.295296       -35.2468
  88   2.0000      -1.181903       -32.1612
  89   2.0000      -1.179684       -32.1008
  90   2.0000      -1.154138       -31.4057
  91   2.0000      -1.151897       -31.3447
  92   2.0000      -1.134409       -30.8688
  93   2.0000      -1.126436       -30.6519
  94   2.0000      -1.021738       -27.8029
  95   2.0000      -1.018862       -27.7246
  96   2.0000      -1.016290       -27.6547
  97   2.0000      -1.009209       -27.4620
  98   2.0000      -1.000779       -27.2326
  99   2.0000      -0.996608       -27.1191
 100   2.0000      -0.995749       -27.0957
 101   2.0000      -0.990699       -26.9583
 102   2.0000      -0.989406       -26.9231
 103   2.0000      -0.973844       -26.4996
 104   2.0000      -0.973069       -26.4786
 105   2.0000      -0.969672       -26.3861
 106   2.0000      -0.958947       -26.0943
 107   2.0000      -0.955677       -26.0053
 108   2.0000      -0.935211       -25.4484
 109   2.0000      -0.928115       -25.2553
 110   2.0000      -0.922416       -25.1002
 111   2.0000      -0.916064       -24.9274
 112   2.0000      -0.904548       -24.6140
 113   2.0000      -0.896183       -24.3864
 114   2.0000      -0.883974       -24.0541
 115   2.0000      -0.883438       -24.0396
 116   2.0000      -0.880285       -23.9538
 117   2.0000      -0.878772       -23.9126
 118   2.0000      -0.870786       -23.6953
 119   2.0000      -0.860505       -23.4155
 120   2.0000      -0.855717       -23.2852
 121   2.0000      -0.849223       -23.1085
 122   2.0000      -0.842104       -22.9148
 123   2.0000      -0.836905       -22.7733
 124   2.0000      -0.830270       -22.5928
 125   2.0000      -0.829522       -22.5724
 126   2.0000      -0.826285       -22.4844
 127   2.0000      -0.812037       -22.0967
 128   2.0000      -0.794003       -21.6059
 129   2.0000      -0.788343       -21.4519
 130   2.0000      -0.766914       -20.8688
 131   2.0000      -0.764101       -20.7922
 132   2.0000      -0.763479       -20.7753
 133   2.0000      -0.758338       -20.6354
 134   2.0000      -0.749695       -20.4002
 135   2.0000      -0.746740       -20.3198
 136   2.0000      -0.743997       -20.2452
 137   2.0000      -0.735474       -20.0133
 138   2.0000      -0.725870       -19.7519
 139   2.0000      -0.721634       -19.6366
 140   2.0000      -0.713104       -19.4046
 141   2.0000      -0.705688       -19.2027
 142   2.0000      -0.705618       -19.2008
 143   2.0000      -0.699942       -19.0464
 144   2.0000      -0.699747       -19.0411
 145   2.0000      -0.696837       -18.9619
 146   2.0000      -0.688620       -18.7383
 147   2.0000      -0.682053       -18.5596
 148   2.0000      -0.678697       -18.4683
 149   2.0000      -0.676600       -18.4112
 150   2.0000      -0.675543       -18.3824
 151   2.0000      -0.673212       -18.3190
 152   2.0000      -0.660471       -17.9723
 153   2.0000      -0.647671       -17.6240
 154   2.0000      -0.643169       -17.5015
 155   2.0000      -0.633916       -17.2497
 156   2.0000      -0.633264       -17.2320
 157   2.0000      -0.630955       -17.1692
 158   2.0000      -0.629723       -17.1356
 159   2.0000      -0.621986       -16.9251
 160   2.0000      -0.614296       -16.7158
 161   2.0000      -0.610540       -16.6136
 162   2.0000      -0.608447       -16.5567
 163   2.0000      -0.605344       -16.4722
 164   2.0000      -0.604504       -16.4494
 165   2.0000      -0.600861       -16.3503
 166   2.0000      -0.596453       -16.2303
 167   2.0000      -0.585227       -15.9248
 168   2.0000      -0.580077       -15.7847
 169   2.0000      -0.575096       -15.6492
 170   2.0000      -0.569574       -15.4989
 171   2.0000      -0.563970       -15.3464
 172   2.0000      -0.561500       -15.2792
 173   2.0000      -0.554693       -15.0940
 174   2.0000      -0.549268       -14.9463
 175   2.0000      -0.547415       -14.8959
 176   2.0000      -0.546902       -14.8819
 177   2.0000      -0.545461       -14.8427
 178   2.0000      -0.544454       -14.8153
 179   2.0000      -0.544305       -14.8113
 180   2.0000      -0.542270       -14.7559
 181   2.0000      -0.539873       -14.6907
 182   2.0000      -0.538815       -14.6619
 183   2.0000      -0.537555       -14.6276
 184   2.0000      -0.532641       -14.4939
 185   2.0000      -0.530376       -14.4323
 186   2.0000      -0.528111       -14.3706
 187   2.0000      -0.524631       -14.2759
 188   2.0000      -0.523777       -14.2527
 189   2.0000      -0.521996       -14.2042
 190   2.0000      -0.520875       -14.1737
 191   2.0000      -0.518796       -14.1172
 192   2.0000      -0.516111       -14.0441
 193   2.0000      -0.515337       -14.0230
 194   2.0000      -0.513114       -13.9625
 195   2.0000      -0.511455       -13.9174
 196   2.0000      -0.511271       -13.9124
 197   2.0000      -0.509899       -13.8750
 198   2.0000      -0.508584       -13.8393
 199   2.0000      -0.507784       -13.8175
 200   2.0000      -0.506915       -13.7938
 201   2.0000      -0.505078       -13.7439
 202   2.0000      -0.504183       -13.7195
 203   2.0000      -0.502389       -13.6707
 204   2.0000      -0.500872       -13.6294
 205   2.0000      -0.497163       -13.5285
 206   2.0000      -0.496273       -13.5043
 207   2.0000      -0.494353       -13.4520
 208   2.0000      -0.491077       -13.3629
 209   2.0000      -0.485145       -13.2015
 210   2.0000      -0.483214       -13.1489
 211   2.0000      -0.481938       -13.1142
 212   2.0000      -0.480354       -13.0711
 213   2.0000      -0.475055       -12.9269
 214   2.0000      -0.470615       -12.8061
 215   2.0000      -0.468062       -12.7366
 216   2.0000      -0.466657       -12.6984
 217   2.0000      -0.463361       -12.6087
 218   2.0000      -0.458791       -12.4843
 219   2.0000      -0.454491       -12.3673
 220   2.0000      -0.451701       -12.2914
 221   2.0000      -0.448681       -12.2092
 222   2.0000      -0.447890       -12.1877
 223   2.0000      -0.446937       -12.1618
 224   2.0000      -0.443710       -12.0740
 225   2.0000      -0.442716       -12.0469
 226   2.0000      -0.442456       -12.0398
 227   2.0000      -0.441137       -12.0040
 228   2.0000      -0.439481       -11.9589
 229   2.0000      -0.438562       -11.9339
 230   2.0000      -0.436037       -11.8652
 231   2.0000      -0.435326       -11.8458
 232   2.0000      -0.434767       -11.8306
 233   2.0000      -0.433148       -11.7866
 234   2.0000      -0.429903       -11.6983
 235   2.0000      -0.429467       -11.6864
 236   2.0000      -0.426878       -11.6159
 237   2.0000      -0.424383       -11.5480
 238   2.0000      -0.422910       -11.5080
 239   2.0000      -0.422336       -11.4923
 240   2.0000      -0.417183       -11.3521
 241   2.0000      -0.415671       -11.3110
 242   2.0000      -0.414195       -11.2708
 243   2.0000      -0.410408       -11.1678
 244   2.0000      -0.404853       -11.0166
 245   2.0000      -0.402674       -10.9573
 246   2.0000      -0.402416       -10.9503
 247   2.0000      -0.399416       -10.8687
 248   2.0000      -0.394560       -10.7365
 249   2.0000      -0.393623       -10.7110
 250   2.0000      -0.391460       -10.6522
 251   2.0000      -0.377637       -10.2760
 252   2.0000      -0.376879       -10.2554
 253   2.0000      -0.371122       -10.0987
 254   2.0000      -0.364344        -9.9143
 255   2.0000      -0.349164        -9.5012
 256   2.0000      -0.343996        -9.3606
 257   2.0000      -0.340945        -9.2776
 258   2.0000      -0.334938        -9.1141
 259   2.0000      -0.327934        -8.9235
 260   2.0000      -0.322123        -8.7654
 261   2.0000      -0.318918        -8.6782
 262   2.0000      -0.318321        -8.6619
 263   2.0000      -0.315308        -8.5800
 264   2.0000      -0.312335        -8.4991
 265   2.0000      -0.300894        -8.1877
 266   2.0000      -0.297987        -8.1087
 267   2.0000      -0.293323        -7.9817
 268   2.0000      -0.283530        -7.7152
 269   2.0000      -0.277431        -7.5493
 270   2.0000      -0.227461        -6.1895
 271   0.0000      -0.100339        -2.7304
 272   0.0000      -0.098477        -2.6797
 273   0.0000      -0.071056        -1.9335
 274   0.0000      -0.060942        -1.6583
 275   0.0000      -0.052344        -1.4244

MULLIKEN ATOMIC CHARGES
-----------------------
   0 C :    0.251381
   1 C :   -0.321847
   2 C :   -0.172085
   3 N :    0.150028
   4 C :   -0.206431
   5 N :    0.169882
   6 C :    0.037589
   7 C :    0.010002
   8 C :   -0.080108
   9 C :    0.092573
  10 C :    0.092763
  11 C :   -0.079052
  12 C :   -0.016241
  13 C :    0.035360
  14 C :    0.034023
  15 C :   -0.014920
  16 C :    0.140871
  17 O :   -0.140975
  18 C :   -0.133778
  19 C :    0.049738
  20 C :   -0.217948
  21 S :    0.146352
  22 C :   -0.147667
  23 C :    0.166350
  24 C :    0.248769
  25 O :   -0.195791
  26 C :    0.300138
  27 O :   -0.123372
  28 O :   -0.223825
  29 C :    0.171964
  30 C :   -0.125734
  31 C :    0.042048
  32 C :    0.011178
  33 C :   -0.065731
  34 C :    0.148435
  35 N :   -0.225161
  36 C :    0.099173
  37 N :   -0.212347
  38 C :    0.081757
  39 C :   -0.098184
  40 C :    0.176625
  41 C :   -0.047418
  42 C :    0.022941
  43 C :    0.018436
  44 C :    0.022846
  45 C :    0.004395
  46 C :   -0.046081
  47 C :   -0.106093
  48 C :    0.097235
  49 C :   -0.165547
  50 S :    0.167550
  51 C :   -0.215028
  52 C :    0.234983
  53 C :    0.155777
  54 O :   -0.221314
  55 C :    0.298103
  56 O :   -0.120977
  57 O :   -0.187729
  58 C :    0.046771
  59 C :   -0.096369
  60 C :    0.312404
  61 C :   -0.345834
  62 C :   -0.177815
  63 N :    0.150161
  64 C :   -0.200490
  65 N :    0.161164
  66 C :    0.051686
  67 C :   -0.007325
  68 C :    0.150358
  69 O :   -0.148620
  70 C :   -0.078501
  71 C :    0.099339
  72 C :    0.098995
  73 C :   -0.088076
  74 C :   -0.021711
  75 C :    0.039536
  76 C :    0.037756
  77 C :   -0.017003
  78 H :   -0.011887
  79 H :   -0.006881
  80 H :   -0.011902
  81 H :   -0.004672
  82 H :   -0.004839
  83 H :   -0.017760
  84 H :    0.035156
  85 H :   -0.026080
  86 H :   -0.035340
  87 H :    0.007349
  88 H :   -0.005701
  89 H :    0.094068
  90 H :    0.096676
  91 H :    0.003131
  92 H :    0.022325
  93 H :    0.089698
  94 H :    0.098480
  95 H :   -0.017589
  96 H :    0.057127
  97 H :   -0.007916
  98 H :   -0.031918
  99 H :   -0.031747
 100 H :   -0.015031
 101 H :    0.027594
 102 H :   -0.008930
 103 H :    0.026870
 104 H :   -0.012258
 105 H :   -0.007710
 106 H :   -0.008980
 107 H :   -0.004021
 108 H :   -0.004920
 109 H :   -0.016703
Sum of atomic charges:   -0.0000000

LOEWDIN ATOMIC CHARGES
----------------------
   0 C :    0.061063
   1 C :   -0.144014
   2 C :   -0.018857
   3 N :   -0.052833
   4 C :   -0.036411
   5 N :   -0.051181
   6 C :   -0.022309
   7 C :   -0.056512
   8 C :    0.032169
   9 C :   -0.009474
  10 C :   -0.005743
  11 C :    0.014558
  12 C :   -0.006912
  13 C :   -0.013602
  14 C :   -0.013923
  15 C :   -0.009254
  16 C :    0.082903
  17 O :   -0.143418
  18 C :   -0.097279
  19 C :    0.053518
  20 C :   -0.207140
  21 S :    0.478788
  22 C :   -0.139957
  23 C :   -0.018747
  24 C :    0.031166
  25 O :   -0.018895
  26 C :    0.109545
  27 O :   -0.118980
  28 O :   -0.032731
  29 C :   -0.052381
  30 C :    0.008562
  31 C :   -0.027559
  32 C :   -0.014213
  33 C :   -0.041616
  34 C :    0.030751
  35 N :   -0.110625
  36 C :    0.024163
  37 N :   -0.114491
  38 C :   -0.015561
  39 C :    0.081967
  40 C :   -0.032011
  41 C :   -0.029393
  42 C :   -0.014753
  43 C :   -0.036291
  44 C :   -0.030785
  45 C :    0.001375
  46 C :   -0.039347
  47 C :    0.024334
  48 C :   -0.055793
  49 C :   -0.166534
  50 S :    0.460266
  51 C :   -0.204838
  52 C :    0.029723
  53 C :   -0.013571
  54 O :   -0.034239
  55 C :    0.112060
  56 O :   -0.115845
  57 O :   -0.005178
  58 C :    0.048245
  59 C :   -0.085792
  60 C :    0.074754
  61 C :   -0.136265
  62 C :   -0.017312
  63 N :   -0.050632
  64 C :   -0.022734
  65 N :   -0.049589
  66 C :   -0.026428
  67 C :   -0.054430
  68 C :    0.080714
  69 O :   -0.139090
  70 C :    0.033450
  71 C :   -0.007552
  72 C :   -0.006173
  73 C :    0.020339
  74 C :   -0.005070
  75 C :   -0.012702
  76 C :   -0.011212
  77 C :   -0.009034
  78 H :    0.039331
  79 H :    0.038253
  80 H :    0.033872
  81 H :    0.032983
  82 H :    0.032644
  83 H :    0.031754
  84 H :    0.056525
  85 H :    0.026873
  86 H :    0.019104
  87 H :    0.005734
  88 H :    0.018184
  89 H :    0.052175
  90 H :    0.057394
  91 H :    0.005507
  92 H :    0.020679
  93 H :    0.051844
  94 H :    0.058999
  95 H :    0.025784
  96 H :    0.073177
  97 H :    0.025827
  98 H :    0.031238
  99 H :    0.030181
 100 H :    0.020147
 101 H :    0.032998
 102 H :    0.032139
 103 H :    0.046949
 104 H :    0.039597
 105 H :    0.039168
 106 H :    0.034884
 107 H :    0.033567
 108 H :    0.033025
 109 H :    0.032257

  Mayer bond orders larger than 0.100000
B(  0-C ,  1-C ) :   1.6490 B(  0-C ,  6-C ) :   1.0033 B(  0-C , 18-C ) :   1.0400
B(  1-C ,  2-C ) :   1.1386 B(  1-C ,  4-C ) :   1.1504 B(  2-C ,  3-N ) :   2.9870
B(  4-C ,  5-N ) :   3.0271 B(  6-C ,  7-C ) :   1.2157 B(  6-C , 11-C ) :   1.4610
B(  7-C ,  8-C ) :   1.4747 B(  7-C , 16-C ) :   0.9213 B(  8-C ,  9-C ) :   1.1842
B(  8-C , 78-H ) :   1.0169 B(  9-C , 10-C ) :   1.2598 B(  9-C , 15-C ) :   1.2438
B( 10-C , 11-C ) :   1.2000 B( 10-C , 12-C ) :   1.2423 B( 11-C , 79-H ) :   0.9948
B( 12-C , 13-C ) :   1.4878 B( 12-C , 80-H ) :   0.9980 B( 13-C , 14-C ) :   1.2613
B( 13-C , 81-H ) :   0.9889 B( 14-C , 15-C ) :   1.4889 B( 14-C , 82-H ) :   0.9888
B( 15-C , 83-H ) :   0.9983 B( 16-C , 17-O ) :   2.2763 B( 16-C , 18-C ) :   0.9376
B( 18-C , 19-C ) :   1.6252 B( 19-C , 20-C ) :   1.1590 B( 19-C , 84-H ) :   0.9499
B( 20-C , 21-S ) :   1.0605 B( 20-C , 24-C ) :   1.4516 B( 21-S , 22-C ) :   1.1185
B( 22-C , 23-C ) :   1.4800 B( 22-C , 29-C ) :   1.1080 B( 23-C , 24-C ) :   1.2672
B( 23-C , 28-O ) :   1.0531 B( 24-C , 25-O ) :   1.1191 B( 25-O , 26-C ) :   1.0578
B( 26-C , 27-O ) :   2.2647 B( 26-C , 28-O ) :   1.0674 B( 29-C , 30-C ) :   1.5003
B( 29-C , 46-C ) :   1.0894 B( 30-C , 31-C ) :   1.1370 B( 30-C , 85-H ) :   0.9900
B( 31-C , 32-C ) :   1.4680 B( 31-C , 44-C ) :   1.1165 B( 32-C , 33-C ) :   1.0080
B( 32-C , 38-C ) :   1.1254 B( 33-C , 34-C ) :   1.0124 B( 33-C , 36-C ) :   1.0345
B( 33-C , 86-H ) :   0.8977 B( 34-C , 35-N ) :   1.1058 B( 34-C , 87-H ) :   0.9410
B( 34-C , 88-H ) :   0.9338 B( 35-N , 89-H ) :   0.9682 B( 35-N , 90-H ) :   0.9687
B( 36-C , 37-N ) :   1.0738 B( 36-C , 91-H ) :   0.9560 B( 36-C , 92-H ) :   0.9233
B( 37-N , 93-H ) :   0.9711 B( 37-N , 94-H ) :   0.9672 B( 38-C , 39-C ) :   1.6558
B( 38-C , 43-C ) :   1.0612 B( 39-C , 40-C ) :   0.9799 B( 39-C , 95-H ) :   0.9485
B( 40-C , 41-C ) :   0.9783 B( 40-C , 47-C ) :   0.9544 B( 40-C , 96-H ) :   0.8330
B( 41-C , 42-C ) :   1.7439 B( 41-C , 97-H ) :   0.9681 B( 42-C , 43-C ) :   1.1234
B( 42-C , 98-H ) :   0.9876 B( 43-C , 44-C ) :   1.4440 B( 44-C , 45-C ) :   1.1415
B( 45-C , 46-C ) :   1.6230 B( 45-C , 99-H ) :   0.9906 B( 46-C ,100-H ) :   0.9826
B( 47-C , 48-C ) :   1.8369 B( 47-C ,101-H ) :   0.9647 B( 48-C , 49-C ) :   1.0825
B( 48-C ,102-H ) :   0.9473 B( 49-C , 50-S ) :   1.1173 B( 49-C , 53-C ) :   1.5090
B( 50-S , 51-C ) :   1.0692 B( 51-C , 52-C ) :   1.4812 B( 51-C , 58-C ) :   1.1593
B( 52-C , 53-C ) :   1.2636 B( 52-C , 57-O ) :   1.1035 B( 53-C , 54-O ) :   1.0676
B( 54-O , 55-C ) :   1.0570 B( 55-C , 56-O ) :   2.2669 B( 55-C , 57-O ) :   1.0647
B( 58-C , 59-C ) :   1.6225 B( 58-C ,103-H ) :   0.9344 B( 59-C , 60-C ) :   1.0662
B( 59-C , 68-C ) :   0.9415 B( 60-C , 61-C ) :   1.6447 B( 60-C , 66-C ) :   0.9940
B( 61-C , 62-C ) :   1.1421 B( 61-C , 64-C ) :   1.1424 B( 62-C , 63-N ) :   2.9655
B( 64-C , 65-N ) :   2.9840 B( 66-C , 67-C ) :   1.2173 B( 66-C , 73-C ) :   1.4428
B( 67-C , 68-C ) :   0.9434 B( 67-C , 70-C ) :   1.4726 B( 68-C , 69-O ) :   2.2156
B( 70-C , 71-C ) :   1.1759 B( 70-C ,104-H ) :   1.0176 B( 71-C , 72-C ) :   1.2580
B( 71-C , 77-C ) :   1.2443 B( 72-C , 73-C ) :   1.2073 B( 72-C , 74-C ) :   1.2372
B( 73-C ,105-H ) :   0.9905 B( 74-C , 75-C ) :   1.4895 B( 74-C ,106-H ) :   0.9981
B( 75-C , 76-C ) :   1.2604 B( 75-C ,107-H ) :   0.9880 B( 76-C , 77-C ) :   1.4873
B( 76-C ,108-H ) :   0.9889 B( 77-C ,109-H ) :   0.9984

-----------------------------------------------------------------------------
         ABSORPTION SPECTRUM VIA TRANSITION ELECTRIC DIPOLE MOMENTS
-----------------------------------------------------------------------------
State   Energy  Wavelength   fosc         T2         TX        TY        TZ
        (cm-1)    (nm)                  (au**2)     (au)      (au)      (au)
-----------------------------------------------------------------------------
   0   13125.7    761.9   0.187839018   4.71129  -0.67187  -1.63769  -1.25613
   1   16933.9    590.5   0.429848100   8.35666   1.31525   0.71310   2.47351
   2   17081.3    585.4   0.024713292   0.47630  -0.66027  -0.17697  -0.09501
   3   22175.7    450.9   0.831158621  12.33907  -1.10859  -2.18105  -2.52054
   4   22922.4    436.3   0.591321184   8.49257   1.12634  -0.34809  -2.66510
   5   25688.8    389.3   0.069370001   0.88900   0.62167  -0.27841   0.65193
   6   26080.4    383.4   0.110190188   1.39093   0.46346   0.44300   0.98989
   7   26514.0    377.2   0.288434257   3.58135  -0.37403  -0.94201  -1.59815
   8   26994.9    370.4   0.012017627   0.14656   0.04182  -0.05884  -0.37596
   9   27599.5    362.3   0.103925943   1.23965   0.56364   0.21866   0.93496
  10   27734.9    360.6   0.209234175   2.48360   0.00809  -0.18050  -1.56555
  11   28078.6    356.1   0.011464157   0.13441   0.03662  -0.00087  -0.36479
  12   28692.8    348.5   0.034087253   0.39111  -0.12911  -0.10785   0.60233
  13   28939.5    345.5   0.066508309   0.75659  -0.31443   0.38479  -0.71390
  14   29087.0    343.8   0.143049262   1.61906   0.11947   1.18793   0.44000
  15   29635.1    337.4   0.016642912   0.18488   0.04217  -0.16208  -0.39602
  16   29834.2    335.2   0.009423442   0.10399   0.26906  -0.17715  -0.01451
  17   30057.9    332.7   0.007136034   0.07816  -0.27343  -0.02580  -0.05225
  18   30377.4    329.2   0.152043733   1.64776   1.10394   0.05349   0.65284
  19   30855.2    324.1   0.205802414   2.19582   0.71756   0.01265   1.29644
  20   31211.1    320.4   0.583114190   6.15065  -1.03241  -0.97330  -2.03408
  21   31488.1    317.6   0.033253429   0.34767  -0.25480   0.45446  -0.27607
  22   31564.8    316.8   0.008843447   0.09223   0.02657  -0.23088   0.19551
  23   32857.2    304.3   0.364375374   3.65085   0.15727  -0.48672  -1.84098
  24   33365.7    299.7   0.149489905   1.47498  -0.85953  -0.43431  -0.73997
  25   33387.7    299.5   0.445470577   4.39247  -1.85638  -0.52472  -0.81915
  26   33661.9    297.1   0.014381661   0.14065   0.04763  -0.28912  -0.23408
  27   34029.2    293.9   0.530356967   5.13088   0.37350  -1.97711  -1.04039
  28   34301.6    291.5   0.113321660   1.08761   0.40979  -0.83054  -0.47946
  29   34590.5    289.1   0.006941634   0.06607  -0.25205  -0.04968  -0.00844
  30   35173.9    284.3   0.009881464   0.09249   0.17876  -0.21045  -0.12744
  31   35404.2    282.5   0.012556306   0.11676   0.10918  -0.23639  -0.22127
  32   36098.6    277.0   0.008927715   0.08142  -0.10786   0.14644   0.21986
  33   36233.8    276.0   0.005528197   0.05023  -0.11849  -0.08839  -0.16845
  34   36919.1    270.9   0.078719097   0.70195  -0.26087   0.67045  -0.42940
  35   37079.7    269.7   0.014285378   0.12683   0.18533  -0.16649   0.25450
  36   37424.8    267.2   0.037127619   0.32660  -0.24814   0.49862  -0.12807
  37   37656.1    265.6   0.005824619   0.05092   0.01487  -0.15674  -0.16165
  38   37968.5    263.4   0.103018867   0.89324   0.59575   0.29199   0.67311
  39   38066.1    262.7   0.106084887   0.91747   0.52801  -0.08974   0.79411
  40   38189.4    261.9   0.015400457   0.13276   0.23317  -0.21125  -0.18376
  41   38494.3    259.8   0.032843564   0.28089   0.40734  -0.00605   0.33901
  42   39207.1    255.1   0.248326188   2.08513  -0.09232  -0.08084   1.43877
  43   39214.4    255.0   0.005438829   0.04566  -0.08992   0.10470   0.16313
  44   39282.7    254.6   0.147496848   1.23611   0.07168   0.23121  -1.08513
  45   39487.2    253.2   0.129212159   1.07727   0.45412  -0.18131  -0.91552
  46   39638.3    252.3   0.180195116   1.49659   1.13453  -0.44460  -0.10843
  47   39864.0    250.9   0.135382192   1.11804   0.66184  -0.13173  -0.81404
  48   40041.3    249.7   0.114445126   0.94095   0.58310  -0.08146  -0.77091

FINAL SINGLE POINT ENERGY     -4104.040778764396

DIPOLE MOMENT
-------------
                                X             Y             Z
Electronic contribution:    -21.80503     -11.36394       9.25744
Nuclear contribution   :     25.52945      11.79903      -9.51907
                        -----------------------------------------
Total Dipole Moment    :      3.72443       0.43509      -0.26163
                        -----------------------------------------
Magnitude (a.u.)       :      3.75887
Magnitude (Debye)      :      9.55429

Rotational constants in cm-1:     0.001888     0.000183     0.000179
Rotational constants in MHz :    56.613450     5.489557     5.364381

                             ****ORCA TERMINATED NORMALLY****
TOTAL RUN TIME: 0 days 0 hours 12 minutes 18 seconds 311 msec
