                         Program Version 4.2.0 -  RELEASE  -
|  1> # ORCA input file
|  2> # SCF done       -222.784418489394          0.000741246296
|  3> ! CAM-B3LYP def2-SVP def2/J RIJCOSX Grid4 TightSCF
|  4> %maxcore 5000
|  5> %tddft
|  6>     Mode sTDDFT
|  7>     Ethresh 5.0
|  8>     maxcore 5000
|  9> end
| 10>
| 11> %pal
| 12>   nprocs 6
| 13>   end
| 14> * xyz 0 1
| 15>    C       -1.10724         2.38909        -4.35093
| 16>    C       -1.39030         2.35765        -3.01110
| 17>    C       -0.66355         1.59517        -2.07517
| 18>    N       -0.08519         1.01133        -1.27385
| 19>    C       -2.50647         3.00868        -2.44520
| 20>    N       -3.43621         3.48225        -1.96684
| 21>    C       -0.18419         1.50027        -5.04585
| 22>    C       -0.55138         1.45730        -6.42348
| 23>    C        0.11256         0.66686        -7.31674
| 24>    C        1.19773        -0.11940        -6.86782
| 25>    C        1.57843        -0.06858        -5.49532
| 26>    C        0.86780         0.75290        -4.59017
| 27>    C        2.66676        -0.85340        -5.06326
| 28>    C        3.34609        -1.65280        -5.94176
| 29>    C        2.97011        -1.70304        -7.29237
| 30>    C        1.91868        -0.95317        -7.74528
| 31>    C       -1.68075         2.37489        -6.65838
| 32>    O       -2.29316         2.56396        -7.68286
| 33>    C       -1.86793         3.09414        -5.36229
| 34>    C       -2.53723         4.27405        -5.35089
| 35>    C       -2.49520         5.33541        -4.40873
| 36>    S       -1.21967         5.53640        -3.22684
| 37>    C       -1.85600         7.04194        -2.69002
| 38>    C       -3.03603         7.36919        -3.38313
| 39>    C       -3.35516         6.40263        -4.36572
| 40>    C       -3.90061         8.47021        -3.03090
| 41>    O       -3.78081         9.25411        -2.11477
| 42>    C       -5.14848         8.64493        -3.94900
| 43>    F       -4.80277         8.79486        -5.24291
| 44>    F       -5.99720         7.60803        -3.89303
| 45>    F       -5.83544         9.73381        -3.60785
| 46>    C       -1.14145         7.77633        -1.68306
| 47>    C       -1.04425         9.14811        -1.75181
| 48>    C       -0.34401         9.85472        -0.75914
| 49>    C       -0.15923        11.21827        -0.56495
| 50>    C       -0.73140        12.35092        -1.34459
| 51>    C       -0.16518        12.39549        -2.77354
| 52>    N        1.27379        12.59322        -2.71711
| 53>    C       -2.27297        12.29389        -1.34553
| 54>    N       -2.74863        12.47720         0.01393
| 55>    C        0.65617        11.35621         0.61809
| 56>    C        1.17294        12.44727         1.21025
| 57>    C        2.04151        12.34440         2.41634
| 58>    C        2.19758        10.95323         2.95360
| 59>    C        1.67993         9.87180         2.34250
| 60>    C        0.92729        10.01347         1.15203
| 61>    C        0.31606         9.10963         0.30816
| 62>    C        0.23965         7.69661         0.32095
| 63>    C       -0.46499         7.05509        -0.64312
| 64>    C        1.51832        13.25184         3.49470
| 65>    C        2.24789        14.20645         4.07895
| 66>    C        1.77674        15.09217         5.10077
| 67>    S        0.15191        15.09936         5.68209
| 68>    C        0.46989        16.44016         6.76552
| 69>    C        1.81113        16.81083         6.68396
| 70>    C        2.52207        16.06230         5.73770
| 71>    C        2.60676        17.77875         7.48832
| 72>    O        3.57121        18.35339         7.04895
| 73>    C        2.53241        17.55973         9.03058
| 74>    F        2.80149        18.65814         9.73170
| 75>    F        1.36393        17.07979         9.49185
| 76>    F        3.45602        16.63832         9.36391
| 77>    C       -0.66319        16.92250         7.45591
| 78>    C       -0.84437        18.11647         8.09480
| 79>    C       -2.06260        18.54855         8.76403
| 80>    C       -3.14018        17.77079         9.09151
| 81>    C       -4.28939        18.25857         9.75072
| 82>    N       -5.25135        18.59460        10.27843
| 83>    C       -3.26243        16.38790         8.83643
| 84>    N       -3.43484        15.26535         8.66891
| 85>    C       -1.91351        19.96616         9.07179
| 86>    C       -0.62261        20.38850         8.63827
| 87>    C        0.08892        19.24815         8.06455
| 88>    O        1.23368        19.28308         7.62417
| 89>    C       -0.17950        21.67054         8.80532
| 90>    C       -1.02964        22.61144         9.42573
| 91>    C       -2.32584        22.20253         9.85668
| 92>    C       -2.75295        20.86619         9.67194
| 93>    C       -3.16573        23.15178        10.47230
| 94>    C       -2.74706        24.44223        10.65667
| 95>    C       -1.47080        24.84273        10.23425
| 96>    C       -0.62962        23.94662         9.63170
| 97>    H       -0.18586         0.64053        -8.35421
| 98>    H        1.18002         0.78109        -3.55766
| 99>    H        2.95030        -0.81399        -4.02176
|100>    H        4.17706        -2.25173        -5.60045
|101>    H        3.51776        -2.33846        -7.97210
|102>    H        1.62461        -0.98792        -8.78410
|103>    H       -3.11909         4.48228        -6.24413
|104>    H       -4.21038         6.45069        -5.01424
|105>    H       -1.47177         9.67312        -2.58922
|106>    H       -0.45530        13.28551        -0.84603
|107>    H       -0.69396        13.18482        -3.33497
|108>    H       -0.34518        11.44532        -3.27920
|109>    H        1.48762        13.50665        -2.32999
|110>    H        1.67425        12.55086        -3.64738
|111>    H       -2.61413        11.35092        -1.79541
|112>    H       -2.66021        13.12136        -1.94723
|113>    H       -2.47254        11.68185         0.58195
|114>    H       -3.76123        12.52548         0.02489
|115>    H        0.98878        13.44523         0.83827
|116>    H        3.04048        12.70974         2.12922
|117>    H        2.76951        10.86520         3.86436
|118>    H        1.83486         8.88393         2.75105
|119>    H        0.73933         7.14199         1.10083
|120>    H       -0.54911         5.97799        -0.63955
|121>    H        0.49395        13.08022         3.79599
|122>    H        3.27779        14.36498         3.78452
|123>    H        3.56571        16.23455         5.54298
|124>    H       -1.51522        16.25605         7.40266
|125>    H        0.80738        21.95572         8.47303
|126>    H       -3.73817        20.59038        10.01256
|127>    H       -4.14701        22.83965        10.79802
|128>    H       -3.39813        25.16132        11.13044
|129>    H       -1.15720        25.86412        10.38856
|130>    H        0.35461        24.24754         9.30456
|131> *
|132>
|133>                          ****END OF INPUT****

CARTESIAN COORDINATES (ANGSTROEM)
---------------------------------
  C     -1.107240    2.389090   -4.350930
  C     -1.390300    2.357650   -3.011100
  C     -0.663550    1.595170   -2.075170
  N     -0.085190    1.011330   -1.273850
  C     -2.506470    3.008680   -2.445200
  N     -3.436210    3.482250   -1.966840
  C     -0.184190    1.500270   -5.045850
  C     -0.551380    1.457300   -6.423480
  C      0.112560    0.666860   -7.316740
  C      1.197730   -0.119400   -6.867820
  C      1.578430   -0.068580   -5.495320
  C      0.867800    0.752900   -4.590170
  C      2.666760   -0.853400   -5.063260
  C      3.346090   -1.652800   -5.941760
  C      2.970110   -1.703040   -7.292370
  C      1.918680   -0.953170   -7.745280
  C     -1.680750    2.374890   -6.658380
  O     -2.293160    2.563960   -7.682860
  C     -1.867930    3.094140   -5.362290
  C     -2.537230    4.274050   -5.350890
  C     -2.495200    5.335410   -4.408730
  S     -1.219670    5.536400   -3.226840
  C     -1.856000    7.041940   -2.690020
  C     -3.036030    7.369190   -3.383130
  C     -3.355160    6.402630   -4.365720
  C     -3.900610    8.470210   -3.030900
  O     -3.780810    9.254110   -2.114770
  C     -5.148480    8.644930   -3.949000
  F     -4.802770    8.794860   -5.242910
  F     -5.997200    7.608030   -3.893030
  F     -5.835440    9.733810   -3.607850
  C     -1.141450    7.776330   -1.683060
  C     -1.044250    9.148110   -1.751810
  C     -0.344010    9.854720   -0.759140
  C     -0.159230   11.218270   -0.564950
  C     -0.731400   12.350920   -1.344590
  C     -0.165180   12.395490   -2.773540
  N      1.273790   12.593220   -2.717110
  C     -2.272970   12.293890   -1.345530
  N     -2.748630   12.477200    0.013930
  C      0.656170   11.356210    0.618090
  C      1.172940   12.447270    1.210250
  C      2.041510   12.344400    2.416340
  C      2.197580   10.953230    2.953600
  C      1.679930    9.871800    2.342500
  C      0.927290   10.013470    1.152030
  C      0.316060    9.109630    0.308160
  C      0.239650    7.696610    0.320950
  C     -0.464990    7.055090   -0.643120
  C      1.518320   13.251840    3.494700
  C      2.247890   14.206450    4.078950
  C      1.776740   15.092170    5.100770
  S      0.151910   15.099360    5.682090
  C      0.469890   16.440160    6.765520
  C      1.811130   16.810830    6.683960
  C      2.522070   16.062300    5.737700
  C      2.606760   17.778750    7.488320
  O      3.571210   18.353390    7.048950
  C      2.532410   17.559730    9.030580
  F      2.801490   18.658140    9.731700
  F      1.363930   17.079790    9.491850
  F      3.456020   16.638320    9.363910
  C     -0.663190   16.922500    7.455910
  C     -0.844370   18.116470    8.094800
  C     -2.062600   18.548550    8.764030
  C     -3.140180   17.770790    9.091510
  C     -4.289390   18.258570    9.750720
  N     -5.251350   18.594600   10.278430
  C     -3.262430   16.387900    8.836430
  N     -3.434840   15.265350    8.668910
  C     -1.913510   19.966160    9.071790
  C     -0.622610   20.388500    8.638270
  C      0.088920   19.248150    8.064550
  O      1.233680   19.283080    7.624170
  C     -0.179500   21.670540    8.805320
  C     -1.029640   22.611440    9.425730
  C     -2.325840   22.202530    9.856680
  C     -2.752950   20.866190    9.671940
  C     -3.165730   23.151780   10.472300
  C     -2.747060   24.442230   10.656670
  C     -1.470800   24.842730   10.234250
  C     -0.629620   23.946620    9.631700
  H     -0.185860    0.640530   -8.354210
  H      1.180020    0.781090   -3.557660
  H      2.950300   -0.813990   -4.021760
  H      4.177060   -2.251730   -5.600450
  H      3.517760   -2.338460   -7.972100
  H      1.624610   -0.987920   -8.784100
  H     -3.119090    4.482280   -6.244130
  H     -4.210380    6.450690   -5.014240
  H     -1.471770    9.673120   -2.589220
  H     -0.455300   13.285510   -0.846030
  H     -0.693960   13.184820   -3.334970
  H     -0.345180   11.445320   -3.279200
  H      1.487620   13.506650   -2.329990
  H      1.674250   12.550860   -3.647380
  H     -2.614130   11.350920   -1.795410
  H     -2.660210   13.121360   -1.947230
  H     -2.472540   11.681850    0.581950
  H     -3.761230   12.525480    0.024890
  H      0.988780   13.445230    0.838270
  H      3.040480   12.709740    2.129220
  H      2.769510   10.865200    3.864360
  H      1.834860    8.883930    2.751050
  H      0.739330    7.141990    1.100830
  H     -0.549110    5.977990   -0.639550
  H      0.493950   13.080220    3.795990
  H      3.277790   14.364980    3.784520
  H      3.565710   16.234550    5.542980
  H     -1.515220   16.256050    7.402660
  H      0.807380   21.955720    8.473030
  H     -3.738170   20.590380   10.012560
  H     -4.147010   22.839650   10.798020
  H     -3.398130   25.161320   11.130440
  H     -1.157200   25.864120   10.388560
  H      0.354610   24.247540    9.304560

 Total Charge           Charge          ....    0
 Multiplicity           Mult            ....    1
 Number of Electrons    NEL             ....  578
 Basis Dimension        Dim             .... 1326

ORBITAL ENERGIES
----------------

  NO   OCC          E(Eh)            E(eV)
   0   2.0000     -88.980859     -2421.2923
   1   2.0000     -88.980838     -2421.2917
   2   2.0000     -24.808411      -675.0712
   3   2.0000     -24.808142      -675.0639
   4   2.0000     -24.801312      -674.8780
   5   2.0000     -24.801097      -674.8722
   6   2.0000     -24.793349      -674.6613
   7   2.0000     -24.791228      -674.6036
   8   2.0000     -19.240297      -523.5551
   9   2.0000     -19.234400      -523.3946
  10   2.0000     -19.214867      -522.8631
  11   2.0000     -19.202765      -522.5338
  12   2.0000     -14.421056      -392.4169
  13   2.0000     -14.418721      -392.3533
  14   2.0000     -14.417369      -392.3166
  15   2.0000     -14.414328      -392.2338
  16   2.0000     -14.381814      -391.3490
  17   2.0000     -14.369501      -391.0140
  18   2.0000     -10.517199      -286.1875
  19   2.0000     -10.504836      -285.8511
  20   2.0000     -10.389211      -282.7048
  21   2.0000     -10.385332      -282.5992
  22   2.0000     -10.384171      -282.5677
  23   2.0000     -10.366668      -282.0914
  24   2.0000     -10.348032      -281.5843
  25   2.0000     -10.346912      -281.5538
  26   2.0000     -10.345138      -281.5055
  27   2.0000     -10.342773      -281.4412
  28   2.0000     -10.341842      -281.4158
  29   2.0000     -10.334423      -281.2139
  30   2.0000     -10.332310      -281.1565
  31   2.0000     -10.331550      -281.1358
  32   2.0000     -10.324331      -280.9393
  33   2.0000     -10.323351      -280.9127
  34   2.0000     -10.321796      -280.8703
  35   2.0000     -10.321335      -280.8578
  36   2.0000     -10.319590      -280.8103
  37   2.0000     -10.316289      -280.7205
  38   2.0000     -10.310753      -280.5699
  39   2.0000     -10.309713      -280.5416
  40   2.0000     -10.309632      -280.5394
  41   2.0000     -10.309111      -280.5252
  42   2.0000     -10.308030      -280.4958
  43   2.0000     -10.304816      -280.4083
  44   2.0000     -10.304687      -280.4048
  45   2.0000     -10.304542      -280.4008
  46   2.0000     -10.304332      -280.3951
  47   2.0000     -10.303446      -280.3710
  48   2.0000     -10.302857      -280.3550
  49   2.0000     -10.302844      -280.3546
  50   2.0000     -10.302231      -280.3380
  51   2.0000     -10.301266      -280.3117
  52   2.0000     -10.299049      -280.2514
  53   2.0000     -10.298818      -280.2451
  54   2.0000     -10.298406      -280.2339
  55   2.0000     -10.297909      -280.2203
  56   2.0000     -10.297788      -280.2171
  57   2.0000     -10.296563      -280.1837
  58   2.0000     -10.295638      -280.1586
  59   2.0000     -10.291759      -280.0530
  60   2.0000     -10.291172      -280.0370
  61   2.0000     -10.290824      -280.0275
  62   2.0000     -10.290487      -280.0184
  63   2.0000     -10.290379      -280.0154
  64   2.0000     -10.290005      -280.0053
  65   2.0000     -10.287294      -279.9315
  66   2.0000     -10.286875      -279.9201
  67   2.0000     -10.286764      -279.9171
  68   2.0000     -10.286675      -279.9147
  69   2.0000     -10.286648      -279.9139
  70   2.0000     -10.286164      -279.9007
  71   2.0000     -10.279206      -279.7114
  72   2.0000     -10.278126      -279.6820
  73   2.0000     -10.276137      -279.6279
  74   2.0000     -10.276047      -279.6254
  75   2.0000     -10.275637      -279.6143
  76   2.0000     -10.274683      -279.5883
  77   2.0000     -10.271513      -279.5021
  78   2.0000     -10.270415      -279.4722
  79   2.0000     -10.268899      -279.4310
  80   2.0000     -10.266647      -279.3697
  81   2.0000     -10.266598      -279.3683
  82   2.0000      -8.076525      -219.7734
  83   2.0000      -8.075939      -219.7575
  84   2.0000      -6.045599      -164.5091
  85   2.0000      -6.045067      -164.4946
  86   2.0000      -6.041594      -164.4001
  87   2.0000      -6.040831      -164.3794
  88   2.0000      -6.038833      -164.3250
  89   2.0000      -6.038421      -164.3138
  90   2.0000      -1.395758       -37.9805
  91   2.0000      -1.385364       -37.6977
  92   2.0000      -1.299390       -35.3582
  93   2.0000      -1.296795       -35.2876
  94   2.0000      -1.289754       -35.0960
  95   2.0000      -1.284050       -34.9408
  96   2.0000      -1.156084       -31.4586
  97   2.0000      -1.150458       -31.3055
  98   2.0000      -1.130507       -30.7627
  99   2.0000      -1.126530       -30.6544
 100   2.0000      -1.024570       -27.8800
 101   2.0000      -1.021684       -27.8014
 102   2.0000      -1.012417       -27.5493
 103   2.0000      -1.011111       -27.5137
 104   2.0000      -1.005062       -27.3491
 105   2.0000      -0.999005       -27.1843
 106   2.0000      -0.998265       -27.1642
 107   2.0000      -0.993958       -27.0470
 108   2.0000      -0.989948       -26.9378
 109   2.0000      -0.977702       -26.6046
 110   2.0000      -0.972473       -26.4623
 111   2.0000      -0.965985       -26.2858
 112   2.0000      -0.954637       -25.9770
 113   2.0000      -0.949301       -25.8318
 114   2.0000      -0.934589       -25.4314
 115   2.0000      -0.929467       -25.2921
 116   2.0000      -0.924444       -25.1554
 117   2.0000      -0.916056       -24.9271
 118   2.0000      -0.907376       -24.6910
 119   2.0000      -0.898777       -24.4570
 120   2.0000      -0.886996       -24.1364
 121   2.0000      -0.886822       -24.1317
 122   2.0000      -0.882703       -24.0196
 123   2.0000      -0.882115       -24.0036
 124   2.0000      -0.878922       -23.9167
 125   2.0000      -0.872453       -23.7407
 126   2.0000      -0.861980       -23.4557
 127   2.0000      -0.848286       -23.0830
 128   2.0000      -0.842864       -22.9355
 129   2.0000      -0.835854       -22.7447
 130   2.0000      -0.834026       -22.6950
 131   2.0000      -0.831730       -22.6325
 132   2.0000      -0.829154       -22.5624
 133   2.0000      -0.815285       -22.1850
 134   2.0000      -0.811206       -22.0740
 135   2.0000      -0.807269       -21.9669
 136   2.0000      -0.790314       -21.5055
 137   2.0000      -0.778286       -21.1782
 138   2.0000      -0.770848       -20.9759
 139   2.0000      -0.765275       -20.8242
 140   2.0000      -0.760952       -20.7066
 141   2.0000      -0.750700       -20.4276
 142   2.0000      -0.736562       -20.0429
 143   2.0000      -0.732025       -19.9194
 144   2.0000      -0.721199       -19.6248
 145   2.0000      -0.717819       -19.5329
 146   2.0000      -0.714077       -19.4310
 147   2.0000      -0.710766       -19.3409
 148   2.0000      -0.706849       -19.2343
 149   2.0000      -0.704525       -19.1711
 150   2.0000      -0.701188       -19.0803
 151   2.0000      -0.696768       -18.9600
 152   2.0000      -0.691188       -18.8082
 153   2.0000      -0.683991       -18.6123
 154   2.0000      -0.680429       -18.5154
 155   2.0000      -0.679432       -18.4883
 156   2.0000      -0.678855       -18.4726
 157   2.0000      -0.678167       -18.4539
 158   2.0000      -0.675722       -18.3873
 159   2.0000      -0.670877       -18.2555
 160   2.0000      -0.669427       -18.2160
 161   2.0000      -0.662091       -18.0164
 162   2.0000      -0.659976       -17.9589
 163   2.0000      -0.657016       -17.8783
 164   2.0000      -0.655518       -17.8375
 165   2.0000      -0.643417       -17.5083
 166   2.0000      -0.637130       -17.3372
 167   2.0000      -0.634737       -17.2721
 168   2.0000      -0.633761       -17.2455
 169   2.0000      -0.623571       -16.9682
 170   2.0000      -0.615595       -16.7512
 171   2.0000      -0.611020       -16.6267
 172   2.0000      -0.608558       -16.5597
 173   2.0000      -0.602350       -16.3908
 174   2.0000      -0.598481       -16.2855
 175   2.0000      -0.594628       -16.1806
 176   2.0000      -0.592896       -16.1335
 177   2.0000      -0.586187       -15.9510
 178   2.0000      -0.579590       -15.7714
 179   2.0000      -0.568504       -15.4698
 180   2.0000      -0.566787       -15.4231
 181   2.0000      -0.564658       -15.3651
 182   2.0000      -0.560603       -15.2548
 183   2.0000      -0.558566       -15.1994
 184   2.0000      -0.557590       -15.1728
 185   2.0000      -0.556279       -15.1371
 186   2.0000      -0.553352       -15.0575
 187   2.0000      -0.552858       -15.0440
 188   2.0000      -0.551145       -14.9974
 189   2.0000      -0.548660       -14.9298
 190   2.0000      -0.547172       -14.8893
 191   2.0000      -0.545690       -14.8490
 192   2.0000      -0.544685       -14.8216
 193   2.0000      -0.543764       -14.7966
 194   2.0000      -0.542161       -14.7529
 195   2.0000      -0.538985       -14.6665
 196   2.0000      -0.536866       -14.6089
 197   2.0000      -0.535914       -14.5830
 198   2.0000      -0.533234       -14.5100
 199   2.0000      -0.530567       -14.4375
 200   2.0000      -0.529092       -14.3973
 201   2.0000      -0.527936       -14.3659
 202   2.0000      -0.526504       -14.3269
 203   2.0000      -0.524623       -14.2757
 204   2.0000      -0.524085       -14.2611
 205   2.0000      -0.519249       -14.1295
 206   2.0000      -0.518726       -14.1153
 207   2.0000      -0.516131       -14.0446
 208   2.0000      -0.515635       -14.0311
 209   2.0000      -0.513444       -13.9715
 210   2.0000      -0.512902       -13.9568
 211   2.0000      -0.512085       -13.9345
 212   2.0000      -0.509858       -13.8739
 213   2.0000      -0.506934       -13.7944
 214   2.0000      -0.505838       -13.7645
 215   2.0000      -0.504246       -13.7212
 216   2.0000      -0.502783       -13.6814
 217   2.0000      -0.501205       -13.6385
 218   2.0000      -0.500812       -13.6278
 219   2.0000      -0.499650       -13.5962
 220   2.0000      -0.498599       -13.5676
 221   2.0000      -0.494804       -13.4643
 222   2.0000      -0.491857       -13.3841
 223   2.0000      -0.490746       -13.3539
 224   2.0000      -0.487257       -13.2589
 225   2.0000      -0.486949       -13.2505
 226   2.0000      -0.485451       -13.2098
 227   2.0000      -0.481254       -13.0956
 228   2.0000      -0.480534       -13.0760
 229   2.0000      -0.480250       -13.0683
 230   2.0000      -0.477760       -13.0005
 231   2.0000      -0.474390       -12.9088
 232   2.0000      -0.473115       -12.8741
 233   2.0000      -0.472513       -12.8577
 234   2.0000      -0.469254       -12.7691
 235   2.0000      -0.465745       -12.6736
 236   2.0000      -0.463870       -12.6226
 237   2.0000      -0.455130       -12.3847
 238   2.0000      -0.453408       -12.3378
 239   2.0000      -0.450090       -12.2476
 240   2.0000      -0.449653       -12.2357
 241   2.0000      -0.447819       -12.1858
 242   2.0000      -0.444321       -12.0906
 243   2.0000      -0.444179       -12.0867
 244   2.0000      -0.442539       -12.0421
 245   2.0000      -0.441506       -12.0140
 246   2.0000      -0.440236       -11.9794
 247   2.0000      -0.438748       -11.9389
 248   2.0000      -0.437951       -11.9173
 249   2.0000      -0.436213       -11.8700
 250   2.0000      -0.434480       -11.8228
 251   2.0000      -0.432273       -11.7628
 252   2.0000      -0.430956       -11.7269
 253   2.0000      -0.429544       -11.6885
 254   2.0000      -0.428782       -11.6678
 255   2.0000      -0.426561       -11.6073
 256   2.0000      -0.424477       -11.5506
 257   2.0000      -0.421714       -11.4754
 258   2.0000      -0.420310       -11.4372
 259   2.0000      -0.417540       -11.3618
 260   2.0000      -0.415214       -11.2985
 261   2.0000      -0.411645       -11.2014
 262   2.0000      -0.409897       -11.1539
 263   2.0000      -0.400267       -10.8918
 264   2.0000      -0.399298       -10.8654
 265   2.0000      -0.393922       -10.7192
 266   2.0000      -0.392236       -10.6733
 267   2.0000      -0.381923       -10.3926
 268   2.0000      -0.379626       -10.3301
 269   2.0000      -0.372437       -10.1345
 270   2.0000      -0.366739        -9.9795
 271   2.0000      -0.360903        -9.8207
 272   2.0000      -0.360152        -9.8002
 273   2.0000      -0.350000        -9.5240
 274   2.0000      -0.344650        -9.3784
 275   2.0000      -0.343984        -9.3603
 276   2.0000      -0.337081        -9.1724
 277   2.0000      -0.333428        -9.0730
 278   2.0000      -0.332319        -9.0428
 279   2.0000      -0.323772        -8.8103
 280   2.0000      -0.322520        -8.7762
 281   2.0000      -0.315708        -8.5909
 282   2.0000      -0.304919        -8.2973
 283   2.0000      -0.301747        -8.2110
 284   2.0000      -0.296539        -8.0692
 285   2.0000      -0.294937        -8.0256
 286   2.0000      -0.284989        -7.7549
 287   2.0000      -0.284477        -7.7410
 288   2.0000      -0.228201        -6.2097
 289   0.0000      -0.106550        -2.8994
 290   0.0000      -0.097481        -2.6526
 291   0.0000      -0.076823        -2.0905
 292   0.0000      -0.073315        -1.9950
 293   0.0000      -0.054928        -1.4947

MULLIKEN ATOMIC CHARGES
-----------------------
   0 C :    0.255689
   1 C :   -0.323515
   2 C :   -0.172509
   3 N :    0.154249
   4 C :   -0.218836
   5 N :    0.180843
   6 C :    0.039898
   7 C :    0.008374
   8 C :   -0.080329
   9 C :    0.092759
  10 C :    0.094577
  11 C :   -0.080118
  12 C :   -0.017310
  13 C :    0.035684
  14 C :    0.035028
  15 C :   -0.014692
  16 C :    0.143892
  17 O :   -0.141265
  18 C :   -0.135862
  19 C :    0.051666
  20 C :   -0.077331
  21 S :    0.177838
  22 C :   -0.092567
  23 C :    0.022422
  24 C :    0.043792
  25 C :    0.020866
  26 O :   -0.145079
  27 C :    0.464797
  28 F :   -0.172784
  29 F :   -0.160994
  30 F :   -0.137485
  31 C :    0.059613
  32 C :   -0.007225
  33 C :    0.009264
  34 C :    0.001949
  35 C :   -0.061790
  36 C :    0.158655
  37 N :   -0.217293
  38 C :    0.146293
  39 N :   -0.228944
  40 C :    0.109816
  41 C :   -0.129399
  42 C :    0.129247
  43 C :   -0.040488
  44 C :    0.027803
  45 C :    0.010419
  46 C :    0.040660
  47 C :   -0.001904
  48 C :   -0.009897
  49 C :   -0.048819
  50 C :    0.039788
  51 C :   -0.019792
  52 S :    0.161349
  53 C :   -0.129734
  54 C :    0.075863
  55 C :   -0.028371
  56 C :    0.031758
  57 O :   -0.175472
  58 C :    0.488799
  59 F :   -0.147006
  60 F :   -0.164974
  61 F :   -0.167491
  62 C :    0.037887
  63 C :   -0.074262
  64 C :    0.321293
  65 C :   -0.350569
  66 C :   -0.183473
  67 N :    0.153897
  68 C :   -0.196108
  69 N :    0.164674
  70 C :    0.052793
  71 C :   -0.005906
  72 C :    0.182582
  73 O :   -0.180385
  74 C :   -0.068500
  75 C :    0.094844
  76 C :    0.101083
  77 C :   -0.085096
  78 C :   -0.019642
  79 C :    0.038835
  80 C :    0.036833
  81 C :   -0.012579
  82 H :   -0.010774
  83 H :   -0.006095
  84 H :   -0.010470
  85 H :   -0.004514
  86 H :   -0.004339
  87 H :   -0.016741
  88 H :    0.028067
  89 H :    0.020311
  90 H :   -0.022868
  91 H :   -0.029755
  92 H :   -0.013535
  93 H :   -0.013802
  94 H :    0.083116
  95 H :    0.091305
  96 H :   -0.007067
  97 H :   -0.012778
  98 H :    0.098613
  99 H :    0.095482
 100 H :   -0.003015
 101 H :    0.041217
 102 H :   -0.009541
 103 H :   -0.030978
 104 H :   -0.030188
 105 H :   -0.012439
 106 H :    0.024325
 107 H :   -0.002938
 108 H :    0.006981
 109 H :    0.016434
 110 H :   -0.003880
 111 H :   -0.006797
 112 H :   -0.008012
 113 H :   -0.001393
 114 H :   -0.002572
 115 H :   -0.013932
Sum of atomic charges:   -0.0000000

LOEWDIN ATOMIC CHARGES
----------------------
   0 C :    0.062331
   1 C :   -0.143318
   2 C :   -0.019047
   3 N :   -0.050213
   4 C :   -0.041318
   5 N :   -0.044771
   6 C :   -0.022582
   7 C :   -0.057032
   8 C :    0.032979
   9 C :   -0.009042
  10 C :   -0.005352
  11 C :    0.015694
  12 C :   -0.006592
  13 C :   -0.012609
  14 C :   -0.012920
  15 C :   -0.009005
  16 C :    0.084463
  17 O :   -0.141921
  18 C :   -0.096727
  19 C :    0.054777
  20 C :   -0.187224
  21 S :    0.509892
  22 C :   -0.079478
  23 C :   -0.130839
  24 C :    0.009005
  25 C :    0.040269
  26 O :   -0.109919
  27 C :    0.140977
  28 F :   -0.065967
  29 F :   -0.054709
  30 F :   -0.038528
  31 C :   -0.068196
  32 C :    0.039929
  33 C :   -0.026039
  34 C :    0.001050
  35 C :   -0.041649
  36 C :    0.028056
  37 N :   -0.118420
  38 C :    0.028686
  39 N :   -0.121646
  40 C :   -0.012232
  41 C :    0.076621
  42 C :   -0.028641
  43 C :   -0.036826
  44 C :   -0.009955
  45 C :   -0.040189
  46 C :   -0.024800
  47 C :   -0.006007
  48 C :   -0.033220
  49 C :    0.015610
  50 C :   -0.051904
  51 C :   -0.144211
  52 S :    0.479115
  53 C :   -0.171973
  54 C :   -0.057658
  55 C :   -0.028081
  56 C :    0.036001
  57 O :   -0.144754
  58 C :    0.130202
  59 F :   -0.042110
  60 F :   -0.059085
  61 F :   -0.061884
  62 C :    0.052932
  63 C :   -0.093891
  64 C :    0.077728
  65 C :   -0.134784
  66 C :   -0.016609
  67 N :   -0.049285
  68 C :   -0.023505
  69 N :   -0.045591
  70 C :   -0.023068
  71 C :   -0.053905
  72 C :    0.111576
  73 O :   -0.110871
  74 C :    0.043064
  75 C :   -0.008936
  76 C :   -0.003232
  77 C :    0.021590
  78 C :   -0.004818
  79 C :   -0.009223
  80 C :   -0.010516
  81 C :   -0.005922
  82 H :    0.039691
  83 H :    0.038616
  84 H :    0.034297
  85 H :    0.033264
  86 H :    0.032943
  87 H :    0.032054
  88 H :    0.053563
  89 H :    0.036466
  90 H :    0.023975
  91 H :    0.021214
  92 H :   -0.000555
  93 H :    0.014967
  94 H :    0.049160
  95 H :    0.055244
  96 H :    0.002431
  97 H :    0.014452
  98 H :    0.053068
  99 H :    0.057243
 100 H :    0.031803
 101 H :    0.061269
 102 H :    0.025983
 103 H :    0.031951
 104 H :    0.030455
 105 H :    0.023707
 106 H :    0.028509
 107 H :    0.037609
 108 H :    0.041696
 109 H :    0.045068
 110 H :    0.042970
 111 H :    0.039820
 112 H :    0.035450
 113 H :    0.034496
 114 H :    0.033933
 115 H :    0.033392

  Mayer bond orders larger than 0.100000
B(  0-C ,  1-C ) :   1.6568 B(  0-C ,  6-C ) :   1.0073 B(  0-C , 18-C ) :   1.0264
B(  1-C ,  2-C ) :   1.1353 B(  1-C ,  4-C ) :   1.1493 B(  2-C ,  3-N ) :   2.9902
B(  4-C ,  5-N ) :   3.0304 B(  6-C ,  7-C ) :   1.2129 B(  6-C , 11-C ) :   1.4586
B(  7-C ,  8-C ) :   1.4776 B(  7-C , 16-C ) :   0.9209 B(  8-C ,  9-C ) :   1.1856
B(  8-C , 82-H ) :   1.0156 B(  9-C , 10-C ) :   1.2553 B(  9-C , 15-C ) :   1.2459
B( 10-C , 11-C ) :   1.2040 B( 10-C , 12-C ) :   1.2413 B( 11-C , 83-H ) :   0.9943
B( 12-C , 13-C ) :   1.4889 B( 12-C , 84-H ) :   0.9975 B( 13-C , 14-C ) :   1.2604
B( 13-C , 85-H ) :   0.9892 B( 14-C , 15-C ) :   1.4886 B( 14-C , 86-H ) :   0.9892
B( 15-C , 87-H ) :   0.9974 B( 16-C , 17-O ) :   2.2716 B( 16-C , 18-C ) :   0.9340
B( 18-C , 19-C ) :   1.6597 B( 19-C , 20-C ) :   1.1209 B( 19-C , 88-H ) :   0.9454
B( 20-C , 21-S ) :   1.0749 B( 20-C , 24-C ) :   1.4822 B( 21-S , 22-C ) :   1.2311
B( 22-C , 23-C ) :   1.4016 B( 22-C , 31-C ) :   1.0711 B( 23-C , 24-C ) :   1.2329
B( 23-C , 25-C ) :   0.9800 B( 24-C , 89-H ) :   0.9748 B( 25-C , 26-O ) :   2.1317
B( 25-C , 27-C ) :   0.8806 B( 27-C , 28-F ) :   1.1196 B( 27-C , 29-F ) :   1.1263
B( 27-C , 30-F ) :   1.1898 B( 31-C , 32-C ) :   1.5302 B( 31-C , 48-C ) :   1.1107
B( 32-C , 33-C ) :   1.1752 B( 32-C , 90-H ) :   0.9707 B( 33-C , 34-C ) :   1.4610
B( 33-C , 46-C ) :   1.1218 B( 34-C , 35-C ) :   1.0150 B( 34-C , 40-C ) :   1.1108
B( 35-C , 36-C ) :   1.0414 B( 35-C , 38-C ) :   1.0343 B( 35-C , 91-H ) :   0.8856
B( 36-C , 37-N ) :   1.0820 B( 36-C , 92-H ) :   0.9389 B( 36-C , 93-H ) :   0.9344
B( 37-N , 94-H ) :   0.9722 B( 37-N , 95-H ) :   0.9683 B( 38-C , 39-N ) :   1.0965
B( 38-C , 96-H ) :   0.9325 B( 38-C , 97-H ) :   0.9302 B( 39-N , 98-H ) :   0.9715
B( 39-N , 99-H ) :   0.9666 B( 40-C , 41-C ) :   1.6436 B( 40-C , 45-C ) :   1.0525
B( 41-C , 42-C ) :   0.9599 B( 41-C ,100-H ) :   0.9785 B( 42-C , 43-C ) :   0.9833
B( 42-C , 49-C ) :   0.9695 B( 42-C ,101-H ) :   0.8640 B( 43-C , 44-C ) :   1.7084
B( 43-C ,102-H ) :   0.9758 B( 44-C , 45-C ) :   1.1308 B( 44-C ,103-H ) :   0.9891
B( 45-C , 46-C ) :   1.4410 B( 46-C , 47-C ) :   1.1405 B( 47-C , 48-C ) :   1.6159
B( 47-C ,104-H ) :   0.9923 B( 48-C ,105-H ) :   0.9805 B( 49-C , 50-C ) :   1.7766
B( 49-C ,106-H ) :   0.9707 B( 50-C , 51-C ) :   1.1147 B( 50-C ,107-H ) :   0.9755
B( 51-C , 52-S ) :   1.1537 B( 51-C , 55-C ) :   1.4159 B( 52-S , 53-C ) :   1.1223
B( 53-C , 54-C ) :   1.4044 B( 53-C , 62-C ) :   1.2190 B( 54-C , 55-C ) :   1.3307
B( 54-C , 56-C ) :   0.8552 B( 55-C ,108-H ) :   1.0111 B( 56-C , 57-O ) :   2.2015
B( 56-C , 58-C ) :   0.8684 B( 56-C , 73-O ) :   0.2229 B( 58-C , 59-F ) :   1.1720
B( 58-C , 60-F ) :   1.1122 B( 58-C , 61-F ) :   1.1536 B( 62-C , 63-C ) :   1.5786
B( 62-C ,109-H ) :   0.9162 B( 63-C , 64-C ) :   1.0643 B( 63-C , 72-C ) :   0.9970
B( 64-C , 65-C ) :   1.6417 B( 64-C , 70-C ) :   0.9869 B( 65-C , 66-C ) :   1.1493
B( 65-C , 68-C ) :   1.1414 B( 66-C , 67-N ) :   2.9649 B( 68-C , 69-N ) :   2.9765
B( 70-C , 71-C ) :   1.2048 B( 70-C , 77-C ) :   1.4556 B( 71-C , 72-C ) :   0.9899
B( 71-C , 74-C ) :   1.4612 B( 72-C , 73-O ) :   1.9792 B( 74-C , 75-C ) :   1.1781
B( 74-C ,110-H ) :   1.0159 B( 75-C , 76-C ) :   1.2542 B( 75-C , 81-C ) :   1.2453
B( 76-C , 77-C ) :   1.2013 B( 76-C , 78-C ) :   1.2436 B( 77-C ,111-H ) :   0.9895
B( 78-C , 79-C ) :   1.4873 B( 78-C ,112-H ) :   0.9968 B( 79-C , 80-C ) :   1.2621
B( 79-C ,113-H ) :   0.9877 B( 80-C , 81-C ) :   1.4871 B( 80-C ,114-H ) :   0.9888
B( 81-C ,115-H ) :   0.9977

-----------------------------------------------------------------------------
         ABSORPTION SPECTRUM VIA TRANSITION ELECTRIC DIPOLE MOMENTS
-----------------------------------------------------------------------------
State   Energy  Wavelength   fosc         T2         TX        TY        TZ
        (cm-1)    (nm)                  (au**2)     (au)      (au)      (au)
-----------------------------------------------------------------------------
   0   12494.1    800.4   0.125411294   3.30450  -0.10840   1.78139   0.34553
   1   15585.5    641.6   0.049923950   1.05454   0.27315  -0.50342  -0.85235
   2   16769.0    596.3   0.298097710   5.85230  -0.21671  -1.80494  -1.59610
   3   21123.4    473.4   0.439835044   6.85490   0.23150   1.70329   1.97487
   4   21795.3    458.8   0.641973597   9.69683  -1.88678   1.99989   1.46196
   5   23454.3    426.4   0.464638866   6.52182   0.13126   2.51050   0.44940
   6   25040.6    399.4   0.017227758   0.22650   0.45267   0.01094  -0.14652
   7   25243.9    396.1   0.001705411   0.02224  -0.06799   0.06457   0.11597
   8   25715.3    388.9   0.137367083   1.75860   0.38495  -1.02437  -0.74905
   9   26196.7    381.7   0.013257447   0.16661   0.29610   0.16677   0.22609
  10   26827.1    372.8   0.182302121   2.23714   0.57652  -1.04725  -0.89891
  11   26874.2    372.1   0.007724095   0.09462   0.27179  -0.04565  -0.13663
  12   27585.5    362.5   0.055183283   0.65857  -0.55374  -0.56476   0.18163
  13   27621.5    362.0   0.004144770   0.04940   0.15264  -0.02482   0.15964
  14   28053.4    356.5   0.130389407   1.53014  -1.02058  -0.10238  -0.69143
  15   28431.2    351.7   0.035822217   0.41479  -0.13883   0.32071   0.54099
  16   28808.0    347.1   0.031883849   0.36436  -0.34394   0.04351   0.49414
  17   29699.5    336.7   0.065456110   0.72556   0.39290   0.50800   0.55958
  18   29879.1    334.7   0.099386309   1.09505  -0.60490  -0.50840  -0.68606
  19   30013.7    333.2   0.350063759   3.83975  -0.05634  -1.53090  -1.22185
  20   30036.5    332.9   0.133417320   1.46231   0.16067  -1.14012  -0.36961
  21   30332.8    329.7   0.068260955   0.74086  -0.62409   0.57658  -0.13755
  22   30855.6    324.1   0.021444240   0.22880   0.36465  -0.22527   0.21233
  23   32196.9    310.6   0.015804357   0.16160   0.20117   0.04097  -0.34561
  24   32232.7    310.2   0.629504107   6.42950   0.20344   2.47952   0.48998
  25   32771.0    305.1   0.113077306   1.13596  -0.45422   0.61285   0.74435
  26   33177.8    301.4   0.293172254   2.90905  -0.45273   1.19865   1.12575
  27   33255.5    300.7   0.195312704   1.93350   0.32077  -0.72990  -1.13923
  28   33383.6    299.5   0.004332676   0.04273   0.08059  -0.17461  -0.07578
  29   33527.5    298.3   0.008943692   0.08782  -0.19282   0.13935   0.17670
  30   33600.7    297.6   0.022248739   0.21799   0.39731   0.21879   0.11074
  31   33946.4    294.6   0.179124175   1.73715   0.59044  -0.55758  -1.03809
  32   34187.5    292.5   0.149769220   1.44222  -0.36183  -1.08653  -0.36159
  33   34462.9    290.2   0.426267914   4.07198   1.60358  -0.97112  -0.74663
  34   34547.8    289.5   0.020443749   0.19481  -0.17386  -0.00171  -0.40569
  35   35192.2    284.2   0.004470341   0.04182  -0.02427   0.19466   0.05776
  36   35445.5    282.1   0.006935710   0.06442  -0.01362   0.24925   0.04591
  37   35462.0    282.0   0.002210071   0.02052   0.02826   0.13991   0.01196
  38   35686.2    280.2   0.012552210   0.11580  -0.20524  -0.13363   0.23625
  39   35912.9    278.5   0.144128790   1.32122   0.72189   0.87907  -0.16536
  40   36331.6    275.2   0.257045816   2.32917   1.36990  -0.30962   0.59722
  41   36581.4    273.4   0.026497630   0.23846  -0.34836   0.28228   0.19346
  42   36829.6    271.5   0.046266558   0.41357   0.59583   0.19502  -0.14324
  43   36993.6    270.3   0.036181903   0.32199  -0.37951  -0.38700  -0.16791
  44   37091.7    269.6   0.108418526   0.96228  -0.96186  -0.18485   0.05420
  45   37657.8    265.5   0.171027905   1.49516   0.45067  -1.06430  -0.39915
  46   37834.0    264.3   0.074504523   0.64830   0.41763  -0.62527  -0.28796
  47   38194.3    261.8   0.042152224   0.36333  -0.54461   0.07705   0.24656
  48   38413.0    260.3   0.106902502   0.91619   0.86155   0.16593  -0.38261
  49   38736.9    258.2   0.061962205   0.52660  -0.45998   0.05713   0.55834
  50   38963.3    256.7   0.124812630   1.05458  -0.58574   0.37185   0.75711
  51   38997.4    256.4   0.027068327   0.22851   0.20852  -0.19272  -0.38456
  52   39313.6    254.4   0.081495251   0.68244   0.09036  -0.11069  -0.81365
  53   39518.2    253.0   0.051234180   0.42681   0.31436   0.02989   0.57192
  54   39665.2    252.1   0.018483815   0.15341  -0.24680   0.00898  -0.30401
  55   39905.1    250.6   0.007227676   0.05963   0.18297  -0.02521   0.15973
  56   40233.6    248.5   0.014169116   0.11594   0.33292   0.05123   0.04976

FINAL SINGLE POINT ENERGY     -4479.240986429784

DIPOLE MOMENT
-------------
                                X             Y             Z
Electronic contribution:    -22.04409       6.02639      33.05746
Nuclear contribution   :     24.68339      -4.44223     -35.41027
                        -----------------------------------------
Total Dipole Moment    :      2.63930       1.58417      -2.35281
                        -----------------------------------------
Magnitude (a.u.)       :      3.87443
Magnitude (Debye)      :      9.84802

Rotational constants in cm-1:     0.001675     0.000173     0.000165
Rotational constants in MHz :    50.201156     5.181231     4.948262

                             ****ORCA TERMINATED NORMALLY****
TOTAL RUN TIME: 0 days 0 hours 12 minutes 56 seconds 752 msec
