                         Program Version 4.2.0 -  RELEASE  -
|  1> # ORCA input file
|  2> # SCF done       -208.878525568751          0.000350740792
|  3> ! CAM-B3LYP def2-SVP def2/J RIJCOSX Grid4 TightSCF
|  4> %maxcore 5000
|  5> %tddft
|  6>     Mode sTDDFT
|  7>     Ethresh 5.0
|  8>     maxcore 5000
|  9> end
| 10>
| 11> %pal
| 12>   nprocs 6
| 13>   end
| 14> * xyz 0 1
| 15>    C        0.08354         0.75385         1.15145
| 16>    C        0.81750         1.55603         0.31516
| 17>    C        1.52449         1.07950        -0.80870
| 18>    N        2.12125         0.74701        -1.73082
| 19>    C        1.03847         2.92889         0.53184
| 20>    N        1.26592         4.04453         0.68357
| 21>    C        0.05113        -0.70443         1.08433
| 22>    C       -0.36004        -1.20881         2.35268
| 23>    C       -0.43806        -2.54877         2.60109
| 24>    C       -0.11493        -3.46021         1.57054
| 25>    C        0.27264        -2.96192         0.29301
| 26>    C        0.35117        -1.56826         0.06622
| 27>    C        0.58207        -3.88183        -0.72914
| 28>    C        0.51835        -5.22956        -0.50093
| 29>    C        0.13972        -5.71926         0.75791
| 30>    C       -0.17053        -4.85347         1.77138
| 31>    C       -0.67189        -0.08002         3.24471
| 32>    O       -1.00310        -0.11165         4.40814
| 33>    C       -0.55126         1.14021         2.39332
| 34>    C       -1.08607         2.30457         2.85599
| 35>    C       -1.43078         3.47392         2.14594
| 36>    C       -1.64080         3.64816         0.78525
| 37>    C       -1.98487         4.95528         0.46906
| 38>    C       -2.04782         5.79690         1.59912
| 39>    S       -1.70684         4.96548         3.04267
| 40>    C       -2.36770         7.10672         1.16275
| 41>    C       -2.49943         7.09412        -0.23709
| 42>    C       -2.25739         5.74507        -0.71924
| 43>    C       -2.25099         5.31234        -2.01328
| 44>    C       -2.51222         6.17754        -3.09521
| 45>    N       -2.73105         6.87893        -3.97592
| 46>    C       -1.98102         3.96615        -2.33765
| 47>    N       -1.76800         2.86699        -2.58575
| 48>    C       -2.80669         8.34482        -0.76741
| 49>    C       -2.91579         9.31897         0.20611
| 50>    S       -2.62680         8.65944         1.81741
| 51>    C       -3.21995        10.71190         0.04943
| 52>    C       -3.35022        11.53495         1.16147
| 53>    C       -3.64677        12.88134         1.05406
| 54>    C       -3.82891        13.50696        -0.17340
| 55>    C       -3.69548        12.69929        -1.34510
| 56>    C       -3.39884        11.31429        -1.23439
| 57>    N       -3.28361        10.57177        -2.35156
| 58>    C       -3.44050        11.11918        -3.52777
| 59>    C       -3.73556        12.51002        -3.63906
| 60>    N       -3.85417        13.24573        -2.56540
| 61>    C       -3.91767        13.17073        -4.96054
| 62>    C       -3.30127        10.24712        -4.72633
| 63>    C       -4.14168        14.90541        -0.23756
| 64>    C       -4.29889        15.70442        -1.35402
| 65>    C       -4.60389        17.02345        -1.02682
| 66>    C       -4.68500        17.24037         0.35994
| 67>    S       -4.38147        15.81845         1.25281
| 68>    C       -4.99846        18.60152         0.58689
| 69>    C       -5.10807        19.25204        -0.66352
| 70>    C       -4.88205        18.27411        -1.71552
| 71>    C       -4.94443        18.46816        -3.06391
| 72>    C       -5.27801        19.70894        -3.64981
| 73>    N       -5.56755        20.69590        -4.15545
| 74>    C       -4.70600        17.42103        -3.97855
| 75>    N       -4.51482        16.57631        -4.73060
| 76>    C       -5.38597        20.60737        -0.55192
| 77>    C       -5.50005        21.01205         0.77220
| 78>    S       -5.27285        19.65641         1.88934
| 79>    C       -5.81340        22.25482         1.35703
| 80>    C       -5.80341        23.50948         0.81196
| 81>    C       -6.25422        24.70199         1.50781
| 82>    C       -7.04482        24.74382         2.62794
| 83>    C       -7.47102        25.93718         3.24718
| 84>    N       -7.84577        26.86969         3.80237
| 85>    C       -7.57799        23.62068         3.29389
| 86>    N       -8.06535        22.75821         3.87572
| 87>    C       -5.79902        25.86163         0.75171
| 88>    C       -5.15753        25.40185        -0.43265
| 89>    C       -5.16414        23.92930        -0.46129
| 90>    O       -4.68496        23.22930        -1.32817
| 91>    C       -4.63213        26.26334        -1.35165
| 92>    C       -4.72325        27.65428        -1.12085
| 93>    C       -5.35536        28.12333         0.06684
| 94>    C       -5.89241        27.20565         0.99896
| 95>    C       -5.43386        29.51298         0.29032
| 96>    C       -4.91534        30.39820        -0.61527
| 97>    C       -4.29464        29.93522        -1.78499
| 98>    C       -4.20113        28.59244        -2.03266
| 99>    H       -0.74241        -2.91027         3.57209
|100>    H        0.63605        -1.21766        -0.91340
|101>    H        0.87636        -3.49985        -1.69557
|102>    H        0.76031        -5.92621        -1.28954
|103>    H        0.09472        -6.78573         0.92070
|104>    H       -0.46326        -5.22471         2.74268
|105>    H       -1.33544         2.29753         3.91325
|106>    H       -1.58495         2.84240         0.07618
|107>    H       -2.94942         8.57412        -1.80672
|108>    H       -3.21886        11.11041         2.14648
|109>    H       -3.73774        13.46511         1.95891
|110>    H       -3.02058        13.05171        -5.56618
|111>    H       -4.12234        14.22939        -4.82755
|112>    H       -4.74480        12.71044        -5.49905
|113>    H       -3.09446         9.22365        -4.42595
|114>    H       -2.48980        10.60567        -5.35801
|115>    H       -4.21610        10.27048        -5.31648
|116>    H       -4.18817        15.30603        -2.34501
|117>    H       -5.49768        21.28504        -1.37784
|118>    H       -6.07530        22.18421         2.40684
|119>    H       -4.15399        25.88723        -2.24388
|120>    H       -6.35901        27.59219         1.89107
|121>    H       -5.91421        29.86473         1.19160
|122>    H       -4.98102        31.46077        -0.43512
|123>    H       -3.89072        30.64770        -2.48866
|124>    H       -3.72437        28.22971        -2.93152
|125> *
|126>
|127>                          ****END OF INPUT****

CARTESIAN COORDINATES (ANGSTROEM)
---------------------------------
  C      0.083540    0.753850    1.151450
  C      0.817500    1.556030    0.315160
  C      1.524490    1.079500   -0.808700
  N      2.121250    0.747010   -1.730820
  C      1.038470    2.928890    0.531840
  N      1.265920    4.044530    0.683570
  C      0.051130   -0.704430    1.084330
  C     -0.360040   -1.208810    2.352680
  C     -0.438060   -2.548770    2.601090
  C     -0.114930   -3.460210    1.570540
  C      0.272640   -2.961920    0.293010
  C      0.351170   -1.568260    0.066220
  C      0.582070   -3.881830   -0.729140
  C      0.518350   -5.229560   -0.500930
  C      0.139720   -5.719260    0.757910
  C     -0.170530   -4.853470    1.771380
  C     -0.671890   -0.080020    3.244710
  O     -1.003100   -0.111650    4.408140
  C     -0.551260    1.140210    2.393320
  C     -1.086070    2.304570    2.855990
  C     -1.430780    3.473920    2.145940
  C     -1.640800    3.648160    0.785250
  C     -1.984870    4.955280    0.469060
  C     -2.047820    5.796900    1.599120
  S     -1.706840    4.965480    3.042670
  C     -2.367700    7.106720    1.162750
  C     -2.499430    7.094120   -0.237090
  C     -2.257390    5.745070   -0.719240
  C     -2.250990    5.312340   -2.013280
  C     -2.512220    6.177540   -3.095210
  N     -2.731050    6.878930   -3.975920
  C     -1.981020    3.966150   -2.337650
  N     -1.768000    2.866990   -2.585750
  C     -2.806690    8.344820   -0.767410
  C     -2.915790    9.318970    0.206110
  S     -2.626800    8.659440    1.817410
  C     -3.219950   10.711900    0.049430
  C     -3.350220   11.534950    1.161470
  C     -3.646770   12.881340    1.054060
  C     -3.828910   13.506960   -0.173400
  C     -3.695480   12.699290   -1.345100
  C     -3.398840   11.314290   -1.234390
  N     -3.283610   10.571770   -2.351560
  C     -3.440500   11.119180   -3.527770
  C     -3.735560   12.510020   -3.639060
  N     -3.854170   13.245730   -2.565400
  C     -3.917670   13.170730   -4.960540
  C     -3.301270   10.247120   -4.726330
  C     -4.141680   14.905410   -0.237560
  C     -4.298890   15.704420   -1.354020
  C     -4.603890   17.023450   -1.026820
  C     -4.685000   17.240370    0.359940
  S     -4.381470   15.818450    1.252810
  C     -4.998460   18.601520    0.586890
  C     -5.108070   19.252040   -0.663520
  C     -4.882050   18.274110   -1.715520
  C     -4.944430   18.468160   -3.063910
  C     -5.278010   19.708940   -3.649810
  N     -5.567550   20.695900   -4.155450
  C     -4.706000   17.421030   -3.978550
  N     -4.514820   16.576310   -4.730600
  C     -5.385970   20.607370   -0.551920
  C     -5.500050   21.012050    0.772200
  S     -5.272850   19.656410    1.889340
  C     -5.813400   22.254820    1.357030
  C     -5.803410   23.509480    0.811960
  C     -6.254220   24.701990    1.507810
  C     -7.044820   24.743820    2.627940
  C     -7.471020   25.937180    3.247180
  N     -7.845770   26.869690    3.802370
  C     -7.577990   23.620680    3.293890
  N     -8.065350   22.758210    3.875720
  C     -5.799020   25.861630    0.751710
  C     -5.157530   25.401850   -0.432650
  C     -5.164140   23.929300   -0.461290
  O     -4.684960   23.229300   -1.328170
  C     -4.632130   26.263340   -1.351650
  C     -4.723250   27.654280   -1.120850
  C     -5.355360   28.123330    0.066840
  C     -5.892410   27.205650    0.998960
  C     -5.433860   29.512980    0.290320
  C     -4.915340   30.398200   -0.615270
  C     -4.294640   29.935220   -1.784990
  C     -4.201130   28.592440   -2.032660
  H     -0.742410   -2.910270    3.572090
  H      0.636050   -1.217660   -0.913400
  H      0.876360   -3.499850   -1.695570
  H      0.760310   -5.926210   -1.289540
  H      0.094720   -6.785730    0.920700
  H     -0.463260   -5.224710    2.742680
  H     -1.335440    2.297530    3.913250
  H     -1.584950    2.842400    0.076180
  H     -2.949420    8.574120   -1.806720
  H     -3.218860   11.110410    2.146480
  H     -3.737740   13.465110    1.958910
  H     -3.020580   13.051710   -5.566180
  H     -4.122340   14.229390   -4.827550
  H     -4.744800   12.710440   -5.499050
  H     -3.094460    9.223650   -4.425950
  H     -2.489800   10.605670   -5.358010
  H     -4.216100   10.270480   -5.316480
  H     -4.188170   15.306030   -2.345010
  H     -5.497680   21.285040   -1.377840
  H     -6.075300   22.184210    2.406840
  H     -4.153990   25.887230   -2.243880
  H     -6.359010   27.592190    1.891070
  H     -5.914210   29.864730    1.191600
  H     -4.981020   31.460770   -0.435120
  H     -3.890720   30.647700   -2.488660
  H     -3.724370   28.229710   -2.931520

 Total Charge           Charge          ....    0
 Multiplicity           Mult            ....    1
 Number of Electrons    NEL             ....  584
 Basis Dimension        Dim             .... 1322

ORBITAL ENERGIES
----------------

  NO   OCC          E(Eh)            E(eV)
   0   2.0000     -88.995935     -2421.7025
   1   2.0000     -88.995550     -2421.6920
   2   2.0000     -88.991868     -2421.5918
   3   2.0000     -88.991152     -2421.5723
   4   2.0000     -19.215198      -522.8721
   5   2.0000     -19.213042      -522.8135
   6   2.0000     -14.435509      -392.8102
   7   2.0000     -14.435149      -392.8004
   8   2.0000     -14.432698      -392.7337
   9   2.0000     -14.429190      -392.6382
  10   2.0000     -14.425571      -392.5397
  11   2.0000     -14.425381      -392.5346
  12   2.0000     -14.416598      -392.2956
  13   2.0000     -14.414208      -392.2305
  14   2.0000     -14.411664      -392.1613
  15   2.0000     -14.411638      -392.1606
  16   2.0000     -10.367387      -282.1109
  17   2.0000     -10.366960      -282.0993
  18   2.0000     -10.366933      -282.0986
  19   2.0000     -10.364363      -282.0287
  20   2.0000     -10.354627      -281.7637
  21   2.0000     -10.354612      -281.7633
  22   2.0000     -10.346397      -281.5398
  23   2.0000     -10.343696      -281.4663
  24   2.0000     -10.341619      -281.4097
  25   2.0000     -10.340850      -281.3888
  26   2.0000     -10.338819      -281.3336
  27   2.0000     -10.338227      -281.3175
  28   2.0000     -10.336540      -281.2716
  29   2.0000     -10.336230      -281.2631
  30   2.0000     -10.334288      -281.2103
  31   2.0000     -10.334149      -281.2065
  32   2.0000     -10.333089      -281.1777
  33   2.0000     -10.330379      -281.1039
  34   2.0000     -10.330123      -281.0969
  35   2.0000     -10.328648      -281.0568
  36   2.0000     -10.328604      -281.0556
  37   2.0000     -10.328322      -281.0479
  38   2.0000     -10.328159      -281.0435
  39   2.0000     -10.327226      -281.0181
  40   2.0000     -10.327221      -281.0180
  41   2.0000     -10.326605      -281.0012
  42   2.0000     -10.326163      -280.9892
  43   2.0000     -10.324121      -280.9336
  44   2.0000     -10.317953      -280.7658
  45   2.0000     -10.317431      -280.7516
  46   2.0000     -10.314828      -280.6807
  47   2.0000     -10.314233      -280.6646
  48   2.0000     -10.312806      -280.6257
  49   2.0000     -10.310799      -280.5711
  50   2.0000     -10.310497      -280.5629
  51   2.0000     -10.307789      -280.4892
  52   2.0000     -10.307316      -280.4763
  53   2.0000     -10.307255      -280.4747
  54   2.0000     -10.307085      -280.4700
  55   2.0000     -10.304881      -280.4101
  56   2.0000     -10.301436      -280.3163
  57   2.0000     -10.300137      -280.2810
  58   2.0000     -10.299690      -280.2688
  59   2.0000     -10.299252      -280.2569
  60   2.0000     -10.298962      -280.2490
  61   2.0000     -10.298783      -280.2441
  62   2.0000     -10.295939      -280.1667
  63   2.0000     -10.295751      -280.1616
  64   2.0000     -10.295459      -280.1537
  65   2.0000     -10.295424      -280.1527
  66   2.0000     -10.295179      -280.1461
  67   2.0000     -10.294578      -280.1297
  68   2.0000     -10.294483      -280.1271
  69   2.0000     -10.293922      -280.1118
  70   2.0000     -10.291873      -280.0561
  71   2.0000     -10.291240      -280.0389
  72   2.0000     -10.287637      -279.9408
  73   2.0000     -10.285965      -279.8953
  74   2.0000     -10.284903      -279.8665
  75   2.0000     -10.284502      -279.8555
  76   2.0000     -10.284412      -279.8531
  77   2.0000     -10.284024      -279.8425
  78   2.0000     -10.283976      -279.8412
  79   2.0000     -10.283830      -279.8372
  80   2.0000     -10.283405      -279.8257
  81   2.0000     -10.283395      -279.8254
  82   2.0000     -10.265807      -279.3468
  83   2.0000     -10.265528      -279.3392
  84   2.0000      -8.090668      -220.1583
  85   2.0000      -8.090365      -220.1500
  86   2.0000      -8.086289      -220.0391
  87   2.0000      -8.085524      -220.0183
  88   2.0000      -6.059804      -164.8957
  89   2.0000      -6.059466      -164.8864
  90   2.0000      -6.055664      -164.7830
  91   2.0000      -6.055536      -164.7795
  92   2.0000      -6.055333      -164.7740
  93   2.0000      -6.054771      -164.7587
  94   2.0000      -6.053181      -164.7154
  95   2.0000      -6.052910      -164.7081
  96   2.0000      -6.051359      -164.6658
  97   2.0000      -6.050580      -164.6446
  98   2.0000      -6.048699      -164.5935
  99   2.0000      -6.047976      -164.5738
 100   2.0000      -1.130650       -30.7666
 101   2.0000      -1.128367       -30.7044
 102   2.0000      -1.089011       -29.6335
 103   2.0000      -1.048893       -28.5418
 104   2.0000      -1.048727       -28.5373
 105   2.0000      -1.025582       -27.9075
 106   2.0000      -1.024976       -27.8910
 107   2.0000      -1.017779       -27.6952
 108   2.0000      -1.016343       -27.6561
 109   2.0000      -1.013562       -27.5804
 110   2.0000      -1.011339       -27.5199
 111   2.0000      -1.008875       -27.4529
 112   2.0000      -1.003510       -27.3069
 113   2.0000      -0.999526       -27.1985
 114   2.0000      -0.997420       -27.1412
 115   2.0000      -0.996322       -27.1113
 116   2.0000      -0.991339       -26.9757
 117   2.0000      -0.991188       -26.9716
 118   2.0000      -0.976483       -26.5715
 119   2.0000      -0.970381       -26.4054
 120   2.0000      -0.968912       -26.3654
 121   2.0000      -0.962558       -26.1925
 122   2.0000      -0.955584       -26.0028
 123   2.0000      -0.928121       -25.2555
 124   2.0000      -0.925890       -25.1948
 125   2.0000      -0.919737       -25.0273
 126   2.0000      -0.915748       -24.9188
 127   2.0000      -0.901150       -24.5215
 128   2.0000      -0.897297       -24.4167
 129   2.0000      -0.893626       -24.3168
 130   2.0000      -0.885026       -24.0828
 131   2.0000      -0.879749       -23.9392
 132   2.0000      -0.879183       -23.9238
 133   2.0000      -0.876330       -23.8462
 134   2.0000      -0.875334       -23.8190
 135   2.0000      -0.865136       -23.5415
 136   2.0000      -0.858558       -23.3625
 137   2.0000      -0.856633       -23.3102
 138   2.0000      -0.854570       -23.2540
 139   2.0000      -0.826625       -22.4936
 140   2.0000      -0.826042       -22.4778
 141   2.0000      -0.822597       -22.3840
 142   2.0000      -0.820011       -22.3136
 143   2.0000      -0.811279       -22.0760
 144   2.0000      -0.810944       -22.0669
 145   2.0000      -0.793182       -21.5836
 146   2.0000      -0.780025       -21.2255
 147   2.0000      -0.778240       -21.1770
 148   2.0000      -0.769055       -20.9271
 149   2.0000      -0.759602       -20.6698
 150   2.0000      -0.758773       -20.6473
 151   2.0000      -0.743912       -20.2429
 152   2.0000      -0.730649       -19.8820
 153   2.0000      -0.726104       -19.7583
 154   2.0000      -0.725421       -19.7397
 155   2.0000      -0.716537       -19.4980
 156   2.0000      -0.705878       -19.2079
 157   2.0000      -0.703167       -19.1342
 158   2.0000      -0.701789       -19.0967
 159   2.0000      -0.699890       -19.0450
 160   2.0000      -0.697272       -18.9737
 161   2.0000      -0.693840       -18.8803
 162   2.0000      -0.685023       -18.6404
 163   2.0000      -0.682596       -18.5744
 164   2.0000      -0.679075       -18.4786
 165   2.0000      -0.674451       -18.3527
 166   2.0000      -0.669897       -18.2288
 167   2.0000      -0.666178       -18.1276
 168   2.0000      -0.653642       -17.7865
 169   2.0000      -0.647887       -17.6299
 170   2.0000      -0.637222       -17.3397
 171   2.0000      -0.637028       -17.3344
 172   2.0000      -0.631608       -17.1869
 173   2.0000      -0.629272       -17.1234
 174   2.0000      -0.626703       -17.0534
 175   2.0000      -0.621130       -16.9018
 176   2.0000      -0.616204       -16.7678
 177   2.0000      -0.613320       -16.6893
 178   2.0000      -0.611426       -16.6377
 179   2.0000      -0.605657       -16.4808
 180   2.0000      -0.604378       -16.4460
 181   2.0000      -0.600095       -16.3294
 182   2.0000      -0.594433       -16.1753
 183   2.0000      -0.588401       -16.0112
 184   2.0000      -0.580077       -15.7847
 185   2.0000      -0.570932       -15.5359
 186   2.0000      -0.568751       -15.4765
 187   2.0000      -0.558005       -15.1841
 188   2.0000      -0.556611       -15.1461
 189   2.0000      -0.555102       -15.1051
 190   2.0000      -0.552267       -15.0280
 191   2.0000      -0.551293       -15.0014
 192   2.0000      -0.549349       -14.9485
 193   2.0000      -0.545640       -14.8476
 194   2.0000      -0.544594       -14.8192
 195   2.0000      -0.544306       -14.8113
 196   2.0000      -0.537866       -14.6361
 197   2.0000      -0.535163       -14.5625
 198   2.0000      -0.534954       -14.5568
 199   2.0000      -0.531596       -14.4655
 200   2.0000      -0.527715       -14.3598
 201   2.0000      -0.522736       -14.2244
 202   2.0000      -0.520743       -14.1701
 203   2.0000      -0.518509       -14.1094
 204   2.0000      -0.517347       -14.0777
 205   2.0000      -0.514834       -14.0094
 206   2.0000      -0.513369       -13.9695
 207   2.0000      -0.510885       -13.9019
 208   2.0000      -0.509681       -13.8691
 209   2.0000      -0.508612       -13.8400
 210   2.0000      -0.508136       -13.8271
 211   2.0000      -0.506507       -13.7828
 212   2.0000      -0.505535       -13.7563
 213   2.0000      -0.503548       -13.7022
 214   2.0000      -0.501657       -13.6508
 215   2.0000      -0.500068       -13.6075
 216   2.0000      -0.498250       -13.5581
 217   2.0000      -0.496945       -13.5226
 218   2.0000      -0.493279       -13.4228
 219   2.0000      -0.492935       -13.4135
 220   2.0000      -0.491987       -13.3876
 221   2.0000      -0.489700       -13.3254
 222   2.0000      -0.487076       -13.2540
 223   2.0000      -0.485868       -13.2211
 224   2.0000      -0.484650       -13.1880
 225   2.0000      -0.482110       -13.1189
 226   2.0000      -0.480008       -13.0617
 227   2.0000      -0.478321       -13.0158
 228   2.0000      -0.475739       -12.9455
 229   2.0000      -0.474467       -12.9109
 230   2.0000      -0.470335       -12.7985
 231   2.0000      -0.463510       -12.6127
 232   2.0000      -0.463005       -12.5990
 233   2.0000      -0.462334       -12.5808
 234   2.0000      -0.462137       -12.5754
 235   2.0000      -0.458682       -12.4814
 236   2.0000      -0.455106       -12.3841
 237   2.0000      -0.453538       -12.3414
 238   2.0000      -0.451889       -12.2965
 239   2.0000      -0.449871       -12.2416
 240   2.0000      -0.447050       -12.1648
 241   2.0000      -0.446953       -12.1622
 242   2.0000      -0.446267       -12.1435
 243   2.0000      -0.444219       -12.0878
 244   2.0000      -0.443165       -12.0591
 245   2.0000      -0.442299       -12.0356
 246   2.0000      -0.442119       -12.0307
 247   2.0000      -0.442089       -12.0299
 248   2.0000      -0.441024       -12.0009
 249   2.0000      -0.440545       -11.9879
 250   2.0000      -0.438830       -11.9412
 251   2.0000      -0.437544       -11.9062
 252   2.0000      -0.437304       -11.8997
 253   2.0000      -0.433223       -11.7886
 254   2.0000      -0.431730       -11.7480
 255   2.0000      -0.431521       -11.7423
 256   2.0000      -0.430528       -11.7153
 257   2.0000      -0.430142       -11.7048
 258   2.0000      -0.428154       -11.6507
 259   2.0000      -0.425911       -11.5896
 260   2.0000      -0.424500       -11.5512
 261   2.0000      -0.424483       -11.5508
 262   2.0000      -0.420363       -11.4386
 263   2.0000      -0.418041       -11.3755
 264   2.0000      -0.415533       -11.3072
 265   2.0000      -0.414453       -11.2778
 266   2.0000      -0.408123       -11.1056
 267   2.0000      -0.406389       -11.0584
 268   2.0000      -0.402417       -10.9503
 269   2.0000      -0.401436       -10.9236
 270   2.0000      -0.384510       -10.4630
 271   2.0000      -0.380425       -10.3519
 272   2.0000      -0.378286       -10.2937
 273   2.0000      -0.373790       -10.1713
 274   2.0000      -0.369376       -10.0512
 275   2.0000      -0.357183        -9.7195
 276   2.0000      -0.352561        -9.5937
 277   2.0000      -0.349560        -9.5120
 278   2.0000      -0.341941        -9.3047
 279   2.0000      -0.336391        -9.1537
 280   2.0000      -0.333147        -9.0654
 281   2.0000      -0.329317        -8.9612
 282   2.0000      -0.325568        -8.8592
 283   2.0000      -0.323559        -8.8045
 284   2.0000      -0.323197        -8.7946
 285   2.0000      -0.316535        -8.6133
 286   2.0000      -0.314705        -8.5635
 287   2.0000      -0.306972        -8.3531
 288   2.0000      -0.293676        -7.9913
 289   2.0000      -0.291660        -7.9365
 290   2.0000      -0.273923        -7.4538
 291   2.0000      -0.249238        -6.7821
 292   0.0000      -0.117149        -3.1878
 293   0.0000      -0.109583        -2.9819
 294   0.0000      -0.089316        -2.4304
 295   0.0000      -0.088110        -2.3976
 296   0.0000      -0.066053        -1.7974

MULLIKEN ATOMIC CHARGES
-----------------------
   0 C :    0.274677
   1 C :   -0.330207
   2 C :   -0.169531
   3 N :    0.155445
   4 C :   -0.203711
   5 N :    0.165465
   6 C :    0.025636
   7 C :    0.018305
   8 C :   -0.082136
   9 C :    0.095760
  10 C :    0.090832
  11 C :   -0.077123
  12 C :   -0.015064
  13 C :    0.036243
  14 C :    0.032974
  15 C :   -0.014619
  16 C :    0.136423
  17 O :   -0.145928
  18 C :   -0.143290
  19 C :    0.080552
  20 C :   -0.111291
  21 C :    0.001318
  22 C :   -0.009312
  23 C :   -0.070606
  24 S :    0.211278
  25 C :   -0.090770
  26 C :    0.043815
  27 C :    0.312216
  28 C :   -0.297011
  29 C :   -0.176030
  30 N :    0.184853
  31 C :   -0.187055
  32 N :    0.172632
  33 C :   -0.055018
  34 C :   -0.109586
  35 S :    0.160458
  36 C :    0.165405
  37 C :   -0.076082
  38 C :   -0.075127
  39 C :    0.165225
  40 C :   -0.040129
  41 C :   -0.042243
  42 N :   -0.013637
  43 C :   -0.156236
  44 C :   -0.158668
  45 N :   -0.014427
  46 C :    0.127965
  47 C :    0.125438
  48 C :   -0.106346
  49 C :   -0.056895
  50 C :    0.045756
  51 C :   -0.092073
  52 S :    0.161193
  53 C :   -0.081511
  54 C :   -0.021176
  55 C :    0.314058
  56 C :   -0.303955
  57 C :   -0.190157
  58 N :    0.190103
  59 C :   -0.178838
  60 N :    0.184712
  61 C :    0.022148
  62 C :   -0.114681
  63 S :    0.205413
  64 C :    0.031933
  65 C :   -0.100011
  66 C :    0.308463
  67 C :   -0.348004
  68 C :   -0.182069
  69 N :    0.145855
  70 C :   -0.206246
  71 N :    0.154996
  72 C :    0.048702
  73 C :   -0.005646
  74 C :    0.157773
  75 O :   -0.152940
  76 C :   -0.082245
  77 C :    0.098653
  78 C :    0.098107
  79 C :   -0.085146
  80 C :   -0.019377
  81 C :    0.034501
  82 C :    0.036686
  83 C :   -0.016169
  84 H :   -0.013070
  85 H :   -0.000924
  86 H :   -0.010040
  87 H :   -0.004266
  88 H :   -0.004689
  89 H :   -0.018509
  90 H :    0.020227
  91 H :    0.026097
  92 H :    0.017675
  93 H :   -0.008779
  94 H :   -0.008458
  95 H :    0.026788
  96 H :    0.033343
  97 H :    0.026167
  98 H :    0.035097
  99 H :    0.027545
 100 H :    0.026618
 101 H :    0.017447
 102 H :    0.036507
 103 H :    0.018309
 104 H :   -0.011172
 105 H :   -0.008624
 106 H :   -0.009764
 107 H :   -0.004547
 108 H :   -0.005192
 109 H :   -0.017434
Sum of atomic charges:   -0.0000000

LOEWDIN ATOMIC CHARGES
----------------------
   0 C :    0.066483
   1 C :   -0.138723
   2 C :   -0.018183
   3 N :   -0.048509
   4 C :   -0.015502
   5 N :   -0.048981
   6 C :   -0.022784
   7 C :   -0.057553
   8 C :    0.032322
   9 C :   -0.009294
  10 C :   -0.005229
  11 C :    0.018391
  12 C :   -0.005249
  13 C :   -0.013154
  14 C :   -0.013516
  15 C :   -0.009604
  16 C :    0.083165
  17 O :   -0.146724
  18 C :   -0.092577
  19 C :    0.041938
  20 C :   -0.182052
  21 C :    0.010963
  22 C :   -0.067589
  23 C :   -0.156450
  24 S :    0.498305
  25 C :   -0.184528
  26 C :   -0.062007
  27 C :    0.086403
  28 C :   -0.101071
  29 C :   -0.003265
  30 N :   -0.029851
  31 C :   -0.014218
  32 N :   -0.032669
  33 C :   -0.020694
  34 C :   -0.146726
  35 S :    0.475524
  36 C :   -0.034934
  37 C :   -0.023236
  38 C :   -0.021162
  39 C :   -0.038516
  40 C :   -0.000419
  41 C :   -0.001231
  42 N :   -0.037529
  43 C :    0.013061
  44 C :    0.013500
  45 N :   -0.038325
  46 C :   -0.055244
  47 C :   -0.054801
  48 C :   -0.142153
  49 C :   -0.023658
  50 C :   -0.058030
  51 C :   -0.190677
  52 S :    0.474416
  53 C :   -0.155834
  54 C :   -0.076537
  55 C :    0.080476
  56 C :   -0.097888
  57 C :   -0.021570
  58 N :   -0.019170
  59 C :   -0.001894
  60 N :   -0.030015
  61 C :    0.023190
  62 C :   -0.178322
  63 S :    0.493765
  64 C :    0.042841
  65 C :   -0.096799
  66 C :    0.076815
  67 C :   -0.144757
  68 C :   -0.017571
  69 N :   -0.056248
  70 C :   -0.025383
  71 N :   -0.056606
  72 C :   -0.026363
  73 C :   -0.054725
  74 C :    0.085041
  75 O :   -0.140553
  76 C :    0.032767
  77 C :   -0.008276
  78 C :   -0.006446
  79 C :    0.018944
  80 C :   -0.005761
  81 C :   -0.014026
  82 C :   -0.012721
  83 C :   -0.009263
  84 H :    0.038936
  85 H :    0.040174
  86 H :    0.034773
  87 H :    0.033267
  88 H :    0.032690
  89 H :    0.031449
  90 H :    0.045336
  91 H :    0.043140
  92 H :    0.036340
  93 H :    0.022886
  94 H :    0.022955
  95 H :    0.040760
  96 H :    0.037045
  97 H :    0.040630
  98 H :    0.037666
  99 H :    0.041162
 100 H :    0.040535
 101 H :    0.036199
 102 H :    0.045007
 103 H :    0.043330
 104 H :    0.039708
 105 H :    0.038761
 106 H :    0.034477
 107 H :    0.033070
 108 H :    0.032753
 109 H :    0.031987

  Mayer bond orders larger than 0.100000
B(  0-C ,  1-C ) :   1.6452 B(  0-C ,  6-C ) :   0.9959 B(  0-C , 18-C ) :   1.0388
B(  1-C ,  2-C ) :   1.1273 B(  1-C ,  4-C ) :   1.1728 B(  2-C ,  3-N ) :   2.9908
B(  4-C ,  5-N ) :   2.9944 B(  6-C ,  7-C ) :   1.2144 B(  6-C , 11-C ) :   1.4607
B(  7-C ,  8-C ) :   1.4738 B(  7-C , 16-C ) :   0.9229 B(  8-C ,  9-C ) :   1.1843
B(  8-C , 84-H ) :   1.0158 B(  9-C , 10-C ) :   1.2559 B(  9-C , 15-C ) :   1.2449
B( 10-C , 11-C ) :   1.2046 B( 10-C , 12-C ) :   1.2442 B( 11-C , 85-H ) :   0.9933
B( 12-C , 13-C ) :   1.4890 B( 12-C , 86-H ) :   0.9969 B( 13-C , 14-C ) :   1.2601
B( 13-C , 87-H ) :   0.9886 B( 14-C , 15-C ) :   1.4890 B( 14-C , 88-H ) :   0.9892
B( 15-C , 89-H ) :   0.9972 B( 16-C , 17-O ) :   2.2634 B( 16-C , 18-C ) :   0.9430
B( 18-C , 19-C ) :   1.6649 B( 19-C , 20-C ) :   1.1400 B( 19-C , 90-H ) :   0.9264
B( 20-C , 21-C ) :   1.3913 B( 20-C , 24-S ) :   1.0870 B( 21-C , 22-C ) :   1.3603
B( 21-C , 91-H ) :   0.9799 B( 22-C , 23-C ) :   1.4092 B( 22-C , 27-C ) :   0.9943
B( 23-C , 24-S ) :   1.1560 B( 23-C , 25-C ) :   1.1884 B( 25-C , 26-C ) :   1.4320
B( 25-C , 35-S ) :   1.1216 B( 26-C , 27-C ) :   1.0012 B( 26-C , 33-C ) :   1.2216
B( 27-C , 28-C ) :   1.7138 B( 28-C , 29-C ) :   1.1411 B( 28-C , 31-C ) :   1.1315
B( 29-C , 30-N ) :   2.9800 B( 31-C , 32-N ) :   2.9855 B( 33-C , 34-C ) :   1.4838
B( 33-C , 92-H ) :   0.9807 B( 34-C , 35-S ) :   1.0968 B( 34-C , 36-C ) :   1.1155
B( 36-C , 37-C ) :   1.3766 B( 36-C , 39-C ) :   0.1227 B( 36-C , 41-C ) :   1.2155
B( 37-C , 38-C ) :   1.3215 B( 37-C , 93-H ) :   0.9859 B( 38-C , 39-C ) :   1.3751
B( 38-C , 94-H ) :   0.9861 B( 39-C , 40-C ) :   1.2157 B( 39-C , 48-C ) :   1.1152
B( 40-C , 41-C ) :   1.2635 B( 40-C , 45-N ) :   1.4424 B( 41-C , 42-N ) :   1.4420
B( 42-N , 43-C ) :   1.6650 B( 43-C , 44-C ) :   1.1588 B( 43-C , 47-C ) :   1.0974
B( 44-C , 45-N ) :   1.6651 B( 44-C , 46-C ) :   1.0977 B( 46-C , 95-H ) :   0.9329
B( 46-C , 96-H ) :   0.9287 B( 46-C , 97-H ) :   0.9319 B( 47-C , 98-H ) :   0.9303
B( 47-C , 99-H ) :   0.9328 B( 47-C ,100-H ) :   0.9336 B( 48-C , 49-C ) :   1.4798
B( 48-C , 52-S ) :   1.1001 B( 49-C , 50-C ) :   1.2221 B( 49-C ,101-H ) :   0.9809
B( 50-C , 51-C ) :   1.4287 B( 50-C , 55-C ) :   1.0005 B( 51-C , 52-S ) :   1.1156
B( 51-C , 53-C ) :   1.1972 B( 53-C , 54-C ) :   1.3796 B( 53-C , 63-S ) :   1.1681
B( 54-C , 55-C ) :   0.9918 B( 54-C , 61-C ) :   1.3324 B( 55-C , 56-C ) :   1.7122
B( 56-C , 57-C ) :   1.1307 B( 56-C , 59-C ) :   1.1446 B( 57-C , 58-N ) :   2.9974
B( 59-C , 60-N ) :   2.9777 B( 61-C , 62-C ) :   1.4005 B( 61-C ,102-H ) :   0.9730
B( 62-C , 63-S ) :   1.0717 B( 62-C , 64-C ) :   1.2079 B( 64-C , 65-C ) :   1.5914
B( 64-C ,103-H ) :   0.9217 B( 65-C , 66-C ) :   1.0762 B( 65-C , 74-C ) :   0.9431
B( 66-C , 67-C ) :   1.6265 B( 66-C , 72-C ) :   0.9875 B( 67-C , 68-C ) :   1.1466
B( 67-C , 70-C ) :   1.1396 B( 68-C , 69-N ) :   2.9660 B( 70-C , 71-N ) :   2.9905
B( 72-C , 73-C ) :   1.2126 B( 72-C , 79-C ) :   1.4515 B( 73-C , 74-C ) :   0.9474
B( 73-C , 76-C ) :   1.4749 B( 74-C , 75-O ) :   2.1872 B( 76-C , 77-C ) :   1.1763
B( 76-C ,104-H ) :   1.0163 B( 77-C , 78-C ) :   1.2541 B( 77-C , 83-C ) :   1.2472
B( 78-C , 79-C ) :   1.2052 B( 78-C , 80-C ) :   1.2409 B( 79-C ,105-H ) :   0.9900
B( 80-C , 81-C ) :   1.4884 B( 80-C ,106-H ) :   0.9969 B( 81-C , 82-C ) :   1.2598
B( 81-C ,107-H ) :   0.9890 B( 82-C , 83-C ) :   1.4881 B( 82-C ,108-H ) :   0.9888
B( 83-C ,109-H ) :   0.9970

-----------------------------------------------------------------------------
         ABSORPTION SPECTRUM VIA TRANSITION ELECTRIC DIPOLE MOMENTS
-----------------------------------------------------------------------------
State   Energy  Wavelength   fosc         T2         TX        TY        TZ
        (cm-1)    (nm)                  (au**2)     (au)      (au)      (au)
-----------------------------------------------------------------------------
   0   12591.1    794.2   0.773074357  20.21314   1.09859  -4.35686   0.15505
   1   13530.6    739.1   0.050523639   1.22928   0.09342  -0.98639  -0.49757
   2   19056.9    524.7   1.874660270  32.38512  -1.62584   5.45341  -0.04571
   3   20813.4    480.5   0.286229438   4.52739   0.10603   1.93224   0.88465
   4   21590.5    463.2   0.017499476   0.26683   0.02636   0.44311   0.26418
   5   22989.4    435.0   0.084615756   1.21171  -0.50073   0.76867   0.60838
   6   24762.6    403.8   0.108147341   1.43779   0.10363  -1.02437   0.61458
   7   25495.8    392.2   0.024264084   0.31331   0.07528   0.54743  -0.08923
   8   25597.8    390.7   0.119414594   1.53578   0.17651   1.19237  -0.28789
   9   27227.4    367.3   0.002220606   0.02685  -0.03404   0.00824  -0.16007
  10   27340.2    365.8   0.002052036   0.02471  -0.15171   0.00692  -0.04058
  11   27721.5    360.7   0.014231040   0.16900   0.05746  -0.05828  -0.40287
  12   27999.8    357.1   0.016592972   0.19509  -0.30669  -0.18097   0.26132
  13   28321.1    353.1   0.028490295   0.33118  -0.05457   0.45296  -0.35075
  14   28513.2    350.7   0.007221149   0.08338   0.16754   0.23391  -0.02434
  15   28988.8    345.0   0.019870941   0.22567  -0.17184   0.34588  -0.27659
  16   29105.8    343.6   0.037494334   0.42409  -0.45835  -0.45116   0.10232
  17   29396.4    340.2   0.080482396   0.90133  -0.37484   0.00007   0.87225
  18   29715.8    336.5   0.095551887   1.05859   0.43187  -0.33389   0.87212
  19   29986.4    333.5   0.105197518   1.15493   0.07388  -0.19605  -1.05406
  20   30241.1    330.7   0.032426695   0.35301  -0.21381   0.54939  -0.07393
  21   30471.2    328.2   0.192680340   2.08173  -0.09807  -1.43694  -0.08546
  22   30612.2    326.7   0.388364347   4.17658  -0.17291  -2.01330   0.30545
  23   30678.2    326.0   0.182196598   1.95518   0.03488  -1.39746  -0.03260
  24   30700.8    325.7   0.014085850   0.15105  -0.01804  -0.37912  -0.08362
  25   31184.0    320.7   0.616567894   6.50916  -0.03289   0.53233  -2.49493
  26   31717.0    315.3   0.188549565   1.95708   0.50014  -1.30265  -0.10024
  27   31996.3    312.5   0.026755809   0.27529  -0.22413   0.47403  -0.01879
  28   32066.0    311.9   0.006855886   0.07039  -0.05925   0.25351  -0.05106
  29   32187.3    310.7   0.373330983   3.81844   0.01810  -1.86808  -0.57303
  30   32527.0    307.4   0.079035868   0.79994  -0.10612  -0.60053   0.65425
  31   32674.3    306.1   0.192414999   1.93869  -0.27770  -1.28027   0.47169
  32   33145.2    301.7   0.048846072   0.48516   0.02792  -0.69194   0.07486
  33   33614.0    297.5   0.009696530   0.09497   0.00634  -0.25065   0.17917
  34   33835.8    295.5   0.024190127   0.23536  -0.16425   0.37994   0.25304
  35   33967.6    294.4   0.027104567   0.26270  -0.06434  -0.50525  -0.05731
  36   34135.2    293.0   0.420140969   4.05199  -0.38656  -1.97244   0.10966
  37   34293.7    291.6   0.021056324   0.20214  -0.31127  -0.24578   0.21176
  38   34589.8    289.1   0.008313062   0.07912  -0.11229  -0.07454  -0.24689
  39   34665.8    288.5   0.696768255   6.61703   0.44797   1.36023  -2.13685
  40   34923.9    286.3   0.059496285   0.56084   0.60827  -0.34404  -0.26923
  41   35092.3    285.0   0.218283783   2.04779  -0.34410  -1.38855  -0.03646
  42   35255.6    283.6   0.039601285   0.36979  -0.39955  -0.23102  -0.39596
  43   35352.6    282.9   0.068398805   0.63695   0.57392  -0.23346  -0.50304
  44   35636.5    280.6   0.085810028   0.79272  -0.27435   0.09974   0.84113
  45   36024.7    277.6   0.177636377   1.62333  -0.17908   1.23659  -0.24920
  46   36466.3    274.2   0.064348484   0.58093  -0.09190  -0.74962  -0.10276
  47   36600.1    273.2   0.037846971   0.34043  -0.23817  -0.51709   0.12774
  48   36761.4    272.0   0.003568449   0.03196  -0.04689  -0.07164  -0.15693
  49   37164.3    269.1   0.063380951   0.56145   0.13166  -0.58810  -0.44525
  50   37283.9    268.2   0.230049008   2.03130   0.02258   0.32858  -1.38666
  51   37662.1    265.5   0.095237899   0.83249   0.17444   0.64786  -0.61834
  52   37795.9    264.6   0.101263080   0.88203  -0.23859   0.42298   0.80386
  53   38044.9    262.8   0.035889946   0.31056   0.13600  -0.44511  -0.30650
  54   38288.7    261.2   0.007603986   0.06538   0.17605  -0.14547  -0.11500
  55   38534.2    259.5   0.031855001   0.27215  -0.05725   0.49320   0.16008
  56   38777.2    257.9   0.052505580   0.44576   0.37435   0.02568  -0.55224
  57   39190.3    255.2   0.029560572   0.24832  -0.01289  -0.42299  -0.26312
  58   39335.7    254.2   0.037305885   0.31222  -0.00511  -0.53483   0.16173
  59   39600.1    252.5   0.177289420   1.47388   0.64507  -0.57355  -0.85370
  60   39697.4    251.9   0.002712685   0.02250   0.12787  -0.05456   0.05629
  61   39788.6    251.3   0.109579537   0.90666  -0.05343   0.29205  -0.90472
  62   39805.1    251.2   0.147748798   1.22197  -0.30660  -0.02160   1.06184
  63   40070.8    249.6   0.078275499   0.64309  -0.02861  -0.26886   0.75497
  64   40189.5    248.8   0.047824714   0.39176  -0.19410  -0.26731  -0.53162

FINAL SINGLE POINT ENERGY     -4892.789490056060

DIPOLE MOMENT
-------------
                                X             Y             Z
Electronic contribution:     -4.72154       2.68133      26.41968
Nuclear contribution   :      5.07010      -3.65260     -25.88149
                        -----------------------------------------
Total Dipole Moment    :      0.34856      -0.97127       0.53819
                        -----------------------------------------
Magnitude (a.u.)       :      1.16384
Magnitude (Debye)      :      2.95824

Rotational constants in cm-1:     0.002540     0.000139     0.000134
Rotational constants in MHz :    76.133401     4.154589     4.005098

                             ****ORCA TERMINATED NORMALLY****
TOTAL RUN TIME: 0 days 0 hours 13 minutes 58 seconds 28 msec
