                         Program Version 4.2.0 -  RELEASE  -
|  1> # ORCA input file
|  2> # SCF done       -205.642102507532          0.000943685550
|  3> ! CAM-B3LYP def2-SVP def2/J RIJCOSX Grid4 TightSCF
|  4> %maxcore 5000
|  5> %tddft
|  6>     Mode sTDDFT
|  7>     Ethresh 5.0
|  8>     maxcore 5000
|  9> end
| 10>
| 11> %pal
| 12>   nprocs 6
| 13>   end
| 14> * xyz 0 1
| 15>    C        9.09029         6.07312        -3.17248
| 16>    C        9.73156         5.41864        -4.18842
| 17>    C       10.63785         4.35417        -3.99250
| 18>    N       11.38663         3.48999        -3.89849
| 19>    C        9.60444         5.74408        -5.55533
| 20>    N        9.53508         5.96463        -6.67976
| 21>    C        9.21260         5.78288        -1.75046
| 22>    C        8.53739         6.79786        -1.01050
| 23>    C        8.47682         6.77503         0.35368
| 24>    C        9.07290         5.70268         1.05135
| 25>    C        9.73501         4.67532         0.31797
| 26>    C        9.80306         4.73662        -1.09135
| 27>    C       10.31075         3.60019         1.02448
| 28>    C       10.23597         3.54028         2.38926
| 29>    C        9.58558         4.55299         3.11011
| 30>    C        9.01708         5.61167         2.45557
| 31>    C        7.93280         7.75775        -1.94108
| 32>    O        7.41919         8.82612        -1.68356
| 33>    C        8.15704         7.18316        -3.30333
| 34>    C        7.52145         7.62657        -4.41571
| 35>    C        6.47087         8.60080        -4.38449
| 36>    C        6.40972         9.67789        -5.21482
| 37>    C        5.39575        10.58550        -4.71680
| 38>    C        5.09078        11.83137        -5.28423
| 39>    N        4.83345        12.84991        -5.74547
| 40>    C        4.81416        10.04209        -3.60659
| 41>    C        5.37257         8.73123        -3.39340
| 42>    C        4.89942         7.74996        -2.56120
| 43>    C        4.01116         7.94505        -1.39197
| 44>    C        4.33533         6.97474        -0.48693
| 45>    C        5.24348         6.03751        -1.10702
| 46>    C        5.51706         6.45883        -2.37979
| 47>    C        5.78894         4.90850        -0.48149
| 48>    N        6.27649         4.01339         0.04709
| 49>    C        2.95749         8.89258        -1.20235
| 50>    C        2.17798         9.35710        -2.20121
| 51>    C        1.07941        10.27967        -2.08954
| 52>    O        0.52742        10.51663        -3.32664
| 53>    C       -0.50144        11.39345        -3.45218
| 54>    C       -1.06440        11.65700        -4.66719
| 55>    F       -0.70808        11.11677        -5.82851
| 56>    S       -2.36367        12.79460        -4.59866
| 57>    C        0.65905        10.84259        -0.94062
| 58>    S       -0.63088        11.99937        -0.74590
| 59>    C       -1.12986        12.14213        -2.42219
| 60>    C       -2.16916        12.92889        -2.86097
| 61>    C       -2.94743        13.85890        -2.10134
| 62>    C       -2.52544        14.58349        -1.02839
| 63>    C       -3.55221        15.54927        -0.69510
| 64>    C       -3.47450        16.43041         0.39270
| 65>    N       -3.40214        17.14190         1.28993
| 66>    C       -4.58082        15.44881        -1.59338
| 67>    C       -4.30000        14.34317        -2.46294
| 68>    C       -5.20431        13.71621        -3.28032
| 69>    C       -6.45264        14.28929        -3.83363
| 70>    C       -7.14945        13.26231        -4.41220
| 71>    C       -6.39881        12.04072        -4.24361
| 72>    C       -5.21664        12.31885        -3.60707
| 73>    C       -6.83166        10.77553        -4.66688
| 74>    N       -7.18591         9.74117        -5.01479
| 75>    C       -6.75675        15.67652        -3.88690
| 76>    C       -7.97509        16.18609        -4.21400
| 77>    C       -8.20169        17.58004        -4.25544
| 78>    C       -9.39900        18.16939        -4.54885
| 79>    C       -9.68183        19.59279        -4.58655
| 80>    C       -8.78632        20.61633        -4.40751
| 81>    C       -9.12617        21.98458        -4.46754
| 82>    N       -9.33230        23.11349        -4.49835
| 83>    C       -7.40742        20.46869        -4.15088
| 84>    N       -6.27758        20.43256        -3.94697
| 85>    C      -11.10399        19.75574        -4.86716
| 86>    C      -11.68733        18.46724        -5.03532
| 87>    C      -10.65490        17.43353        -4.85873
| 88>    O      -10.80842        16.23289        -4.94754
| 89>    C      -13.01466        18.30512        -5.31055
| 90>    C      -13.83847        19.44653        -5.42840
| 91>    C      -13.26447        20.73941        -5.25664
| 92>    C      -11.88574        20.87582        -4.97568
| 93>    C      -14.09598        21.87208        -5.37141
| 94>    C      -15.43013        21.73611        -5.64340
| 95>    C      -15.99388        20.46271        -5.81354
| 96>    C      -15.21504        19.34221        -5.70848
| 97>    H        7.96226         7.55752         0.89207
| 98>    H       10.30764         3.94276        -1.61912
| 99>    H       10.80935         2.82250         0.46518
|100>    H       10.67622         2.71063         2.92158
|101>    H        9.53530         4.48891         4.18675
|102>    H        8.51348         6.39344         3.00520
|103>    H        7.83370         7.28521        -5.39462
|104>    H        7.06290         9.89158        -6.04053
|105>    H        4.04835        10.50095        -3.01528
|106>    H        3.92727         6.85539         0.49961
|107>    H        6.09244         5.92499        -3.10878
|108>    H        2.73344         9.14092        -0.17377
|109>    H        2.34865         9.02157        -3.21550
|110>    H        1.13728        10.61139        -0.00691
|111>    H       -1.58073        14.51894        -0.52442
|112>    H       -5.50313        15.99436        -1.55181
|113>    H       -8.08049        13.32653        -4.94243
|114>    H       -4.49571        11.59544        -3.27949
|115>    H       -5.95123        16.36576        -3.66730
|116>    H       -8.80571        15.53130        -4.42736
|117>    H       -7.35251        18.21120        -4.02543
|118>    H      -13.43115        17.31646        -5.43476
|119>    H      -11.48405        21.86860        -4.85037
|120>    H      -13.65726        22.85031        -5.24002
|121>    H      -16.05884        22.60964        -5.72899
|122>    H      -17.04836        20.37405        -6.02796
|123>    H      -15.64356        18.35916        -5.83816
|124> *
|125>
|126>                          ****END OF INPUT****

CARTESIAN COORDINATES (ANGSTROEM)
---------------------------------
  C      9.090290    6.073120   -3.172480
  C      9.731560    5.418640   -4.188420
  C     10.637850    4.354170   -3.992500
  N     11.386630    3.489990   -3.898490
  C      9.604440    5.744080   -5.555330
  N      9.535080    5.964630   -6.679760
  C      9.212600    5.782880   -1.750460
  C      8.537390    6.797860   -1.010500
  C      8.476820    6.775030    0.353680
  C      9.072900    5.702680    1.051350
  C      9.735010    4.675320    0.317970
  C      9.803060    4.736620   -1.091350
  C     10.310750    3.600190    1.024480
  C     10.235970    3.540280    2.389260
  C      9.585580    4.552990    3.110110
  C      9.017080    5.611670    2.455570
  C      7.932800    7.757750   -1.941080
  O      7.419190    8.826120   -1.683560
  C      8.157040    7.183160   -3.303330
  C      7.521450    7.626570   -4.415710
  C      6.470870    8.600800   -4.384490
  C      6.409720    9.677890   -5.214820
  C      5.395750   10.585500   -4.716800
  C      5.090780   11.831370   -5.284230
  N      4.833450   12.849910   -5.745470
  C      4.814160   10.042090   -3.606590
  C      5.372570    8.731230   -3.393400
  C      4.899420    7.749960   -2.561200
  C      4.011160    7.945050   -1.391970
  C      4.335330    6.974740   -0.486930
  C      5.243480    6.037510   -1.107020
  C      5.517060    6.458830   -2.379790
  C      5.788940    4.908500   -0.481490
  N      6.276490    4.013390    0.047090
  C      2.957490    8.892580   -1.202350
  C      2.177980    9.357100   -2.201210
  C      1.079410   10.279670   -2.089540
  O      0.527420   10.516630   -3.326640
  C     -0.501440   11.393450   -3.452180
  C     -1.064400   11.657000   -4.667190
  F     -0.708080   11.116770   -5.828510
  S     -2.363670   12.794600   -4.598660
  C      0.659050   10.842590   -0.940620
  S     -0.630880   11.999370   -0.745900
  C     -1.129860   12.142130   -2.422190
  C     -2.169160   12.928890   -2.860970
  C     -2.947430   13.858900   -2.101340
  C     -2.525440   14.583490   -1.028390
  C     -3.552210   15.549270   -0.695100
  C     -3.474500   16.430410    0.392700
  N     -3.402140   17.141900    1.289930
  C     -4.580820   15.448810   -1.593380
  C     -4.300000   14.343170   -2.462940
  C     -5.204310   13.716210   -3.280320
  C     -6.452640   14.289290   -3.833630
  C     -7.149450   13.262310   -4.412200
  C     -6.398810   12.040720   -4.243610
  C     -5.216640   12.318850   -3.607070
  C     -6.831660   10.775530   -4.666880
  N     -7.185910    9.741170   -5.014790
  C     -6.756750   15.676520   -3.886900
  C     -7.975090   16.186090   -4.214000
  C     -8.201690   17.580040   -4.255440
  C     -9.399000   18.169390   -4.548850
  C     -9.681830   19.592790   -4.586550
  C     -8.786320   20.616330   -4.407510
  C     -9.126170   21.984580   -4.467540
  N     -9.332300   23.113490   -4.498350
  C     -7.407420   20.468690   -4.150880
  N     -6.277580   20.432560   -3.946970
  C    -11.103990   19.755740   -4.867160
  C    -11.687330   18.467240   -5.035320
  C    -10.654900   17.433530   -4.858730
  O    -10.808420   16.232890   -4.947540
  C    -13.014660   18.305120   -5.310550
  C    -13.838470   19.446530   -5.428400
  C    -13.264470   20.739410   -5.256640
  C    -11.885740   20.875820   -4.975680
  C    -14.095980   21.872080   -5.371410
  C    -15.430130   21.736110   -5.643400
  C    -15.993880   20.462710   -5.813540
  C    -15.215040   19.342210   -5.708480
  H      7.962260    7.557520    0.892070
  H     10.307640    3.942760   -1.619120
  H     10.809350    2.822500    0.465180
  H     10.676220    2.710630    2.921580
  H      9.535300    4.488910    4.186750
  H      8.513480    6.393440    3.005200
  H      7.833700    7.285210   -5.394620
  H      7.062900    9.891580   -6.040530
  H      4.048350   10.500950   -3.015280
  H      3.927270    6.855390    0.499610
  H      6.092440    5.924990   -3.108780
  H      2.733440    9.140920   -0.173770
  H      2.348650    9.021570   -3.215500
  H      1.137280   10.611390   -0.006910
  H     -1.580730   14.518940   -0.524420
  H     -5.503130   15.994360   -1.551810
  H     -8.080490   13.326530   -4.942430
  H     -4.495710   11.595440   -3.279490
  H     -5.951230   16.365760   -3.667300
  H     -8.805710   15.531300   -4.427360
  H     -7.352510   18.211200   -4.025430
  H    -13.431150   17.316460   -5.434760
  H    -11.484050   21.868600   -4.850370
  H    -13.657260   22.850310   -5.240020
  H    -16.058840   22.609640   -5.728990
  H    -17.048360   20.374050   -6.027960
  H    -15.643560   18.359160   -5.838160

 Total Charge           Charge          ....    0
 Multiplicity           Mult            ....    1
 Number of Electrons    NEL             ....  556
 Basis Dimension        Dim             .... 1291

ORBITAL ENERGIES
----------------

  NO   OCC          E(Eh)            E(eV)
   0   2.0000     -88.991304     -2421.5765
   1   2.0000     -88.974793     -2421.1272
   2   2.0000     -24.817096      -675.3075
   3   2.0000     -19.295799      -525.0654
   4   2.0000     -19.229041      -523.2488
   5   2.0000     -19.220472      -523.0156
   6   2.0000     -14.426586      -392.5674
   7   2.0000     -14.423425      -392.4814
   8   2.0000     -14.423134      -392.4734
   9   2.0000     -14.422886      -392.4667
  10   2.0000     -14.421647      -392.4330
  11   2.0000     -14.419744      -392.3812
  12   2.0000     -14.419598      -392.3772
  13   2.0000     -14.416387      -392.2898
  14   2.0000     -10.398953      -282.9699
  15   2.0000     -10.379433      -282.4387
  16   2.0000     -10.370941      -282.2077
  17   2.0000     -10.369710      -282.1742
  18   2.0000     -10.369364      -282.1647
  19   2.0000     -10.353524      -281.7337
  20   2.0000     -10.351568      -281.6805
  21   2.0000     -10.345091      -281.5042
  22   2.0000     -10.344698      -281.4935
  23   2.0000     -10.343249      -281.4541
  24   2.0000     -10.342262      -281.4273
  25   2.0000     -10.339928      -281.3638
  26   2.0000     -10.339578      -281.3542
  27   2.0000     -10.338988      -281.3382
  28   2.0000     -10.338853      -281.3345
  29   2.0000     -10.336344      -281.2662
  30   2.0000     -10.334483      -281.2156
  31   2.0000     -10.333818      -281.1975
  32   2.0000     -10.332550      -281.1630
  33   2.0000     -10.331692      -281.1396
  34   2.0000     -10.328552      -281.0542
  35   2.0000     -10.325006      -280.9577
  36   2.0000     -10.323735      -280.9231
  37   2.0000     -10.322503      -280.8896
  38   2.0000     -10.321578      -280.8644
  39   2.0000     -10.321397      -280.8595
  40   2.0000     -10.320780      -280.8427
  41   2.0000     -10.319891      -280.8185
  42   2.0000     -10.319457      -280.8067
  43   2.0000     -10.319271      -280.8016
  44   2.0000     -10.317905      -280.7645
  45   2.0000     -10.317903      -280.7644
  46   2.0000     -10.317550      -280.7548
  47   2.0000     -10.316894      -280.7370
  48   2.0000     -10.316568      -280.7281
  49   2.0000     -10.315712      -280.7048
  50   2.0000     -10.315387      -280.6959
  51   2.0000     -10.313580      -280.6468
  52   2.0000     -10.313561      -280.6463
  53   2.0000     -10.313350      -280.6405
  54   2.0000     -10.312459      -280.6163
  55   2.0000     -10.310814      -280.5715
  56   2.0000     -10.310433      -280.5611
  57   2.0000     -10.310135      -280.5530
  58   2.0000     -10.309063      -280.5239
  59   2.0000     -10.307886      -280.4918
  60   2.0000     -10.305686      -280.4320
  61   2.0000     -10.305066      -280.4151
  62   2.0000     -10.303420      -280.3703
  63   2.0000     -10.303197      -280.3642
  64   2.0000     -10.302830      -280.3542
  65   2.0000     -10.301819      -280.3267
  66   2.0000     -10.301228      -280.3107
  67   2.0000     -10.299914      -280.2749
  68   2.0000     -10.299637      -280.2674
  69   2.0000     -10.299008      -280.2502
  70   2.0000     -10.298729      -280.2427
  71   2.0000     -10.296887      -280.1926
  72   2.0000     -10.295211      -280.1469
  73   2.0000     -10.290736      -280.0252
  74   2.0000     -10.289621      -279.9948
  75   2.0000     -10.288965      -279.9770
  76   2.0000     -10.288704      -279.9699
  77   2.0000     -10.288344      -279.9601
  78   2.0000     -10.288156      -279.9549
  79   2.0000     -10.287852      -279.9467
  80   2.0000     -10.287805      -279.9454
  81   2.0000     -10.287333      -279.9326
  82   2.0000      -8.086726      -220.0510
  83   2.0000      -8.069841      -219.5915
  84   2.0000      -6.056164      -164.7966
  85   2.0000      -6.052382      -164.6937
  86   2.0000      -6.048032      -164.5753
  87   2.0000      -6.040244      -164.3634
  88   2.0000      -6.035822      -164.2431
  89   2.0000      -6.029861      -164.0809
  90   2.0000      -1.332946       -36.2713
  91   2.0000      -1.205823       -32.8121
  92   2.0000      -1.144395       -31.1406
  93   2.0000      -1.134713       -30.8771
  94   2.0000      -1.036446       -28.2031
  95   2.0000      -1.029244       -28.0072
  96   2.0000      -1.025623       -27.9086
  97   2.0000      -1.020785       -27.7770
  98   2.0000      -1.020245       -27.7623
  99   2.0000      -1.013547       -27.5800
 100   2.0000      -1.013127       -27.5686
 101   2.0000      -1.006869       -27.3983
 102   2.0000      -1.002535       -27.2804
 103   2.0000      -1.001190       -27.2438
 104   2.0000      -1.000422       -27.2229
 105   2.0000      -0.999783       -27.2055
 106   2.0000      -0.996131       -27.1061
 107   2.0000      -0.991625       -26.9835
 108   2.0000      -0.990341       -26.9485
 109   2.0000      -0.977300       -26.5937
 110   2.0000      -0.973934       -26.5021
 111   2.0000      -0.956204       -26.0196
 112   2.0000      -0.937303       -25.5053
 113   2.0000      -0.932481       -25.3741
 114   2.0000      -0.928997       -25.2793
 115   2.0000      -0.922538       -25.1035
 116   2.0000      -0.918033       -24.9809
 117   2.0000      -0.900677       -24.5087
 118   2.0000      -0.898397       -24.4466
 119   2.0000      -0.892255       -24.2795
 120   2.0000      -0.889382       -24.2013
 121   2.0000      -0.886230       -24.1156
 122   2.0000      -0.884687       -24.0736
 123   2.0000      -0.883117       -24.0308
 124   2.0000      -0.879400       -23.9297
 125   2.0000      -0.870818       -23.6962
 126   2.0000      -0.841751       -22.9052
 127   2.0000      -0.839763       -22.8511
 128   2.0000      -0.833596       -22.6833
 129   2.0000      -0.831556       -22.6278
 130   2.0000      -0.830324       -22.5943
 131   2.0000      -0.824372       -22.4323
 132   2.0000      -0.814946       -22.1758
 133   2.0000      -0.810482       -22.0543
 134   2.0000      -0.796276       -21.6678
 135   2.0000      -0.794508       -21.6197
 136   2.0000      -0.790931       -21.5223
 137   2.0000      -0.770178       -20.9576
 138   2.0000      -0.765742       -20.8369
 139   2.0000      -0.764362       -20.7993
 140   2.0000      -0.743304       -20.2263
 141   2.0000      -0.738548       -20.0969
 142   2.0000      -0.735291       -20.0083
 143   2.0000      -0.731108       -19.8944
 144   2.0000      -0.727094       -19.7852
 145   2.0000      -0.710521       -19.3343
 146   2.0000      -0.708771       -19.2866
 147   2.0000      -0.706591       -19.2273
 148   2.0000      -0.705282       -19.1917
 149   2.0000      -0.703957       -19.1557
 150   2.0000      -0.699405       -19.0318
 151   2.0000      -0.697303       -18.9746
 152   2.0000      -0.684687       -18.6313
 153   2.0000      -0.683607       -18.6019
 154   2.0000      -0.672041       -18.2872
 155   2.0000      -0.669516       -18.2185
 156   2.0000      -0.661157       -17.9910
 157   2.0000      -0.657297       -17.8860
 158   2.0000      -0.653968       -17.7954
 159   2.0000      -0.652623       -17.7588
 160   2.0000      -0.643023       -17.4976
 161   2.0000      -0.640753       -17.4358
 162   2.0000      -0.636069       -17.3083
 163   2.0000      -0.624189       -16.9850
 164   2.0000      -0.621198       -16.9037
 165   2.0000      -0.617609       -16.8060
 166   2.0000      -0.615706       -16.7542
 167   2.0000      -0.612062       -16.6551
 168   2.0000      -0.611910       -16.6509
 169   2.0000      -0.610804       -16.6208
 170   2.0000      -0.608583       -16.5604
 171   2.0000      -0.608053       -16.5460
 172   2.0000      -0.595379       -16.2011
 173   2.0000      -0.593352       -16.1459
 174   2.0000      -0.589872       -16.0512
 175   2.0000      -0.587130       -15.9766
 176   2.0000      -0.569517       -15.4973
 177   2.0000      -0.568595       -15.4723
 178   2.0000      -0.558509       -15.1978
 179   2.0000      -0.556840       -15.1524
 180   2.0000      -0.556603       -15.1459
 181   2.0000      -0.555426       -15.1139
 182   2.0000      -0.551831       -15.0161
 183   2.0000      -0.548738       -14.9319
 184   2.0000      -0.547473       -14.8975
 185   2.0000      -0.545178       -14.8350
 186   2.0000      -0.542509       -14.7624
 187   2.0000      -0.540415       -14.7054
 188   2.0000      -0.539467       -14.6796
 189   2.0000      -0.538436       -14.6516
 190   2.0000      -0.537218       -14.6185
 191   2.0000      -0.535290       -14.5660
 192   2.0000      -0.530149       -14.4261
 193   2.0000      -0.529009       -14.3951
 194   2.0000      -0.526777       -14.3343
 195   2.0000      -0.524602       -14.2751
 196   2.0000      -0.522535       -14.2189
 197   2.0000      -0.520742       -14.1701
 198   2.0000      -0.518945       -14.1212
 199   2.0000      -0.518044       -14.0967
 200   2.0000      -0.516758       -14.0617
 201   2.0000      -0.515911       -14.0387
 202   2.0000      -0.513485       -13.9726
 203   2.0000      -0.512852       -13.9554
 204   2.0000      -0.511384       -13.9155
 205   2.0000      -0.510249       -13.8846
 206   2.0000      -0.507866       -13.8197
 207   2.0000      -0.506046       -13.7702
 208   2.0000      -0.504439       -13.7265
 209   2.0000      -0.501559       -13.6481
 210   2.0000      -0.499518       -13.5926
 211   2.0000      -0.498773       -13.5723
 212   2.0000      -0.494820       -13.4647
 213   2.0000      -0.493960       -13.4413
 214   2.0000      -0.489637       -13.3237
 215   2.0000      -0.489158       -13.3107
 216   2.0000      -0.487672       -13.2702
 217   2.0000      -0.484559       -13.1855
 218   2.0000      -0.478035       -13.0080
 219   2.0000      -0.474067       -12.9000
 220   2.0000      -0.471321       -12.8253
 221   2.0000      -0.466172       -12.6852
 222   2.0000      -0.465852       -12.6765
 223   2.0000      -0.465239       -12.6598
 224   2.0000      -0.457719       -12.4552
 225   2.0000      -0.457060       -12.4372
 226   2.0000      -0.454553       -12.3690
 227   2.0000      -0.454240       -12.3605
 228   2.0000      -0.452216       -12.3054
 229   2.0000      -0.451779       -12.2935
 230   2.0000      -0.450543       -12.2599
 231   2.0000      -0.449576       -12.2336
 232   2.0000      -0.448426       -12.2023
 233   2.0000      -0.447051       -12.1649
 234   2.0000      -0.446719       -12.1558
 235   2.0000      -0.444654       -12.0997
 236   2.0000      -0.442537       -12.0420
 237   2.0000      -0.441651       -12.0179
 238   2.0000      -0.440054       -11.9745
 239   2.0000      -0.438458       -11.9311
 240   2.0000      -0.437310       -11.8998
 241   2.0000      -0.435948       -11.8627
 242   2.0000      -0.435279       -11.8445
 243   2.0000      -0.434340       -11.8190
 244   2.0000      -0.431717       -11.7476
 245   2.0000      -0.429884       -11.6977
 246   2.0000      -0.428933       -11.6719
 247   2.0000      -0.427111       -11.6223
 248   2.0000      -0.423128       -11.5139
 249   2.0000      -0.422259       -11.4902
 250   2.0000      -0.422165       -11.4877
 251   2.0000      -0.421006       -11.4562
 252   2.0000      -0.419841       -11.4244
 253   2.0000      -0.419339       -11.4108
 254   2.0000      -0.415830       -11.3153
 255   2.0000      -0.410652       -11.1744
 256   2.0000      -0.408523       -11.1165
 257   2.0000      -0.397959       -10.8290
 258   2.0000      -0.391757       -10.6602
 259   2.0000      -0.381384       -10.3780
 260   2.0000      -0.377493       -10.2721
 261   2.0000      -0.364989        -9.9319
 262   2.0000      -0.360050        -9.7975
 263   2.0000      -0.359268        -9.7762
 264   2.0000      -0.353206        -9.6112
 265   2.0000      -0.347903        -9.4669
 266   2.0000      -0.339623        -9.2416
 267   2.0000      -0.338340        -9.2067
 268   2.0000      -0.336509        -9.1569
 269   2.0000      -0.322162        -8.7665
 270   2.0000      -0.319496        -8.6939
 271   2.0000      -0.315014        -8.5720
 272   2.0000      -0.300171        -8.1681
 273   2.0000      -0.298857        -8.1323
 274   2.0000      -0.296589        -8.0706
 275   2.0000      -0.291113        -7.9216
 276   2.0000      -0.281568        -7.6618
 277   2.0000      -0.264513        -7.1978
 278   0.0000      -0.141696        -3.8558
 279   0.0000      -0.126651        -3.4463
 280   0.0000      -0.098189        -2.6719
 281   0.0000      -0.096855        -2.6355
 282   0.0000      -0.068431        -1.8621

MULLIKEN ATOMIC CHARGES
-----------------------
   0 C :    0.329254
   1 C :   -0.341190
   2 C :   -0.184853
   3 N :    0.160809
   4 C :   -0.193162
   5 N :    0.160711
   6 C :    0.051235
   7 C :   -0.007064
   8 C :   -0.085816
   9 C :    0.108752
  10 C :    0.113944
  11 C :   -0.082160
  12 C :   -0.013347
  13 C :    0.040374
  14 C :    0.039001
  15 C :   -0.013768
  16 C :    0.168948
  17 O :   -0.142032
  18 C :   -0.139144
  19 C :   -0.029829
  20 C :    0.048564
  21 C :    0.030505
  22 C :   -0.101472
  23 C :   -0.132556
  24 N :    0.146875
  25 C :   -0.014719
  26 C :    0.118886
  27 C :   -0.004567
  28 C :    0.074539
  29 C :   -0.002139
  30 C :   -0.127679
  31 C :   -0.014593
  32 C :   -0.128624
  33 N :    0.153868
  34 C :    0.009471
  35 C :   -0.007556
  36 C :    0.206006
  37 O :   -0.252680
  38 C :    0.205958
  39 C :    0.055032
  40 F :   -0.144682
  41 S :    0.146089
  42 C :   -0.141995
  43 S :    0.111627
  44 C :    0.001086
  45 C :   -0.210230
  46 C :    0.059092
  47 C :   -0.021721
  48 C :   -0.094294
  49 C :   -0.132527
  50 N :    0.154619
  51 C :   -0.025415
  52 C :    0.030487
  53 C :    0.037949
  54 C :    0.082792
  55 C :    0.003709
  56 C :   -0.113038
  57 C :    0.000648
  58 C :   -0.128455
  59 N :    0.151466
  60 C :   -0.004453
  61 C :    0.000544
  62 C :   -0.040333
  63 C :   -0.064893
  64 C :    0.333655
  65 C :   -0.349635
  66 C :   -0.181399
  67 N :    0.148241
  68 C :   -0.189313
  69 N :    0.146020
  70 C :    0.047901
  71 C :   -0.002861
  72 C :    0.150146
  73 O :   -0.155208
  74 C :   -0.079133
  75 C :    0.097979
  76 C :    0.094709
  77 C :   -0.083590
  78 C :   -0.018254
  79 C :    0.036575
  80 C :    0.036549
  81 C :   -0.015874
  82 H :   -0.016307
  83 H :   -0.005038
  84 H :   -0.008255
  85 H :   -0.003423
  86 H :   -0.002850
  87 H :   -0.020758
  88 H :    0.033307
  89 H :    0.008984
  90 H :    0.017856
  91 H :   -0.011191
  92 H :    0.014391
  93 H :   -0.004820
  94 H :    0.025407
  95 H :    0.041908
  96 H :    0.006834
  97 H :    0.009248
  98 H :    0.014060
  99 H :    0.021783
 100 H :    0.018778
 101 H :    0.028620
 102 H :    0.007239
 103 H :   -0.013464
 104 H :   -0.007814
 105 H :   -0.008464
 106 H :   -0.003478
 107 H :   -0.003342
 108 H :   -0.017575
Sum of atomic charges:   -0.0000000

LOEWDIN ATOMIC CHARGES
----------------------
   0 C :    0.071905
   1 C :   -0.131757
   2 C :   -0.018632
   3 N :   -0.043685
   4 C :   -0.019872
   5 N :   -0.045918
   6 C :   -0.029107
   7 C :   -0.058158
   8 C :    0.033255
   9 C :   -0.000975
  10 C :    0.001730
  11 C :    0.028819
  12 C :    0.000287
  13 C :   -0.008478
  14 C :   -0.006852
  15 C :   -0.007736
  16 C :    0.081865
  17 O :   -0.136033
  18 C :   -0.074947
  19 C :    0.063192
  20 C :   -0.032305
  21 C :    0.043150
  22 C :   -0.055992
  23 C :   -0.032117
  24 N :   -0.035939
  25 C :    0.029252
  26 C :    0.049793
  27 C :    0.032113
  28 C :   -0.013880
  29 C :    0.001969
  30 C :   -0.057711
  31 C :    0.002708
  32 C :   -0.030141
  33 N :   -0.043430
  34 C :   -0.007181
  35 C :   -0.024308
  36 C :    0.026390
  37 O :   -0.050690
  38 C :   -0.033384
  39 C :   -0.095159
  40 F :   -0.039222
  41 S :    0.456313
  42 C :   -0.212142
  43 S :    0.387695
  44 C :   -0.193392
  45 C :   -0.196970
  46 C :   -0.046607
  47 C :    0.002679
  48 C :   -0.038495
  49 C :   -0.030334
  50 N :   -0.028114
  51 C :   -0.005231
  52 C :    0.039843
  53 C :    0.030247
  54 C :   -0.043371
  55 C :    0.045923
  56 C :   -0.058017
  57 C :    0.005827
  58 C :   -0.032261
  59 N :   -0.034385
  60 C :    0.021703
  61 C :   -0.018591
  62 C :    0.064407
  63 C :   -0.088322
  64 C :    0.075114
  65 C :   -0.137700
  66 C :   -0.017138
  67 N :   -0.052072
  68 C :   -0.019739
  69 N :   -0.053030
  70 C :   -0.025847
  71 C :   -0.056347
  72 C :    0.085643
  73 O :   -0.148056
  74 C :    0.032841
  75 C :   -0.008110
  76 C :   -0.005908
  77 C :    0.020169
  78 C :   -0.004866
  79 C :   -0.012513
  80 C :   -0.011446
  81 C :   -0.009336
  82 H :    0.037539
  83 H :    0.040307
  84 H :    0.035493
  85 H :    0.034118
  86 H :    0.033714
  87 H :    0.030928
  88 H :    0.050218
  89 H :    0.041007
  90 H :    0.039286
  91 H :    0.032536
  92 H :    0.035427
  93 H :    0.033647
  94 H :    0.040461
  95 H :    0.034485
  96 H :    0.028194
  97 H :    0.037936
  98 H :    0.041539
  99 H :    0.035270
 100 H :    0.037240
 101 H :    0.033839
 102 H :    0.041698
 103 H :    0.038893
 104 H :    0.039270
 105 H :    0.035077
 106 H :    0.033679
 107 H :    0.033342
 108 H :    0.031973

  Mayer bond orders larger than 0.100000
B(  0-C ,  1-C ) :   1.6568 B(  0-C ,  6-C ) :   0.9983 B(  0-C , 18-C ) :   1.0314
B(  1-C ,  2-C ) :   1.1364 B(  1-C ,  4-C ) :   1.1487 B(  2-C ,  3-N ) :   2.9764
B(  4-C ,  5-N ) :   2.9720 B(  6-C ,  7-C ) :   1.2107 B(  6-C , 11-C ) :   1.4385
B(  7-C ,  8-C ) :   1.4614 B(  7-C , 16-C ) :   0.9416 B(  8-C ,  9-C ) :   1.1810
B(  8-C , 82-H ) :   1.0219 B(  9-C , 10-C ) :   1.2513 B(  9-C , 15-C ) :   1.2442
B( 10-C , 11-C ) :   1.2147 B( 10-C , 12-C ) :   1.2384 B( 11-C , 83-H ) :   0.9890
B( 12-C , 13-C ) :   1.4921 B( 12-C , 84-H ) :   0.9963 B( 13-C , 14-C ) :   1.2583
B( 13-C , 85-H ) :   0.9873 B( 14-C , 15-C ) :   1.4890 B( 14-C , 86-H ) :   0.9883
B( 15-C , 87-H ) :   0.9973 B( 16-C , 17-O ) :   2.2172 B( 16-C , 18-C ) :   0.9094
B( 18-C , 19-C ) :   1.6890 B( 19-C , 20-C ) :   1.0573 B( 19-C , 88-H ) :   0.9443
B( 20-C , 21-C ) :   1.6262 B( 20-C , 26-C ) :   1.0330 B( 21-C , 22-C ) :   1.0906
B( 21-C , 89-H ) :   1.0182 B( 22-C , 23-C ) :   1.0580 B( 22-C , 25-C ) :   1.6464
B( 23-C , 24-N ) :   3.0440 B( 25-C , 26-C ) :   1.0654 B( 25-C , 90-H ) :   1.0133
B( 26-C , 27-C ) :   1.5603 B( 27-C , 28-C ) :   1.0376 B( 27-C , 31-C ) :   1.0809
B( 28-C , 29-C ) :   1.6011 B( 28-C , 34-C ) :   1.1107 B( 29-C , 30-C ) :   1.1045
B( 29-C , 91-H ) :   1.0197 B( 30-C , 31-C ) :   1.6339 B( 30-C , 32-C ) :   1.0796
B( 31-C , 92-H ) :   0.9994 B( 32-C , 33-N ) :   3.0248 B( 34-C , 35-C ) :   1.6996
B( 34-C , 93-H ) :   0.9533 B( 35-C , 36-C ) :   1.0920 B( 35-C , 94-H ) :   0.9666
B( 36-C , 37-O ) :   1.0436 B( 36-C , 42-C ) :   1.7648 B( 37-O , 38-C ) :   1.0745
B( 38-C , 39-C ) :   1.4799 B( 38-C , 44-C ) :   1.2048 B( 39-C , 40-F ) :   1.1645
B( 39-C , 41-S ) :   1.1215 B( 41-S , 45-C ) :   1.0995 B( 42-C , 43-S ) :   1.0114
B( 42-C , 95-H ) :   0.9151 B( 43-S , 44-C ) :   1.0062 B( 44-C , 45-C ) :   1.5752
B( 45-C , 46-C ) :   1.0852 B( 46-C , 47-C ) :   1.6329 B( 46-C , 52-C ) :   1.0444
B( 47-C , 48-C ) :   1.0965 B( 47-C , 96-H ) :   1.0055 B( 48-C , 49-C ) :   1.0630
B( 48-C , 51-C ) :   1.6358 B( 49-C , 50-N ) :   3.0396 B( 51-C , 52-C ) :   1.0923
B( 51-C , 97-H ) :   1.0131 B( 52-C , 53-C ) :   1.4885 B( 53-C , 54-C ) :   1.0423
B( 53-C , 57-C ) :   1.0900 B( 54-C , 55-C ) :   1.5835 B( 54-C , 60-C ) :   1.0638
B( 55-C , 56-C ) :   1.1082 B( 55-C , 98-H ) :   1.0132 B( 56-C , 57-C ) :   1.6269
B( 56-C , 58-C ) :   1.0567 B( 57-C , 99-H ) :   1.0068 B( 58-C , 59-N ) :   3.0445
B( 60-C , 61-C ) :   1.5896 B( 60-C ,100-H ) :   0.9750 B( 61-C , 62-C ) :   1.1536
B( 61-C ,101-H ) :   0.9815 B( 62-C , 63-C ) :   1.5449 B( 62-C ,102-H ) :   0.9614
B( 63-C , 64-C ) :   1.0615 B( 63-C , 72-C ) :   0.9402 B( 64-C , 65-C ) :   1.6286
B( 64-C , 70-C ) :   0.9887 B( 65-C , 66-C ) :   1.1449 B( 65-C , 68-C ) :   1.1464
B( 66-C , 67-N ) :   2.9617 B( 68-C , 69-N ) :   2.9583 B( 70-C , 71-C ) :   1.2149
B( 70-C , 77-C ) :   1.4471 B( 71-C , 72-C ) :   0.9477 B( 71-C , 74-C ) :   1.4684
B( 72-C , 73-O ) :   2.1954 B( 74-C , 75-C ) :   1.1799 B( 74-C ,103-H ) :   1.0168
B( 75-C , 76-C ) :   1.2563 B( 75-C , 81-C ) :   1.2425 B( 76-C , 77-C ) :   1.2062
B( 76-C , 78-C ) :   1.2396 B( 77-C ,104-H ) :   0.9897 B( 78-C , 79-C ) :   1.4885
B( 78-C ,105-H ) :   0.9980 B( 79-C , 80-C ) :   1.2592 B( 79-C ,106-H ) :   0.9891
B( 80-C , 81-C ) :   1.4885 B( 80-C ,107-H ) :   0.9888 B( 81-C ,108-H ) :   0.9985

-----------------------------------------------------------------------------
         ABSORPTION SPECTRUM VIA TRANSITION ELECTRIC DIPOLE MOMENTS
-----------------------------------------------------------------------------
State   Energy  Wavelength   fosc         T2         TX        TY        TZ
        (cm-1)    (nm)                  (au**2)     (au)      (au)      (au)
-----------------------------------------------------------------------------
   0   10394.0    962.1   0.033072529   1.04751   0.87851  -0.49279   0.18138
   1   12010.1    832.6   0.160404395   4.39690   1.71073  -1.18791   0.24327
   2   12784.7    782.2   0.069067335   1.77851   1.14982  -0.55703  -0.38229
   3   14347.8    697.0   0.010631775   0.24395   0.06103   0.33940  -0.35360
   4   18338.9    545.3   0.016757971   0.30083  -0.42704  -0.15124   0.30919
   5   20774.0    481.4   0.038989335   0.61788  -0.65064   0.43699   0.05984
   6   21427.9    466.7   0.019140623   0.29407  -0.52946   0.07121  -0.09314
   7   21908.9    456.4   0.002411199   0.03623   0.18277  -0.04678   0.02528
   8   22130.9    451.9   0.013982079   0.20799   0.28198   0.35740   0.02725
   9   23218.7    430.7   0.095125804   1.34876  -0.90647   0.66118  -0.29985
  10   23250.8    430.1   0.176998630   2.50616  -1.12176   1.11237  -0.10226
  11   23551.4    424.6   0.671842673   9.39131  -1.99552   2.11464  -0.96826
  12   24349.2    410.7   0.040694490   0.55021  -0.68325  -0.12302   0.26123
  13   25001.9    400.0   0.170632846   2.24680   1.20491  -0.73635  -0.50279
  14   25007.9    399.9   0.013270771   0.17470  -0.18969  -0.35781   0.10341
  15   25609.9    390.5   0.113778086   1.46260  -0.32020   1.16280   0.08928
  16   25933.0    385.6   0.101189903   1.28458   0.69238  -0.85665   0.26708
  17   26006.6    384.5   0.006572693   0.08320  -0.11201   0.17395   0.20099
  18   26271.4    380.6   0.062936640   0.78867  -0.18020   0.39178  -0.77634
  19   26594.8    376.0   0.110038917   1.36215   0.04224  -1.02648  -0.55382
  20   27055.1    369.6   0.000199840   0.00243  -0.01917  -0.00980  -0.04436
  21   27142.1    368.4   0.017287743   0.20969  -0.02292   0.41832   0.18485
  22   27605.8    362.2   0.278490592   3.32113   1.58610  -0.85559  -0.27088
  23   27773.8    360.1   0.058093873   0.68861  -0.26755   0.78496   0.02920
  24   28187.6    354.8   0.071444143   0.83442   0.80076  -0.39992   0.18239
  25   28278.1    353.6   0.103837945   1.20888   0.96001   0.25372   0.47210
  26   28647.8    349.1   0.086447776   0.99343  -0.86474   0.34436  -0.35647
  27   28760.1    347.7   0.031290529   0.35818   0.59291  -0.07719   0.02596
  28   28893.6    346.1   0.054502457   0.62100  -0.71636  -0.17936  -0.27506
  29   29417.9    339.9   0.020808392   0.23286   0.44864   0.17066   0.04959
  30   29930.5    334.1   0.410635869   4.51667  -1.11053  -1.44394  -1.09473
  31   30165.5    331.5   0.206524091   2.25391   1.42590  -0.21142   0.41955
  32   30503.7    327.8   0.021172695   0.22851  -0.19624  -0.28503   0.32978
  33   31126.3    321.3   0.007477993   0.07909  -0.24039  -0.02102  -0.14445
  34   31371.2    318.8   0.456372532   4.78920  -1.01615   1.42165  -1.31740
  35   31750.6    315.0   0.272203620   2.82239  -1.27403   0.88178  -0.64938
  36   31925.2    313.2   0.141638515   1.46057   0.34010   0.17871  -1.14585
  37   31983.5    312.7   0.087809333   0.90384  -0.16849   0.93270  -0.07426
  38   32157.2    311.0   0.004642282   0.04753   0.16860   0.13641   0.02221
  39   32238.9    310.2   0.201987202   2.06262  -0.26320   1.04373  -0.95077
  40   32336.9    309.2   0.165092105   1.68075  -0.17156   0.08973  -1.28190
  41   33129.9    301.8   0.263311605   2.61653  -0.41313   0.08849   1.56142
  42   33427.4    299.2   0.048379117   0.47646   0.30526   0.44073   0.43479
  43   33433.0    299.1   0.018538912   0.18255  -0.02069  -0.30850  -0.29487
  44   34001.9    294.1   0.138470825   1.34070  -0.48309   0.14318   1.04251
  45   34050.4    293.7   0.033926367   0.32801   0.56589  -0.02687  -0.08399
  46   34224.5    292.2   0.601049796   5.78161   2.34772  -0.04285   0.51766
  47   34365.2    291.0   0.101886517   0.97605   0.87439   0.14911  -0.43505
  48   34543.8    289.5   0.003162318   0.03014  -0.00671  -0.15283  -0.08206
  49   34633.9    288.7   0.020987488   0.19950   0.04062  -0.31312   0.31591
  50   35278.8    283.5   0.160907352   1.50154   0.57808   0.04482  -1.07952
  51   35819.1    279.2   0.669186280   6.15046   1.09053  -2.04598   0.88044
  52   36228.7    276.0   0.033844448   0.30755  -0.35041   0.41567  -0.10946
  53   36379.7    274.9   0.017786895   0.16096   0.13952  -0.02847  -0.37508
  54   36581.1    273.4   0.001257536   0.01132  -0.06742  -0.08150  -0.01139
  55   36656.3    272.8   0.006176426   0.05547  -0.02143  -0.08956  -0.21677
  56   37288.9    268.2   0.011786170   0.10406   0.20630   0.19308  -0.15562
  57   37494.3    266.7   0.065864643   0.57831   0.59625   0.45923   0.10911
  58   37933.9    263.6   0.132906983   1.15344   0.09340  -0.70161   0.80775
  59   37948.3    263.5   0.062129479   0.53899   0.15636   0.21410  -0.68462
  60   38105.5    262.4   0.039956600   0.34520   0.02811   0.41495  -0.41500
  61   38304.6    261.1   0.094036213   0.80820   0.06135  -0.88812  -0.12520
  62   38632.6    258.8   0.033010733   0.28130  -0.19150   0.17914   0.46102
  63   38782.0    257.9   0.073911479   0.62742  -0.39655  -0.14789  -0.66955
  64   38887.5    257.2   0.036002187   0.30479  -0.01765   0.01763  -0.55151
  65   39080.0    255.9   0.006405571   0.05396   0.19626   0.05781  -0.11000
  66   39115.2    255.7   0.130160419   1.09549  -0.92954  -0.47756  -0.05806
  67   39443.1    253.5   0.081579351   0.68090   0.12397  -0.80585  -0.12701
  68   39705.9    251.9   0.089234345   0.73987  -0.21907   0.74080   0.37827
  69   39734.0    251.7   0.052459657   0.43465  -0.17040   0.57679  -0.27006
  70   39804.2    251.2   0.036508919   0.30196  -0.08550  -0.53701   0.07918
  71   39822.3    251.1   0.004260307   0.03522   0.03179  -0.15072   0.10720
  72   40197.2    248.8   0.010865820   0.08899   0.14555  -0.19221   0.17567

FINAL SINGLE POINT ENERGY     -4162.536975873974

DIPOLE MOMENT
-------------
                                X             Y             Z
Electronic contribution:     15.23786      -2.80572     -15.24820
Nuclear contribution   :    -17.13538       1.78999      17.26373
                        -----------------------------------------
Total Dipole Moment    :     -1.89752      -1.01573       2.01554
                        -----------------------------------------
Magnitude (a.u.)       :      2.94867
Magnitude (Debye)      :      7.49493

Rotational constants in cm-1:     0.002340     0.000166     0.000164
Rotational constants in MHz :    70.163223     4.965171     4.931284

                             ****ORCA TERMINATED NORMALLY****
TOTAL RUN TIME: 0 days 0 hours 13 minutes 45 seconds 159 msec
