                         Program Version 4.2.0 -  RELEASE  -
|  1> # ORCA input file
|  2> # SCF done       -199.647228557176          0.000882262974
|  3> ! CAM-B3LYP def2-SVP def2/J RIJCOSX Grid4 TightSCF
|  4> %maxcore 5000
|  5> %tddft
|  6>     Mode sTDDFT
|  7>     Ethresh 5.0
|  8>     maxcore 5000
|  9> end
| 10>
| 11> %pal
| 12>   nprocs 6
| 13>   end
| 14> * xyz 0 1
| 15>    C        9.03047         7.57052        -0.07163
| 16>    C        8.37907         6.37283         0.08304
| 17>    C        8.87930         5.29560         0.84666
| 18>    N        9.22044         4.38123         1.45092
| 19>    C        7.12609         6.02033        -0.46138
| 20>    N        6.11334         5.64999        -0.86004
| 21>    C       10.31297         7.90877         0.53165
| 22>    C       10.63174         9.25502         0.19644
| 23>    C       11.77733         9.85741         0.63070
| 24>    C       12.67753         9.12526         1.43614
| 25>    C       12.37091         7.77431         1.77028
| 26>    C       11.17649         7.17834         1.30608
| 27>    C       13.27772         7.05007         2.57090
| 28>    C       14.43091         7.63165         3.02273
| 29>    C       14.73045         8.96257         2.69519
| 30>    C       13.87266         9.69358         1.91865
| 31>    C        9.56241         9.82426        -0.63942
| 32>    O        9.52499        10.95267        -1.08220
| 33>    C        8.57054         8.73264        -0.82227
| 34>    C        7.45170         8.72975        -1.60160
| 35>    C        6.82407         9.75078        -2.36079
| 36>    C        6.92778        11.11817        -2.28049
| 37>    C        5.89703        11.70804        -3.09749
| 38>    C        5.70708        13.08659        -3.27002
| 39>    N        5.52911        14.21346        -3.39331
| 40>    C        5.12167        10.71168        -3.63856
| 41>    C        5.67096         9.45011        -3.23404
| 42>    C        5.25671         8.20926        -3.66092
| 43>    C        3.90485         7.83400        -4.16185
| 44>    C        4.01457         6.59101        -4.72684
| 45>    C        5.36803         6.13395        -4.57113
| 46>    C        6.09479         7.07953        -3.88024
| 47>    C        5.85998         4.91820        -5.06672
| 48>    N        6.25964         3.92698        -5.48402
| 49>    C        2.68012         8.50679        -3.92660
| 50>    C        2.47709         9.49089        -3.01130
| 51>    C        1.24545        10.15593        -2.78896
| 52>    S        1.21407        11.53920        -1.72591
| 53>    C       -0.49372        11.75324        -1.94280
| 54>    C       -0.99741        10.77563        -2.81037
| 55>    C       -0.01659         9.89575        -3.28783
| 56>    C       -2.34151        10.68011        -3.21022
| 57>    N       -3.42700        10.57247        -3.56540
| 58>    C       -1.14584        12.82432        -1.28754
| 59>    C       -2.48849        12.95653        -1.12469
| 60>    C       -3.09867        14.05416        -0.45964
| 61>    C       -4.24407        14.00189         0.28464
| 62>    C       -4.39513        15.25624         0.98224
| 63>    C       -5.45826        15.56337         1.84325
| 64>    N       -6.32611        15.80674         2.55339
| 65>    C       -3.33924        16.07916         0.67798
| 66>    C       -2.51501        15.40623        -0.28045
| 67>    C       -1.54238        15.97826        -1.06290
| 68>    C       -0.78536        17.22264        -0.80141
| 69>    C       -0.17657        17.58397        -1.97457
| 70>    C       -0.48201        16.59515        -2.97788
| 71>    C       -1.25482        15.60741        -2.41903
| 72>    C       -0.05398        16.64978        -4.31253
| 73>    N        0.29817        16.68862        -5.40375
| 74>    C       -0.55075        17.82720         0.46188
| 75>    C       -0.71518        17.20364         1.65933
| 76>    C       -0.45647        17.84271         2.89185
| 77>    C       -0.64105        17.25287         4.11089
| 78>    C       -0.36781        17.83617         5.41205
| 79>    C        0.08960        19.10339         5.66769
| 80>    C        0.34218        19.60806         6.96114
| 81>    N        0.57145        20.08218         7.98115
| 82>    C        0.37323        20.08840         4.69887
| 83>    N        0.62532        20.94292         3.97388
| 84>    C       -0.66448        16.82656         6.42201
| 85>    C       -1.13662        15.65194         5.76904
| 86>    C       -1.15527        15.87183         4.31543
| 87>    O       -1.51852        15.07924         3.46778
| 88>    C       -1.49091        14.53158         6.46458
| 89>    C       -1.38231        14.53154         7.87281
| 90>    C       -0.90971        15.70193         8.53419
| 91>    C       -0.55497        16.84871         7.78748
| 92>    C       -0.80145        15.69077         9.93966
| 93>    C       -1.14162        14.57738        10.65888
| 94>    C       -1.60650        13.42552        10.00670
| 95>    C       -1.72505        13.40321         8.64341
| 96>    H       11.99275        10.88116         0.36271
| 97>    H       10.97703         6.15383         1.57605
| 98>    H       13.04196         6.02611         2.82105
| 99>    H       15.11900         7.06905         3.63557
|100>    H       15.64455         9.40563         3.06099
|101>    H       14.09826        10.71850         1.66304
|102>    H        6.92072         7.78867        -1.64765
|103>    H        7.63497        11.67688        -1.69899
|104>    H        4.32490        10.84229        -4.34629
|105>    H        3.22530         6.01079        -5.16651
|106>    H        7.15210         7.03653        -3.70112
|107>    H        1.83604         8.13453        -4.49287
|108>    H        3.29357         9.81209        -2.38035
|109>    H       -0.23866         9.08780        -3.96148
|110>    H       -0.48724        13.56174        -0.84662
|111>    H       -3.14727        12.15332        -1.42621
|112>    H       -4.90462        13.16237         0.39342
|113>    H       -3.22412        17.09805         0.99305
|114>    H        0.46527        18.43037        -2.13285
|115>    H       -1.69721        14.78265        -2.94387
|116>    H       -0.14299        18.83139         0.44113
|117>    H       -1.03881        16.17448         1.69487
|118>    H       -0.09483        18.86185         2.84650
|119>    H       -1.84808        13.65481         5.94488
|120>    H       -0.20138        17.71742         8.31939
|121>    H       -0.44341        16.58009        10.43722
|122>    H       -1.05438        14.57826        11.73498
|123>    H       -1.87033        12.55603        10.58993
|124>    H       -2.08294        12.51943         8.13577
|125> *
|126>
|127>                          ****END OF INPUT****

CARTESIAN COORDINATES (ANGSTROEM)
---------------------------------
  C      9.030470    7.570520   -0.071630
  C      8.379070    6.372830    0.083040
  C      8.879300    5.295600    0.846660
  N      9.220440    4.381230    1.450920
  C      7.126090    6.020330   -0.461380
  N      6.113340    5.649990   -0.860040
  C     10.312970    7.908770    0.531650
  C     10.631740    9.255020    0.196440
  C     11.777330    9.857410    0.630700
  C     12.677530    9.125260    1.436140
  C     12.370910    7.774310    1.770280
  C     11.176490    7.178340    1.306080
  C     13.277720    7.050070    2.570900
  C     14.430910    7.631650    3.022730
  C     14.730450    8.962570    2.695190
  C     13.872660    9.693580    1.918650
  C      9.562410    9.824260   -0.639420
  O      9.524990   10.952670   -1.082200
  C      8.570540    8.732640   -0.822270
  C      7.451700    8.729750   -1.601600
  C      6.824070    9.750780   -2.360790
  C      6.927780   11.118170   -2.280490
  C      5.897030   11.708040   -3.097490
  C      5.707080   13.086590   -3.270020
  N      5.529110   14.213460   -3.393310
  C      5.121670   10.711680   -3.638560
  C      5.670960    9.450110   -3.234040
  C      5.256710    8.209260   -3.660920
  C      3.904850    7.834000   -4.161850
  C      4.014570    6.591010   -4.726840
  C      5.368030    6.133950   -4.571130
  C      6.094790    7.079530   -3.880240
  C      5.859980    4.918200   -5.066720
  N      6.259640    3.926980   -5.484020
  C      2.680120    8.506790   -3.926600
  C      2.477090    9.490890   -3.011300
  C      1.245450   10.155930   -2.788960
  S      1.214070   11.539200   -1.725910
  C     -0.493720   11.753240   -1.942800
  C     -0.997410   10.775630   -2.810370
  C     -0.016590    9.895750   -3.287830
  C     -2.341510   10.680110   -3.210220
  N     -3.427000   10.572470   -3.565400
  C     -1.145840   12.824320   -1.287540
  C     -2.488490   12.956530   -1.124690
  C     -3.098670   14.054160   -0.459640
  C     -4.244070   14.001890    0.284640
  C     -4.395130   15.256240    0.982240
  C     -5.458260   15.563370    1.843250
  N     -6.326110   15.806740    2.553390
  C     -3.339240   16.079160    0.677980
  C     -2.515010   15.406230   -0.280450
  C     -1.542380   15.978260   -1.062900
  C     -0.785360   17.222640   -0.801410
  C     -0.176570   17.583970   -1.974570
  C     -0.482010   16.595150   -2.977880
  C     -1.254820   15.607410   -2.419030
  C     -0.053980   16.649780   -4.312530
  N      0.298170   16.688620   -5.403750
  C     -0.550750   17.827200    0.461880
  C     -0.715180   17.203640    1.659330
  C     -0.456470   17.842710    2.891850
  C     -0.641050   17.252870    4.110890
  C     -0.367810   17.836170    5.412050
  C      0.089600   19.103390    5.667690
  C      0.342180   19.608060    6.961140
  N      0.571450   20.082180    7.981150
  C      0.373230   20.088400    4.698870
  N      0.625320   20.942920    3.973880
  C     -0.664480   16.826560    6.422010
  C     -1.136620   15.651940    5.769040
  C     -1.155270   15.871830    4.315430
  O     -1.518520   15.079240    3.467780
  C     -1.490910   14.531580    6.464580
  C     -1.382310   14.531540    7.872810
  C     -0.909710   15.701930    8.534190
  C     -0.554970   16.848710    7.787480
  C     -0.801450   15.690770    9.939660
  C     -1.141620   14.577380   10.658880
  C     -1.606500   13.425520   10.006700
  C     -1.725050   13.403210    8.643410
  H     11.992750   10.881160    0.362710
  H     10.977030    6.153830    1.576050
  H     13.041960    6.026110    2.821050
  H     15.119000    7.069050    3.635570
  H     15.644550    9.405630    3.060990
  H     14.098260   10.718500    1.663040
  H      6.920720    7.788670   -1.647650
  H      7.634970   11.676880   -1.698990
  H      4.324900   10.842290   -4.346290
  H      3.225300    6.010790   -5.166510
  H      7.152100    7.036530   -3.701120
  H      1.836040    8.134530   -4.492870
  H      3.293570    9.812090   -2.380350
  H     -0.238660    9.087800   -3.961480
  H     -0.487240   13.561740   -0.846620
  H     -3.147270   12.153320   -1.426210
  H     -4.904620   13.162370    0.393420
  H     -3.224120   17.098050    0.993050
  H      0.465270   18.430370   -2.132850
  H     -1.697210   14.782650   -2.943870
  H     -0.142990   18.831390    0.441130
  H     -1.038810   16.174480    1.694870
  H     -0.094830   18.861850    2.846500
  H     -1.848080   13.654810    5.944880
  H     -0.201380   17.717420    8.319390
  H     -0.443410   16.580090   10.437220
  H     -1.054380   14.578260   11.734980
  H     -1.870330   12.556030   10.589930
  H     -2.082940   12.519430    8.135770

 Total Charge           Charge          ....    0
 Multiplicity           Mult            ....    1
 Number of Electrons    NEL             ....  538
 Basis Dimension        Dim             .... 1283

ORBITAL ENERGIES
----------------

  NO   OCC          E(Eh)            E(eV)
   0   2.0000     -88.991851     -2421.5914
   1   2.0000     -19.228578      -523.2362
   2   2.0000     -19.223846      -523.1074
   3   2.0000     -14.428441      -392.6178
   4   2.0000     -14.423124      -392.4732
   5   2.0000     -14.422963      -392.4688
   6   2.0000     -14.422048      -392.4439
   7   2.0000     -14.421979      -392.4420
   8   2.0000     -14.421578      -392.4311
   9   2.0000     -14.419088      -392.3633
  10   2.0000     -14.419057      -392.3625
  11   2.0000     -14.418246      -392.3404
  12   2.0000     -10.379074      -282.4290
  13   2.0000     -10.374374      -282.3011
  14   2.0000     -10.351702      -281.6841
  15   2.0000     -10.350860      -281.6612
  16   2.0000     -10.346717      -281.5485
  17   2.0000     -10.346558      -281.5442
  18   2.0000     -10.345089      -281.5042
  19   2.0000     -10.344793      -281.4961
  20   2.0000     -10.341283      -281.4006
  21   2.0000     -10.340438      -281.3776
  22   2.0000     -10.339844      -281.3615
  23   2.0000     -10.339598      -281.3548
  24   2.0000     -10.336419      -281.2683
  25   2.0000     -10.336364      -281.2668
  26   2.0000     -10.334310      -281.2109
  27   2.0000     -10.333434      -281.1870
  28   2.0000     -10.333321      -281.1839
  29   2.0000     -10.331225      -281.1269
  30   2.0000     -10.331193      -281.1260
  31   2.0000     -10.324965      -280.9566
  32   2.0000     -10.324258      -280.9373
  33   2.0000     -10.324124      -280.9337
  34   2.0000     -10.323574      -280.9187
  35   2.0000     -10.321754      -280.8692
  36   2.0000     -10.321025      -280.8494
  37   2.0000     -10.320644      -280.8390
  38   2.0000     -10.320586      -280.8374
  39   2.0000     -10.319997      -280.8214
  40   2.0000     -10.319916      -280.8192
  41   2.0000     -10.318142      -280.7709
  42   2.0000     -10.317561      -280.7551
  43   2.0000     -10.317381      -280.7502
  44   2.0000     -10.317019      -280.7403
  45   2.0000     -10.316426      -280.7242
  46   2.0000     -10.315728      -280.7052
  47   2.0000     -10.315376      -280.6957
  48   2.0000     -10.314732      -280.6781
  49   2.0000     -10.314474      -280.6711
  50   2.0000     -10.313817      -280.6532
  51   2.0000     -10.313653      -280.6488
  52   2.0000     -10.312734      -280.6238
  53   2.0000     -10.312298      -280.6119
  54   2.0000     -10.311161      -280.5810
  55   2.0000     -10.310626      -280.5664
  56   2.0000     -10.310332      -280.5584
  57   2.0000     -10.309148      -280.5262
  58   2.0000     -10.307460      -280.4803
  59   2.0000     -10.306922      -280.4656
  60   2.0000     -10.306864      -280.4640
  61   2.0000     -10.305693      -280.4322
  62   2.0000     -10.304947      -280.4119
  63   2.0000     -10.304732      -280.4060
  64   2.0000     -10.304418      -280.3975
  65   2.0000     -10.304282      -280.3938
  66   2.0000     -10.301605      -280.3209
  67   2.0000     -10.301365      -280.3144
  68   2.0000     -10.301114      -280.3076
  69   2.0000     -10.300479      -280.2903
  70   2.0000     -10.296347      -280.1778
  71   2.0000     -10.295558      -280.1564
  72   2.0000     -10.293103      -280.0896
  73   2.0000     -10.292808      -280.0815
  74   2.0000     -10.292556      -280.0747
  75   2.0000     -10.292316      -280.0682
  76   2.0000     -10.291850      -280.0555
  77   2.0000     -10.290160      -280.0095
  78   2.0000     -10.289667      -279.9961
  79   2.0000     -10.289345      -279.9873
  80   2.0000     -10.288827      -279.9732
  81   2.0000      -8.087618      -220.0753
  82   2.0000      -6.056715      -164.8116
  83   2.0000      -6.052687      -164.7020
  84   2.0000      -6.049933      -164.6270
  85   2.0000      -1.143341       -31.1119
  86   2.0000      -1.137176       -30.9441
  87   2.0000      -1.033125       -28.1128
  88   2.0000      -1.030137       -28.0315
  89   2.0000      -1.027888       -27.9703
  90   2.0000      -1.027163       -27.9505
  91   2.0000      -1.022635       -27.8273
  92   2.0000      -1.015737       -27.6396
  93   2.0000      -1.012166       -27.5424
  94   2.0000      -1.008158       -27.4334
  95   2.0000      -1.003123       -27.2964
  96   2.0000      -1.002596       -27.2820
  97   2.0000      -1.002390       -27.2764
  98   2.0000      -1.000912       -27.2362
  99   2.0000      -0.998102       -27.1597
 100   2.0000      -0.997893       -27.1541
 101   2.0000      -0.992823       -27.0161
 102   2.0000      -0.989585       -26.9280
 103   2.0000      -0.979139       -26.6437
 104   2.0000      -0.975817       -26.5533
 105   2.0000      -0.942234       -25.6395
 106   2.0000      -0.938859       -25.5477
 107   2.0000      -0.933815       -25.4104
 108   2.0000      -0.924411       -25.1545
 109   2.0000      -0.919619       -25.0241
 110   2.0000      -0.915410       -24.9096
 111   2.0000      -0.900038       -24.4913
 112   2.0000      -0.897281       -24.4163
 113   2.0000      -0.891276       -24.2528
 114   2.0000      -0.889141       -24.1948
 115   2.0000      -0.887078       -24.1386
 116   2.0000      -0.885017       -24.0825
 117   2.0000      -0.884155       -24.0591
 118   2.0000      -0.875425       -23.8215
 119   2.0000      -0.871171       -23.7058
 120   2.0000      -0.843653       -22.9570
 121   2.0000      -0.842240       -22.9185
 122   2.0000      -0.835725       -22.7412
 123   2.0000      -0.833880       -22.6910
 124   2.0000      -0.832107       -22.6428
 125   2.0000      -0.816787       -22.2259
 126   2.0000      -0.812730       -22.1155
 127   2.0000      -0.808589       -22.0028
 128   2.0000      -0.797579       -21.7032
 129   2.0000      -0.792733       -21.5714
 130   2.0000      -0.771512       -20.9939
 131   2.0000      -0.766587       -20.8599
 132   2.0000      -0.756568       -20.5873
 133   2.0000      -0.752125       -20.4664
 134   2.0000      -0.742418       -20.2022
 135   2.0000      -0.737324       -20.0636
 136   2.0000      -0.734240       -19.9797
 137   2.0000      -0.733517       -19.9600
 138   2.0000      -0.713759       -19.4224
 139   2.0000      -0.709028       -19.2936
 140   2.0000      -0.707853       -19.2616
 141   2.0000      -0.704484       -19.1700
 142   2.0000      -0.701704       -19.0943
 143   2.0000      -0.696754       -18.9596
 144   2.0000      -0.694373       -18.8948
 145   2.0000      -0.689750       -18.7691
 146   2.0000      -0.687010       -18.6945
 147   2.0000      -0.674582       -18.3563
 148   2.0000      -0.672231       -18.2923
 149   2.0000      -0.665249       -18.1023
 150   2.0000      -0.656707       -17.8699
 151   2.0000      -0.651296       -17.7227
 152   2.0000      -0.649034       -17.6611
 153   2.0000      -0.643116       -17.5001
 154   2.0000      -0.641611       -17.4591
 155   2.0000      -0.635439       -17.2912
 156   2.0000      -0.633493       -17.2382
 157   2.0000      -0.621549       -16.9132
 158   2.0000      -0.616759       -16.7829
 159   2.0000      -0.615341       -16.7443
 160   2.0000      -0.613837       -16.7033
 161   2.0000      -0.611636       -16.6435
 162   2.0000      -0.610444       -16.6110
 163   2.0000      -0.608779       -16.5657
 164   2.0000      -0.596709       -16.2373
 165   2.0000      -0.590057       -16.0563
 166   2.0000      -0.573985       -15.6189
 167   2.0000      -0.567762       -15.4496
 168   2.0000      -0.567525       -15.4432
 169   2.0000      -0.563043       -15.3212
 170   2.0000      -0.561274       -15.2731
 171   2.0000      -0.557919       -15.1817
 172   2.0000      -0.553742       -15.0681
 173   2.0000      -0.551297       -15.0016
 174   2.0000      -0.550533       -14.9808
 175   2.0000      -0.548255       -14.9188
 176   2.0000      -0.543494       -14.7892
 177   2.0000      -0.542710       -14.7679
 178   2.0000      -0.541483       -14.7345
 179   2.0000      -0.540208       -14.6998
 180   2.0000      -0.534552       -14.5459
 181   2.0000      -0.534154       -14.5351
 182   2.0000      -0.531622       -14.4662
 183   2.0000      -0.529276       -14.4023
 184   2.0000      -0.528022       -14.3682
 185   2.0000      -0.526392       -14.3238
 186   2.0000      -0.525609       -14.3025
 187   2.0000      -0.524590       -14.2748
 188   2.0000      -0.523626       -14.2486
 189   2.0000      -0.521101       -14.1799
 190   2.0000      -0.520484       -14.1631
 191   2.0000      -0.517971       -14.0947
 192   2.0000      -0.516332       -14.0501
 193   2.0000      -0.513674       -13.9778
 194   2.0000      -0.511357       -13.9147
 195   2.0000      -0.510176       -13.8826
 196   2.0000      -0.509636       -13.8679
 197   2.0000      -0.506737       -13.7890
 198   2.0000      -0.506169       -13.7736
 199   2.0000      -0.505743       -13.7620
 200   2.0000      -0.504123       -13.7179
 201   2.0000      -0.501334       -13.6420
 202   2.0000      -0.501247       -13.6396
 203   2.0000      -0.498022       -13.5519
 204   2.0000      -0.493918       -13.4402
 205   2.0000      -0.491494       -13.3742
 206   2.0000      -0.491084       -13.3631
 207   2.0000      -0.490169       -13.3382
 208   2.0000      -0.485950       -13.2234
 209   2.0000      -0.479250       -13.0411
 210   2.0000      -0.472755       -12.8643
 211   2.0000      -0.468883       -12.7590
 212   2.0000      -0.464513       -12.6400
 213   2.0000      -0.461856       -12.5677
 214   2.0000      -0.461748       -12.5648
 215   2.0000      -0.459216       -12.4959
 216   2.0000      -0.455664       -12.3993
 217   2.0000      -0.454208       -12.3596
 218   2.0000      -0.453747       -12.3471
 219   2.0000      -0.453303       -12.3350
 220   2.0000      -0.452238       -12.3060
 221   2.0000      -0.449774       -12.2390
 222   2.0000      -0.449410       -12.2291
 223   2.0000      -0.448567       -12.2061
 224   2.0000      -0.448472       -12.2035
 225   2.0000      -0.447320       -12.1722
 226   2.0000      -0.446881       -12.1603
 227   2.0000      -0.445899       -12.1335
 228   2.0000      -0.445316       -12.1177
 229   2.0000      -0.443782       -12.0759
 230   2.0000      -0.442460       -12.0400
 231   2.0000      -0.441454       -12.0126
 232   2.0000      -0.440417       -11.9844
 233   2.0000      -0.437695       -11.9103
 234   2.0000      -0.437233       -11.8977
 235   2.0000      -0.435054       -11.8384
 236   2.0000      -0.431918       -11.7531
 237   2.0000      -0.428740       -11.6666
 238   2.0000      -0.427751       -11.6397
 239   2.0000      -0.424081       -11.5398
 240   2.0000      -0.423384       -11.5209
 241   2.0000      -0.421100       -11.4587
 242   2.0000      -0.420344       -11.4381
 243   2.0000      -0.419585       -11.4175
 244   2.0000      -0.418007       -11.3745
 245   2.0000      -0.417452       -11.3594
 246   2.0000      -0.414011       -11.2658
 247   2.0000      -0.410571       -11.1722
 248   2.0000      -0.409937       -11.1549
 249   2.0000      -0.395490       -10.7618
 250   2.0000      -0.388590       -10.5741
 251   2.0000      -0.385231       -10.4827
 252   2.0000      -0.378181       -10.2908
 253   2.0000      -0.367096        -9.9892
 254   2.0000      -0.355093        -9.6626
 255   2.0000      -0.351293        -9.5592
 256   2.0000      -0.349392        -9.5074
 257   2.0000      -0.348857        -9.4929
 258   2.0000      -0.342719        -9.3259
 259   2.0000      -0.339036        -9.2256
 260   2.0000      -0.334031        -9.0894
 261   2.0000      -0.325705        -8.8629
 262   2.0000      -0.321257        -8.7418
 263   2.0000      -0.311337        -8.4719
 264   2.0000      -0.306413        -8.3379
 265   2.0000      -0.299769        -8.1571
 266   2.0000      -0.296080        -8.0567
 267   2.0000      -0.284897        -7.7524
 268   2.0000      -0.264963        -7.2100
 269   0.0000      -0.146595        -3.9890
 270   0.0000      -0.136740        -3.7209
 271   0.0000      -0.099514        -2.7079
 272   0.0000      -0.096431        -2.6240
 273   0.0000      -0.073288        -1.9943

MULLIKEN ATOMIC CHARGES
-----------------------
   0 C :    0.324361
   1 C :   -0.361208
   2 C :   -0.181226
   3 N :    0.149814
   4 C :   -0.180840
   5 N :    0.150394
   6 C :    0.043780
   7 C :   -0.005732
   8 C :   -0.078910
   9 C :    0.097981
  10 C :    0.096124
  11 C :   -0.078117
  12 C :   -0.017012
  13 C :    0.035101
  14 C :    0.038169
  15 C :   -0.015592
  16 C :    0.151286
  17 O :   -0.151978
  18 C :   -0.061459
  19 C :   -0.062282
  20 C :    0.085867
  21 C :    0.014898
  22 C :   -0.111687
  23 C :   -0.126490
  24 N :    0.151279
  25 C :   -0.023224
  26 C :    0.016087
  27 C :    0.054670
  28 C :    0.086996
  29 C :   -0.010793
  30 C :   -0.082426
  31 C :   -0.013068
  32 C :   -0.128576
  33 N :    0.157559
  34 C :   -0.003383
  35 C :    0.048491
  36 C :   -0.088289
  37 S :    0.170549
  38 C :   -0.071900
  39 C :   -0.065033
  40 C :    0.018348
  41 C :   -0.186693
  42 N :    0.133021
  43 C :    0.018357
  44 C :   -0.013501
  45 C :    0.071697
  46 C :    0.008695
  47 C :   -0.091374
  48 C :   -0.129603
  49 N :    0.145588
  50 C :   -0.005214
  51 C :    0.042408
  52 C :    0.019053
  53 C :    0.076132
  54 C :    0.014903
  55 C :   -0.105918
  56 C :   -0.004653
  57 C :   -0.127490
  58 N :    0.148968
  59 C :    0.025146
  60 C :   -0.038906
  61 C :   -0.037676
  62 C :   -0.075387
  63 C :    0.342894
  64 C :   -0.351947
  65 C :   -0.180315
  66 N :    0.148404
  67 C :   -0.190629
  68 N :    0.146791
  69 C :    0.045700
  70 C :    0.000538
  71 C :    0.153942
  72 O :   -0.160834
  73 C :   -0.079714
  74 C :    0.099740
  75 C :    0.097341
  76 C :   -0.083438
  77 C :   -0.018470
  78 C :    0.034567
  79 C :    0.038433
  80 C :   -0.015652
  81 H :   -0.011517
  82 H :   -0.007549
  83 H :   -0.007189
  84 H :   -0.001402
  85 H :   -0.002852
  86 H :   -0.015451
  87 H :   -0.001620
  88 H :    0.027567
  89 H :    0.025173
  90 H :   -0.003769
  91 H :    0.007548
  92 H :   -0.004440
  93 H :    0.018462
  94 H :    0.001942
  95 H :    0.010390
  96 H :    0.020232
  97 H :    0.000618
  98 H :    0.011828
  99 H :    0.005483
 100 H :    0.019752
 101 H :    0.011209
 102 H :    0.050943
 103 H :    0.010711
 104 H :   -0.014486
 105 H :   -0.008006
 106 H :   -0.008264
 107 H :   -0.002052
 108 H :   -0.003755
 109 H :   -0.016938
Sum of atomic charges:   -0.0000000

LOEWDIN ATOMIC CHARGES
----------------------
   0 C :    0.078025
   1 C :   -0.140360
   2 C :   -0.017111
   3 N :   -0.049726
   4 C :   -0.022149
   5 N :   -0.052349
   6 C :   -0.028428
   7 C :   -0.057133
   8 C :    0.034205
   9 C :   -0.007400
  10 C :   -0.005883
  11 C :    0.022535
  12 C :   -0.004047
  13 C :   -0.011450
  14 C :   -0.009435
  15 C :   -0.008784
  16 C :    0.086347
  17 O :   -0.141478
  18 C :   -0.086894
  19 C :    0.064429
  20 C :   -0.059274
  21 C :    0.079079
  22 C :   -0.071681
  23 C :   -0.033264
  24 N :   -0.035904
  25 C :    0.026239
  26 C :    0.026386
  27 C :    0.053769
  28 C :   -0.019044
  29 C :    0.001823
  30 C :   -0.025652
  31 C :   -0.008854
  32 C :   -0.027255
  33 N :   -0.026079
  34 C :   -0.002833
  35 C :   -0.033262
  36 C :   -0.167952
  37 S :    0.474428
  38 C :   -0.139043
  39 C :   -0.102901
  40 C :   -0.016826
  41 C :   -0.031459
  42 N :   -0.051212
  43 C :   -0.046685
  44 C :    0.008516
  45 C :   -0.029412
  46 C :    0.020701
  47 C :   -0.043067
  48 C :   -0.028951
  49 N :   -0.035555
  50 C :    0.010033
  51 C :    0.052152
  52 C :    0.032349
  53 C :   -0.041344
  54 C :    0.036371
  55 C :   -0.060887
  56 C :    0.018474
  57 C :   -0.032703
  58 N :   -0.034171
  59 C :    0.032530
  60 C :   -0.035384
  61 C :    0.065616
  62 C :   -0.087366
  63 C :    0.074921
  64 C :   -0.136679
  65 C :   -0.017014
  66 N :   -0.051460
  67 C :   -0.019713
  68 N :   -0.052194
  69 C :   -0.025535
  70 C :   -0.056498
  71 C :    0.088150
  72 O :   -0.153064
  73 C :    0.034284
  74 C :   -0.007865
  75 C :   -0.005205
  76 C :    0.020597
  77 C :   -0.004718
  78 C :   -0.011909
  79 C :   -0.010856
  80 C :   -0.008901
  81 H :    0.039625
  82 H :    0.039581
  83 H :    0.035577
  84 H :    0.034409
  85 H :    0.033874
  86 H :    0.032667
  87 H :    0.043086
  88 H :    0.039337
  89 H :    0.041626
  90 H :    0.035898
  91 H :    0.036435
  92 H :    0.038597
  93 H :    0.033677
  94 H :    0.040268
  95 H :    0.033329
  96 H :    0.045517
  97 H :    0.037950
  98 H :    0.038378
  99 H :    0.039602
 100 H :    0.040470
 101 H :    0.042566
 102 H :    0.032574
 103 H :    0.042327
 104 H :    0.038700
 105 H :    0.039368
 106 H :    0.035199
 107 H :    0.034096
 108 H :    0.033454
 109 H :    0.032115

  Mayer bond orders larger than 0.100000
B(  0-C ,  1-C ) :   1.6227 B(  0-C ,  6-C ) :   0.9901 B(  0-C , 18-C ) :   1.0612
B(  1-C ,  2-C ) :   1.1493 B(  1-C ,  4-C ) :   1.1459 B(  2-C ,  3-N ) :   2.9610
B(  4-C ,  5-N ) :   2.9513 B(  6-C ,  7-C ) :   1.2127 B(  6-C , 11-C ) :   1.4433
B(  7-C ,  8-C ) :   1.4674 B(  7-C , 16-C ) :   0.9519 B(  8-C ,  9-C ) :   1.1794
B(  8-C , 81-H ) :   1.0163 B(  9-C , 10-C ) :   1.2547 B(  9-C , 15-C ) :   1.2444
B( 10-C , 11-C ) :   1.2103 B( 10-C , 12-C ) :   1.2382 B( 11-C , 82-H ) :   0.9888
B( 12-C , 13-C ) :   1.4896 B( 12-C , 83-H ) :   0.9973 B( 13-C , 14-C ) :   1.2596
B( 13-C , 84-H ) :   0.9886 B( 14-C , 15-C ) :   1.4887 B( 14-C , 85-H ) :   0.9889
B( 15-C , 86-H ) :   0.9978 B( 16-C , 17-O ) :   2.1940 B( 16-C , 18-C ) :   0.9234
B( 18-C , 19-C ) :   1.6116 B( 19-C , 20-C ) :   1.1248 B( 19-C , 87-H ) :   0.9245
B( 20-C , 21-C ) :   1.5281 B( 20-C , 26-C ) :   1.0538 B( 21-C , 22-C ) :   1.1077
B( 21-C , 88-H ) :   1.0010 B( 22-C , 23-C ) :   1.0596 B( 22-C , 25-C ) :   1.5733
B( 23-C , 24-N ) :   3.0459 B( 25-C , 26-C ) :   1.1056 B( 25-C , 89-H ) :   1.0134
B( 26-C , 27-C ) :   1.4457 B( 27-C , 28-C ) :   1.0162 B( 27-C , 31-C ) :   1.1381
B( 28-C , 29-C ) :   1.5490 B( 28-C , 34-C ) :   1.1604 B( 29-C , 30-C ) :   1.1245
B( 29-C , 90-H ) :   1.0205 B( 30-C , 31-C ) :   1.5791 B( 30-C , 32-C ) :   1.0655
B( 31-C , 91-H ) :   1.0140 B( 32-C , 33-N ) :   3.0385 B( 34-C , 35-C ) :   1.6450
B( 34-C , 92-H ) :   0.9639 B( 35-C , 36-C ) :   1.1278 B( 35-C , 93-H ) :   0.9425
B( 36-C , 37-S ) :   1.1217 B( 36-C , 40-C ) :   1.4739 B( 37-S , 38-C ) :   1.1495
B( 38-C , 39-C ) :   1.4387 B( 38-C , 43-C ) :   1.1652 B( 39-C , 40-C ) :   1.3077
B( 39-C , 41-C ) :   1.1107 B( 40-C , 94-H ) :   0.9998 B( 41-C , 42-N ) :   2.9880
B( 43-C , 44-C ) :   1.6489 B( 43-C , 95-H ) :   0.9362 B( 44-C , 45-C ) :   1.1312
B( 44-C , 96-H ) :   0.9580 B( 45-C , 46-C ) :   1.5786 B( 45-C , 51-C ) :   1.0249
B( 46-C , 47-C ) :   1.1028 B( 46-C , 97-H ) :   1.0204 B( 47-C , 48-C ) :   1.0670
B( 47-C , 50-C ) :   1.6004 B( 48-C , 49-N ) :   3.0400 B( 50-C , 51-C ) :   1.1254
B( 50-C , 98-H ) :   1.0113 B( 51-C , 52-C ) :   1.4732 B( 52-C , 53-C ) :   1.0362
B( 52-C , 56-C ) :   1.1220 B( 53-C , 54-C ) :   1.5511 B( 53-C , 59-C ) :   1.1028
B( 54-C , 55-C ) :   1.1141 B( 54-C , 99-H ) :   1.0205 B( 55-C , 56-C ) :   1.5990
B( 55-C , 57-C ) :   1.0620 B( 56-C ,100-H ) :   1.0078 B( 57-C , 58-N ) :   3.0433
B( 59-C , 60-C ) :   1.5662 B( 59-C ,101-H ) :   0.9775 B( 60-C , 61-C ) :   1.1645
B( 60-C ,102-H ) :   0.9660 B( 61-C , 62-C ) :   1.5538 B( 61-C ,103-H ) :   0.9624
B( 62-C , 63-C ) :   1.0549 B( 62-C , 71-C ) :   0.9403 B( 63-C , 64-C ) :   1.6297
B( 63-C , 69-C ) :   0.9897 B( 64-C , 65-C ) :   1.1444 B( 64-C , 67-C ) :   1.1485
B( 65-C , 66-N ) :   2.9617 B( 67-C , 68-N ) :   2.9568 B( 69-C , 70-C ) :   1.2138
B( 69-C , 76-C ) :   1.4497 B( 70-C , 71-C ) :   0.9529 B( 70-C , 73-C ) :   1.4668
B( 71-C , 72-O ) :   2.1759 B( 73-C , 74-C ) :   1.1810 B( 73-C ,104-H ) :   1.0159
B( 74-C , 75-C ) :   1.2540 B( 74-C , 80-C ) :   1.2440 B( 75-C , 76-C ) :   1.2069
B( 75-C , 77-C ) :   1.2408 B( 76-C ,105-H ) :   0.9883 B( 77-C , 78-C ) :   1.4882
B( 77-C ,106-H ) :   0.9969 B( 78-C , 79-C ) :   1.2599 B( 78-C ,107-H ) :   0.9892
B( 79-C , 80-C ) :   1.4892 B( 79-C ,108-H ) :   0.9882 B( 80-C ,109-H ) :   0.9972

-----------------------------------------------------------------------------
         ABSORPTION SPECTRUM VIA TRANSITION ELECTRIC DIPOLE MOMENTS
-----------------------------------------------------------------------------
State   Energy  Wavelength   fosc         T2         TX        TY        TZ
        (cm-1)    (nm)                  (au**2)     (au)      (au)      (au)
-----------------------------------------------------------------------------
   0    8809.7   1135.1   0.156651242   5.85392   2.19581  -0.97150  -0.29754
   1   10538.6    948.9   0.092130279   2.87802  -0.40256  -1.30855  -1.00183
   2   14416.8    693.6   0.042287524   0.96565   0.65923  -0.13463   0.71620
   3   15065.8    663.8   0.017593147   0.38444   0.13412  -0.01887   0.60506
   4   18859.3    530.2   0.078600972   1.37208   0.66375  -0.92167  -0.28645
   5   20765.6    481.6   0.016627462   0.26361   0.49102   0.09588   0.11539
   6   20848.5    479.7   0.093831405   1.48166  -1.07864   0.53216   0.18712
   7   21683.4    461.2   0.178596196   2.71156  -0.79681   1.01547   1.02249
   8   22089.9    452.7   0.184089558   2.74354   0.62962   0.19559   1.51949
   9   22330.7    447.8   0.078184408   1.15264  -0.26362   0.06181  -1.03891
  10   22996.4    434.9   0.102860506   1.47253  -0.13755  -0.28617  -1.17120
  11   23736.1    421.3   0.259265973   3.59593  -1.32453   1.25500   0.51626
  12   24227.1    412.8   0.008139232   0.11060  -0.23479   0.01165  -0.23524
  13   24333.9    410.9   0.040599707   0.54927   0.60333  -0.06903  -0.42484
  14   24641.5    405.8   0.064168112   0.85729   0.49354   0.51493   0.59039
  15   25000.4    400.0   0.455781775   6.00185  -1.48560  -0.61247  -1.84925
  16   25707.1    389.0   0.053465449   0.68469  -0.12695  -0.20834  -0.79068
  17   25869.7    386.6   0.022233601   0.28294  -0.10440   0.12670   0.50595
  18   25900.4    386.1   0.007268586   0.09239  -0.19950   0.13389   0.18618
  19   26518.2    377.1   0.132638156   1.64664  -0.38590   1.21457   0.15016
  20   27838.1    359.2   0.205862063   2.43452  -0.01002   0.31839  -1.52743
  21   27887.5    358.6   0.282361987   3.33328   1.12748   0.77910  -1.20627
  22   28184.5    354.8   0.438327331   5.11993   0.59929  -1.92113  -1.03443
  23   28388.4    352.3   0.149829748   1.73753  -1.31790  -0.01858   0.01818
  24   29062.7    344.1   0.294244321   3.33309  -0.09671  -0.70347   1.68193
  25   29086.6    343.8   0.265811799   3.00855   0.98764  -1.41001  -0.21212
  26   29363.4    340.6   0.030883568   0.34626   0.26516   0.50771   0.13481
  27   29513.9    338.8   0.031660071   0.35315  -0.16371  -0.00887   0.57120
  28   29611.3    337.7   0.122742571   1.36463   0.47810  -0.92524   0.52913
  29   29684.9    336.9   0.059597479   0.66095   0.60618   0.01359  -0.54158
  30   29895.3    334.5   0.223517540   2.46142   0.93827  -0.69099  -1.05052
  31   30345.1    329.5   0.013706724   0.14870  -0.15020  -0.21880   0.27977
  32   30609.7    326.7   0.210028893   2.25889   1.16521  -0.74722  -0.58551
  33   30800.5    324.7   0.075944865   0.81174  -0.64946   0.58564  -0.21673
  34   31059.2    322.0   0.089063751   0.94403   0.71937  -0.27717   0.59137
  35   31120.3    321.3   0.063403112   0.67072   0.24833   0.77988   0.02899
  36   31415.1    318.3   0.221670995   2.32298  -0.15478   0.39350   1.46430
  37   31589.2    316.6   0.178136894   1.85648  -1.06405  -0.71949   0.45455
  38   31706.0    315.4   0.055156166   0.57270   0.57776  -0.46637   0.14627
  39   31851.3    314.0   0.012484588   0.12904   0.29315  -0.20712   0.01432
  40   32182.6    310.7   0.198879780   2.03444   0.85232   0.03054  -1.14327
  41   32256.2    310.0   0.026822903   0.27376  -0.11934  -0.45694   0.22522
  42   33116.8    302.0   0.338477670   3.36479  -0.30428  -1.27922   1.27899
  43   33420.3    299.2   0.247374956   2.43680   1.44996   0.03559   0.57719
  44   33521.9    298.3   0.184414266   1.81110  -0.56687  -1.06738   0.59198
  45   33760.2    296.2   0.005682840   0.05542  -0.00659  -0.22903   0.05402
  46   33813.1    295.7   0.110775416   1.07854  -1.03315   0.09924  -0.03600
  47   33880.9    295.2   0.126385466   1.22806  -0.58702   0.10194  -0.93438
  48   33932.5    294.7   0.328040729   3.18264  -0.34428  -1.15484   1.31547
  49   34038.0    293.8   0.132681738   1.28328   0.24330   1.03663  -0.38664
  50   34226.7    292.2   0.225057103   2.16473  -1.37732  -0.02300  -0.51690
  51   34436.3    290.4   0.144542645   1.38183   0.61384   1.00228  -0.02145
  52   34604.9    289.0   0.077917021   0.74126  -0.50426  -0.44129  -0.54060
  53   34726.6    288.0   0.307627991   2.91635   1.38448   0.94902   0.31452
  54   35114.6    284.8   0.001443898   0.01354   0.04365   0.08460  -0.06689
  55   35449.0    282.1   0.026949132   0.25027   0.22523  -0.44438  -0.04552
  56   36046.7    277.4   0.087975568   0.80347   0.52001  -0.06110  -0.72755
  57   36652.3    272.8   0.056956451   0.51158  -0.02071   0.71489  -0.00927
  58   36774.6    271.9   0.097708218   0.87470  -0.12447   0.87667  -0.30110
  59   37095.4    269.6   0.039608583   0.35152   0.16630  -0.55095  -0.14251
  60   37646.6    265.6   0.003078208   0.02692  -0.05090  -0.15583   0.00658
  61   37684.5    265.4   0.004856425   0.04243   0.05314   0.19364  -0.04588
  62   37785.4    264.7   0.088591793   0.77187   0.34870   0.76831  -0.24490
  63   38093.2    262.5   0.001216632   0.01051   0.00098   0.08265   0.06068
  64   38382.0    260.5   0.039216751   0.33637   0.41552  -0.40176  -0.04800
  65   38524.9    259.6   0.098311013   0.84011  -0.21828  -0.30768  -0.83534
  66   38825.2    257.6   0.102088812   0.86565  -0.21887  -0.84711   0.31646
  67   39294.7    254.5   0.050700851   0.42477  -0.11856   0.58886   0.25291
  68   39429.6    253.6   0.038250760   0.31937  -0.22537   0.29448  -0.42645
  69   39612.3    252.4   0.139557031   1.15984   0.00044   0.97264  -0.46239
  70   39791.1    251.3   0.075300977   0.62300   0.12560   0.77485  -0.08265
  71   40261.4    248.4   0.029069279   0.23770   0.23753   0.00399  -0.42575

FINAL SINGLE POINT ENERGY     -3683.548946543500

DIPOLE MOMENT
-------------
                                X             Y             Z
Electronic contribution:     -7.09932       2.82477     -19.27442
Nuclear contribution   :      9.04677      -4.06640      21.08911
                        -----------------------------------------
Total Dipole Moment    :      1.94745      -1.24163       1.81469
                        -----------------------------------------
Magnitude (a.u.)       :      2.93723
Magnitude (Debye)      :      7.46584

Rotational constants in cm-1:     0.000782     0.000339     0.000278
Rotational constants in MHz :    23.435474    10.166701     8.347599

                             ****ORCA TERMINATED NORMALLY****
TOTAL RUN TIME: 0 days 0 hours 29 minutes 56 seconds 680 msec
