                         Program Version 4.2.0 -  RELEASE  -
|  1> # ORCA input file
|  2> # SCF done       -172.490366130081          0.000915650412
|  3> ! CAM-B3LYP def2-SVP def2/J RIJCOSX Grid4 TightSCF
|  4> %maxcore 5000
|  5> %tddft
|  6>     Mode sTDDFT
|  7>     Ethresh 5.0
|  8>     maxcore 5000
|  9> end
| 10>
| 11> %pal
| 12>   nprocs 6
| 13>   end
| 14> * xyz 0 1
| 15>    C        0.23355         2.49152        -2.91435
| 16>    C       -0.95290         3.16935        -2.94116
| 17>    C       -1.51646         3.75523        -4.09182
| 18>    N       -2.01486         4.28369        -4.98068
| 19>    C       -1.78923         3.32535        -1.81531
| 20>    N       -2.53212         3.41547        -0.94503
| 21>    C        0.98030         2.03123        -4.07580
| 22>    C        1.85717         0.98016        -3.67042
| 23>    C        2.64823         0.32147        -4.56822
| 24>    C        2.60097         0.69138        -5.93070
| 25>    C        1.73514         1.74777        -6.33994
| 26>    C        0.92608         2.41177        -5.39053
| 27>    C        1.69916         2.10554        -7.70341
| 28>    C        2.47691         1.45188        -8.61972
| 29>    C        3.32876         0.41251        -8.21586
| 30>    C        3.38946         0.04058        -6.90041
| 31>    C        1.74911         0.77912        -2.21524
| 32>    O        2.28715        -0.05488        -1.52792
| 33>    C        0.86529         1.89054        -1.74506
| 34>    C        0.90469         2.31574        -0.46626
| 35>    C        0.36023         3.58389        -0.03402
| 36>    N        0.48636         4.60309        -0.89003
| 37>    N       -0.14372         5.69699        -0.71607
| 38>    C       -0.95752         5.87372         0.32605
| 39>    C       -0.95223         4.95807         1.39075
| 40>    C       -0.26677         3.77961         1.20646
| 41>    C       -1.85499         7.00884         0.23383
| 42>    C       -2.24339         7.81616         1.31118
| 43>    C       -3.08806         8.96867         1.10468
| 44>    N       -3.54771         9.65415         2.15969
| 45>    C       -3.08855         9.37827         3.35325
| 46>    C       -2.11153         8.33944         3.53616
| 47>    N       -1.76594         7.55955         2.54469
| 48>    C       -1.56911         8.09406         4.82279
| 49>    N       -1.14377         7.91708         5.87134
| 50>    C       -3.61140        10.05623         4.48170
| 51>    N       -3.99981        10.57932         5.42387
| 52>    C       -3.47400         9.38763        -0.18644
| 53>    C       -3.15041         8.53778        -1.25531
| 54>    C       -2.35483         7.35000        -1.03428
| 55>    N       -2.15744         6.66826        -2.16468
| 56>    S       -2.86766         7.43497        -3.37096
| 57>    N       -3.46951         8.67921        -2.54557
| 58>    C       -4.10808        10.67437        -0.32144
| 59>    N       -3.84854        11.55893         0.65009
| 60>    N       -4.40942        12.69263         0.69650
| 61>    C       -5.22743        13.12172        -0.26925
| 62>    C       -5.44747        12.31848        -1.40425
| 63>    C       -4.92499        11.04746        -1.40217
| 64>    C       -5.78365        14.44177        -0.08107
| 65>    C       -7.04824        14.82442        -0.36567
| 66>    C       -7.60136        16.16005        -0.16681
| 67>    C       -6.88221        17.31693        -0.04900
| 68>    C       -7.46345        18.59321         0.11286
| 69>    N       -7.88036        19.65395         0.24589
| 70>    C       -5.47457        17.40048        -0.12681
| 71>    N       -4.33968        17.54901        -0.21008
| 72>    C       -9.05115        16.05030        -0.21343
| 73>    C       -9.39757        14.70717        -0.54055
| 74>    C       -8.17730        13.90266        -0.70349
| 75>    O       -8.11159        12.73238        -1.00717
| 76>    C      -10.69842        14.30939        -0.66760
| 77>    C      -11.73015        15.25289        -0.46855
| 78>    C      -11.39173        16.59638        -0.13233
| 79>    C      -10.03745        16.97947        -0.00717
| 80>    C      -12.43036        17.52865         0.06792
| 81>    C      -13.74032        17.15480        -0.06011
| 82>    C      -14.07237        15.83259        -0.39250
| 83>    C      -13.08910        14.90196        -0.59235
| 84>    H        3.30168        -0.47443        -4.24305
| 85>    H        0.28578         3.21504        -5.72101
| 86>    H        1.04052         2.90476        -8.00994
| 87>    H        2.44033         1.73172        -9.66185
| 88>    H        3.93619        -0.09170        -8.95236
| 89>    H        4.04312        -0.75887        -6.58374
| 90>    H        1.41480         1.69682         0.26122
| 91>    H       -1.50475         5.16694         2.29183
| 92>    H       -0.26077         3.00226         1.95432
| 93>    H       -6.00551        12.69699        -2.24417
| 94>    H       -5.10800        10.34493        -2.19912
| 95>    H       -5.11006        15.13931         0.40063
| 96>    H      -10.93594        13.28607        -0.91800
| 97>    H       -9.81223        18.00087         0.25585
| 98>    H      -12.16959        18.54541         0.32222
| 99>    H      -14.52858        17.87619         0.09400
|100>    H      -15.11134        15.55528        -0.48878
|101>    H      -13.33895        13.88266        -0.84780
|102> *
|103>
|104>                          ****END OF INPUT****

CARTESIAN COORDINATES (ANGSTROEM)
---------------------------------
  C      0.233550    2.491520   -2.914350
  C     -0.952900    3.169350   -2.941160
  C     -1.516460    3.755230   -4.091820
  N     -2.014860    4.283690   -4.980680
  C     -1.789230    3.325350   -1.815310
  N     -2.532120    3.415470   -0.945030
  C      0.980300    2.031230   -4.075800
  C      1.857170    0.980160   -3.670420
  C      2.648230    0.321470   -4.568220
  C      2.600970    0.691380   -5.930700
  C      1.735140    1.747770   -6.339940
  C      0.926080    2.411770   -5.390530
  C      1.699160    2.105540   -7.703410
  C      2.476910    1.451880   -8.619720
  C      3.328760    0.412510   -8.215860
  C      3.389460    0.040580   -6.900410
  C      1.749110    0.779120   -2.215240
  O      2.287150   -0.054880   -1.527920
  C      0.865290    1.890540   -1.745060
  C      0.904690    2.315740   -0.466260
  C      0.360230    3.583890   -0.034020
  N      0.486360    4.603090   -0.890030
  N     -0.143720    5.696990   -0.716070
  C     -0.957520    5.873720    0.326050
  C     -0.952230    4.958070    1.390750
  C     -0.266770    3.779610    1.206460
  C     -1.854990    7.008840    0.233830
  C     -2.243390    7.816160    1.311180
  C     -3.088060    8.968670    1.104680
  N     -3.547710    9.654150    2.159690
  C     -3.088550    9.378270    3.353250
  C     -2.111530    8.339440    3.536160
  N     -1.765940    7.559550    2.544690
  C     -1.569110    8.094060    4.822790
  N     -1.143770    7.917080    5.871340
  C     -3.611400   10.056230    4.481700
  N     -3.999810   10.579320    5.423870
  C     -3.474000    9.387630   -0.186440
  C     -3.150410    8.537780   -1.255310
  C     -2.354830    7.350000   -1.034280
  N     -2.157440    6.668260   -2.164680
  S     -2.867660    7.434970   -3.370960
  N     -3.469510    8.679210   -2.545570
  C     -4.108080   10.674370   -0.321440
  N     -3.848540   11.558930    0.650090
  N     -4.409420   12.692630    0.696500
  C     -5.227430   13.121720   -0.269250
  C     -5.447470   12.318480   -1.404250
  C     -4.924990   11.047460   -1.402170
  C     -5.783650   14.441770   -0.081070
  C     -7.048240   14.824420   -0.365670
  C     -7.601360   16.160050   -0.166810
  C     -6.882210   17.316930   -0.049000
  C     -7.463450   18.593210    0.112860
  N     -7.880360   19.653950    0.245890
  C     -5.474570   17.400480   -0.126810
  N     -4.339680   17.549010   -0.210080
  C     -9.051150   16.050300   -0.213430
  C     -9.397570   14.707170   -0.540550
  C     -8.177300   13.902660   -0.703490
  O     -8.111590   12.732380   -1.007170
  C    -10.698420   14.309390   -0.667600
  C    -11.730150   15.252890   -0.468550
  C    -11.391730   16.596380   -0.132330
  C    -10.037450   16.979470   -0.007170
  C    -12.430360   17.528650    0.067920
  C    -13.740320   17.154800   -0.060110
  C    -14.072370   15.832590   -0.392500
  C    -13.089100   14.901960   -0.592350
  H      3.301680   -0.474430   -4.243050
  H      0.285780    3.215040   -5.721010
  H      1.040520    2.904760   -8.009940
  H      2.440330    1.731720   -9.661850
  H      3.936190   -0.091700   -8.952360
  H      4.043120   -0.758870   -6.583740
  H      1.414800    1.696820    0.261220
  H     -1.504750    5.166940    2.291830
  H     -0.260770    3.002260    1.954320
  H     -6.005510   12.696990   -2.244170
  H     -5.108000   10.344930   -2.199120
  H     -5.110060   15.139310    0.400630
  H    -10.935940   13.286070   -0.918000
  H     -9.812230   18.000870    0.255850
  H    -12.169590   18.545410    0.322220
  H    -14.528580   17.876190    0.094000
  H    -15.111340   15.555280   -0.488780
  H    -13.338950   13.882660   -0.847800

 Total Charge           Charge          ....    0
 Multiplicity           Mult            ....    1
 Number of Electrons    NEL             ....  460
 Basis Dimension        Dim             .... 1060

ORBITAL ENERGIES
----------------

  NO   OCC          E(Eh)            E(eV)
   0   2.0000     -89.049283     -2423.1542
   1   2.0000     -19.227455      -523.2057
   2   2.0000     -19.222661      -523.0752
   3   2.0000     -14.464208      -393.5911
   4   2.0000     -14.459246      -393.4561
   5   2.0000     -14.456124      -393.3711
   6   2.0000     -14.454580      -393.3291
   7   2.0000     -14.449082      -393.1795
   8   2.0000     -14.448953      -393.1760
   9   2.0000     -14.446606      -393.1121
  10   2.0000     -14.444749      -393.0616
  11   2.0000     -14.431141      -392.6913
  12   2.0000     -14.424087      -392.4994
  13   2.0000     -14.422589      -392.4586
  14   2.0000     -14.421928      -392.4406
  15   2.0000     -14.420234      -392.3945
  16   2.0000     -14.418110      -392.3367
  17   2.0000     -10.384582      -282.5789
  18   2.0000     -10.379229      -282.4332
  19   2.0000     -10.377077      -282.3746
  20   2.0000     -10.373548      -282.2786
  21   2.0000     -10.353573      -281.7351
  22   2.0000     -10.352294      -281.7002
  23   2.0000     -10.351680      -281.6835
  24   2.0000     -10.348980      -281.6101
  25   2.0000     -10.347443      -281.5682
  26   2.0000     -10.346941      -281.5546
  27   2.0000     -10.346327      -281.5379
  28   2.0000     -10.345795      -281.5234
  29   2.0000     -10.335886      -281.2538
  30   2.0000     -10.334657      -281.2203
  31   2.0000     -10.333643      -281.1927
  32   2.0000     -10.330503      -281.1073
  33   2.0000     -10.325946      -280.9833
  34   2.0000     -10.324003      -280.9304
  35   2.0000     -10.323906      -280.9278
  36   2.0000     -10.323824      -280.9255
  37   2.0000     -10.322942      -280.9015
  38   2.0000     -10.321941      -280.8743
  39   2.0000     -10.321899      -280.8731
  40   2.0000     -10.321550      -280.8636
  41   2.0000     -10.321300      -280.8568
  42   2.0000     -10.317513      -280.7538
  43   2.0000     -10.313227      -280.6372
  44   2.0000     -10.311654      -280.5944
  45   2.0000     -10.310377      -280.5596
  46   2.0000     -10.310129      -280.5529
  47   2.0000     -10.308991      -280.5219
  48   2.0000     -10.308867      -280.5185
  49   2.0000     -10.307435      -280.4796
  50   2.0000     -10.304748      -280.4064
  51   2.0000     -10.304560      -280.4013
  52   2.0000     -10.304296      -280.3942
  53   2.0000     -10.303729      -280.3787
  54   2.0000     -10.303121      -280.3622
  55   2.0000     -10.302692      -280.3505
  56   2.0000     -10.302687      -280.3504
  57   2.0000     -10.302369      -280.3417
  58   2.0000     -10.301789      -280.3259
  59   2.0000     -10.296804      -280.1903
  60   2.0000     -10.295258      -280.1482
  61   2.0000     -10.292487      -280.0728
  62   2.0000     -10.292014      -280.0599
  63   2.0000     -10.291673      -280.0507
  64   2.0000     -10.291152      -280.0365
  65   2.0000     -10.290988      -280.0320
  66   2.0000     -10.290617      -280.0219
  67   2.0000     -10.290368      -280.0151
  68   2.0000     -10.289898      -280.0024
  69   2.0000      -8.140101      -221.5034
  70   2.0000      -6.111024      -166.2894
  71   2.0000      -6.103376      -166.0813
  72   2.0000      -6.103067      -166.0729
  73   2.0000      -1.146047       -31.1855
  74   2.0000      -1.143261       -31.1097
  75   2.0000      -1.139086       -30.9961
  76   2.0000      -1.137673       -30.9577
  77   2.0000      -1.137179       -30.9442
  78   2.0000      -1.121115       -30.5071
  79   2.0000      -1.048221       -28.5235
  80   2.0000      -1.024738       -27.8845
  81   2.0000      -1.023490       -27.8506
  82   2.0000      -1.013790       -27.5866
  83   2.0000      -1.005077       -27.3495
  84   2.0000      -1.004372       -27.3303
  85   2.0000      -1.002704       -27.2850
  86   2.0000      -0.999515       -27.1982
  87   2.0000      -0.999228       -27.1904
  88   2.0000      -0.999070       -27.1861
  89   2.0000      -0.988090       -26.8873
  90   2.0000      -0.979017       -26.6404
  91   2.0000      -0.977623       -26.6025
  92   2.0000      -0.955342       -25.9962
  93   2.0000      -0.948001       -25.7964
  94   2.0000      -0.935656       -25.4605
  95   2.0000      -0.927805       -25.2468
  96   2.0000      -0.925901       -25.1950
  97   2.0000      -0.922948       -25.1147
  98   2.0000      -0.908109       -24.7109
  99   2.0000      -0.901417       -24.5288
 100   2.0000      -0.899907       -24.4877
 101   2.0000      -0.887814       -24.1586
 102   2.0000      -0.886082       -24.1115
 103   2.0000      -0.879415       -23.9301
 104   2.0000      -0.865632       -23.5551
 105   2.0000      -0.855401       -23.2766
 106   2.0000      -0.836140       -22.7525
 107   2.0000      -0.835004       -22.7216
 108   2.0000      -0.833305       -22.6754
 109   2.0000      -0.811487       -22.0817
 110   2.0000      -0.808359       -21.9966
 111   2.0000      -0.797701       -21.7065
 112   2.0000      -0.778183       -21.1754
 113   2.0000      -0.769089       -20.9280
 114   2.0000      -0.766346       -20.8533
 115   2.0000      -0.759155       -20.6577
 116   2.0000      -0.753145       -20.4941
 117   2.0000      -0.746719       -20.3193
 118   2.0000      -0.739154       -20.1134
 119   2.0000      -0.716115       -19.4865
 120   2.0000      -0.713429       -19.4134
 121   2.0000      -0.709967       -19.3192
 122   2.0000      -0.707110       -19.2414
 123   2.0000      -0.704933       -19.1822
 124   2.0000      -0.700979       -19.0746
 125   2.0000      -0.695564       -18.9273
 126   2.0000      -0.692113       -18.8334
 127   2.0000      -0.681603       -18.5474
 128   2.0000      -0.680066       -18.5055
 129   2.0000      -0.679142       -18.4804
 130   2.0000      -0.654771       -17.8172
 131   2.0000      -0.645654       -17.5691
 132   2.0000      -0.644785       -17.5455
 133   2.0000      -0.637956       -17.3597
 134   2.0000      -0.631705       -17.1896
 135   2.0000      -0.630802       -17.1650
 136   2.0000      -0.624841       -17.0028
 137   2.0000      -0.620210       -16.8768
 138   2.0000      -0.613715       -16.7000
 139   2.0000      -0.612212       -16.6591
 140   2.0000      -0.610068       -16.6008
 141   2.0000      -0.601309       -16.3624
 142   2.0000      -0.599040       -16.3007
 143   2.0000      -0.594291       -16.1715
 144   2.0000      -0.580903       -15.8072
 145   2.0000      -0.579030       -15.7562
 146   2.0000      -0.566179       -15.4065
 147   2.0000      -0.564092       -15.3497
 148   2.0000      -0.562071       -15.2947
 149   2.0000      -0.558436       -15.1958
 150   2.0000      -0.557674       -15.1751
 151   2.0000      -0.553161       -15.0523
 152   2.0000      -0.551771       -15.0144
 153   2.0000      -0.547967       -14.9110
 154   2.0000      -0.546924       -14.8826
 155   2.0000      -0.542186       -14.7536
 156   2.0000      -0.541366       -14.7313
 157   2.0000      -0.536382       -14.5957
 158   2.0000      -0.533148       -14.5077
 159   2.0000      -0.529970       -14.4212
 160   2.0000      -0.527786       -14.3618
 161   2.0000      -0.525673       -14.3043
 162   2.0000      -0.524641       -14.2762
 163   2.0000      -0.522491       -14.2177
 164   2.0000      -0.517361       -14.0781
 165   2.0000      -0.516606       -14.0576
 166   2.0000      -0.514969       -14.0130
 167   2.0000      -0.512752       -13.9527
 168   2.0000      -0.505372       -13.7519
 169   2.0000      -0.505091       -13.7442
 170   2.0000      -0.501991       -13.6599
 171   2.0000      -0.498606       -13.5677
 172   2.0000      -0.496210       -13.5026
 173   2.0000      -0.494769       -13.4634
 174   2.0000      -0.491424       -13.3723
 175   2.0000      -0.488854       -13.3024
 176   2.0000      -0.485263       -13.2047
 177   2.0000      -0.481149       -13.0927
 178   2.0000      -0.477957       -13.0059
 179   2.0000      -0.472120       -12.8470
 180   2.0000      -0.470887       -12.8135
 181   2.0000      -0.458132       -12.4664
 182   2.0000      -0.456123       -12.4117
 183   2.0000      -0.453781       -12.3480
 184   2.0000      -0.451623       -12.2893
 185   2.0000      -0.449531       -12.2324
 186   2.0000      -0.448858       -12.2141
 187   2.0000      -0.447879       -12.1874
 188   2.0000      -0.447389       -12.1741
 189   2.0000      -0.445956       -12.1351
 190   2.0000      -0.443907       -12.0793
 191   2.0000      -0.441673       -12.0185
 192   2.0000      -0.439972       -11.9722
 193   2.0000      -0.439877       -11.9697
 194   2.0000      -0.438933       -11.9440
 195   2.0000      -0.435779       -11.8581
 196   2.0000      -0.435276       -11.8445
 197   2.0000      -0.432387       -11.7658
 198   2.0000      -0.430334       -11.7100
 199   2.0000      -0.428699       -11.6655
 200   2.0000      -0.425561       -11.5801
 201   2.0000      -0.424349       -11.5471
 202   2.0000      -0.421399       -11.4668
 203   2.0000      -0.417979       -11.3738
 204   2.0000      -0.416148       -11.3240
 205   2.0000      -0.415296       -11.3008
 206   2.0000      -0.412529       -11.2255
 207   2.0000      -0.410201       -11.1621
 208   2.0000      -0.403660       -10.9841
 209   2.0000      -0.401735       -10.9318
 210   2.0000      -0.390776       -10.6336
 211   2.0000      -0.389158       -10.5895
 212   2.0000      -0.386845       -10.5266
 213   2.0000      -0.383925       -10.4471
 214   2.0000      -0.381130       -10.3711
 215   2.0000      -0.376123       -10.2348
 216   2.0000      -0.369910       -10.0658
 217   2.0000      -0.356715        -9.7067
 218   2.0000      -0.350291        -9.5319
 219   2.0000      -0.347474        -9.4553
 220   2.0000      -0.344047        -9.3620
 221   2.0000      -0.335106        -9.1187
 222   2.0000      -0.329285        -8.9603
 223   2.0000      -0.321609        -8.7514
 224   2.0000      -0.319816        -8.7026
 225   2.0000      -0.305224        -8.3056
 226   2.0000      -0.300535        -8.1780
 227   2.0000      -0.297209        -8.0875
 228   2.0000      -0.289780        -7.8853
 229   2.0000      -0.279371        -7.6021
 230   0.0000      -0.125963        -3.4276
 231   0.0000      -0.096233        -2.6186
 232   0.0000      -0.093407        -2.5417
 233   0.0000      -0.064967        -1.7678
 234   0.0000      -0.059329        -1.6144

MULLIKEN ATOMIC CHARGES
-----------------------
   0 C :    0.299662
   1 C :   -0.313926
   2 C :   -0.167279
   3 N :    0.137177
   4 C :   -0.183363
   5 N :    0.148987
   6 C :    0.041216
   7 C :    0.001648
   8 C :   -0.075719
   9 C :    0.092951
  10 C :    0.096102
  11 C :   -0.079233
  12 C :   -0.016392
  13 C :    0.037339
  14 C :    0.036447
  15 C :   -0.014545
  16 C :    0.133586
  17 O :   -0.131625
  18 C :   -0.095827
  19 C :    0.067579
  20 C :   -0.031730
  21 N :   -0.080042
  22 N :   -0.035288
  23 C :   -0.103419
  24 C :    0.080271
  25 C :    0.066702
  26 C :    0.154436
  27 C :   -0.043316
  28 C :   -0.065289
  29 N :    0.105837
  30 C :   -0.137904
  31 C :   -0.129154
  32 N :    0.034902
  33 C :   -0.198827
  34 N :    0.233742
  35 C :   -0.195000
  36 N :    0.227335
  37 C :    0.135206
  38 C :    0.030862
  39 C :   -0.006392
  40 N :   -0.239807
  41 S :    0.579997
  42 N :   -0.295780
  43 C :   -0.109501
  44 N :   -0.040627
  45 N :   -0.055754
  46 C :   -0.024530
  47 C :    0.110095
  48 C :    0.027398
  49 C :    0.017066
  50 C :   -0.079886
  51 C :    0.294385
  52 C :   -0.322790
  53 C :   -0.183673
  54 N :    0.157029
  55 C :   -0.207514
  56 N :    0.175145
  57 C :    0.051094
  58 C :   -0.013832
  59 C :    0.153729
  60 O :   -0.140495
  61 C :   -0.071340
  62 C :    0.096376
  63 C :    0.094644
  64 C :   -0.077159
  65 C :   -0.015643
  66 C :    0.036698
  67 C :    0.035496
  68 C :   -0.012698
  69 H :   -0.009158
  70 H :   -0.005191
  71 H :   -0.010334
  72 H :   -0.003208
  73 H :   -0.003084
  74 H :   -0.015776
  75 H :    0.027216
  76 H :    0.005282
  77 H :    0.003145
  78 H :    0.001362
  79 H :    0.005450
  80 H :    0.049869
  81 H :   -0.010956
  82 H :   -0.004810
  83 H :   -0.007478
  84 H :   -0.000794
  85 H :   -0.001994
  86 H :   -0.015382
Sum of atomic charges:   -0.0000000

LOEWDIN ATOMIC CHARGES
----------------------
   0 C :    0.082112
   1 C :   -0.121225
   2 C :   -0.009351
   3 N :   -0.067184
   4 C :   -0.015604
   5 N :   -0.059836
   6 C :   -0.019652
   7 C :   -0.058276
   8 C :    0.035345
   9 C :   -0.008161
  10 C :   -0.003938
  11 C :    0.018321
  12 C :   -0.006152
  13 C :   -0.011121
  14 C :   -0.011461
  15 C :   -0.008070
  16 C :    0.085039
  17 O :   -0.132750
  18 C :   -0.051417
  19 C :    0.059822
  20 C :   -0.022624
  21 N :   -0.038371
  22 N :   -0.017839
  23 C :    0.004128
  24 C :    0.026899
  25 C :    0.012901
  26 C :   -0.009406
  27 C :   -0.007085
  28 C :    0.009410
  29 N :    0.033779
  30 C :   -0.032597
  31 C :   -0.019004
  32 N :   -0.009389
  33 C :   -0.036335
  34 N :   -0.001979
  35 C :   -0.033517
  36 N :   -0.004640
  37 C :   -0.020897
  38 C :   -0.037761
  39 C :   -0.031381
  40 N :   -0.252681
  41 S :    0.714523
  42 N :   -0.297104
  43 C :    0.000094
  44 N :   -0.018299
  45 N :   -0.028574
  46 C :   -0.021911
  47 C :    0.028662
  48 C :    0.008983
  49 C :    0.074779
  50 C :   -0.071996
  51 C :    0.073101
  52 C :   -0.124460
  53 C :   -0.016559
  54 N :   -0.044268
  55 C :   -0.025728
  56 N :   -0.036922
  57 C :   -0.025906
  58 C :   -0.058251
  59 C :    0.086034
  60 O :   -0.131542
  61 C :    0.036661
  62 C :   -0.007645
  63 C :   -0.004248
  64 C :    0.021991
  65 C :   -0.004162
  66 C :   -0.010150
  67 C :   -0.009929
  68 C :   -0.008048
  69 H :    0.040346
  70 H :    0.039182
  71 H :    0.034407
  72 H :    0.033814
  73 H :    0.033576
  74 H :    0.032598
  75 H :    0.049035
  76 H :    0.039497
  77 H :    0.041772
  78 H :    0.038245
  79 H :    0.038779
  80 H :    0.054741
  81 H :    0.039897
  82 H :    0.039937
  83 H :    0.035586
  84 H :    0.034699
  85 H :    0.034031
  86 H :    0.032684

  Mayer bond orders larger than 0.100000
B(  0-C ,  1-C ) :   1.6811 B(  0-C ,  6-C ) :   1.0212 B(  0-C , 18-C ) :   0.9904
B(  1-C ,  2-C ) :   1.1448 B(  1-C ,  4-C ) :   1.1590 B(  2-C ,  3-N ) :   2.9630
B(  4-C ,  5-N ) :   2.9733 B(  6-C ,  7-C ) :   1.2070 B(  6-C , 11-C ) :   1.4520
B(  7-C ,  8-C ) :   1.4674 B(  7-C , 16-C ) :   0.9221 B(  8-C ,  9-C ) :   1.1936
B(  8-C , 69-H ) :   1.0160 B(  9-C , 10-C ) :   1.2532 B(  9-C , 15-C ) :   1.2417
B( 10-C , 11-C ) :   1.2085 B( 10-C , 12-C ) :   1.2389 B( 11-C , 70-H ) :   0.9937
B( 12-C , 13-C ) :   1.4910 B( 12-C , 71-H ) :   0.9980 B( 13-C , 14-C ) :   1.2573
B( 13-C , 72-H ) :   0.9890 B( 14-C , 15-C ) :   1.4925 B( 14-C , 73-H ) :   0.9891
B( 15-C , 74-H ) :   0.9982 B( 16-C , 17-O ) :   2.2907 B( 16-C , 18-C ) :   0.9201
B( 18-C , 19-C ) :   1.7852 B( 19-C , 20-C ) :   1.0003 B( 19-C , 75-H ) :   0.9516
B( 20-C , 21-N ) :   1.4587 B( 20-C , 25-C ) :   1.3065 B( 21-N , 22-N ) :   1.3704
B( 22-N , 23-C ) :   1.5139 B( 23-C , 24-C ) :   1.3329 B( 23-C , 26-C ) :   0.9730
B( 24-C , 25-C ) :   1.4002 B( 24-C , 76-H ) :   0.9756 B( 25-C , 77-H ) :   0.9891
B( 26-C , 27-C ) :   1.3295 B( 26-C , 37-C ) :   0.1452 B( 26-C , 39-C ) :   1.2631
B( 27-C , 28-C ) :   1.0964 B( 27-C , 32-N ) :   1.4143 B( 28-C , 29-N ) :   1.4368
B( 28-C , 37-C ) :   1.2930 B( 29-N , 30-C ) :   1.7425 B( 30-C , 31-C ) :   1.1772
B( 30-C , 35-C ) :   1.1492 B( 31-C , 32-N ) :   1.7535 B( 31-C , 33-C ) :   1.1390
B( 33-C , 34-N ) :   3.0536 B( 35-C , 36-N ) :   3.0454 B( 37-C , 38-C ) :   1.2626
B( 37-C , 43-C ) :   1.0188 B( 38-C , 39-C ) :   1.1076 B( 38-C , 42-N ) :   1.4909
B( 39-C , 40-N ) :   1.4814 B( 40-N , 41-S ) :   1.3196 B( 40-N , 42-N ) :   0.1555
B( 41-S , 42-N ) :   1.2756 B( 43-C , 44-N ) :   1.4919 B( 43-C , 48-C ) :   1.3350
B( 44-N , 45-N ) :   1.3906 B( 45-N , 46-C ) :   1.4853 B( 46-C , 47-C ) :   1.3141
B( 46-C , 49-C ) :   1.0316 B( 47-C , 48-C ) :   1.4093 B( 47-C , 78-H ) :   0.9693
B( 48-C , 79-H ) :   0.9724 B( 49-C , 50-C ) :   1.7200 B( 49-C , 80-H ) :   0.9466
B( 50-C , 51-C ) :   1.0228 B( 50-C , 59-C ) :   0.9183 B( 51-C , 52-C ) :   1.6730
B( 51-C , 57-C ) :   1.0043 B( 52-C , 53-C ) :   1.1393 B( 52-C , 55-C ) :   1.1366
B( 53-C , 54-N ) :   2.9722 B( 55-C , 56-N ) :   3.0035 B( 57-C , 58-C ) :   1.2074
B( 57-C , 64-C ) :   1.4458 B( 58-C , 59-C ) :   0.9523 B( 58-C , 61-C ) :   1.4670
B( 59-C , 60-O ) :   2.2287 B( 61-C , 62-C ) :   1.1864 B( 61-C , 81-H ) :   1.0157
B( 62-C , 63-C ) :   1.2511 B( 62-C , 68-C ) :   1.2426 B( 63-C , 64-C ) :   1.2114
B( 63-C , 65-C ) :   1.2394 B( 64-C , 82-H ) :   0.9897 B( 65-C , 66-C ) :   1.4910
B( 65-C , 83-H ) :   0.9971 B( 66-C , 67-C ) :   1.2575 B( 66-C , 84-H ) :   0.9889
B( 67-C , 68-C ) :   1.4906 B( 67-C , 85-H ) :   0.9893 B( 68-C , 86-H ) :   0.9977

-----------------------------------------------------------------------------
         ABSORPTION SPECTRUM VIA TRANSITION ELECTRIC DIPOLE MOMENTS
-----------------------------------------------------------------------------
State   Energy  Wavelength   fosc         T2         TX        TY        TZ
        (cm-1)    (nm)                  (au**2)     (au)      (au)      (au)
-----------------------------------------------------------------------------
   0   14088.6    709.8   0.127192367   2.97214  -0.76991   1.52497   0.23201
   1   16084.7    621.7   0.187666531   3.84105   1.01157  -1.63169  -0.39416
   2   19588.6    510.5   0.379488367   6.37780   1.45480  -2.05350   0.21100
   3   20478.6    488.3   0.003540119   0.05691   0.12759  -0.17352  -0.10259
   4   21227.1    471.1   0.017353896   0.26914   0.02278  -0.51287  -0.07475
   5   24133.7    414.4   0.042010338   0.57307   0.60323  -0.45561   0.04006
   6   25274.9    395.6   0.071879000   0.93624   0.05139  -0.95347   0.15654
   7   26149.3    382.4   0.006954851   0.08756  -0.25468  -0.13843   0.05944
   8   26333.7    379.7   0.231820812   2.89812   1.12643  -1.26046  -0.20129
   9   26562.6    376.5   0.051718360   0.64099  -0.45141  -0.08904  -0.65520
  10   27167.7    368.1   0.120021721   1.45440   0.44983  -0.65554  -0.90682
  11   27715.7    360.8   0.054255582   0.64446   0.45088  -0.65020   0.13564
  12   28195.9    354.7   0.038614157   0.45085  -0.24373   0.12310   0.61343
  13   28435.2    351.7   0.036871170   0.42688  -0.22810   0.05069   0.61015
  14   28589.2    349.8   0.074894083   0.86242  -0.55473   0.11788  -0.73539
  15   28947.2    345.5   0.040662777   0.46245   0.21872  -0.63991   0.07161
  16   29363.0    340.6   0.028921262   0.32426   0.34165  -0.31725  -0.32694
  17   29594.5    337.9   0.034304895   0.38161  -0.18657   0.09833   0.58063
  18   29777.2    335.8   0.054926064   0.60725  -0.73382   0.21102  -0.15569
  19   30090.1    332.3   0.054938530   0.60108   0.67007  -0.30885   0.23810
  20   30523.7    327.6   0.060337459   0.65077  -0.13692   0.38868  -0.69350
  21   30653.5    326.2   0.011256661   0.12089  -0.09739   0.22263   0.24869
  22   30773.5    325.0   0.044492688   0.47598   0.61009  -0.30948   0.08938
  23   31036.8    322.2   0.144059763   1.52806   0.98045   0.06217  -0.75027
  24   31236.1    320.1   0.168457105   1.77545  -0.43499   1.00128   0.76399
  25   31924.4    313.2   0.091255457   0.94105  -0.07197  -0.21818  -0.94248
  26   32368.3    308.9   0.199439714   2.02846   1.24543   0.47103   0.50547
  27   32652.7    306.3   0.067626030   0.68182   0.41531   0.26379   0.66314
  28   33088.3    302.2   0.012986667   0.12921  -0.22034  -0.28399  -0.00327
  29   33183.7    301.4   0.156716099   1.55476  -1.14862   0.21813   0.43342
  30   33531.5    298.2   0.517009887   5.07599   1.79761  -1.08778  -0.81321
  31   33847.5    295.4   0.078755428   0.76600   0.76102  -0.42862   0.05598
  32   34444.9    290.3   0.029867391   0.28546   0.33150  -0.00965  -0.41890
  33   34533.4    289.6   0.033190663   0.31641  -0.13067   0.09359   0.53905
  34   34904.4    286.5   0.235984513   2.22576   1.04786  -0.46015  -0.95709
  35   35169.6    284.3   0.560441614   5.24612   2.01685   0.79012   0.74439
  36   35270.0    283.5   0.057770012   0.53923   0.39216  -0.55598   0.27627
  37   35417.8    282.3   0.941178322   8.74834   0.99839  -0.45476  -2.74677
  38   35722.0    279.9   0.019925721   0.18363  -0.00060  -0.28050  -0.32397
  39   35974.3    278.0   0.245672568   2.24822   0.20256  -0.75488  -1.27959
  40   36183.4    276.4   0.055421787   0.50425  -0.06207   0.69414  -0.13624
  41   36291.3    275.5   0.033512299   0.30400   0.42409  -0.21040  -0.28263
  42   36661.7    272.8   0.063366160   0.56901   0.50279  -0.02296   0.56186
  43   37075.0    269.7   0.182715170   1.62244  -0.96081   0.67024   0.50007
  44   37253.6    268.4   0.067948352   0.60046  -0.29897   0.68632   0.20010
  45   37386.0    267.5   0.054098003   0.47637   0.45916   0.03190   0.51433
  46   37868.7    264.1   0.018509683   0.16091   0.31969   0.21960   0.10241
  47   38039.7    262.9   0.023235585   0.20109   0.08235  -0.10705  -0.42761
  48   38158.6    262.1   0.002087017   0.01801   0.10740  -0.07312  -0.03352
  49   38743.6    258.1   0.201625458   1.71325  -0.18584   0.38004   1.23866
  50   38832.2    257.5   0.005452076   0.04622  -0.13044   0.16960  -0.02100
  51   38855.5    257.4   0.055405465   0.46943   0.52028   0.00421   0.44578
  52   39090.5    255.8   0.054257164   0.45694  -0.28379  -0.11021  -0.60354
  53   39296.9    254.5   0.234313509   1.96297   0.51447  -1.30284  -0.02989
  54   39744.3    251.6   0.037393793   0.30974  -0.24789  -0.45758  -0.19727
  55   39926.5    250.5   0.030675933   0.25294   0.01265  -0.24738  -0.43770
  56   40326.6    248.0   0.140258435   1.14502   0.20598  -0.32066  -0.99988

FINAL SINGLE POINT ENERGY     -3303.524601355901

DIPOLE MOMENT
-------------
                                X             Y             Z
Electronic contribution:     12.55354       2.22216      20.52834
Nuclear contribution   :    -14.08329      -4.52968     -24.25947
                        -----------------------------------------
Total Dipole Moment    :     -1.52974      -2.30753      -3.73113
                        -----------------------------------------
Magnitude (a.u.)       :      4.64609
Magnitude (Debye)      :     11.80942

Rotational constants in cm-1:     0.002095     0.000346     0.000319
Rotational constants in MHz :    62.817768    10.359713     9.554826

                             ****ORCA TERMINATED NORMALLY****
TOTAL RUN TIME: 0 days 0 hours 8 minutes 8 seconds 923 msec
