                         Program Version 4.2.0 -  RELEASE  -
|  1> # ORCA input file
|  2> # SCF done       -202.520314730078          0.000508983489
|  3> ! CAM-B3LYP def2-SVP def2/J RIJCOSX Grid4 TightSCF
|  4> %maxcore 5000
|  5> %tddft
|  6>     Mode sTDDFT
|  7>     Ethresh 5.0
|  8>     maxcore 5000
|  9> end
| 10>
| 11> %pal
| 12>   nprocs 6
| 13>   end
| 14> * xyz 0 1
| 15>    C       -2.72983         3.40449         5.38282
| 16>    C       -3.90872         3.98162         4.98712
| 17>    C       -4.86490         4.50161         5.88179
| 18>    N       -5.66502         4.95544         6.56849
| 19>    C       -4.32890         4.03687         3.64273
| 20>    N       -4.71475         4.06559         2.56164
| 21>    C       -2.37996         3.05888         6.75526
| 22>    C       -1.40063         2.02268         6.72323
| 23>    C       -0.91371         1.46362         7.86937
| 24>    C       -1.38171         1.93256         9.11793
| 25>    C       -2.34622         2.98110         9.15543
| 26>    C       -2.84067         3.53528         7.95240
| 27>    C       -2.79682         3.44526        10.40779
| 28>    C       -2.32208         2.89899        11.56901
| 29>    C       -1.37452         1.86521        11.53143
| 30>    C       -0.91490         1.39208        10.33231
| 31>    C       -1.04846         1.72619         5.32248
| 32>    O       -0.30000         0.87540         4.90127
| 33>    C       -1.76484         2.75868         4.51750
| 34>    C       -1.37683         3.00115         3.23739
| 35>    C       -1.59102         4.15336         2.44376
| 36>    C       -1.48736         4.22422         1.06344
| 37>    C       -1.72796         5.50672         0.58034
| 38>    C       -1.97399         6.43723         1.60909
| 39>    S       -1.92761         5.73124         3.15528
| 40>    C       -2.21392         7.70457         1.02680
| 41>    C       -2.13280         7.57878        -0.37065
| 42>    C       -1.81598         6.19643        -0.69720
| 43>    C       -1.63927         5.66443        -1.93995
| 44>    C       -1.75764         6.43802        -3.11470
| 45>    N       -1.84844         7.05715        -4.07521
| 46>    C       -1.31397         4.30495        -2.13522
| 47>    N       -1.04034         3.20431        -2.30207
| 48>    C       -2.38320         8.77550        -1.03955
| 49>    C       -2.65186         9.81686        -0.17119
| 50>    S       -2.58603         9.29446         1.51229
| 51>    C       -2.97154        11.18354        -0.46815
| 52>    C       -3.05856        12.12372         0.55016
| 53>    C       -3.39052        13.44600         0.31265
| 54>    C       -3.66700        13.92687        -0.96044
| 55>    C       -3.57514        12.99802        -2.04410
| 56>    N       -3.80350        13.41227        -3.30315
| 57>    C       -3.72075        12.54969        -4.27960
| 58>    C       -3.40255        11.20250        -4.03629
| 59>    N       -3.16288        10.77147        -2.82755
| 60>    C       -3.23042        11.63646        -1.79984
| 61>    C       -4.03335        15.30018        -1.15592
| 62>    C       -4.49635        15.92337        -2.29936
| 63>    C       -4.77387        17.27359        -2.09269
| 64>    C       -4.51281        17.69107        -0.77595
| 65>    S       -3.93474        16.42072         0.20248
| 66>    C       -4.82905        19.06550        -0.66396
| 67>    C       -5.30365        19.52066        -1.91451
| 68>    C       -5.26525        18.41129        -2.85561
| 69>    C       -5.59425        18.42904        -4.17825
| 70>    C       -6.01519        19.59733        -4.85102
| 71>    N       -6.33779        20.53207        -5.43030
| 72>    C       -5.51161        17.27362        -4.98574
| 73>    N       -5.45038        16.34136        -5.65043
| 74>    C       -5.67722        20.85807        -1.90147
| 75>    C       -5.48829        21.44239        -0.65531
| 76>    S       -4.81185        20.29322         0.50892
| 77>    C       -5.68000        22.75634        -0.18218
| 78>    C       -6.38342        23.79642        -0.72274
| 79>    C       -6.41617        25.13483        -0.15741
| 80>    C       -5.54214        25.65559         0.76221
| 81>    C       -5.61231        26.97468         1.25728
| 82>    N       -5.61620        28.03162         1.70555
| 83>    C       -4.43489        24.97947         1.31581
| 84>    N       -3.50501        24.50507         1.79546
| 85>    C       -7.49566        25.86821        -0.80536
| 86>    C       -8.06539        25.03626        -1.80993
| 87>    C       -7.37729        23.73446        -1.82555
| 88>    O       -7.62797        22.80147        -2.55850
| 89>    C       -9.10150        25.45493        -2.59369
| 90>    C       -9.62851        26.75167        -2.40160
| 91>    C       -9.06885        27.58879        -1.39341
| 92>    C       -7.99411        27.12739        -0.59909
| 93>    C       -9.60678        28.87829        -1.20602
| 94>    C      -10.64693        29.32163        -1.97671
| 95>    C      -11.19676        28.49681        -2.96936
| 96>    C      -10.69787        27.23951        -3.17790
| 97>    H       -0.17998         0.67254         7.82574
| 98>    H       -3.56461         4.33364         8.00615
| 99>    H       -3.52932         4.23872        10.43119
|100>    H       -2.67489         3.26018        12.52336
|101>    H       -1.01043         1.44573        12.45728
|102>    H       -0.18540         0.59623        10.29752
|103>    H       -0.75285         2.23459         2.78703
|104>    H       -1.28103         3.36156         0.45592
|105>    H       -2.38545         8.91197        -2.10475
|106>    H       -2.86277        11.81550         1.56710
|107>    H       -3.44496        14.12302         1.15302
|108>    H       -3.91072        12.92752        -5.27452
|109>    H       -3.33877        10.47189        -4.83058
|110>    H       -4.61589        15.39149        -3.22455
|111>    H       -6.07680        21.39756        -2.74026
|112>    H       -5.20717        22.93933         0.77627
|113>    H       -9.51302        24.80395        -3.35066
|114>    H       -7.59717        27.78260         0.15990
|115>    H       -9.17905        29.51010        -0.44142
|116>    H      -11.05184        30.31106        -1.82554
|117>    H      -12.01773        28.86250        -3.56779
|118>    H      -11.11692        26.59984        -3.94077
|119> *
|120>
|121>                          ****END OF INPUT****

CARTESIAN COORDINATES (ANGSTROEM)
---------------------------------
  C     -2.729830    3.404490    5.382820
  C     -3.908720    3.981620    4.987120
  C     -4.864900    4.501610    5.881790
  N     -5.665020    4.955440    6.568490
  C     -4.328900    4.036870    3.642730
  N     -4.714750    4.065590    2.561640
  C     -2.379960    3.058880    6.755260
  C     -1.400630    2.022680    6.723230
  C     -0.913710    1.463620    7.869370
  C     -1.381710    1.932560    9.117930
  C     -2.346220    2.981100    9.155430
  C     -2.840670    3.535280    7.952400
  C     -2.796820    3.445260   10.407790
  C     -2.322080    2.898990   11.569010
  C     -1.374520    1.865210   11.531430
  C     -0.914900    1.392080   10.332310
  C     -1.048460    1.726190    5.322480
  O     -0.300000    0.875400    4.901270
  C     -1.764840    2.758680    4.517500
  C     -1.376830    3.001150    3.237390
  C     -1.591020    4.153360    2.443760
  C     -1.487360    4.224220    1.063440
  C     -1.727960    5.506720    0.580340
  C     -1.973990    6.437230    1.609090
  S     -1.927610    5.731240    3.155280
  C     -2.213920    7.704570    1.026800
  C     -2.132800    7.578780   -0.370650
  C     -1.815980    6.196430   -0.697200
  C     -1.639270    5.664430   -1.939950
  C     -1.757640    6.438020   -3.114700
  N     -1.848440    7.057150   -4.075210
  C     -1.313970    4.304950   -2.135220
  N     -1.040340    3.204310   -2.302070
  C     -2.383200    8.775500   -1.039550
  C     -2.651860    9.816860   -0.171190
  S     -2.586030    9.294460    1.512290
  C     -2.971540   11.183540   -0.468150
  C     -3.058560   12.123720    0.550160
  C     -3.390520   13.446000    0.312650
  C     -3.667000   13.926870   -0.960440
  C     -3.575140   12.998020   -2.044100
  N     -3.803500   13.412270   -3.303150
  C     -3.720750   12.549690   -4.279600
  C     -3.402550   11.202500   -4.036290
  N     -3.162880   10.771470   -2.827550
  C     -3.230420   11.636460   -1.799840
  C     -4.033350   15.300180   -1.155920
  C     -4.496350   15.923370   -2.299360
  C     -4.773870   17.273590   -2.092690
  C     -4.512810   17.691070   -0.775950
  S     -3.934740   16.420720    0.202480
  C     -4.829050   19.065500   -0.663960
  C     -5.303650   19.520660   -1.914510
  C     -5.265250   18.411290   -2.855610
  C     -5.594250   18.429040   -4.178250
  C     -6.015190   19.597330   -4.851020
  N     -6.337790   20.532070   -5.430300
  C     -5.511610   17.273620   -4.985740
  N     -5.450380   16.341360   -5.650430
  C     -5.677220   20.858070   -1.901470
  C     -5.488290   21.442390   -0.655310
  S     -4.811850   20.293220    0.508920
  C     -5.680000   22.756340   -0.182180
  C     -6.383420   23.796420   -0.722740
  C     -6.416170   25.134830   -0.157410
  C     -5.542140   25.655590    0.762210
  C     -5.612310   26.974680    1.257280
  N     -5.616200   28.031620    1.705550
  C     -4.434890   24.979470    1.315810
  N     -3.505010   24.505070    1.795460
  C     -7.495660   25.868210   -0.805360
  C     -8.065390   25.036260   -1.809930
  C     -7.377290   23.734460   -1.825550
  O     -7.627970   22.801470   -2.558500
  C     -9.101500   25.454930   -2.593690
  C     -9.628510   26.751670   -2.401600
  C     -9.068850   27.588790   -1.393410
  C     -7.994110   27.127390   -0.599090
  C     -9.606780   28.878290   -1.206020
  C    -10.646930   29.321630   -1.976710
  C    -11.196760   28.496810   -2.969360
  C    -10.697870   27.239510   -3.177900
  H     -0.179980    0.672540    7.825740
  H     -3.564610    4.333640    8.006150
  H     -3.529320    4.238720   10.431190
  H     -2.674890    3.260180   12.523360
  H     -1.010430    1.445730   12.457280
  H     -0.185400    0.596230   10.297520
  H     -0.752850    2.234590    2.787030
  H     -1.281030    3.361560    0.455920
  H     -2.385450    8.911970   -2.104750
  H     -2.862770   11.815500    1.567100
  H     -3.444960   14.123020    1.153020
  H     -3.910720   12.927520   -5.274520
  H     -3.338770   10.471890   -4.830580
  H     -4.615890   15.391490   -3.224550
  H     -6.076800   21.397560   -2.740260
  H     -5.207170   22.939330    0.776270
  H     -9.513020   24.803950   -3.350660
  H     -7.597170   27.782600    0.159900
  H     -9.179050   29.510100   -0.441420
  H    -11.051840   30.311060   -1.825540
  H    -12.017730   28.862500   -3.567790
  H    -11.116920   26.599840   -3.940770

 Total Charge           Charge          ....    0
 Multiplicity           Mult            ....    1
 Number of Electrons    NEL             ....  568
 Basis Dimension        Dim             .... 1274

ORBITAL ENERGIES
----------------

  NO   OCC          E(Eh)            E(eV)
   0   2.0000     -88.997099     -2421.7342
   1   2.0000     -88.996772     -2421.7253
   2   2.0000     -88.994402     -2421.6608
   3   2.0000     -88.994224     -2421.6559
   4   2.0000     -19.216635      -522.9112
   5   2.0000     -19.215965      -522.8930
   6   2.0000     -14.440702      -392.9515
   7   2.0000     -14.440569      -392.9479
   8   2.0000     -14.432959      -392.7408
   9   2.0000     -14.432783      -392.7360
  10   2.0000     -14.432717      -392.7342
  11   2.0000     -14.429463      -392.6456
  12   2.0000     -14.418817      -392.3560
  13   2.0000     -14.417666      -392.3246
  14   2.0000     -14.415724      -392.2718
  15   2.0000     -14.412914      -392.1953
  16   2.0000     -10.368486      -282.1408
  17   2.0000     -10.368310      -282.1360
  18   2.0000     -10.368114      -282.1307
  19   2.0000     -10.368074      -282.1296
  20   2.0000     -10.355615      -281.7906
  21   2.0000     -10.354648      -281.7643
  22   2.0000     -10.346839      -281.5518
  23   2.0000     -10.346351      -281.5385
  24   2.0000     -10.345690      -281.5205
  25   2.0000     -10.345153      -281.5059
  26   2.0000     -10.340356      -281.3754
  27   2.0000     -10.339798      -281.3602
  28   2.0000     -10.339695      -281.3574
  29   2.0000     -10.339454      -281.3509
  30   2.0000     -10.336763      -281.2776
  31   2.0000     -10.336462      -281.2694
  32   2.0000     -10.334023      -281.2031
  33   2.0000     -10.333729      -281.1951
  34   2.0000     -10.333138      -281.1790
  35   2.0000     -10.332775      -281.1691
  36   2.0000     -10.332740      -281.1681
  37   2.0000     -10.331328      -281.1297
  38   2.0000     -10.330257      -281.1006
  39   2.0000     -10.329909      -281.0911
  40   2.0000     -10.328783      -281.0605
  41   2.0000     -10.328718      -281.0587
  42   2.0000     -10.327721      -281.0316
  43   2.0000     -10.326759      -281.0054
  44   2.0000     -10.321387      -280.8592
  45   2.0000     -10.319631      -280.8114
  46   2.0000     -10.318947      -280.7928
  47   2.0000     -10.317967      -280.7662
  48   2.0000     -10.317835      -280.7626
  49   2.0000     -10.316090      -280.7151
  50   2.0000     -10.315085      -280.6877
  51   2.0000     -10.309423      -280.5337
  52   2.0000     -10.309366      -280.5321
  53   2.0000     -10.309201      -280.5276
  54   2.0000     -10.308335      -280.5041
  55   2.0000     -10.308129      -280.4985
  56   2.0000     -10.307035      -280.4687
  57   2.0000     -10.306534      -280.4551
  58   2.0000     -10.306327      -280.4494
  59   2.0000     -10.301291      -280.3124
  60   2.0000     -10.301277      -280.3120
  61   2.0000     -10.300934      -280.3027
  62   2.0000     -10.300495      -280.2907
  63   2.0000     -10.300075      -280.2793
  64   2.0000     -10.299773      -280.2711
  65   2.0000     -10.299510      -280.2639
  66   2.0000     -10.296602      -280.1848
  67   2.0000     -10.296416      -280.1797
  68   2.0000     -10.296379      -280.1787
  69   2.0000     -10.296127      -280.1719
  70   2.0000     -10.295456      -280.1536
  71   2.0000     -10.294908      -280.1387
  72   2.0000     -10.292069      -280.0614
  73   2.0000     -10.288813      -279.9728
  74   2.0000     -10.288478      -279.9637
  75   2.0000     -10.288223      -279.9568
  76   2.0000     -10.287857      -279.9468
  77   2.0000     -10.287087      -279.9259
  78   2.0000     -10.285351      -279.8786
  79   2.0000     -10.284808      -279.8638
  80   2.0000     -10.284629      -279.8590
  81   2.0000     -10.284199      -279.8473
  82   2.0000      -8.091533      -220.1818
  83   2.0000      -8.091357      -220.1770
  84   2.0000      -8.088914      -220.1106
  85   2.0000      -8.088668      -220.1038
  86   2.0000      -6.060629      -164.9181
  87   2.0000      -6.060622      -164.9179
  88   2.0000      -6.058167      -164.8511
  89   2.0000      -6.057889      -164.8435
  90   2.0000      -6.056512      -164.8061
  91   2.0000      -6.056370      -164.8022
  92   2.0000      -6.054106      -164.7406
  93   2.0000      -6.053972      -164.7369
  94   2.0000      -6.053756      -164.7311
  95   2.0000      -6.053736      -164.7305
  96   2.0000      -6.051317      -164.6647
  97   2.0000      -6.051112      -164.6591
  98   2.0000      -1.132082       -30.8055
  99   2.0000      -1.131525       -30.7904
 100   2.0000      -1.099257       -29.9123
 101   2.0000      -1.050754       -28.5925
 102   2.0000      -1.050295       -28.5800
 103   2.0000      -1.025519       -27.9058
 104   2.0000      -1.023925       -27.8624
 105   2.0000      -1.022928       -27.8353
 106   2.0000      -1.021276       -27.7903
 107   2.0000      -1.017687       -27.6927
 108   2.0000      -1.010326       -27.4924
 109   2.0000      -1.008172       -27.4337
 110   2.0000      -1.006269       -27.3820
 111   2.0000      -1.002795       -27.2874
 112   2.0000      -1.000999       -27.2386
 113   2.0000      -0.997653       -27.1475
 114   2.0000      -0.996028       -27.1033
 115   2.0000      -0.992665       -27.0118
 116   2.0000      -0.980258       -26.6742
 117   2.0000      -0.974221       -26.5099
 118   2.0000      -0.970625       -26.4120
 119   2.0000      -0.963887       -26.2287
 120   2.0000      -0.957225       -26.0474
 121   2.0000      -0.930431       -25.3183
 122   2.0000      -0.927776       -25.2461
 123   2.0000      -0.922347       -25.0983
 124   2.0000      -0.917472       -24.9657
 125   2.0000      -0.904387       -24.6096
 126   2.0000      -0.897996       -24.4357
 127   2.0000      -0.887577       -24.1522
 128   2.0000      -0.884307       -24.0632
 129   2.0000      -0.881685       -23.9919
 130   2.0000      -0.880008       -23.9462
 131   2.0000      -0.877899       -23.8888
 132   2.0000      -0.875609       -23.8265
 133   2.0000      -0.867947       -23.6180
 134   2.0000      -0.860450       -23.4140
 135   2.0000      -0.857834       -23.3429
 136   2.0000      -0.856902       -23.3175
 137   2.0000      -0.830939       -22.6110
 138   2.0000      -0.827029       -22.5046
 139   2.0000      -0.823920       -22.4200
 140   2.0000      -0.813891       -22.1471
 141   2.0000      -0.797727       -21.7073
 142   2.0000      -0.785131       -21.3645
 143   2.0000      -0.781281       -21.2597
 144   2.0000      -0.774410       -21.0728
 145   2.0000      -0.772488       -21.0205
 146   2.0000      -0.763007       -20.7625
 147   2.0000      -0.761588       -20.7239
 148   2.0000      -0.760886       -20.7048
 149   2.0000      -0.746635       -20.3170
 150   2.0000      -0.728189       -19.8150
 151   2.0000      -0.716275       -19.4908
 152   2.0000      -0.710233       -19.3264
 153   2.0000      -0.704206       -19.1624
 154   2.0000      -0.703837       -19.1524
 155   2.0000      -0.702253       -19.1093
 156   2.0000      -0.698596       -19.0098
 157   2.0000      -0.695177       -18.9167
 158   2.0000      -0.689002       -18.7487
 159   2.0000      -0.685400       -18.6507
 160   2.0000      -0.682114       -18.5613
 161   2.0000      -0.679086       -18.4789
 162   2.0000      -0.673322       -18.3220
 163   2.0000      -0.667369       -18.1600
 164   2.0000      -0.656189       -17.8558
 165   2.0000      -0.652274       -17.7493
 166   2.0000      -0.645118       -17.5546
 167   2.0000      -0.642228       -17.4759
 168   2.0000      -0.635768       -17.3001
 169   2.0000      -0.632178       -17.2024
 170   2.0000      -0.631723       -17.1901
 171   2.0000      -0.627321       -17.0703
 172   2.0000      -0.620982       -16.8978
 173   2.0000      -0.617246       -16.7961
 174   2.0000      -0.613702       -16.6997
 175   2.0000      -0.610274       -16.6064
 176   2.0000      -0.608301       -16.5527
 177   2.0000      -0.605360       -16.4727
 178   2.0000      -0.598501       -16.2861
 179   2.0000      -0.592471       -16.1220
 180   2.0000      -0.587696       -15.9920
 181   2.0000      -0.578205       -15.7338
 182   2.0000      -0.573529       -15.6065
 183   2.0000      -0.563447       -15.3322
 184   2.0000      -0.560054       -15.2398
 185   2.0000      -0.555717       -15.1218
 186   2.0000      -0.554895       -15.0995
 187   2.0000      -0.551127       -14.9969
 188   2.0000      -0.549810       -14.9611
 189   2.0000      -0.548275       -14.9193
 190   2.0000      -0.548098       -14.9145
 191   2.0000      -0.546316       -14.8660
 192   2.0000      -0.545623       -14.8471
 193   2.0000      -0.540711       -14.7135
 194   2.0000      -0.538449       -14.6520
 195   2.0000      -0.536409       -14.5964
 196   2.0000      -0.535973       -14.5846
 197   2.0000      -0.531057       -14.4508
 198   2.0000      -0.524573       -14.2744
 199   2.0000      -0.522642       -14.2218
 200   2.0000      -0.520793       -14.1715
 201   2.0000      -0.519309       -14.1311
 202   2.0000      -0.517396       -14.0791
 203   2.0000      -0.515287       -14.0217
 204   2.0000      -0.514575       -14.0023
 205   2.0000      -0.512179       -13.9371
 206   2.0000      -0.509253       -13.8575
 207   2.0000      -0.507699       -13.8152
 208   2.0000      -0.506689       -13.7877
 209   2.0000      -0.504016       -13.7150
 210   2.0000      -0.503385       -13.6978
 211   2.0000      -0.502180       -13.6650
 212   2.0000      -0.498576       -13.5670
 213   2.0000      -0.496918       -13.5218
 214   2.0000      -0.495665       -13.4877
 215   2.0000      -0.492735       -13.4080
 216   2.0000      -0.491259       -13.3678
 217   2.0000      -0.490599       -13.3499
 218   2.0000      -0.483806       -13.1650
 219   2.0000      -0.483598       -13.1594
 220   2.0000      -0.481816       -13.1109
 221   2.0000      -0.481270       -13.0960
 222   2.0000      -0.473977       -12.8976
 223   2.0000      -0.470780       -12.8106
 224   2.0000      -0.467540       -12.7224
 225   2.0000      -0.463972       -12.6253
 226   2.0000      -0.463821       -12.6212
 227   2.0000      -0.463002       -12.5989
 228   2.0000      -0.461709       -12.5637
 229   2.0000      -0.459902       -12.5146
 230   2.0000      -0.456819       -12.4307
 231   2.0000      -0.454054       -12.3554
 232   2.0000      -0.452228       -12.3057
 233   2.0000      -0.450609       -12.2617
 234   2.0000      -0.449961       -12.2441
 235   2.0000      -0.448394       -12.2014
 236   2.0000      -0.446762       -12.1570
 237   2.0000      -0.444662       -12.0999
 238   2.0000      -0.443386       -12.0652
 239   2.0000      -0.442830       -12.0500
 240   2.0000      -0.442061       -12.0291
 241   2.0000      -0.441508       -12.0141
 242   2.0000      -0.440569       -11.9885
 243   2.0000      -0.440058       -11.9746
 244   2.0000      -0.438800       -11.9404
 245   2.0000      -0.437528       -11.9058
 246   2.0000      -0.436445       -11.8763
 247   2.0000      -0.433687       -11.8012
 248   2.0000      -0.432803       -11.7772
 249   2.0000      -0.431808       -11.7501
 250   2.0000      -0.430077       -11.7030
 251   2.0000      -0.428330       -11.6554
 252   2.0000      -0.427117       -11.6224
 253   2.0000      -0.426367       -11.6020
 254   2.0000      -0.426065       -11.5938
 255   2.0000      -0.421798       -11.4777
 256   2.0000      -0.419084       -11.4039
 257   2.0000      -0.418313       -11.3829
 258   2.0000      -0.409740       -11.1496
 259   2.0000      -0.407354       -11.0847
 260   2.0000      -0.403634       -10.9834
 261   2.0000      -0.401375       -10.9220
 262   2.0000      -0.394971       -10.7477
 263   2.0000      -0.390157       -10.6167
 264   2.0000      -0.384256       -10.4561
 265   2.0000      -0.377348       -10.2681
 266   2.0000      -0.373032       -10.1507
 267   2.0000      -0.361208        -9.8290
 268   2.0000      -0.355416        -9.6714
 269   2.0000      -0.352970        -9.6048
 270   2.0000      -0.349359        -9.5065
 271   2.0000      -0.344119        -9.3640
 272   2.0000      -0.338710        -9.2168
 273   2.0000      -0.334951        -9.1145
 274   2.0000      -0.334637        -9.1059
 275   2.0000      -0.326580        -8.8867
 276   2.0000      -0.324705        -8.8357
 277   2.0000      -0.319933        -8.7058
 278   2.0000      -0.316644        -8.6163
 279   2.0000      -0.310085        -8.4378
 280   2.0000      -0.297566        -8.0972
 281   2.0000      -0.293231        -7.9792
 282   2.0000      -0.276957        -7.5364
 283   2.0000      -0.253497        -6.8980
 284   0.0000      -0.119769        -3.2591
 285   0.0000      -0.111523        -3.0347
 286   0.0000      -0.090990        -2.4760
 287   0.0000      -0.089467        -2.4345
 288   0.0000      -0.073991        -2.0134

MULLIKEN ATOMIC CHARGES
-----------------------
   0 C :    0.248599
   1 C :   -0.330285
   2 C :   -0.174724
   3 N :    0.155864
   4 C :   -0.205229
   5 N :    0.172110
   6 C :    0.035297
   7 C :    0.012635
   8 C :   -0.081534
   9 C :    0.094685
  10 C :    0.095258
  11 C :   -0.080073
  12 C :   -0.020138
  13 C :    0.036734
  14 C :    0.036184
  15 C :   -0.017669
  16 C :    0.142433
  17 O :   -0.140710
  18 C :   -0.143782
  19 C :    0.049468
  20 C :   -0.099042
  21 C :    0.012845
  22 C :    0.021818
  23 C :   -0.078650
  24 S :    0.203818
  25 C :   -0.090518
  26 C :    0.039561
  27 C :    0.303795
  28 C :   -0.296150
  29 C :   -0.185836
  30 N :    0.174522
  31 C :   -0.192692
  32 N :    0.181059
  33 C :   -0.053338
  34 C :   -0.112319
  35 S :    0.164129
  36 C :    0.165741
  37 C :   -0.070039
  38 C :   -0.071769
  39 C :    0.170021
  40 C :   -0.045420
  41 N :   -0.032583
  42 C :    0.044305
  43 C :    0.044471
  44 N :   -0.028720
  45 C :   -0.043992
  46 C :   -0.109898
  47 C :   -0.050578
  48 C :    0.037025
  49 C :   -0.089923
  50 S :    0.161110
  51 C :   -0.082671
  52 C :   -0.013153
  53 C :    0.313111
  54 C :   -0.300965
  55 C :   -0.189943
  56 N :    0.190487
  57 C :   -0.187471
  58 N :    0.171973
  59 C :    0.012393
  60 C :   -0.112350
  61 S :    0.205079
  62 C :    0.030189
  63 C :   -0.093809
  64 C :    0.310105
  65 C :   -0.349601
  66 C :   -0.183570
  67 N :    0.146940
  68 C :   -0.205084
  69 N :    0.156867
  70 C :    0.046124
  71 C :   -0.004183
  72 C :    0.156788
  73 O :   -0.152640
  74 C :   -0.080912
  75 C :    0.098847
  76 C :    0.098796
  77 C :   -0.083775
  78 C :   -0.020647
  79 C :    0.037491
  80 C :    0.035960
  81 C :   -0.017308
  82 H :   -0.009334
  83 H :   -0.005352
  84 H :   -0.009628
  85 H :   -0.004525
  86 H :   -0.004594
  87 H :   -0.014992
  88 H :    0.034601
  89 H :    0.018722
  90 H :    0.024083
  91 H :   -0.002861
  92 H :   -0.002925
  93 H :    0.030905
  94 H :    0.032314
  95 H :    0.023150
  96 H :    0.037074
  97 H :    0.017550
  98 H :   -0.010134
  99 H :   -0.008764
 100 H :   -0.009273
 101 H :   -0.005579
 102 H :   -0.005155
 103 H :   -0.016226
Sum of atomic charges:   -0.0000000

LOEWDIN ATOMIC CHARGES
----------------------
   0 C :    0.060540
   1 C :   -0.145862
   2 C :   -0.019989
   3 N :   -0.051783
   4 C :   -0.036369
   5 N :   -0.049080
   6 C :   -0.023427
   7 C :   -0.056808
   8 C :    0.033000
   9 C :   -0.008929
  10 C :   -0.005569
  11 C :    0.015269
  12 C :   -0.006972
  13 C :   -0.012378
  14 C :   -0.012468
  15 C :   -0.008915
  16 C :    0.083414
  17 O :   -0.141877
  18 C :   -0.099721
  19 C :    0.051082
  20 C :   -0.178889
  21 C :    0.014832
  22 C :   -0.071500
  23 C :   -0.151201
  24 S :    0.507972
  25 C :   -0.185184
  26 C :   -0.058943
  27 C :    0.080918
  28 C :   -0.096468
  29 C :   -0.014315
  30 N :   -0.031598
  31 C :   -0.017485
  32 N :   -0.027953
  33 C :   -0.018102
  34 C :   -0.148320
  35 S :    0.477712
  36 C :   -0.034147
  37 C :   -0.018321
  38 C :   -0.017271
  39 C :   -0.035605
  40 C :    0.002388
  41 N :   -0.024741
  42 C :    0.021015
  43 C :    0.020847
  44 N :   -0.024227
  45 C :    0.002019
  46 C :   -0.146420
  47 C :   -0.019718
  48 C :   -0.057632
  49 C :   -0.187901
  50 S :    0.475156
  51 C :   -0.159080
  52 C :   -0.074022
  53 C :    0.076854
  54 C :   -0.093704
  55 C :   -0.021393
  56 N :   -0.018075
  57 C :   -0.013432
  58 N :   -0.032725
  59 C :    0.021379
  60 C :   -0.176640
  61 S :    0.494292
  62 C :    0.042012
  63 C :   -0.095152
  64 C :    0.076859
  65 C :   -0.143979
  66 C :   -0.017657
  67 N :   -0.055351
  68 C :   -0.025267
  69 N :   -0.055860
  70 C :   -0.026542
  71 C :   -0.054973
  72 C :    0.085453
  73 O :   -0.139376
  74 C :    0.033104
  75 C :   -0.008136
  76 C :   -0.006339
  77 C :    0.019209
  78 C :   -0.005742
  79 C :   -0.013502
  80 C :   -0.012307
  81 C :   -0.009171
  82 H :    0.039982
  83 H :    0.038402
  84 H :    0.034224
  85 H :    0.033233
  86 H :    0.033000
  87 H :    0.032367
  88 H :    0.055161
  89 H :    0.047471
  90 H :    0.038325
  91 H :    0.024796
  92 H :    0.024746
  93 H :    0.034686
  94 H :    0.034897
  95 H :    0.038215
  96 H :    0.044938
  97 H :    0.043144
  98 H :    0.040032
  99 H :    0.038852
 100 H :    0.034642
 101 H :    0.032999
 102 H :    0.032781
 103 H :    0.032292

  Mayer bond orders larger than 0.100000
B(  0-C ,  1-C ) :   1.6507 B(  0-C ,  6-C ) :   1.0034 B(  0-C , 18-C ) :   1.0349
B(  1-C ,  2-C ) :   1.1375 B(  1-C ,  4-C ) :   1.1536 B(  2-C ,  3-N ) :   2.9909
B(  4-C ,  5-N ) :   3.0199 B(  6-C ,  7-C ) :   1.2162 B(  6-C , 11-C ) :   1.4594
B(  7-C ,  8-C ) :   1.4766 B(  7-C , 16-C ) :   0.9207 B(  8-C ,  9-C ) :   1.1855
B(  8-C , 82-H ) :   1.0163 B(  9-C , 10-C ) :   1.2573 B(  9-C , 15-C ) :   1.2450
B( 10-C , 11-C ) :   1.2042 B( 10-C , 12-C ) :   1.2410 B( 11-C , 83-H ) :   0.9946
B( 12-C , 13-C ) :   1.4887 B( 12-C , 84-H ) :   0.9982 B( 13-C , 14-C ) :   1.2607
B( 13-C , 85-H ) :   0.9894 B( 14-C , 15-C ) :   1.4888 B( 14-C , 86-H ) :   0.9893
B( 15-C , 87-H ) :   0.9983 B( 16-C , 17-O ) :   2.2745 B( 16-C , 18-C ) :   0.9357
B( 18-C , 19-C ) :   1.6429 B( 19-C , 20-C ) :   1.1373 B( 19-C , 88-H ) :   0.9473
B( 20-C , 21-C ) :   1.4021 B( 20-C , 24-S ) :   1.0863 B( 21-C , 22-C ) :   1.3036
B( 21-C , 89-H ) :   1.0004 B( 22-C , 23-C ) :   1.4041 B( 22-C , 27-C ) :   0.9897
B( 23-C , 24-S ) :   1.1543 B( 23-C , 25-C ) :   1.2016 B( 25-C , 26-C ) :   1.4305
B( 25-C , 35-S ) :   1.1214 B( 26-C , 27-C ) :   0.9978 B( 26-C , 33-C ) :   1.2326
B( 27-C , 28-C ) :   1.7166 B( 28-C , 29-C ) :   1.1398 B( 28-C , 31-C ) :   1.1325
B( 29-C , 30-N ) :   2.9889 B( 31-C , 32-N ) :   2.9955 B( 33-C , 34-C ) :   1.4766
B( 33-C , 90-H ) :   0.9825 B( 34-C , 35-S ) :   1.0991 B( 34-C , 36-C ) :   1.1136
B( 36-C , 37-C ) :   1.3869 B( 36-C , 39-C ) :   0.1206 B( 36-C , 45-C ) :   1.2164
B( 37-C , 38-C ) :   1.3090 B( 37-C , 91-H ) :   0.9856 B( 38-C , 39-C ) :   1.3857
B( 38-C , 92-H ) :   0.9862 B( 39-C , 40-C ) :   1.2158 B( 39-C , 46-C ) :   1.1111
B( 40-C , 41-N ) :   1.4782 B( 40-C , 45-C ) :   1.2339 B( 41-N , 42-C ) :   1.6306
B( 42-C , 43-C ) :   1.2286 B( 42-C , 93-H ) :   0.9755 B( 43-C , 44-N ) :   1.6305
B( 43-C , 94-H ) :   0.9755 B( 44-N , 45-C ) :   1.4786 B( 46-C , 47-C ) :   1.4772
B( 46-C , 50-S ) :   1.1010 B( 47-C , 48-C ) :   1.2319 B( 47-C , 95-H ) :   0.9815
B( 48-C , 49-C ) :   1.4312 B( 48-C , 53-C ) :   0.9993 B( 49-C , 50-S ) :   1.1175
B( 49-C , 51-C ) :   1.1957 B( 51-C , 52-C ) :   1.3837 B( 51-C , 61-S ) :   1.1664
B( 52-C , 53-C ) :   0.9910 B( 52-C , 59-C ) :   1.3262 B( 53-C , 54-C ) :   1.7139
B( 54-C , 55-C ) :   1.1348 B( 54-C , 57-C ) :   1.1402 B( 55-C , 56-N ) :   2.9960
B( 57-C , 58-N ) :   2.9880 B( 59-C , 60-C ) :   1.4025 B( 59-C , 96-H ) :   0.9735
B( 60-C , 61-S ) :   1.0742 B( 60-C , 62-C ) :   1.2053 B( 62-C , 63-C ) :   1.5948
B( 62-C , 97-H ) :   0.9207 B( 63-C , 64-C ) :   1.0747 B( 63-C , 72-C ) :   0.9402
B( 64-C , 65-C ) :   1.6257 B( 64-C , 70-C ) :   0.9898 B( 65-C , 66-C ) :   1.1462
B( 65-C , 68-C ) :   1.1412 B( 66-C , 67-N ) :   2.9663 B( 68-C , 69-N ) :   2.9896
B( 70-C , 71-C ) :   1.2151 B( 70-C , 77-C ) :   1.4479 B( 71-C , 72-C ) :   0.9485
B( 71-C , 74-C ) :   1.4727 B( 72-C , 73-O ) :   2.1853 B( 74-C , 75-C ) :   1.1749
B( 74-C , 98-H ) :   1.0170 B( 75-C , 76-C ) :   1.2576 B( 75-C , 81-C ) :   1.2452
B( 76-C , 77-C ) :   1.2050 B( 76-C , 78-C ) :   1.2384 B( 77-C , 99-H ) :   0.9908
B( 78-C , 79-C ) :   1.4878 B( 78-C ,100-H ) :   0.9978 B( 79-C , 80-C ) :   1.2608
B( 79-C ,101-H ) :   0.9883 B( 80-C , 81-C ) :   1.4863 B( 80-C ,102-H ) :   0.9897
B( 81-C ,103-H ) :   0.9983

-----------------------------------------------------------------------------
         ABSORPTION SPECTRUM VIA TRANSITION ELECTRIC DIPOLE MOMENTS
-----------------------------------------------------------------------------
State   Energy  Wavelength   fosc         T2         TX        TY        TZ
        (cm-1)    (nm)                  (au**2)     (au)      (au)      (au)
-----------------------------------------------------------------------------
   0   13003.2    769.0   0.760743990  19.26040   0.72631  -4.12877   1.29852
   1   14174.6    705.5   0.110167535   2.55869  -0.50437   1.36539   0.66332
   2   19340.6    517.0   1.364835901  23.23193  -0.57045   4.45551  -1.74783
   3   20999.1    476.2   0.745590815  11.68893  -1.30668   2.50863   1.92050
   4   21845.9    457.8   0.000349758   0.00527   0.06202   0.02247   0.03032
   5   23260.9    429.9   0.046337531   0.65582   0.40227   0.52742   0.46457
   6   23990.9    416.8   0.014396575   0.19755   0.19661  -0.37694   0.12967
   7   25260.6    395.9   0.059386707   0.77396  -0.21025   0.07569  -0.85090
   8   25543.9    391.5   0.056916174   0.73354   0.54401  -0.62724   0.21014
   9   27324.8    366.0   0.001526617   0.01839  -0.09649   0.05082  -0.08063
  10   27488.2    363.8   0.011881928   0.14230   0.33438  -0.15455  -0.08128
  11   27770.7    360.1   0.003027220   0.03589  -0.12992  -0.09788   0.09709
  12   28243.8    354.1   0.012373951   0.14423   0.19219   0.32062  -0.06704
  13   28534.5    350.5   0.028900610   0.33344   0.32171  -0.47312   0.07807
  14   28592.7    349.7   0.038165928   0.43944   0.32550  -0.44446   0.36870
  15   29008.9    344.7   0.109120845   1.23838  -0.43194   0.52057  -0.88364
  16   29256.3    341.8   0.013344423   0.15016   0.31396  -0.20587  -0.09595
  17   29409.4    340.0   0.036341956   0.40682  -0.50560  -0.20075  -0.33300
  18   29996.4    333.4   0.292844788   3.21399   0.02489  -0.37113   1.75375
  19   30050.9    332.8   0.263028005   2.88151   0.57834  -1.07040  -1.18375
  20   30435.3    328.6   0.285118210   3.08406  -1.10217   0.96826  -0.96528
  21   30465.9    328.2   0.170685210   1.84441   0.02763  -0.02227   1.35763
  22   30789.2    324.8   0.141324398   1.51110  -0.44579   0.06010  -1.14401
  23   31163.3    320.9   0.473895085   5.00627  -0.89078   1.30356  -1.58541
  24   31453.4    317.9   0.141912536   1.48535   0.59732  -0.62425  -0.85958
  25   32160.7    310.9   0.197356847   2.02024   0.02496   1.34278   0.46535
  26   32376.8    308.9   0.110030796   1.11881  -0.06151   0.36849   0.98957
  27   32643.2    306.3   0.328615164   3.31414  -0.98390   1.24625  -0.89047
  28   32742.2    305.4   0.333325410   3.35148   0.76965  -1.27817   1.06084
  29   32834.9    304.6   0.064119890   0.64288  -0.22510  -0.05594   0.76752
  30   33051.1    302.6   0.027145259   0.27039   0.10044   0.07789  -0.50421
  31   33353.8    299.8   0.011591642   0.11441   0.23901  -0.19693   0.13604
  32   33452.3    298.9   0.003707463   0.03649  -0.00613   0.10522  -0.15930
  33   33742.2    296.4   0.046969921   0.45827  -0.39933   0.51635  -0.17943
  34   33900.3    295.0   0.035857150   0.34822   0.41286  -0.37202   0.19841
  35   34165.7    292.7   0.276934929   2.66847  -0.69530   1.47817  -0.00664
  36   34331.3    291.3   0.040356285   0.38699   0.48314   0.00656   0.39182
  37   34459.3    290.2   0.028815802   0.27530  -0.41761   0.30137   0.10037
  38   34683.6    288.3   0.590210943   5.60219  -0.58485   0.26231  -2.27845
  39   34900.5    286.5   0.248834453   2.34722  -1.38495   0.09045  -0.64880
  40   35085.9    285.0   0.122393096   1.14842   0.09137   0.93792   0.51026
  41   35206.0    284.0   0.118195194   1.10525  -0.70714   0.11126  -0.76995
  42   35527.7    281.5   0.044296147   0.41046   0.25499   0.33343   0.48401
  43   35771.3    279.6   0.073728084   0.67854   0.02594  -0.13842   0.81161
  44   36245.8    275.9   0.113574112   1.03157   0.41512  -0.28858   0.88089
  45   36668.2    272.7   0.194888416   1.74974  -0.06741  -0.25867  -1.29548
  46   36687.4    272.6   0.140890746   1.26427  -0.51181   0.39911  -0.91817
  47   37232.0    268.6   0.051519844   0.45555  -0.13058  -0.34348  -0.56614
  48   37295.2    268.1   0.043205118   0.38138  -0.23717   0.55800  -0.11732
  49   37434.0    267.1   0.032889506   0.28925  -0.28534   0.44418  -0.10263
  50   37509.9    266.6   0.026578330   0.23327   0.27348  -0.35814   0.17383
  51   37769.3    264.8   0.106428584   0.92767   0.34394   0.21380   0.87388
  52   38058.9    262.8   0.022480807   0.19446   0.17410   0.39854   0.07292
  53   38250.5    261.4   0.015944755   0.13723  -0.22369   0.22552   0.19062
  54   38294.6    261.1   0.027071743   0.23273  -0.32133  -0.26089  -0.24782
  55   38379.7    260.6   0.018235547   0.15642  -0.14138   0.36874  -0.02152
  56   38697.5    258.4   0.021689821   0.18452  -0.13929  -0.40057  -0.06829
  57   38846.0    257.4   0.113756866   0.96407  -0.57440   0.58315  -0.54228
  58   39114.9    255.7   0.011107989   0.09349  -0.01281  -0.30549  -0.00006
  59   39420.8    253.7   0.049168219   0.41061   0.21164   0.22397   0.56184
  60   39631.7    252.3   0.123547552   1.02628   0.27597   0.80822   0.54488
  61   39848.4    251.0   0.045916703   0.37935   0.47833   0.21345   0.32401
  62   39988.0    250.1   0.159859752   1.31609   0.38486  -0.79426  -0.73288
  63   40111.9    249.3   0.030377778   0.24932  -0.01872   0.01306   0.49880

FINAL SINGLE POINT ENERGY     -4814.247847540025

DIPOLE MOMENT
-------------
                                X             Y             Z
Electronic contribution:     12.85226     -11.39683     -16.68863
Nuclear contribution   :    -12.89443      11.48692      19.14348
                        -----------------------------------------
Total Dipole Moment    :     -0.04217       0.09009       2.45486
                        -----------------------------------------
Magnitude (a.u.)       :      2.45687
Magnitude (Debye)      :      6.24487

Rotational constants in cm-1:     0.001321     0.000163     0.000149
Rotational constants in MHz :    39.593738     4.886703     4.477329

                             ****ORCA TERMINATED NORMALLY****
TOTAL RUN TIME: 0 days 0 hours 12 minutes 46 seconds 367 msec
