                         Program Version 4.2.0 -  RELEASE  -
|  1> # ORCA input file
|  2> # SCF done       -198.879734305882          0.002629471566
|  3> ! CAM-B3LYP def2-SVP def2/J RIJCOSX Grid4 TightSCF
|  4> %maxcore 5000
|  5> %tddft
|  6>     Mode sTDDFT
|  7>     Ethresh 5.0
|  8>     maxcore 5000
|  9> end
| 10>
| 11> %pal
| 12>   nprocs 6
| 13>   end
| 14> * xyz 0 1
| 15>    C        3.60566         1.55329        -3.10349
| 16>    C        2.89952         1.48500        -4.27584
| 17>    C        2.92216         0.37494        -5.14801
| 18>    N        2.89714        -0.48986        -5.90219
| 19>    C        2.06008         2.49586        -4.78964
| 20>    N        1.35880         3.27209        -5.26264
| 21>    C        4.47272         0.50803        -2.57565
| 22>    C        5.06585         0.97345        -1.36752
| 23>    C        5.92370         0.20121        -0.63799
| 24>    C        6.23812        -1.09770        -1.09420
| 25>    C        5.64908        -1.57263        -2.30192
| 26>    C        4.76183        -0.75116        -3.03377
| 27>    C        5.96861        -2.87159        -2.74756
| 28>    C        6.82826        -3.66385        -2.03638
| 29>    C        7.40744        -3.19507        -0.84772
| 30>    C        7.11904        -1.93908        -0.38668
| 31>    C        4.61318         2.34466        -1.08795
| 32>    O        4.92960         3.03070        -0.14055
| 33>    C        3.65678         2.68017        -2.18141
| 34>    C        2.85004         3.77251        -2.22117
| 35>    C        2.89518         4.91889        -1.37255
| 36>    C        3.98946         5.54275        -0.84453
| 37>    C        3.56003         6.76166        -0.18817
| 38>    C        4.40221         7.64498         0.50257
| 39>    N        5.07435         8.38663         1.06340
| 40>    C        2.21343         6.91107        -0.35940
| 41>    C        1.72467         5.77940        -1.11110
| 42>    C        0.41883         5.52275        -1.43282
| 43>    C       -0.70548         6.49475        -1.43046
| 44>    C       -1.86284         5.78029        -1.50336
| 45>    C       -1.53086         4.37476        -1.60678
| 46>    C       -0.16804         4.22839        -1.62310
| 47>    C       -2.47570         3.34000        -1.66668
| 48>    N       -3.25222         2.49634        -1.70924
| 49>    C       -0.59493         7.91712        -1.49175
| 50>    C        0.48039         8.55860        -1.99899
| 51>    C        0.71326         9.97150        -2.01433
| 52>    C        1.92660        10.47864        -2.47133
| 53>    C        2.99681         9.70752        -2.92382
| 54>    N        3.86376         9.03802        -3.26924
| 55>    S        2.03275        12.20200        -2.35941
| 56>    C        0.43570        12.28330        -1.68254
| 57>    C       -0.13216        11.02525        -1.55501
| 58>    C       -1.43731        10.86260        -1.06120
| 59>    N       -2.50870        10.75589        -0.66360
| 60>    C       -0.09155        13.52832        -1.20777
| 61>    C       -0.79407        13.71300        -0.05562
| 62>    C       -0.92344        15.13924         0.18008
| 63>    C       -1.60161        15.70352         1.26940
| 64>    N       -2.14351        16.16647         2.16827
| 65>    C       -0.25443        15.81813        -0.79751
| 66>    C        0.26459        14.85614        -1.73632
| 67>    C        0.81942        15.13916        -2.95824
| 68>    C        1.46368        16.41357        -3.36016
| 69>    C        1.57293        16.40158        -4.72392
| 70>    C        1.06428        15.14377        -5.21315
| 71>    C        0.67449        14.36275        -4.15125
| 72>    C        0.98488        14.79469        -6.56965
| 73>    N        0.92453        14.51692        -7.68101
| 74>    C        2.05072        17.35299        -2.47237
| 75>    C        2.37448        17.06505        -1.18263
| 76>    C        2.93247        18.00409        -0.28618
| 77>    C        3.15752        17.73701         1.03444
| 78>    C        3.75734        18.62310         2.01760
| 79>    C        4.15567        19.91998         1.81967
| 80>    C        4.73119        20.73220         2.82037
| 81>    N        5.20479        21.44548         3.58428
| 82>    C        4.04572        20.63886         0.61103
| 83>    N        3.98956        21.29242        -0.33165
| 84>    C        3.85949        17.88854         3.27277
| 85>    C        3.29621        16.59233         3.09155
| 86>    C        2.82255        16.45108         1.70962
| 87>    O        2.26708        15.48175         1.22851
| 88>    C        3.24898        15.67688         4.10418
| 89>    C        3.78005        16.01871         5.36707
| 90>    C        4.35296        17.31016         5.55501
| 91>    C        4.38206        18.23910         4.48990
| 92>    C        4.88727        17.63867         6.81738
| 93>    C        4.85680        16.73686         7.84621
| 94>    C        4.29053        15.46692         7.66075
| 95>    C        3.76353        15.11515         6.44757
| 96>    H        6.35803         0.57961         0.27546
| 97>    H        4.32908        -1.14314        -3.94015
| 98>    H        5.52073        -3.22808        -3.66327
| 99>    H        7.06702        -4.65698        -2.38609
|100>    H        8.08293        -3.83419        -0.29917
|101>    H        7.56167        -1.57229         0.52764
|102>    H        2.06763         3.79881        -2.96866
|103>    H        5.01297         5.23198        -0.91733
|104>    H        1.59838         7.66738         0.08854
|105>    H       -2.86276         6.17022        -1.53581
|106>    H        0.36000         3.29444        -1.61432
|107>    H       -1.45785         8.47384        -1.15363
|108>    H        1.28385         7.97773        -2.43468
|109>    H       -1.16572        12.95638         0.60901
|110>    H       -0.22077        16.88270        -0.92352
|111>    H        2.01004        17.16110        -5.34446
|112>    H        0.18239        13.41127        -4.22303
|113>    H        2.30291        18.32260        -2.88505
|114>    H        2.21350        16.06827        -0.80077
|115>    H        3.17674        18.98076        -0.68312
|116>    H        2.81410        14.70200         3.94120
|117>    H        4.82201        19.20746         4.66619
|118>    H        5.32159        18.61765         6.95582
|119>    H        5.26918        16.99765         8.80923
|120>    H        4.27447        14.76856         8.48374
|121>    H        3.32709        14.13870         6.29854
|122> *
|123>
|124>                          ****END OF INPUT****

CARTESIAN COORDINATES (ANGSTROEM)
---------------------------------
  C      3.605660    1.553290   -3.103490
  C      2.899520    1.485000   -4.275840
  C      2.922160    0.374940   -5.148010
  N      2.897140   -0.489860   -5.902190
  C      2.060080    2.495860   -4.789640
  N      1.358800    3.272090   -5.262640
  C      4.472720    0.508030   -2.575650
  C      5.065850    0.973450   -1.367520
  C      5.923700    0.201210   -0.637990
  C      6.238120   -1.097700   -1.094200
  C      5.649080   -1.572630   -2.301920
  C      4.761830   -0.751160   -3.033770
  C      5.968610   -2.871590   -2.747560
  C      6.828260   -3.663850   -2.036380
  C      7.407440   -3.195070   -0.847720
  C      7.119040   -1.939080   -0.386680
  C      4.613180    2.344660   -1.087950
  O      4.929600    3.030700   -0.140550
  C      3.656780    2.680170   -2.181410
  C      2.850040    3.772510   -2.221170
  C      2.895180    4.918890   -1.372550
  C      3.989460    5.542750   -0.844530
  C      3.560030    6.761660   -0.188170
  C      4.402210    7.644980    0.502570
  N      5.074350    8.386630    1.063400
  C      2.213430    6.911070   -0.359400
  C      1.724670    5.779400   -1.111100
  C      0.418830    5.522750   -1.432820
  C     -0.705480    6.494750   -1.430460
  C     -1.862840    5.780290   -1.503360
  C     -1.530860    4.374760   -1.606780
  C     -0.168040    4.228390   -1.623100
  C     -2.475700    3.340000   -1.666680
  N     -3.252220    2.496340   -1.709240
  C     -0.594930    7.917120   -1.491750
  C      0.480390    8.558600   -1.998990
  C      0.713260    9.971500   -2.014330
  C      1.926600   10.478640   -2.471330
  C      2.996810    9.707520   -2.923820
  N      3.863760    9.038020   -3.269240
  S      2.032750   12.202000   -2.359410
  C      0.435700   12.283300   -1.682540
  C     -0.132160   11.025250   -1.555010
  C     -1.437310   10.862600   -1.061200
  N     -2.508700   10.755890   -0.663600
  C     -0.091550   13.528320   -1.207770
  C     -0.794070   13.713000   -0.055620
  C     -0.923440   15.139240    0.180080
  C     -1.601610   15.703520    1.269400
  N     -2.143510   16.166470    2.168270
  C     -0.254430   15.818130   -0.797510
  C      0.264590   14.856140   -1.736320
  C      0.819420   15.139160   -2.958240
  C      1.463680   16.413570   -3.360160
  C      1.572930   16.401580   -4.723920
  C      1.064280   15.143770   -5.213150
  C      0.674490   14.362750   -4.151250
  C      0.984880   14.794690   -6.569650
  N      0.924530   14.516920   -7.681010
  C      2.050720   17.352990   -2.472370
  C      2.374480   17.065050   -1.182630
  C      2.932470   18.004090   -0.286180
  C      3.157520   17.737010    1.034440
  C      3.757340   18.623100    2.017600
  C      4.155670   19.919980    1.819670
  C      4.731190   20.732200    2.820370
  N      5.204790   21.445480    3.584280
  C      4.045720   20.638860    0.611030
  N      3.989560   21.292420   -0.331650
  C      3.859490   17.888540    3.272770
  C      3.296210   16.592330    3.091550
  C      2.822550   16.451080    1.709620
  O      2.267080   15.481750    1.228510
  C      3.248980   15.676880    4.104180
  C      3.780050   16.018710    5.367070
  C      4.352960   17.310160    5.555010
  C      4.382060   18.239100    4.489900
  C      4.887270   17.638670    6.817380
  C      4.856800   16.736860    7.846210
  C      4.290530   15.466920    7.660750
  C      3.763530   15.115150    6.447570
  H      6.358030    0.579610    0.275460
  H      4.329080   -1.143140   -3.940150
  H      5.520730   -3.228080   -3.663270
  H      7.067020   -4.656980   -2.386090
  H      8.082930   -3.834190   -0.299170
  H      7.561670   -1.572290    0.527640
  H      2.067630    3.798810   -2.968660
  H      5.012970    5.231980   -0.917330
  H      1.598380    7.667380    0.088540
  H     -2.862760    6.170220   -1.535810
  H      0.360000    3.294440   -1.614320
  H     -1.457850    8.473840   -1.153630
  H      1.283850    7.977730   -2.434680
  H     -1.165720   12.956380    0.609010
  H     -0.220770   16.882700   -0.923520
  H      2.010040   17.161100   -5.344460
  H      0.182390   13.411270   -4.223030
  H      2.302910   18.322600   -2.885050
  H      2.213500   16.068270   -0.800770
  H      3.176740   18.980760   -0.683120
  H      2.814100   14.702000    3.941200
  H      4.822010   19.207460    4.666190
  H      5.321590   18.617650    6.955820
  H      5.269180   16.997650    8.809230
  H      4.274470   14.768560    8.483740
  H      3.327090   14.138700    6.298540

 Total Charge           Charge          ....    0
 Multiplicity           Mult            ....    1
 Number of Electrons    NEL             ....  536
 Basis Dimension        Dim             .... 1268

ORBITAL ENERGIES
----------------

  NO   OCC          E(Eh)            E(eV)
   0   2.0000     -89.014272     -2422.2015
   1   2.0000     -19.231943      -523.3278
   2   2.0000     -19.225509      -523.1527
   3   2.0000     -14.436751      -392.8440
   4   2.0000     -14.432860      -392.7381
   5   2.0000     -14.429172      -392.6377
   6   2.0000     -14.427080      -392.5808
   7   2.0000     -14.425399      -392.5351
   8   2.0000     -14.424194      -392.5023
   9   2.0000     -14.423254      -392.4767
  10   2.0000     -14.421452      -392.4277
  11   2.0000     -14.420671      -392.4064
  12   2.0000     -14.420620      -392.4050
  13   2.0000     -10.382008      -282.5088
  14   2.0000     -10.376914      -282.3702
  15   2.0000     -10.369563      -282.1701
  16   2.0000     -10.360453      -281.9222
  17   2.0000     -10.354225      -281.7528
  18   2.0000     -10.353095      -281.7220
  19   2.0000     -10.351535      -281.6796
  20   2.0000     -10.350732      -281.6577
  21   2.0000     -10.350267      -281.6451
  22   2.0000     -10.348644      -281.6009
  23   2.0000     -10.348095      -281.5860
  24   2.0000     -10.346901      -281.5535
  25   2.0000     -10.345204      -281.5073
  26   2.0000     -10.341343      -281.4022
  27   2.0000     -10.341287      -281.4007
  28   2.0000     -10.340577      -281.3814
  29   2.0000     -10.338100      -281.3140
  30   2.0000     -10.337989      -281.3110
  31   2.0000     -10.334985      -281.2292
  32   2.0000     -10.334261      -281.2095
  33   2.0000     -10.330056      -281.0951
  34   2.0000     -10.329669      -281.0846
  35   2.0000     -10.329465      -281.0790
  36   2.0000     -10.329390      -281.0770
  37   2.0000     -10.328593      -281.0553
  38   2.0000     -10.327252      -281.0188
  39   2.0000     -10.326651      -281.0025
  40   2.0000     -10.326630      -281.0019
  41   2.0000     -10.325648      -280.9752
  42   2.0000     -10.325616      -280.9743
  43   2.0000     -10.324440      -280.9423
  44   2.0000     -10.324234      -280.9367
  45   2.0000     -10.323646      -280.9207
  46   2.0000     -10.323140      -280.9069
  47   2.0000     -10.323133      -280.9067
  48   2.0000     -10.321766      -280.8695
  49   2.0000     -10.320607      -280.8380
  50   2.0000     -10.319312      -280.8027
  51   2.0000     -10.318898      -280.7915
  52   2.0000     -10.316534      -280.7272
  53   2.0000     -10.314877      -280.6821
  54   2.0000     -10.314516      -280.6722
  55   2.0000     -10.313977      -280.6576
  56   2.0000     -10.313447      -280.6431
  57   2.0000     -10.311611      -280.5932
  58   2.0000     -10.311021      -280.5771
  59   2.0000     -10.310586      -280.5653
  60   2.0000     -10.310159      -280.5537
  61   2.0000     -10.309520      -280.5363
  62   2.0000     -10.305866      -280.4369
  63   2.0000     -10.305367      -280.4233
  64   2.0000     -10.305301      -280.4215
  65   2.0000     -10.305002      -280.4134
  66   2.0000     -10.304685      -280.4047
  67   2.0000     -10.303733      -280.3788
  68   2.0000     -10.303526      -280.3732
  69   2.0000     -10.303181      -280.3638
  70   2.0000     -10.303070      -280.3608
  71   2.0000     -10.297621      -280.2125
  72   2.0000     -10.295200      -280.1466
  73   2.0000     -10.293008      -280.0870
  74   2.0000     -10.292542      -280.0743
  75   2.0000     -10.292299      -280.0677
  76   2.0000     -10.291962      -280.0585
  77   2.0000     -10.291771      -280.0533
  78   2.0000     -10.291417      -280.0437
  79   2.0000     -10.291058      -280.0339
  80   2.0000     -10.290560      -280.0204
  81   2.0000      -8.108922      -220.6550
  82   2.0000      -6.078288      -165.3986
  83   2.0000      -6.073906      -165.2794
  84   2.0000      -6.071088      -165.2027
  85   2.0000      -1.145077       -31.1591
  86   2.0000      -1.141039       -31.0492
  87   2.0000      -1.055230       -28.7143
  88   2.0000      -1.037866       -28.2418
  89   2.0000      -1.030983       -28.0545
  90   2.0000      -1.028007       -27.9735
  91   2.0000      -1.025267       -27.8989
  92   2.0000      -1.022777       -27.8312
  93   2.0000      -1.020464       -27.7682
  94   2.0000      -1.014376       -27.6026
  95   2.0000      -1.009078       -27.4584
  96   2.0000      -1.008123       -27.4324
  97   2.0000      -1.006266       -27.3819
  98   2.0000      -1.005699       -27.3665
  99   2.0000      -1.003062       -27.2947
 100   2.0000      -1.000588       -27.2274
 101   2.0000      -0.999675       -27.2025
 102   2.0000      -0.998170       -27.1616
 103   2.0000      -0.991523       -26.9807
 104   2.0000      -0.980345       -26.6765
 105   2.0000      -0.977597       -26.6018
 106   2.0000      -0.946952       -25.7679
 107   2.0000      -0.942388       -25.6437
 108   2.0000      -0.932229       -25.3672
 109   2.0000      -0.929742       -25.2996
 110   2.0000      -0.916052       -24.9270
 111   2.0000      -0.914545       -24.8860
 112   2.0000      -0.908406       -24.7190
 113   2.0000      -0.904227       -24.6053
 114   2.0000      -0.896701       -24.4005
 115   2.0000      -0.891957       -24.2714
 116   2.0000      -0.889119       -24.1941
 117   2.0000      -0.887368       -24.1465
 118   2.0000      -0.882568       -24.0159
 119   2.0000      -0.880005       -23.9462
 120   2.0000      -0.858002       -23.3474
 121   2.0000      -0.841260       -22.8919
 122   2.0000      -0.840682       -22.8761
 123   2.0000      -0.836174       -22.7534
 124   2.0000      -0.834326       -22.7032
 125   2.0000      -0.831032       -22.6135
 126   2.0000      -0.823304       -22.4032
 127   2.0000      -0.813229       -22.1291
 128   2.0000      -0.799631       -21.7591
 129   2.0000      -0.796091       -21.6627
 130   2.0000      -0.772091       -21.0097
 131   2.0000      -0.771874       -21.0038
 132   2.0000      -0.769192       -20.9308
 133   2.0000      -0.761709       -20.7272
 134   2.0000      -0.747621       -20.3438
 135   2.0000      -0.741382       -20.1740
 136   2.0000      -0.740641       -20.1539
 137   2.0000      -0.733485       -19.9592
 138   2.0000      -0.729018       -19.8376
 139   2.0000      -0.715332       -19.4652
 140   2.0000      -0.712243       -19.3811
 141   2.0000      -0.711180       -19.3522
 142   2.0000      -0.706727       -19.2310
 143   2.0000      -0.706463       -19.2238
 144   2.0000      -0.695738       -18.9320
 145   2.0000      -0.693375       -18.8677
 146   2.0000      -0.684771       -18.6336
 147   2.0000      -0.680403       -18.5147
 148   2.0000      -0.674432       -18.3522
 149   2.0000      -0.663148       -18.0452
 150   2.0000      -0.659154       -17.9365
 151   2.0000      -0.654690       -17.8150
 152   2.0000      -0.649959       -17.6863
 153   2.0000      -0.643820       -17.5192
 154   2.0000      -0.641021       -17.4431
 155   2.0000      -0.640775       -17.4364
 156   2.0000      -0.624686       -16.9986
 157   2.0000      -0.622274       -16.9329
 158   2.0000      -0.620751       -16.8915
 159   2.0000      -0.619168       -16.8484
 160   2.0000      -0.614321       -16.7165
 161   2.0000      -0.612540       -16.6681
 162   2.0000      -0.610825       -16.6214
 163   2.0000      -0.604050       -16.4370
 164   2.0000      -0.592318       -16.1178
 165   2.0000      -0.588007       -16.0005
 166   2.0000      -0.578226       -15.7343
 167   2.0000      -0.574693       -15.6382
 168   2.0000      -0.567939       -15.4544
 169   2.0000      -0.565010       -15.3747
 170   2.0000      -0.558683       -15.2025
 171   2.0000      -0.554962       -15.1013
 172   2.0000      -0.554589       -15.0911
 173   2.0000      -0.552416       -15.0320
 174   2.0000      -0.551499       -15.0070
 175   2.0000      -0.549680       -14.9575
 176   2.0000      -0.547402       -14.8956
 177   2.0000      -0.546849       -14.8805
 178   2.0000      -0.542160       -14.7529
 179   2.0000      -0.541823       -14.7438
 180   2.0000      -0.539168       -14.6715
 181   2.0000      -0.535661       -14.5761
 182   2.0000      -0.533380       -14.5140
 183   2.0000      -0.532702       -14.4956
 184   2.0000      -0.530293       -14.4300
 185   2.0000      -0.529869       -14.4185
 186   2.0000      -0.527431       -14.3521
 187   2.0000      -0.526823       -14.3356
 188   2.0000      -0.525015       -14.2864
 189   2.0000      -0.522873       -14.2281
 190   2.0000      -0.520894       -14.1743
 191   2.0000      -0.518728       -14.1153
 192   2.0000      -0.518481       -14.1086
 193   2.0000      -0.516320       -14.0498
 194   2.0000      -0.514997       -14.0138
 195   2.0000      -0.512323       -13.9410
 196   2.0000      -0.509759       -13.8713
 197   2.0000      -0.508601       -13.8397
 198   2.0000      -0.506706       -13.7882
 199   2.0000      -0.506609       -13.7855
 200   2.0000      -0.503754       -13.7079
 201   2.0000      -0.502091       -13.6626
 202   2.0000      -0.499940       -13.6041
 203   2.0000      -0.498164       -13.5557
 204   2.0000      -0.494360       -13.4522
 205   2.0000      -0.492545       -13.4028
 206   2.0000      -0.491494       -13.3742
 207   2.0000      -0.483109       -13.1461
 208   2.0000      -0.482607       -13.1324
 209   2.0000      -0.476161       -12.9570
 210   2.0000      -0.471457       -12.8290
 211   2.0000      -0.471063       -12.8183
 212   2.0000      -0.469784       -12.7835
 213   2.0000      -0.463765       -12.6197
 214   2.0000      -0.461969       -12.5708
 215   2.0000      -0.460009       -12.5175
 216   2.0000      -0.458513       -12.4768
 217   2.0000      -0.455651       -12.3989
 218   2.0000      -0.455374       -12.3914
 219   2.0000      -0.454378       -12.3643
 220   2.0000      -0.453017       -12.3272
 221   2.0000      -0.452359       -12.3093
 222   2.0000      -0.452259       -12.3066
 223   2.0000      -0.450474       -12.2580
 224   2.0000      -0.448564       -12.2060
 225   2.0000      -0.447738       -12.1836
 226   2.0000      -0.447722       -12.1831
 227   2.0000      -0.446222       -12.1423
 228   2.0000      -0.443641       -12.0721
 229   2.0000      -0.442466       -12.0401
 230   2.0000      -0.441851       -12.0234
 231   2.0000      -0.440592       -11.9891
 232   2.0000      -0.439926       -11.9710
 233   2.0000      -0.439560       -11.9610
 234   2.0000      -0.435454       -11.8493
 235   2.0000      -0.433497       -11.7960
 236   2.0000      -0.432935       -11.7808
 237   2.0000      -0.431194       -11.7334
 238   2.0000      -0.429176       -11.6785
 239   2.0000      -0.428864       -11.6700
 240   2.0000      -0.426495       -11.6055
 241   2.0000      -0.426433       -11.6038
 242   2.0000      -0.424623       -11.5546
 243   2.0000      -0.422079       -11.4854
 244   2.0000      -0.420097       -11.4314
 245   2.0000      -0.416564       -11.3353
 246   2.0000      -0.415112       -11.2958
 247   2.0000      -0.413201       -11.2438
 248   2.0000      -0.406576       -11.0635
 249   2.0000      -0.398262       -10.8372
 250   2.0000      -0.384115       -10.4523
 251   2.0000      -0.383299       -10.4301
 252   2.0000      -0.368616       -10.0305
 253   2.0000      -0.366823        -9.9818
 254   2.0000      -0.361900        -9.8478
 255   2.0000      -0.356560        -9.7025
 256   2.0000      -0.350013        -9.5243
 257   2.0000      -0.349359        -9.5065
 258   2.0000      -0.344385        -9.3712
 259   2.0000      -0.337378        -9.1805
 260   2.0000      -0.325653        -8.8615
 261   2.0000      -0.324066        -8.8183
 262   2.0000      -0.317593        -8.6422
 263   2.0000      -0.307699        -8.3729
 264   2.0000      -0.304287        -8.2801
 265   2.0000      -0.297708        -8.1010
 266   2.0000      -0.293474        -7.9858
 267   2.0000      -0.286827        -7.8050
 268   0.0000      -0.148359        -4.0371
 269   0.0000      -0.137740        -3.7481
 270   0.0000      -0.105778        -2.8784
 271   0.0000      -0.094673        -2.5762
 272   0.0000      -0.074776        -2.0348

MULLIKEN ATOMIC CHARGES
-----------------------
   0 C :    0.312989
   1 C :   -0.349403
   2 C :   -0.179554
   3 N :    0.154628
   4 C :   -0.187696
   5 N :    0.154052
   6 C :    0.052443
   7 C :   -0.015188
   8 C :   -0.075179
   9 C :    0.098606
  10 C :    0.094931
  11 C :   -0.079877
  12 C :   -0.017291
  13 C :    0.039104
  14 C :    0.034474
  15 C :   -0.013831
  16 C :    0.144022
  17 O :   -0.145952
  18 C :   -0.077851
  19 C :   -0.067929
  20 C :    0.071422
  21 C :    0.075152
  22 C :   -0.105099
  23 C :   -0.126809
  24 N :    0.149538
  25 C :   -0.018078
  26 C :    0.034723
  27 C :    0.040799
  28 C :    0.076295
  29 C :    0.005986
  30 C :   -0.094885
  31 C :   -0.017846
  32 C :   -0.131500
  33 N :    0.153304
  34 C :   -0.002999
  35 C :   -0.066447
  36 C :    0.224525
  37 C :   -0.303141
  38 C :   -0.181878
  39 N :    0.148098
  40 S :    0.254999
  41 C :   -0.083691
  42 C :   -0.079442
  43 C :   -0.239133
  44 N :    0.167588
  45 C :    0.048223
  46 C :    0.028605
  47 C :   -0.094461
  48 C :   -0.136581
  49 N :    0.160103
  50 C :    0.004001
  51 C :    0.033904
  52 C :    0.000055
  53 C :    0.082551
  54 C :    0.013266
  55 C :   -0.110318
  56 C :    0.005089
  57 C :   -0.128720
  58 N :    0.155973
  59 C :    0.018759
  60 C :   -0.030386
  61 C :   -0.037482
  62 C :   -0.070599
  63 C :    0.333496
  64 C :   -0.348931
  65 C :   -0.180135
  66 N :    0.154880
  67 C :   -0.187039
  68 N :    0.147295
  69 C :    0.049013
  70 C :    0.001975
  71 C :    0.157241
  72 O :   -0.165317
  73 C :   -0.070163
  74 C :    0.095536
  75 C :    0.094082
  76 C :   -0.079577
  77 C :   -0.016098
  78 C :    0.039903
  79 C :    0.035961
  80 C :   -0.012017
  81 H :   -0.012073
  82 H :   -0.006864
  83 H :   -0.007419
  84 H :   -0.002733
  85 H :   -0.001695
  86 H :   -0.016437
  87 H :    0.033888
  88 H :    0.016101
  89 H :    0.021466
  90 H :    0.004141
  91 H :    0.008848
  92 H :    0.014124
  93 H :    0.033278
  94 H :    0.020738
  95 H :    0.018104
  96 H :    0.005652
  97 H :    0.018735
  98 H :    0.013504
  99 H :    0.053416
 100 H :    0.013682
 101 H :   -0.014023
 102 H :   -0.007423
 103 H :   -0.007261
 104 H :   -0.002336
 105 H :   -0.000703
 106 H :   -0.015773
Sum of atomic charges:   -0.0000000

LOEWDIN ATOMIC CHARGES
----------------------
   0 C :    0.075127
   1 C :   -0.135490
   2 C :   -0.017292
   3 N :   -0.047634
   4 C :   -0.022168
   5 N :   -0.047462
   6 C :   -0.027364
   7 C :   -0.057853
   8 C :    0.034907
   9 C :   -0.007661
  10 C :   -0.005442
  11 C :    0.022320
  12 C :   -0.003987
  13 C :   -0.010937
  14 C :   -0.010145
  15 C :   -0.008439
  16 C :    0.083966
  17 O :   -0.138225
  18 C :   -0.085432
  19 C :    0.065266
  20 C :   -0.055962
  21 C :    0.093251
  22 C :   -0.059340
  23 C :   -0.029159
  24 N :   -0.037522
  25 C :    0.028848
  26 C :    0.038828
  27 C :    0.041124
  28 C :   -0.027266
  29 C :    0.019123
  30 C :   -0.039905
  31 C :    0.002558
  32 C :   -0.030155
  33 N :   -0.029231
  34 C :    0.007163
  35 C :   -0.025040
  36 C :    0.000277
  37 C :   -0.227007
  38 C :   -0.056971
  39 N :   -0.038067
  40 S :    0.530979
  41 C :   -0.113520
  42 C :   -0.105995
  43 C :   -0.029345
  44 N :   -0.047777
  45 C :   -0.068621
  46 C :    0.064587
  47 C :   -0.051947
  48 C :   -0.030780
  49 N :   -0.031700
  50 C :    0.031098
  51 C :    0.042217
  52 C :    0.030425
  53 C :   -0.033124
  54 C :    0.027840
  55 C :   -0.048183
  56 C :   -0.002530
  57 C :   -0.032719
  58 N :   -0.026043
  59 C :    0.027116
  60 C :   -0.027018
  61 C :    0.061780
  62 C :   -0.078614
  63 C :    0.073735
  64 C :   -0.132422
  65 C :   -0.017152
  66 N :   -0.046706
  67 C :   -0.019504
  68 N :   -0.049614
  69 C :   -0.025558
  70 C :   -0.057940
  71 C :    0.090899
  72 O :   -0.154855
  73 C :    0.038259
  74 C :   -0.007293
  75 C :   -0.004151
  76 C :    0.022245
  77 C :   -0.004217
  78 C :   -0.009357
  79 C :   -0.009016
  80 C :   -0.006904
  81 H :    0.039545
  82 H :    0.039696
  83 H :    0.035523
  84 H :    0.034225
  85 H :    0.033957
  86 H :    0.032465
  87 H :    0.044491
  88 H :    0.041937
  89 H :    0.039589
  90 H :    0.039304
  91 H :    0.037267
  92 H :    0.043741
  93 H :    0.041355
  94 H :    0.043963
  95 H :    0.041262
  96 H :    0.040052
  97 H :    0.035821
  98 H :    0.043438
  99 H :    0.032602
 100 H :    0.043057
 101 H :    0.039275
 102 H :    0.039764
 103 H :    0.035651
 104 H :    0.034481
 105 H :    0.034421
 106 H :    0.032941

  Mayer bond orders larger than 0.100000
B(  0-C ,  1-C ) :   1.6463 B(  0-C ,  6-C ) :   0.9952 B(  0-C , 18-C ) :   1.0423
B(  1-C ,  2-C ) :   1.1433 B(  1-C ,  4-C ) :   1.1429 B(  2-C ,  3-N ) :   2.9656
B(  4-C ,  5-N ) :   2.9616 B(  6-C ,  7-C ) :   1.2100 B(  6-C , 11-C ) :   1.4415
B(  7-C ,  8-C ) :   1.4681 B(  7-C , 16-C ) :   0.9476 B(  8-C ,  9-C ) :   1.1799
B(  8-C , 81-H ) :   1.0168 B(  9-C , 10-C ) :   1.2563 B(  9-C , 15-C ) :   1.2422
B( 10-C , 11-C ) :   1.2085 B( 10-C , 12-C ) :   1.2376 B( 11-C , 82-H ) :   0.9900
B( 12-C , 13-C ) :   1.4899 B( 12-C , 83-H ) :   0.9981 B( 13-C , 14-C ) :   1.2590
B( 13-C , 84-H ) :   0.9886 B( 14-C , 15-C ) :   1.4885 B( 14-C , 85-H ) :   0.9891
B( 15-C , 86-H ) :   0.9985 B( 16-C , 17-O ) :   2.2232 B( 16-C , 18-C ) :   0.9254
B( 18-C , 19-C ) :   1.6619 B( 19-C , 20-C ) :   1.0812 B( 19-C , 87-H ) :   0.9241
B( 20-C , 21-C ) :   1.5733 B( 20-C , 26-C ) :   1.0627 B( 21-C , 22-C ) :   1.1003
B( 21-C , 88-H ) :   1.0065 B( 22-C , 23-C ) :   1.0590 B( 22-C , 25-C ) :   1.6266
B( 23-C , 24-N ) :   3.0457 B( 25-C , 26-C ) :   1.0847 B( 25-C , 89-H ) :   1.0019
B( 26-C , 27-C ) :   1.4855 B( 27-C , 28-C ) :   1.0291 B( 27-C , 31-C ) :   1.1045
B( 28-C , 29-C ) :   1.5881 B( 28-C , 34-C ) :   1.1031 B( 29-C , 30-C ) :   1.1012
B( 29-C , 90-H ) :   1.0227 B( 30-C , 31-C ) :   1.6133 B( 30-C , 32-C ) :   1.0646
B( 31-C , 91-H ) :   1.0136 B( 32-C , 33-N ) :   3.0419 B( 34-C , 35-C ) :   1.6578
B( 34-C , 92-H ) :   0.9548 B( 35-C , 36-C ) :   1.1595 B( 35-C , 93-H ) :   0.9278
B( 36-C , 37-C ) :   1.4514 B( 36-C , 42-C ) :   1.2084 B( 37-C , 38-C ) :   1.2013
B( 37-C , 40-S ) :   1.1198 B( 37-C , 41-C ) :   0.1098 B( 38-C , 39-N ) :   2.9706
B( 40-S , 41-C ) :   1.1670 B( 41-C , 42-C ) :   1.5218 B( 41-C , 45-C ) :   1.0311
B( 42-C , 43-C ) :   1.1303 B( 43-C , 44-N ) :   2.9453 B( 45-C , 46-C ) :   1.6280
B( 45-C , 51-C ) :   1.0647 B( 46-C , 47-C ) :   1.0907 B( 46-C , 94-H ) :   1.0097
B( 47-C , 48-C ) :   1.0673 B( 47-C , 50-C ) :   1.6404 B( 48-C , 49-N ) :   3.0454
B( 50-C , 51-C ) :   1.0948 B( 50-C , 95-H ) :   1.0080 B( 51-C , 52-C ) :   1.4723
B( 52-C , 53-C ) :   1.0280 B( 52-C , 56-C ) :   1.1201 B( 53-C , 54-C ) :   1.5582
B( 53-C , 59-C ) :   1.1087 B( 54-C , 55-C ) :   1.1153 B( 54-C , 96-H ) :   1.0208
B( 55-C , 56-C ) :   1.6055 B( 55-C , 57-C ) :   1.0624 B( 56-C , 97-H ) :   1.0090
B( 57-C , 58-N ) :   3.0418 B( 59-C , 60-C ) :   1.5704 B( 59-C , 98-H ) :   0.9792
B( 60-C , 61-C ) :   1.1585 B( 60-C , 99-H ) :   0.9576 B( 61-C , 62-C ) :   1.5720
B( 61-C ,100-H ) :   0.9629 B( 62-C , 63-C ) :   1.0476 B( 62-C , 71-C ) :   0.9360
B( 63-C , 64-C ) :   1.6376 B( 63-C , 69-C ) :   0.9927 B( 64-C , 65-C ) :   1.1456
B( 64-C , 67-C ) :   1.1453 B( 65-C , 66-N ) :   2.9631 B( 67-C , 68-N ) :   2.9559
B( 69-C , 70-C ) :   1.2122 B( 69-C , 76-C ) :   1.4469 B( 70-C , 71-C ) :   0.9597
B( 70-C , 73-C ) :   1.4645 B( 71-C , 72-O ) :   2.1591 B( 73-C , 74-C ) :   1.1838
B( 73-C ,101-H ) :   1.0151 B( 74-C , 75-C ) :   1.2543 B( 74-C , 80-C ) :   1.2439
B( 75-C , 76-C ) :   1.2094 B( 75-C , 77-C ) :   1.2399 B( 76-C ,102-H ) :   0.9881
B( 77-C , 78-C ) :   1.4899 B( 77-C ,103-H ) :   0.9968 B( 78-C , 79-C ) :   1.2604
B( 78-C ,104-H ) :   0.9880 B( 79-C , 80-C ) :   1.4891 B( 79-C ,105-H ) :   0.9889
B( 80-C ,106-H ) :   0.9972

-----------------------------------------------------------------------------
         ABSORPTION SPECTRUM VIA TRANSITION ELECTRIC DIPOLE MOMENTS
-----------------------------------------------------------------------------
State   Energy  Wavelength   fosc         T2         TX        TY        TZ
        (cm-1)    (nm)                  (au**2)     (au)      (au)      (au)
-----------------------------------------------------------------------------
   0   11824.7    845.7   0.103093051   2.87021  -0.65122  -1.48194  -0.49997
   1   13444.2    743.8   0.071268012   1.74517  -0.63359   1.15319  -0.11781
   2   15716.3    636.3   0.016334048   0.34215   0.37009  -0.22177   0.39497
   3   16428.9    608.7   0.005972723   0.11969  -0.00320   0.04051   0.34356
   4   19170.5    521.6   0.017024164   0.29235  -0.23595   0.47884   0.08596
   5   20490.1    488.0   0.005560014   0.08933   0.05336   0.28029   0.08902
   6   21936.0    455.9   0.003813025   0.05723   0.12170  -0.17172   0.11369
   7   22753.4    439.5   0.018938374   0.27401  -0.29213  -0.41397  -0.13154
   8   22832.9    438.0   0.036532061   0.52673   0.67008   0.26826   0.07594
   9   23292.9    429.3   0.366499923   5.17995  -1.16419  -1.18902  -1.55269
  10   23457.4    426.3   0.010080635   0.14148  -0.32833   0.10140  -0.15296
  11   24178.4    413.6   0.064980080   0.88476  -0.08034  -0.72454  -0.59444
  12   24330.4    411.0   0.026958497   0.36477  -0.09943  -0.49125  -0.33699
  13   25002.4    400.0   0.083979765   1.10578  -0.93222   0.45711   0.16674
  14   25271.9    395.7   0.298266022   3.88545  -1.51717   1.21650   0.32213
  15   25740.9    388.5   0.026745581   0.34206  -0.19004   0.37615   0.40554
  16   26679.6    374.8   0.431436538   5.32369  -0.39880   0.18939  -2.26468
  17   26868.2    372.2   0.022635162   0.27734   0.09163  -0.51538  -0.05771
  18   27050.0    369.7   0.006463891   0.07867  -0.20767  -0.15738   0.10379
  19   27222.0    367.4   0.099515106   1.20350  -0.32777  -1.00116  -0.30618
  20   27486.0    363.8   0.058179988   0.69685   0.41392  -0.34918   0.63529
  21   27837.2    359.2   0.001678340   0.01985   0.08211   0.10462  -0.04649
  22   28064.5    356.3   0.005596061   0.06564   0.22592  -0.00946  -0.12049
  23   28375.3    352.4   0.152322271   1.76725  -1.00023   0.63222  -0.60588
  24   28944.6    345.5   0.288056846   3.27632   0.30287   0.08908   1.78232
  25   29056.7    344.2   0.364343646   4.12800   0.15522   1.77955   0.96804
  26   29270.7    341.6   0.072037176   0.81021  -0.15499   0.01925  -0.88646
  27   29423.4    339.9   0.005258960   0.05884  -0.16996   0.17081   0.02788
  28   29620.1    337.6   0.010481469   0.11650   0.08850  -0.18487   0.27293
  29   30129.3    331.9   0.077184822   0.84337  -0.58561  -0.49782   0.50260
  30   30378.2    329.2   0.008287037   0.08981   0.13536   0.19832   0.17932
  31   30591.5    326.9   0.032248624   0.34705   0.20322   0.15663  -0.53030
  32   30703.2    325.7   0.164345680   1.76218   0.88622  -0.87057   0.46786
  33   31279.4    319.7   0.160638571   1.69070  -0.94271  -0.87283  -0.20044
  34   31465.2    317.8   0.001535230   0.01606  -0.12106  -0.03628  -0.00949
  35   31921.7    313.3   0.138427531   1.42762   0.51614  -1.07285   0.10102
  36   32220.8    310.4   0.658196468   6.72504  -0.67218  -0.69179   2.40720
  37   32538.8    307.3   0.111082644   1.12388  -0.95847  -0.32393   0.31668
  38   32724.4    305.6   0.011938812   0.12011  -0.20699   0.19814  -0.19494
  39   32816.4    304.7   0.127249945   1.27656  -0.30943   0.31401  -1.04030
  40   33318.5    300.1   0.686657544   6.78470  -0.22329   1.52404  -2.10051
  41   33462.6    298.8   0.016688744   0.16419   0.21384  -0.02745   0.34308
  42   33789.6    295.9   0.091698558   0.89342  -0.03771   0.61029   0.72079
  43   33912.0    294.9   0.018304493   0.17770  -0.06959   0.09426  -0.40493
  44   34283.9    291.7   0.835425465   8.02219   1.71813  -1.94507   1.13442
  45   34356.6    291.1   0.063448893   0.60798  -0.50642  -0.15958  -0.57101
  46   34454.3    290.2   0.741896932   7.08885  -0.59866  -2.58050  -0.26730
  47   34801.1    287.3   0.159132628   1.50536  -0.52343  -0.74865   0.81909
  48   34912.2    286.4   0.231254926   2.18067   0.02731   1.33494   0.63077
  49   34992.8    285.8   0.171029857   1.60905  -1.17603  -0.39043  -0.27125
  50   35348.8    282.9   0.024285402   0.22618   0.10822  -0.18999  -0.42234
  51   35616.3    280.8   0.008803015   0.08137  -0.06936  -0.25924  -0.09672
  52   35779.3    279.5   0.120135184   1.10539  -0.22330   0.77835   0.67060
  53   36307.0    275.4   0.000281889   0.00256   0.02593  -0.02586  -0.03485
  54   36422.0    274.6   0.066170705   0.59811  -0.07097   0.62628   0.44816
  55   36656.7    272.8   0.167214671   1.50175   0.87900   0.78351  -0.33943
  56   36750.0    272.1   0.187420448   1.67894   0.92716   0.83528   0.34874
  57   36960.7    270.6   0.106781223   0.95111  -0.06368   0.78839   0.57052
  58   37062.6    269.8   0.018772452   0.16675  -0.40401  -0.04165  -0.04229
  59   37138.5    269.3   0.000789058   0.00699  -0.04577   0.02796  -0.06417
  60   37879.9    264.0   0.076237306   0.66257   0.62722   0.46209  -0.23588
  61   38074.9    262.6   0.093869305   0.81163   0.11043  -0.88863   0.09891
  62   38297.5    261.1   0.041897893   0.36016   0.10061   0.54625  -0.22727
  63   38474.9    259.9   0.021400069   0.18311  -0.08901  -0.41037  -0.08235
  64   38615.0    259.0   0.033015006   0.28147   0.10800   0.48066   0.19690
  65   38705.2    258.4   0.018948026   0.16116   0.37893  -0.02873  -0.12944
  66   38987.2    256.5   0.132041440   1.11497  -0.13388  -0.69462  -0.78393
  67   39071.4    255.9   0.105587247   0.88967  -0.72687  -0.60094   0.01403
  68   39460.7    253.4   0.017899710   0.14933  -0.31999  -0.12380  -0.17780
  69   39836.6    251.0   0.008525285   0.07045   0.00408   0.26529   0.00748
  70   40037.6    249.8   0.136843985   1.12521   0.23949   0.65169   0.80197
  71   40107.3    249.3   0.143497301   1.17787   0.54880   0.41459   0.83952
  72   40226.5    248.6   0.108385113   0.88702  -0.21963  -0.63140  -0.66341
  73   40326.6    248.0   0.028296473   0.23100   0.08175  -0.47362   0.00073

FINAL SINGLE POINT ENERGY     -3698.372405626199

DIPOLE MOMENT
-------------
                                X             Y             Z
Electronic contribution:    -12.99351      15.04561     -19.36614
Nuclear contribution   :     14.90243     -16.19969      21.87100
                        -----------------------------------------
Total Dipole Moment    :      1.90892      -1.15409       2.50487
                        -----------------------------------------
Magnitude (a.u.)       :      3.35414
Magnitude (Debye)      :      8.52555

Rotational constants in cm-1:     0.001218     0.000287     0.000261
Rotational constants in MHz :    36.508712     8.606949     7.816621

                             ****ORCA TERMINATED NORMALLY****
TOTAL RUN TIME: 0 days 0 hours 24 minutes 29 seconds 931 msec
