                         Program Version 4.2.0 -  RELEASE  -
|  1> # ORCA input file
|  2> # SCF done       -217.265167975654          0.000596378899
|  3> ! CAM-B3LYP def2-SVP def2/J RIJCOSX Grid4 TightSCF
|  4> %maxcore 5000
|  5> %tddft
|  6>     Mode sTDDFT
|  7>     Ethresh 5.0
|  8>     maxcore 5000
|  9> end
| 10>
| 11> %pal
| 12>   nprocs 6
| 13>   end
| 14> * xyz 0 1
| 15>    C        1.24444         1.53711         2.15428
| 16>    C        0.02262         1.40018         2.75519
| 17>    C       -0.17909         0.75449         3.99245
| 18>    N       -0.39916         0.26071         5.00503
| 19>    C       -1.18709         1.83935         2.18270
| 20>    N       -2.19924         2.16439         1.74951
| 21>    C        2.48205         0.90563         2.59539
| 22>    C        3.41602         0.92756         1.51825
| 23>    C        4.65890         0.37428         1.63313
| 24>    C        5.03592        -0.22588         2.85547
| 25>    C        4.11384        -0.23597         3.94215
| 26>    C        2.83025         0.33722         3.79169
| 27>    C        4.50595        -0.82969         5.15926
| 28>    C        5.74675        -1.38964         5.29748
| 29>    C        6.65294        -1.38099         4.22647
| 30>    C        6.30494        -0.81193         3.03153
| 31>    C        2.81741         1.62759         0.37025
| 32>    O        3.28199         1.79136        -0.73265
| 33>    C        1.50798         2.15821         0.87145
| 34>    C        0.89056         3.11831         0.14720
| 35>    C       -0.17174         4.03374         0.48098
| 36>    C       -0.98239         4.49967        -0.56358
| 37>    F       -0.72845         3.98376        -1.78788
| 38>    C       -2.00767         5.41995        -0.38931
| 39>    O       -2.79749         5.96404        -1.33618
| 40>    C       -2.82111         5.42857        -2.64558
| 41>    C       -2.21380         5.89146         0.92168
| 42>    C       -1.40572         5.45324         1.96266
| 43>    C       -0.36558         4.54482         1.78431
| 44>    O        0.48911         4.11563         2.73669
| 45>    C        0.59602         4.80269         3.97054
| 46>    F       -1.71849         5.88314         3.20767
| 47>    C       -3.28145         6.85497         1.19532
| 48>    C       -3.00722         8.05282         1.87027
| 49>    C       -4.05216         8.98395         2.22127
| 50>    N       -3.75233        10.11340         2.89732
| 51>    C       -2.50805        10.35872         3.19632
| 52>    C       -1.45743         9.45084         2.80247
| 53>    N       -1.72443         8.34561         2.16587
| 54>    C       -0.10663         9.74874         3.11585
| 55>    N        0.97675         9.99876         3.39045
| 56>    C       -2.17537        11.53352         3.91868
| 57>    N       -1.85048        12.46369         4.50201
| 58>    C       -5.38855         8.74352         1.88308
| 59>    C       -5.65331         7.58443         1.15096
| 60>    C       -4.60993         6.63312         0.82344
| 61>    N       -5.10543         5.56992         0.17846
| 62>    S       -6.67661         5.76026        -0.00947
| 63>    N       -6.85261         7.17110         0.71805
| 64>    C       -6.44984         9.73029         2.17064
| 65>    C       -6.84413        10.51001         1.07767
| 66>    F       -6.20843        10.24685        -0.09431
| 67>    C       -7.79950        11.51325         1.15212
| 68>    O       -8.22771        12.33235         0.16746
| 69>    C       -7.79371        12.14445        -1.16473
| 70>    C       -8.37411        11.75395         2.41974
| 71>    C       -8.01579        10.95115         3.48986
| 72>    C       -7.06407         9.92627         3.40952
| 73>    O       -6.92244         9.21474         4.54896
| 74>    C       -5.90662         8.25991         4.70976
| 75>    F       -8.64892        11.11104         4.66285
| 76>    C       -9.36902        12.80577         2.55452
| 77>    C       -9.36450        13.72151         3.54360
| 78>    C      -10.38967        14.71467         3.84672
| 79>    C      -11.56254        14.90782         3.17031
| 80>    C      -12.52578        15.88084         3.51554
| 81>    N      -13.34583        16.65274         3.73699
| 82>    C      -11.98090        14.18433         2.03265
| 83>    N      -12.39728        13.64667         1.10749
| 84>    C       -9.95320        15.45264         5.02436
| 85>    C       -8.66301        14.98822         5.41059
| 86>    C       -8.21992        13.93138         4.48864
| 87>    O       -7.13207        13.40707         4.44671
| 88>    C       -8.00230        15.50178         6.48942
| 89>    C       -8.61903        16.51403         7.25698
| 90>    C       -9.91135        16.98312         6.88077
| 91>    C      -10.56602        16.44045         5.75252
| 92>    C      -10.51881        17.99273         7.65596
| 93>    C       -9.88307        18.51306         8.74986
| 94>    C       -8.61073        18.05023         9.11897
| 95>    C       -7.99220        17.07234         8.38848
| 96>    H        5.34786         0.39560         0.80186
| 97>    H        2.15521         0.32207         4.63316
| 98>    H        3.80397        -0.83680         5.98016
| 99>    H        6.03698        -1.84308         6.23335
|100>    H        7.62798        -1.82700         4.35322
|101>    H        6.99844        -0.80202         2.20348
|102>    H        1.30150         3.24780        -0.85125
|103>    H       -1.87774         5.59741        -3.16982
|104>    H       -3.61792         5.96684        -3.15650
|105>    H       -3.05034         4.36126        -2.63610
|106>    H        0.70416         5.87919         3.82306
|107>    H        1.49750         4.40749         4.43726
|108>    H       -0.26181         4.60478         4.61707
|109>    H       -8.34887        12.87719        -1.74805
|110>    H       -8.02602        11.14018        -1.52631
|111>    H       -6.72282        12.33231        -1.27031
|112>    H       -4.91693         8.72398         4.70038
|113>    H       -5.95433         7.47614         3.94841
|114>    H       -6.08430         7.81866         5.69004
|115>    H      -10.12824        12.82138         1.78414
|116>    H       -7.02352        15.13221         6.75660
|117>    H      -11.54182        16.81959         5.49351
|118>    H      -11.49820        18.34579         7.36811
|119>    H      -10.35705        19.28465         9.33787
|120>    H       -8.12377        18.47265         9.98517
|121>    H       -7.01298        16.71170         8.66720
|122> *
|123>
|124>                          ****END OF INPUT****

CARTESIAN COORDINATES (ANGSTROEM)
---------------------------------
  C      1.244440    1.537110    2.154280
  C      0.022620    1.400180    2.755190
  C     -0.179090    0.754490    3.992450
  N     -0.399160    0.260710    5.005030
  C     -1.187090    1.839350    2.182700
  N     -2.199240    2.164390    1.749510
  C      2.482050    0.905630    2.595390
  C      3.416020    0.927560    1.518250
  C      4.658900    0.374280    1.633130
  C      5.035920   -0.225880    2.855470
  C      4.113840   -0.235970    3.942150
  C      2.830250    0.337220    3.791690
  C      4.505950   -0.829690    5.159260
  C      5.746750   -1.389640    5.297480
  C      6.652940   -1.380990    4.226470
  C      6.304940   -0.811930    3.031530
  C      2.817410    1.627590    0.370250
  O      3.281990    1.791360   -0.732650
  C      1.507980    2.158210    0.871450
  C      0.890560    3.118310    0.147200
  C     -0.171740    4.033740    0.480980
  C     -0.982390    4.499670   -0.563580
  F     -0.728450    3.983760   -1.787880
  C     -2.007670    5.419950   -0.389310
  O     -2.797490    5.964040   -1.336180
  C     -2.821110    5.428570   -2.645580
  C     -2.213800    5.891460    0.921680
  C     -1.405720    5.453240    1.962660
  C     -0.365580    4.544820    1.784310
  O      0.489110    4.115630    2.736690
  C      0.596020    4.802690    3.970540
  F     -1.718490    5.883140    3.207670
  C     -3.281450    6.854970    1.195320
  C     -3.007220    8.052820    1.870270
  C     -4.052160    8.983950    2.221270
  N     -3.752330   10.113400    2.897320
  C     -2.508050   10.358720    3.196320
  C     -1.457430    9.450840    2.802470
  N     -1.724430    8.345610    2.165870
  C     -0.106630    9.748740    3.115850
  N      0.976750    9.998760    3.390450
  C     -2.175370   11.533520    3.918680
  N     -1.850480   12.463690    4.502010
  C     -5.388550    8.743520    1.883080
  C     -5.653310    7.584430    1.150960
  C     -4.609930    6.633120    0.823440
  N     -5.105430    5.569920    0.178460
  S     -6.676610    5.760260   -0.009470
  N     -6.852610    7.171100    0.718050
  C     -6.449840    9.730290    2.170640
  C     -6.844130   10.510010    1.077670
  F     -6.208430   10.246850   -0.094310
  C     -7.799500   11.513250    1.152120
  O     -8.227710   12.332350    0.167460
  C     -7.793710   12.144450   -1.164730
  C     -8.374110   11.753950    2.419740
  C     -8.015790   10.951150    3.489860
  C     -7.064070    9.926270    3.409520
  O     -6.922440    9.214740    4.548960
  C     -5.906620    8.259910    4.709760
  F     -8.648920   11.111040    4.662850
  C     -9.369020   12.805770    2.554520
  C     -9.364500   13.721510    3.543600
  C    -10.389670   14.714670    3.846720
  C    -11.562540   14.907820    3.170310
  C    -12.525780   15.880840    3.515540
  N    -13.345830   16.652740    3.736990
  C    -11.980900   14.184330    2.032650
  N    -12.397280   13.646670    1.107490
  C     -9.953200   15.452640    5.024360
  C     -8.663010   14.988220    5.410590
  C     -8.219920   13.931380    4.488640
  O     -7.132070   13.407070    4.446710
  C     -8.002300   15.501780    6.489420
  C     -8.619030   16.514030    7.256980
  C     -9.911350   16.983120    6.880770
  C    -10.566020   16.440450    5.752520
  C    -10.518810   17.992730    7.655960
  C     -9.883070   18.513060    8.749860
  C     -8.610730   18.050230    9.118970
  C     -7.992200   17.072340    8.388480
  H      5.347860    0.395600    0.801860
  H      2.155210    0.322070    4.633160
  H      3.803970   -0.836800    5.980160
  H      6.036980   -1.843080    6.233350
  H      7.627980   -1.827000    4.353220
  H      6.998440   -0.802020    2.203480
  H      1.301500    3.247800   -0.851250
  H     -1.877740    5.597410   -3.169820
  H     -3.617920    5.966840   -3.156500
  H     -3.050340    4.361260   -2.636100
  H      0.704160    5.879190    3.823060
  H      1.497500    4.407490    4.437260
  H     -0.261810    4.604780    4.617070
  H     -8.348870   12.877190   -1.748050
  H     -8.026020   11.140180   -1.526310
  H     -6.722820   12.332310   -1.270310
  H     -4.916930    8.723980    4.700380
  H     -5.954330    7.476140    3.948410
  H     -6.084300    7.818660    5.690040
  H    -10.128240   12.821380    1.784140
  H     -7.023520   15.132210    6.756600
  H    -11.541820   16.819590    5.493510
  H    -11.498200   18.345790    7.368110
  H    -10.357050   19.284650    9.337870
  H     -8.123770   18.472650    9.985170
  H     -7.012980   16.711700    8.667200

 Total Charge           Charge          ....    0
 Multiplicity           Mult            ....    1
 Number of Electrons    NEL             ....  556
 Basis Dimension        Dim             .... 1268

ORBITAL ENERGIES
----------------

  NO   OCC          E(Eh)            E(eV)
   0   2.0000     -89.054562     -2423.2978
   1   2.0000     -24.802480      -674.9098
   2   2.0000     -24.801482      -674.8826
   3   2.0000     -24.793479      -674.6649
   4   2.0000     -24.780898      -674.3225
   5   2.0000     -19.271343      -524.3999
   6   2.0000     -19.261793      -524.1400
   7   2.0000     -19.258188      -524.0419
   8   2.0000     -19.253068      -523.9026
   9   2.0000     -19.215884      -522.8908
  10   2.0000     -19.210182      -522.7356
  11   2.0000     -14.468807      -393.7162
  12   2.0000     -14.468332      -393.7033
  13   2.0000     -14.457424      -393.4065
  14   2.0000     -14.456700      -393.3868
  15   2.0000     -14.436106      -392.8264
  16   2.0000     -14.433447      -392.7540
  17   2.0000     -14.417949      -392.3323
  18   2.0000     -14.416755      -392.2998
  19   2.0000     -14.413907      -392.2224
  20   2.0000     -14.413161      -392.2020
  21   2.0000     -10.388823      -282.6942
  22   2.0000     -10.388516      -282.6859
  23   2.0000     -10.375869      -282.3417
  24   2.0000     -10.374483      -282.3040
  25   2.0000     -10.365848      -282.0691
  26   2.0000     -10.364483      -282.0319
  27   2.0000     -10.363545      -282.0064
  28   2.0000     -10.361246      -281.9438
  29   2.0000     -10.360332      -281.9190
  30   2.0000     -10.360162      -281.9143
  31   2.0000     -10.354396      -281.7574
  32   2.0000     -10.353707      -281.7387
  33   2.0000     -10.350934      -281.6632
  34   2.0000     -10.348972      -281.6099
  35   2.0000     -10.348300      -281.5916
  36   2.0000     -10.347925      -281.5814
  37   2.0000     -10.342901      -281.4446
  38   2.0000     -10.340809      -281.3877
  39   2.0000     -10.338284      -281.3190
  40   2.0000     -10.338232      -281.3176
  41   2.0000     -10.332659      -281.1659
  42   2.0000     -10.329376      -281.0766
  43   2.0000     -10.329278      -281.0739
  44   2.0000     -10.329256      -281.0733
  45   2.0000     -10.328822      -281.0615
  46   2.0000     -10.328360      -281.0490
  47   2.0000     -10.326135      -280.9884
  48   2.0000     -10.324049      -280.9317
  49   2.0000     -10.320419      -280.8329
  50   2.0000     -10.317941      -280.7654
  51   2.0000     -10.316283      -280.7203
  52   2.0000     -10.316278      -280.7202
  53   2.0000     -10.315803      -280.7073
  54   2.0000     -10.313520      -280.6452
  55   2.0000     -10.313457      -280.6434
  56   2.0000     -10.310924      -280.5745
  57   2.0000     -10.308460      -280.5075
  58   2.0000     -10.303963      -280.3851
  59   2.0000     -10.300091      -280.2797
  60   2.0000     -10.299493      -280.2635
  61   2.0000     -10.298915      -280.2477
  62   2.0000     -10.298431      -280.2345
  63   2.0000     -10.298114      -280.2259
  64   2.0000     -10.297272      -280.2030
  65   2.0000     -10.296424      -280.1800
  66   2.0000     -10.296091      -280.1709
  67   2.0000     -10.294971      -280.1404
  68   2.0000     -10.294701      -280.1331
  69   2.0000     -10.294147      -280.1180
  70   2.0000     -10.292688      -280.0783
  71   2.0000     -10.289729      -279.9978
  72   2.0000     -10.287417      -279.9348
  73   2.0000     -10.287127      -279.9270
  74   2.0000     -10.286777      -279.9174
  75   2.0000     -10.286437      -279.9082
  76   2.0000     -10.284493      -279.8553
  77   2.0000     -10.283903      -279.8392
  78   2.0000     -10.283332      -279.8237
  79   2.0000     -10.283088      -279.8171
  80   2.0000     -10.282795      -279.8091
  81   2.0000      -8.145757      -221.6573
  82   2.0000      -6.116530      -166.4392
  83   2.0000      -6.109218      -166.2403
  84   2.0000      -6.108710      -166.2265
  85   2.0000      -1.315608       -35.7995
  86   2.0000      -1.314925       -35.7809
  87   2.0000      -1.305045       -35.5121
  88   2.0000      -1.296429       -35.2776
  89   2.0000      -1.174781       -31.9674
  90   2.0000      -1.167387       -31.7662
  91   2.0000      -1.161719       -31.6120
  92   2.0000      -1.159288       -31.5458
  93   2.0000      -1.148712       -31.2580
  94   2.0000      -1.131368       -30.7861
  95   2.0000      -1.127064       -30.6690
  96   2.0000      -1.126257       -30.6470
  97   2.0000      -1.054637       -28.6981
  98   2.0000      -1.019738       -27.7485
  99   2.0000      -1.018931       -27.7265
 100   2.0000      -1.015502       -27.6332
 101   2.0000      -1.009092       -27.4588
 102   2.0000      -1.001693       -27.2574
 103   2.0000      -0.999104       -27.1870
 104   2.0000      -0.996722       -27.1222
 105   2.0000      -0.995307       -27.0837
 106   2.0000      -0.993075       -27.0230
 107   2.0000      -0.991720       -26.9861
 108   2.0000      -0.978448       -26.6249
 109   2.0000      -0.971826       -26.4447
 110   2.0000      -0.970021       -26.3956
 111   2.0000      -0.964990       -26.2587
 112   2.0000      -0.928422       -25.2636
 113   2.0000      -0.923417       -25.1274
 114   2.0000      -0.918802       -25.0019
 115   2.0000      -0.913553       -24.8590
 116   2.0000      -0.907048       -24.6820
 117   2.0000      -0.896297       -24.3895
 118   2.0000      -0.886013       -24.1096
 119   2.0000      -0.881975       -23.9998
 120   2.0000      -0.878450       -23.9038
 121   2.0000      -0.875026       -23.8107
 122   2.0000      -0.865742       -23.5580
 123   2.0000      -0.859554       -23.3896
 124   2.0000      -0.851338       -23.1661
 125   2.0000      -0.837341       -22.7852
 126   2.0000      -0.834525       -22.7086
 127   2.0000      -0.829153       -22.5624
 128   2.0000      -0.825278       -22.4570
 129   2.0000      -0.820777       -22.3345
 130   2.0000      -0.812719       -22.1152
 131   2.0000      -0.807374       -21.9698
 132   2.0000      -0.799853       -21.7651
 133   2.0000      -0.788187       -21.4477
 134   2.0000      -0.779228       -21.2039
 135   2.0000      -0.771471       -20.9928
 136   2.0000      -0.761932       -20.7332
 137   2.0000      -0.758197       -20.6316
 138   2.0000      -0.752904       -20.4876
 139   2.0000      -0.741952       -20.1895
 140   2.0000      -0.731686       -19.9102
 141   2.0000      -0.717816       -19.5328
 142   2.0000      -0.711529       -19.3617
 143   2.0000      -0.707920       -19.2635
 144   2.0000      -0.705680       -19.2025
 145   2.0000      -0.703778       -19.1508
 146   2.0000      -0.701753       -19.0957
 147   2.0000      -0.700389       -19.0586
 148   2.0000      -0.696974       -18.9656
 149   2.0000      -0.686205       -18.6726
 150   2.0000      -0.682093       -18.5607
 151   2.0000      -0.677699       -18.4411
 152   2.0000      -0.676770       -18.4159
 153   2.0000      -0.670471       -18.2445
 154   2.0000      -0.660275       -17.9670
 155   2.0000      -0.653878       -17.7929
 156   2.0000      -0.648136       -17.6367
 157   2.0000      -0.647875       -17.6296
 158   2.0000      -0.643497       -17.5104
 159   2.0000      -0.637711       -17.3530
 160   2.0000      -0.632952       -17.2235
 161   2.0000      -0.631171       -17.1750
 162   2.0000      -0.629688       -17.1347
 163   2.0000      -0.623940       -16.9783
 164   2.0000      -0.612807       -16.6753
 165   2.0000      -0.611487       -16.6394
 166   2.0000      -0.609019       -16.5723
 167   2.0000      -0.608062       -16.5462
 168   2.0000      -0.604593       -16.4518
 169   2.0000      -0.603648       -16.4261
 170   2.0000      -0.601761       -16.3748
 171   2.0000      -0.595701       -16.2098
 172   2.0000      -0.591915       -16.1068
 173   2.0000      -0.585529       -15.9331
 174   2.0000      -0.583807       -15.8862
 175   2.0000      -0.579226       -15.7615
 176   2.0000      -0.578064       -15.7299
 177   2.0000      -0.572408       -15.5760
 178   2.0000      -0.571444       -15.5498
 179   2.0000      -0.565659       -15.3924
 180   2.0000      -0.563093       -15.3225
 181   2.0000      -0.559717       -15.2307
 182   2.0000      -0.555486       -15.1156
 183   2.0000      -0.554708       -15.0944
 184   2.0000      -0.550779       -14.9875
 185   2.0000      -0.549464       -14.9517
 186   2.0000      -0.547257       -14.8916
 187   2.0000      -0.547224       -14.8907
 188   2.0000      -0.543976       -14.8023
 189   2.0000      -0.542479       -14.7616
 190   2.0000      -0.541938       -14.7469
 191   2.0000      -0.541248       -14.7281
 192   2.0000      -0.540051       -14.6955
 193   2.0000      -0.537812       -14.6346
 194   2.0000      -0.535842       -14.5810
 195   2.0000      -0.530452       -14.4343
 196   2.0000      -0.529769       -14.4157
 197   2.0000      -0.528566       -14.3830
 198   2.0000      -0.524414       -14.2700
 199   2.0000      -0.519657       -14.1406
 200   2.0000      -0.519270       -14.1300
 201   2.0000      -0.514459       -13.9992
 202   2.0000      -0.513405       -13.9705
 203   2.0000      -0.511480       -13.9181
 204   2.0000      -0.509681       -13.8691
 205   2.0000      -0.503602       -13.7037
 206   2.0000      -0.502490       -13.6735
 207   2.0000      -0.501784       -13.6542
 208   2.0000      -0.499018       -13.5790
 209   2.0000      -0.497935       -13.5495
 210   2.0000      -0.497399       -13.5349
 211   2.0000      -0.495737       -13.4897
 212   2.0000      -0.493321       -13.4239
 213   2.0000      -0.490278       -13.3411
 214   2.0000      -0.488422       -13.2906
 215   2.0000      -0.486937       -13.2502
 216   2.0000      -0.484293       -13.1783
 217   2.0000      -0.483212       -13.1489
 218   2.0000      -0.479404       -13.0452
 219   2.0000      -0.479164       -13.0387
 220   2.0000      -0.471583       -12.8324
 221   2.0000      -0.464802       -12.6479
 222   2.0000      -0.464464       -12.6387
 223   2.0000      -0.462179       -12.5765
 224   2.0000      -0.461284       -12.5522
 225   2.0000      -0.457593       -12.4518
 226   2.0000      -0.456088       -12.4108
 227   2.0000      -0.453652       -12.3445
 228   2.0000      -0.449665       -12.2360
 229   2.0000      -0.449102       -12.2207
 230   2.0000      -0.446703       -12.1554
 231   2.0000      -0.446202       -12.1418
 232   2.0000      -0.443730       -12.0745
 233   2.0000      -0.442626       -12.0445
 234   2.0000      -0.442195       -12.0327
 235   2.0000      -0.440751       -11.9934
 236   2.0000      -0.438329       -11.9275
 237   2.0000      -0.436807       -11.8861
 238   2.0000      -0.436292       -11.8721
 239   2.0000      -0.433747       -11.8029
 240   2.0000      -0.431401       -11.7390
 241   2.0000      -0.429188       -11.6788
 242   2.0000      -0.428156       -11.6507
 243   2.0000      -0.426918       -11.6170
 244   2.0000      -0.425287       -11.5726
 245   2.0000      -0.424414       -11.5489
 246   2.0000      -0.423191       -11.5156
 247   2.0000      -0.421270       -11.4633
 248   2.0000      -0.419109       -11.4045
 249   2.0000      -0.418257       -11.3814
 250   2.0000      -0.417478       -11.3602
 251   2.0000      -0.413150       -11.2424
 252   2.0000      -0.412688       -11.2298
 253   2.0000      -0.411775       -11.2050
 254   2.0000      -0.408579       -11.1180
 255   2.0000      -0.404471       -11.0062
 256   2.0000      -0.400094       -10.8871
 257   2.0000      -0.398796       -10.8518
 258   2.0000      -0.387819       -10.5531
 259   2.0000      -0.380831       -10.3629
 260   2.0000      -0.376512       -10.2454
 261   2.0000      -0.372865       -10.1462
 262   2.0000      -0.371861       -10.1189
 263   2.0000      -0.367335        -9.9957
 264   2.0000      -0.359291        -9.7768
 265   2.0000      -0.351927        -9.5764
 266   2.0000      -0.349424        -9.5083
 267   2.0000      -0.337063        -9.1719
 268   2.0000      -0.333624        -9.0784
 269   2.0000      -0.322281        -8.7697
 270   2.0000      -0.316324        -8.6076
 271   2.0000      -0.314103        -8.5472
 272   2.0000      -0.303058        -8.2466
 273   2.0000      -0.298387        -8.1195
 274   2.0000      -0.291845        -7.9415
 275   2.0000      -0.289273        -7.8715
 276   2.0000      -0.284396        -7.7388
 277   2.0000      -0.274474        -7.4688
 278   0.0000      -0.123082        -3.3492
 279   0.0000      -0.087527        -2.3817
 280   0.0000      -0.085779        -2.3342
 281   0.0000      -0.056000        -1.5238
 282   0.0000      -0.052905        -1.4396

MULLIKEN ATOMIC CHARGES
-----------------------
   0 C :    0.321333
   1 C :   -0.333712
   2 C :   -0.191887
   3 N :    0.154815
   4 C :   -0.202488
   5 N :    0.171855
   6 C :    0.038960
   7 C :    0.015481
   8 C :   -0.086857
   9 C :    0.098699
  10 C :    0.101041
  11 C :   -0.095454
  12 C :   -0.023159
  13 C :    0.038447
  14 C :    0.037378
  15 C :   -0.019055
  16 C :    0.133590
  17 O :   -0.137300
  18 C :   -0.104492
  19 C :    0.014949
  20 C :   -0.026077
  21 C :    0.123471
  22 F :   -0.183994
  23 C :    0.195443
  24 O :   -0.301539
  25 C :    0.183044
  26 C :   -0.128835
  27 C :    0.195437
  28 C :    0.123536
  29 O :   -0.311859
  30 C :    0.178306
  31 F :   -0.192906
  32 C :    0.046583
  33 C :   -0.036190
  34 C :   -0.052786
  35 N :    0.079154
  36 C :   -0.137749
  37 C :   -0.150218
  38 N :    0.070964
  39 C :   -0.204500
  40 N :    0.240761
  41 C :   -0.192791
  42 N :    0.240526
  43 C :   -0.054784
  44 C :    0.017398
  45 C :    0.042548
  46 N :   -0.252311
  47 S :    0.562888
  48 N :   -0.256736
  49 C :   -0.130940
  50 C :    0.170619
  51 F :   -0.198355
  52 C :    0.140011
  53 O :   -0.298914
  54 C :    0.181779
  55 C :   -0.067252
  56 C :    0.200871
  57 C :    0.177445
  58 O :   -0.294145
  59 C :    0.212395
  60 F :   -0.172261
  61 C :   -0.004031
  62 C :   -0.069043
  63 C :    0.319300
  64 C :   -0.343841
  65 C :   -0.186222
  66 N :    0.148176
  67 C :   -0.189774
  68 N :    0.155945
  69 C :    0.046656
  70 C :   -0.007234
  71 C :    0.149252
  72 O :   -0.134395
  73 C :   -0.072870
  74 C :    0.094547
  75 C :    0.095271
  76 C :   -0.079546
  77 C :   -0.016373
  78 C :    0.033579
  79 C :    0.036827
  80 C :   -0.013498
  81 H :   -0.010812
  82 H :   -0.008281
  83 H :   -0.010093
  84 H :   -0.005241
  85 H :   -0.005342
  86 H :   -0.015930
  87 H :    0.034135
  88 H :    0.033383
  89 H :    0.031346
  90 H :    0.035567
  91 H :    0.040214
  92 H :    0.038410
  93 H :    0.040123
  94 H :    0.041401
  95 H :    0.028513
  96 H :    0.030933
  97 H :    0.021293
  98 H :    0.022511
  99 H :    0.040012
 100 H :    0.041291
 101 H :   -0.010728
 102 H :   -0.009880
 103 H :   -0.009936
 104 H :   -0.004541
 105 H :   -0.004929
 106 H :   -0.016326
Sum of atomic charges:   -0.0000000

LOEWDIN ATOMIC CHARGES
----------------------
   0 C :    0.071873
   1 C :   -0.130905
   2 C :   -0.018758
   3 N :   -0.054071
   4 C :   -0.016719
   5 N :   -0.050388
   6 C :   -0.021496
   7 C :   -0.058430
   8 C :    0.033942
   9 C :   -0.009631
  10 C :   -0.004953
  11 C :    0.012277
  12 C :   -0.007465
  13 C :   -0.012483
  14 C :   -0.013274
  15 C :   -0.008860
  16 C :    0.085886
  17 O :   -0.136626
  18 C :   -0.073891
  19 C :    0.071045
  20 C :   -0.066949
  21 C :    0.066803
  22 F :   -0.055760
  23 C :    0.037684
  24 O :   -0.090803
  25 C :    0.079636
  26 C :   -0.042149
  27 C :    0.068878
  28 C :    0.035939
  29 O :   -0.077234
  30 C :    0.080789
  31 F :   -0.058727
  32 C :    0.004262
  33 C :   -0.006363
  34 C :   -0.010451
  35 N :    0.007284
  36 C :   -0.025929
  37 C :   -0.027932
  38 N :    0.008460
  39 C :   -0.036596
  40 N :   -0.004622
  41 C :   -0.035221
  42 N :    0.001757
  43 C :   -0.006750
  44 C :   -0.044310
  45 C :   -0.036715
  46 N :   -0.273234
  47 S :    0.707119
  48 N :   -0.284745
  49 C :   -0.062920
  50 C :    0.055075
  51 F :   -0.070076
  52 C :    0.034304
  53 O :   -0.092754
  54 C :    0.079682
  55 C :   -0.068978
  56 C :    0.091149
  57 C :    0.036673
  58 O :   -0.086750
  59 C :    0.080052
  60 F :   -0.046705
  61 C :    0.088158
  62 C :   -0.074640
  63 C :    0.077852
  64 C :   -0.132448
  65 C :   -0.016211
  66 N :   -0.052115
  67 C :   -0.019268
  68 N :   -0.047975
  69 C :   -0.026486
  70 C :   -0.054233
  71 C :    0.083153
  72 O :   -0.126615
  73 C :    0.034556
  74 C :   -0.007122
  75 C :   -0.006192
  76 C :    0.020326
  77 C :   -0.005201
  78 C :   -0.013972
  79 C :   -0.011799
  80 C :   -0.008696
  81 H :    0.039595
  82 H :    0.037664
  83 H :    0.034097
  84 H :    0.033082
  85 H :    0.032826
  86 H :    0.032132
  87 H :    0.048254
  88 H :    0.018193
  89 H :    0.025429
  90 H :    0.021326
  91 H :    0.023155
  92 H :    0.028159
  93 H :    0.020617
  94 H :    0.029327
  95 H :    0.017807
  96 H :    0.017898
  97 H :    0.013275
  98 H :    0.015535
  99 H :    0.032082
 100 H :    0.046819
 101 H :    0.040265
 102 H :    0.038595
 103 H :    0.034475
 104 H :    0.033102
 105 H :    0.032811
 106 H :    0.032462

  Mayer bond orders larger than 0.100000
B(  0-C ,  1-C ) :   1.6564 B(  0-C ,  6-C ) :   1.0050 B(  0-C , 18-C ) :   1.0176
B(  1-C ,  2-C ) :   1.1415 B(  1-C ,  4-C ) :   1.1699 B(  2-C ,  3-N ) :   2.9817
B(  4-C ,  5-N ) :   3.0040 B(  6-C ,  7-C ) :   1.2119 B(  6-C , 11-C ) :   1.4521
B(  7-C ,  8-C ) :   1.4717 B(  7-C , 16-C ) :   0.9226 B(  8-C ,  9-C ) :   1.1846
B(  8-C , 81-H ) :   1.0163 B(  9-C , 10-C ) :   1.2563 B(  9-C , 15-C ) :   1.2441
B( 10-C , 11-C ) :   1.2038 B( 10-C , 12-C ) :   1.2400 B( 11-C , 82-H ) :   0.9940
B( 12-C , 13-C ) :   1.4912 B( 12-C , 83-H ) :   0.9974 B( 13-C , 14-C ) :   1.2603
B( 13-C , 84-H ) :   0.9879 B( 14-C , 15-C ) :   1.4902 B( 14-C , 85-H ) :   0.9881
B( 15-C , 86-H ) :   0.9977 B( 16-C , 17-O ) :   2.2699 B( 16-C , 18-C ) :   0.9277
B( 18-C , 19-C ) :   1.7257 B( 19-C , 20-C ) :   1.0603 B( 19-C , 87-H ) :   0.9267
B( 20-C , 21-C ) :   1.3041 B( 20-C , 26-C ) :   0.1259 B( 20-C , 28-C ) :   1.3219
B( 21-C , 22-F ) :   1.1380 B( 21-C , 23-C ) :   1.2633 B( 23-C , 24-O ) :   1.2173
B( 23-C , 26-C ) :   1.3569 B( 24-O , 25-C ) :   0.9258 B( 25-C , 88-H ) :   0.9764
B( 25-C , 89-H ) :   0.9791 B( 25-C , 90-H ) :   0.9749 B( 26-C , 27-C ) :   1.3888
B( 26-C , 32-C ) :   0.9208 B( 27-C , 28-C ) :   1.2522 B( 27-C , 31-F ) :   1.1187
B( 28-C , 29-O ) :   1.1915 B( 29-O , 30-C ) :   0.9168 B( 30-C , 91-H ) :   0.9746
B( 30-C , 92-H ) :   0.9782 B( 30-C , 93-H ) :   0.9759 B( 32-C , 33-C ) :   1.3566
B( 32-C , 43-C ) :   0.1460 B( 32-C , 45-C ) :   1.2980 B( 33-C , 34-C ) :   1.1103
B( 33-C , 38-N ) :   1.4134 B( 34-C , 35-N ) :   1.4193 B( 34-C , 43-C ) :   1.3582
B( 35-N , 36-C ) :   1.7657 B( 36-C , 37-C ) :   1.1714 B( 36-C , 41-C ) :   1.1442
B( 37-C , 38-N ) :   1.7753 B( 37-C , 39-C ) :   1.1459 B( 39-C , 40-N ) :   3.0536
B( 41-C , 42-N ) :   3.0461 B( 43-C , 44-C ) :   1.2883 B( 43-C , 49-C ) :   0.9381
B( 44-C , 45-C ) :   1.1111 B( 44-C , 48-N ) :   1.5059 B( 45-C , 46-N ) :   1.4906
B( 46-N , 47-S ) :   1.3202 B( 46-N , 48-N ) :   0.1626 B( 47-S , 48-N ) :   1.3077
B( 49-C , 50-C ) :   1.3203 B( 49-C , 55-C ) :   0.1278 B( 49-C , 57-C ) :   1.3629
B( 50-C , 51-F ) :   1.1185 B( 50-C , 52-C ) :   1.2819 B( 52-C , 53-O ) :   1.2275
B( 52-C , 55-C ) :   1.3166 B( 53-O , 54-C ) :   0.9321 B( 54-C , 94-H ) :   0.9790
B( 54-C , 95-H ) :   0.9750 B( 54-C , 96-H ) :   0.9760 B( 55-C , 56-C ) :   1.3963
B( 55-C , 61-C ) :   1.0115 B( 56-C , 57-C ) :   1.2638 B( 56-C , 60-F ) :   1.1644
B( 57-C , 58-O ) :   1.2185 B( 58-O , 59-C ) :   0.9508 B( 59-C , 97-H ) :   0.9663
B( 59-C , 98-H ) :   0.9574 B( 59-C , 99-H ) :   0.9742 B( 61-C , 62-C ) :   1.7517
B( 61-C ,100-H ) :   0.9264 B( 62-C , 63-C ) :   1.0427 B( 62-C , 71-C ) :   0.9134
B( 63-C , 64-C ) :   1.6508 B( 63-C , 69-C ) :   0.9999 B( 64-C , 65-C ) :   1.1436
B( 64-C , 67-C ) :   1.1418 B( 65-C , 66-N ) :   2.9652 B( 67-C , 68-N ) :   2.9707
B( 69-C , 70-C ) :   1.2131 B( 69-C , 76-C ) :   1.4409 B( 70-C , 71-C ) :   0.9404
B( 70-C , 73-C ) :   1.4730 B( 71-C , 72-O ) :   2.2467 B( 73-C , 74-C ) :   1.1827
B( 73-C ,101-H ) :   1.0156 B( 74-C , 75-C ) :   1.2527 B( 74-C , 80-C ) :   1.2438
B( 75-C , 76-C ) :   1.2156 B( 75-C , 77-C ) :   1.2365 B( 76-C ,102-H ) :   0.9879
B( 77-C , 78-C ) :   1.4931 B( 77-C ,103-H ) :   0.9967 B( 78-C , 79-C ) :   1.2557
B( 78-C ,104-H ) :   0.9889 B( 79-C , 80-C ) :   1.4916 B( 79-C ,105-H ) :   0.9892
B( 80-C ,106-H ) :   0.9971

-----------------------------------------------------------------------------
         ABSORPTION SPECTRUM VIA TRANSITION ELECTRIC DIPOLE MOMENTS
-----------------------------------------------------------------------------
State   Energy  Wavelength   fosc         T2         TX        TY        TZ
        (cm-1)    (nm)                  (au**2)     (au)      (au)      (au)
-----------------------------------------------------------------------------
   0   14307.1    699.0   0.037997202   0.87433  -0.66475   0.58907   0.29230
   1   16565.0    603.7   0.055717970   1.10733  -0.64449   0.77087   0.31260
   2   19915.3    502.1   0.238328938   3.93973  -1.32400   1.47076   0.15365
   3   21894.1    456.7   0.027537934   0.41408   0.32734  -0.55131   0.05457
   4   22835.6    437.9   0.066766412   0.96254   0.51058  -0.43048  -0.71870
   5   23662.3    422.6   0.199392170   2.77413   1.03685  -1.30340  -0.01481
   6   25617.2    390.4   0.191681252   2.46334   1.07183  -1.11240  -0.27763
   7   25964.5    385.1   0.012739069   0.16152   0.08731   0.34661  -0.18374
   8   26804.9    373.1   0.023259650   0.28567  -0.19297  -0.19923  -0.45688
   9   27009.6    370.2   0.000147486   0.00180  -0.02151  -0.03402  -0.01332
  10   27353.4    365.6   0.003755241   0.04520  -0.17982  -0.10868  -0.03239
  11   27689.3    361.2   0.063646034   0.75672  -0.12218  -0.55304  -0.66026
  12   27990.5    357.3   0.194023968   2.28202   0.43867  -1.23800   0.74629
  13   28828.2    346.9   0.067645945   0.77250  -0.45141   0.50492  -0.56017
  14   29404.4    340.1   0.117965673   1.32075  -0.88492  -0.62804  -0.37845
  15   29553.8    338.4   0.102138835   1.13777  -0.25977   1.03062  -0.09000
  16   29759.6    336.0   0.050803771   0.56201   0.59404   0.03990   0.45556
  17   30352.1    329.5   0.145118178   1.57402   1.02461  -0.71650  -0.10403
  18   30398.2    329.0   0.002137658   0.02315  -0.08828  -0.09081   0.08432
  19   30450.4    328.4   0.068292949   0.73834   0.62860   0.32838   0.48516
  20   30666.4    326.1   0.023816349   0.25567  -0.35569  -0.27826  -0.22744
  21   30969.6    322.9   0.016289254   0.17316   0.12996  -0.00578   0.39527
  22   31153.4    321.0   0.006242145   0.06596   0.09423  -0.15214   0.18422
  23   31439.6    318.1   0.016147920   0.16909   0.33842   0.18728  -0.13960
  24   31694.7    315.5   0.058391252   0.60651   0.65421  -0.11813   0.40567
  25   31982.3    312.7   0.012612385   0.12983  -0.16991   0.18372   0.25923
  26   32240.8    310.2   0.037181523   0.37966  -0.16361  -0.42708  -0.41291
  27   32325.7    309.4   0.031867993   0.32455  -0.10181  -0.52093  -0.20691
  28   32777.1    305.1   0.198755532   1.99630   0.64381  -1.07700  -0.64952
  29   33446.7    299.0   0.048927752   0.48159   0.20963   0.60785   0.26107
  30   33604.0    297.6   0.013532294   0.13257  -0.05601   0.17094   0.31657
  31   34132.6    293.0   0.088895362   0.85740   0.27952   0.39261   0.79065
  32   34265.1    291.8   0.086320075   0.82935   0.42915  -0.61113  -0.52125
  33   34375.3    290.9   0.457127979   4.37791  -1.92356   0.82167  -0.05180
  34   34596.2    289.0   0.761185860   7.24331   0.85882   1.33188   2.17528
  35   34949.9    286.1   0.090262162   0.85023  -0.68233   0.57662  -0.22840
  36   35078.1    285.1   0.172615313   1.62001  -1.07828   0.06866  -0.67276
  37   35462.7    282.0   0.577133100   5.35772  -2.01572   1.02926  -0.48500
  38   36046.4    277.4   0.083014174   0.75817   0.69159  -0.04909   0.52675
  39   36169.7    276.5   0.088678480   0.80714  -0.11727   0.83329   0.31468
  40   36527.5    273.8   0.229438514   2.06787   0.82812   1.10759   0.39412
  41   36637.7    272.9   0.188230355   1.69136  -0.99052  -0.66498  -0.51772
  42   36804.6    271.7   0.055890726   0.49993  -0.54937  -0.33170  -0.29681
  43   36894.9    271.0   0.009920148   0.08852   0.15356   0.13409  -0.21669
  44   37371.7    267.6   0.394085073   3.47155   1.43066   0.77759   0.90560
  45   38309.8    261.0   0.123387963   1.06032  -0.70710  -0.60979  -0.43416
  46   38797.4    257.7   0.005856093   0.04969  -0.18037  -0.11193   0.06804
  47   38891.9    257.1   0.004642050   0.03929   0.02054   0.17331   0.09401
  48   39194.1    255.1   0.045288415   0.38040  -0.47360   0.01793   0.39470
  49   39580.1    252.7   0.007809137   0.06495  -0.12763   0.06467   0.21091
  50   39615.2    252.4   0.016555026   0.13758   0.19261   0.08112   0.30642
  51   39713.1    251.8   0.027311499   0.22641  -0.40510  -0.00850  -0.24946
  52   39912.5    250.5   0.006680076   0.05510   0.22328  -0.05084   0.05157
  53   39991.1    250.1   0.118828727   0.97821  -0.86342   0.47558  -0.08088
  54   40146.5    249.1   0.057276623   0.46968   0.43129   0.37878  -0.37444

FINAL SINGLE POINT ENERGY     -4093.611401530283

DIPOLE MOMENT
-------------
                                X             Y             Z
Electronic contribution:    -19.42696       0.31695     -19.59234
Nuclear contribution   :     21.56351      -1.84076      19.77630
                        -----------------------------------------
Total Dipole Moment    :      2.13656      -1.52381       0.18397
                        -----------------------------------------
Magnitude (a.u.)       :      2.63073
Magnitude (Debye)      :      6.68677

Rotational constants in cm-1:     0.001887     0.000279     0.000260
Rotational constants in MHz :    56.573097     8.368262     7.781027

                             ****ORCA TERMINATED NORMALLY****
TOTAL RUN TIME: 0 days 0 hours 12 minutes 24 seconds 893 msec
