                         Program Version 4.2.0 -  RELEASE  -
|  1> # ORCA input file
|  2> # SCF done       -174.387253563218          0.000582858667
|  3> ! CAM-B3LYP def2-SVP def2/J RIJCOSX Grid4 TightSCF
|  4> %maxcore 5000
|  5> %tddft
|  6>     Mode sTDDFT
|  7>     Ethresh 5.0
|  8>     maxcore 5000
|  9> end
| 10>
| 11> %pal
| 12>   nprocs 6
| 13>   end
| 14> * xyz 0 1
| 15>    C        2.75197         3.12230        -1.44694
| 16>    C        3.52981         3.84619        -0.57711
| 17>    C        4.89377         4.11666        -0.79213
| 18>    N        6.01524         4.34558        -0.89253
| 19>    C        3.06585         4.31721         0.66406
| 20>    N        2.75598         4.68271         1.71020
| 21>    C        3.25600         2.42408        -2.62397
| 22>    C        2.40606         1.30928        -2.87733
| 23>    C        2.67682         0.42154        -3.87724
| 24>    C        3.82006         0.62473        -4.68603
| 25>    C        4.63349         1.77479        -4.47584
| 26>    C        4.33994         2.66845        -3.41982
| 27>    C        5.74920         1.98237        -5.31232
| 28>    C        6.08094         1.06764        -6.27416
| 29>    C        5.30599        -0.08821        -6.45217
| 30>    C        4.19036        -0.29578        -5.68662
| 31>    C        1.29302         1.31618        -1.90026
| 32>    O        0.41468         0.49138        -1.76798
| 33>    C        1.45349         2.57545        -1.13708
| 34>    C        0.48382         3.01094        -0.27674
| 35>    N        0.24998         4.28450         0.06894
| 36>    C       -0.58725         4.65559         1.18001
| 37>    N       -1.41829         5.72411         0.65814
| 38>    C       -0.68787         6.41155        -0.38275
| 39>    C        0.40261         5.39859        -0.85235
| 40>    N        1.64303         6.10790        -0.73779
| 41>    C        1.42951         7.19419         0.20666
| 42>    N        0.03700         7.59219         0.06901
| 43>    C        2.48077         6.22345        -1.84007
| 44>    N        3.74726         6.73050        -1.66597
| 45>    C        4.44621         6.52676        -2.83236
| 46>    C        5.69872         6.63892        -3.43987
| 47>    C        5.55683         6.07921        -4.71062
| 48>    N        4.25506         5.66609        -4.88888
| 49>    C        3.57246         5.91893        -3.74651
| 50>    C        2.32601         5.72998        -3.12174
| 51>    C        6.58334         5.88852        -5.69157
| 52>    C        6.39275         5.26664        -6.86600
| 53>    N        7.37501         4.96936        -7.79884
| 54>    C        8.67026         5.64417        -7.74623
| 55>    N        9.35831         5.29734        -8.96246
| 56>    C        8.34179         5.02605        -9.96626
| 57>    C        7.02034         4.74374        -9.17398
| 58>    N        6.75535         3.33916        -9.47325
| 59>    C        7.99075         2.75388        -9.98791
| 60>    N        8.64948         3.82070       -10.69853
| 61>    C        5.58425         2.77177        -9.22297
| 62>    C        5.09451         1.50882        -9.47700
| 63>    C        3.85336         1.02706        -8.90165
| 64>    C        3.01264         1.67830        -8.02407
| 65>    C        1.84327         1.11426        -7.47626
| 66>    N        0.87958         0.73158        -6.98131
| 67>    C        3.18049         2.96429        -7.50192
| 68>    N        3.23007         4.01076        -7.02080
| 69>    C        3.64690        -0.33809        -9.36382
| 70>    C        4.72381        -0.68752       -10.22503
| 71>    C        5.63735         0.45947       -10.34973
| 72>    O        6.59545         0.51483       -11.10650
| 73>    C        4.81221        -1.91245       -10.81795
| 74>    C        3.80719        -2.87340       -10.56421
| 75>    C        2.72729        -2.53619        -9.69875
| 76>    C        2.66147        -1.25496        -9.10495
| 77>    C        1.73016        -3.50181        -9.45144
| 78>    C        1.79356        -4.73934       -10.03198
| 79>    C        2.85620        -5.06871       -10.88605
| 80>    C        3.84234        -4.15526       -11.14551
| 81>    H        2.03586        -0.42985        -4.04922
| 82>    H        4.98032         3.52208        -3.26351
| 83>    H        6.34374         2.87262        -5.16658
| 84>    H        6.94782         1.22448        -6.89999
| 85>    H        5.59398        -0.81150        -7.20183
| 86>    H        3.57910        -1.17446        -5.83431
| 87>    H       -0.21154         2.27403         0.11729
| 88>    H        0.05535         4.95750         2.02535
| 89>    H       -1.21289         3.81140         1.49346
| 90>    H       -1.73228         6.36636         1.37420
| 91>    H       -1.39114         6.67686        -1.17872
| 92>    H        0.25904         5.02467        -1.86756
| 93>    H        2.10722         8.02842         0.02649
| 94>    H        1.59089         6.80574         1.22206
| 95>    H       -0.05945         8.34837        -0.59794
| 96>    H        4.12812         7.03782        -0.78839
| 97>    H        6.60315         7.03716        -3.02688
| 98>    H        3.88642         5.18275        -5.69551
| 99>    H        1.45336         5.28543        -3.55574
|100>    H        7.55951         6.25180        -5.40993
|101>    H        5.41701         4.89667        -7.13795
|102>    H        9.23068         5.33293        -6.86260
|103>    H        8.52758         6.73780        -7.71107
|104>    H        9.93406         4.47024        -8.85201
|105>    H        8.24989         5.89139       -10.63001
|106>    H        6.16527         5.35054        -9.50135
|107>    H        7.79977         1.88414       -10.61779
|108>    H        8.60922         2.45551        -9.12865
|109>    H        8.33761         3.87192       -11.66027
|110>    H        4.90356         3.44035        -8.71124
|111>    H        5.64015        -2.14780       -11.47036
|112>    H        1.82656        -1.03135        -8.46089
|113>    H        0.91327        -3.24336        -8.79344
|114>    H        1.02431        -5.47143        -9.83625
|115>    H        2.88982        -6.04889       -11.33788
|116>    H        4.66325        -4.40309       -11.80283
|117> *
|118>
|119>                          ****END OF INPUT****

CARTESIAN COORDINATES (ANGSTROEM)
---------------------------------
  C      2.751970    3.122300   -1.446940
  C      3.529810    3.846190   -0.577110
  C      4.893770    4.116660   -0.792130
  N      6.015240    4.345580   -0.892530
  C      3.065850    4.317210    0.664060
  N      2.755980    4.682710    1.710200
  C      3.256000    2.424080   -2.623970
  C      2.406060    1.309280   -2.877330
  C      2.676820    0.421540   -3.877240
  C      3.820060    0.624730   -4.686030
  C      4.633490    1.774790   -4.475840
  C      4.339940    2.668450   -3.419820
  C      5.749200    1.982370   -5.312320
  C      6.080940    1.067640   -6.274160
  C      5.305990   -0.088210   -6.452170
  C      4.190360   -0.295780   -5.686620
  C      1.293020    1.316180   -1.900260
  O      0.414680    0.491380   -1.767980
  C      1.453490    2.575450   -1.137080
  C      0.483820    3.010940   -0.276740
  N      0.249980    4.284500    0.068940
  C     -0.587250    4.655590    1.180010
  N     -1.418290    5.724110    0.658140
  C     -0.687870    6.411550   -0.382750
  C      0.402610    5.398590   -0.852350
  N      1.643030    6.107900   -0.737790
  C      1.429510    7.194190    0.206660
  N      0.037000    7.592190    0.069010
  C      2.480770    6.223450   -1.840070
  N      3.747260    6.730500   -1.665970
  C      4.446210    6.526760   -2.832360
  C      5.698720    6.638920   -3.439870
  C      5.556830    6.079210   -4.710620
  N      4.255060    5.666090   -4.888880
  C      3.572460    5.918930   -3.746510
  C      2.326010    5.729980   -3.121740
  C      6.583340    5.888520   -5.691570
  C      6.392750    5.266640   -6.866000
  N      7.375010    4.969360   -7.798840
  C      8.670260    5.644170   -7.746230
  N      9.358310    5.297340   -8.962460
  C      8.341790    5.026050   -9.966260
  C      7.020340    4.743740   -9.173980
  N      6.755350    3.339160   -9.473250
  C      7.990750    2.753880   -9.987910
  N      8.649480    3.820700  -10.698530
  C      5.584250    2.771770   -9.222970
  C      5.094510    1.508820   -9.477000
  C      3.853360    1.027060   -8.901650
  C      3.012640    1.678300   -8.024070
  C      1.843270    1.114260   -7.476260
  N      0.879580    0.731580   -6.981310
  C      3.180490    2.964290   -7.501920
  N      3.230070    4.010760   -7.020800
  C      3.646900   -0.338090   -9.363820
  C      4.723810   -0.687520  -10.225030
  C      5.637350    0.459470  -10.349730
  O      6.595450    0.514830  -11.106500
  C      4.812210   -1.912450  -10.817950
  C      3.807190   -2.873400  -10.564210
  C      2.727290   -2.536190   -9.698750
  C      2.661470   -1.254960   -9.104950
  C      1.730160   -3.501810   -9.451440
  C      1.793560   -4.739340  -10.031980
  C      2.856200   -5.068710  -10.886050
  C      3.842340   -4.155260  -11.145510
  H      2.035860   -0.429850   -4.049220
  H      4.980320    3.522080   -3.263510
  H      6.343740    2.872620   -5.166580
  H      6.947820    1.224480   -6.899990
  H      5.593980   -0.811500   -7.201830
  H      3.579100   -1.174460   -5.834310
  H     -0.211540    2.274030    0.117290
  H      0.055350    4.957500    2.025350
  H     -1.212890    3.811400    1.493460
  H     -1.732280    6.366360    1.374200
  H     -1.391140    6.676860   -1.178720
  H      0.259040    5.024670   -1.867560
  H      2.107220    8.028420    0.026490
  H      1.590890    6.805740    1.222060
  H     -0.059450    8.348370   -0.597940
  H      4.128120    7.037820   -0.788390
  H      6.603150    7.037160   -3.026880
  H      3.886420    5.182750   -5.695510
  H      1.453360    5.285430   -3.555740
  H      7.559510    6.251800   -5.409930
  H      5.417010    4.896670   -7.137950
  H      9.230680    5.332930   -6.862600
  H      8.527580    6.737800   -7.711070
  H      9.934060    4.470240   -8.852010
  H      8.249890    5.891390  -10.630010
  H      6.165270    5.350540   -9.501350
  H      7.799770    1.884140  -10.617790
  H      8.609220    2.455510   -9.128650
  H      8.337610    3.871920  -11.660270
  H      4.903560    3.440350   -8.711240
  H      5.640150   -2.147800  -11.470360
  H      1.826560   -1.031350   -8.460890
  H      0.913270   -3.243360   -8.793440
  H      1.024310   -5.471430   -9.836250
  H      2.889820   -6.048890  -11.337880
  H      4.663250   -4.403090  -11.802830

 Total Charge           Charge          ....    0
 Multiplicity           Mult            ....    1
 Number of Electrons    NEL             ....  450
 Basis Dimension        Dim             .... 1104

ORBITAL ENERGIES
----------------

  NO   OCC          E(Eh)            E(eV)
   0   2.0000     -19.213844      -522.8353
   1   2.0000     -19.186371      -522.0877
   2   2.0000     -14.482736      -394.0953
   3   2.0000     -14.455595      -393.3567
   4   2.0000     -14.432702      -392.7338
   5   2.0000     -14.427577      -392.5943
   6   2.0000     -14.426988      -392.5783
   7   2.0000     -14.421757      -392.4359
   8   2.0000     -14.419236      -392.3674
   9   2.0000     -14.411637      -392.1606
  10   2.0000     -14.408384      -392.0721
  11   2.0000     -14.403534      -391.9401
  12   2.0000     -14.399726      -391.8365
  13   2.0000     -14.394874      -391.7044
  14   2.0000     -14.390061      -391.5735
  15   2.0000     -14.384776      -391.4297
  16   2.0000     -10.367933      -282.1258
  17   2.0000     -10.364758      -282.0394
  18   2.0000     -10.356537      -281.8157
  19   2.0000     -10.346454      -281.5413
  20   2.0000     -10.345077      -281.5039
  21   2.0000     -10.342570      -281.4356
  22   2.0000     -10.341588      -281.4089
  23   2.0000     -10.337621      -281.3010
  24   2.0000     -10.337091      -281.2865
  25   2.0000     -10.336737      -281.2769
  26   2.0000     -10.331174      -281.1255
  27   2.0000     -10.330632      -281.1108
  28   2.0000     -10.330522      -281.1078
  29   2.0000     -10.327939      -281.0375
  30   2.0000     -10.322055      -280.8774
  31   2.0000     -10.317353      -280.7495
  32   2.0000     -10.314653      -280.6760
  33   2.0000     -10.313478      -280.6440
  34   2.0000     -10.307640      -280.4852
  35   2.0000     -10.300235      -280.2836
  36   2.0000     -10.297783      -280.2169
  37   2.0000     -10.296849      -280.1915
  38   2.0000     -10.296408      -280.1795
  39   2.0000     -10.296048      -280.1697
  40   2.0000     -10.295447      -280.1534
  41   2.0000     -10.289846      -280.0009
  42   2.0000     -10.289460      -279.9905
  43   2.0000     -10.288346      -279.9601
  44   2.0000     -10.286855      -279.9196
  45   2.0000     -10.286237      -279.9027
  46   2.0000     -10.285663      -279.8871
  47   2.0000     -10.285335      -279.8782
  48   2.0000     -10.284772      -279.8629
  49   2.0000     -10.277414      -279.6626
  50   2.0000     -10.276933      -279.6496
  51   2.0000     -10.276772      -279.6452
  52   2.0000     -10.273332      -279.5516
  53   2.0000     -10.271312      -279.4966
  54   2.0000     -10.270955      -279.4869
  55   2.0000     -10.270242      -279.4675
  56   2.0000     -10.270043      -279.4621
  57   2.0000     -10.267916      -279.4042
  58   2.0000     -10.266600      -279.3684
  59   2.0000     -10.265613      -279.3415
  60   2.0000     -10.264446      -279.3098
  61   2.0000     -10.254725      -279.0452
  62   2.0000     -10.252042      -278.9722
  63   2.0000     -10.251978      -278.9705
  64   2.0000     -10.233566      -278.4695
  65   2.0000     -10.229694      -278.3641
  66   2.0000      -1.130427       -30.7605
  67   2.0000      -1.123486       -30.5716
  68   2.0000      -1.111763       -30.2526
  69   2.0000      -1.101632       -29.9769
  70   2.0000      -1.067813       -29.0567
  71   2.0000      -1.057421       -28.7739
  72   2.0000      -1.043017       -28.3819
  73   2.0000      -1.026728       -27.9387
  74   2.0000      -1.021447       -27.7950
  75   2.0000      -1.020736       -27.7756
  76   2.0000      -1.002332       -27.2748
  77   2.0000      -0.997889       -27.1539
  78   2.0000      -0.991776       -26.9876
  79   2.0000      -0.987588       -26.8736
  80   2.0000      -0.974861       -26.5273
  81   2.0000      -0.971010       -26.4225
  82   2.0000      -0.966150       -26.2903
  83   2.0000      -0.959662       -26.1137
  84   2.0000      -0.950405       -25.8618
  85   2.0000      -0.940761       -25.5994
  86   2.0000      -0.922053       -25.0903
  87   2.0000      -0.899983       -24.4898
  88   2.0000      -0.895223       -24.3603
  89   2.0000      -0.880525       -23.9603
  90   2.0000      -0.872871       -23.7520
  91   2.0000      -0.869367       -23.6567
  92   2.0000      -0.859337       -23.3838
  93   2.0000      -0.854524       -23.2528
  94   2.0000      -0.849146       -23.1064
  95   2.0000      -0.846014       -23.0212
  96   2.0000      -0.837380       -22.7863
  97   2.0000      -0.828910       -22.5558
  98   2.0000      -0.827865       -22.5274
  99   2.0000      -0.825996       -22.4765
 100   2.0000      -0.807542       -21.9743
 101   2.0000      -0.806625       -21.9494
 102   2.0000      -0.785699       -21.3800
 103   2.0000      -0.771107       -20.9829
 104   2.0000      -0.762861       -20.7585
 105   2.0000      -0.756880       -20.5957
 106   2.0000      -0.748345       -20.3635
 107   2.0000      -0.737155       -20.0590
 108   2.0000      -0.726476       -19.7684
 109   2.0000      -0.718470       -19.5506
 110   2.0000      -0.714212       -19.4347
 111   2.0000      -0.704079       -19.1590
 112   2.0000      -0.702602       -19.1188
 113   2.0000      -0.697449       -18.9786
 114   2.0000      -0.692284       -18.8380
 115   2.0000      -0.686285       -18.6748
 116   2.0000      -0.682038       -18.5592
 117   2.0000      -0.679033       -18.4774
 118   2.0000      -0.669618       -18.2212
 119   2.0000      -0.664943       -18.0940
 120   2.0000      -0.659269       -17.9396
 121   2.0000      -0.655038       -17.8245
 122   2.0000      -0.652338       -17.7510
 123   2.0000      -0.648099       -17.6357
 124   2.0000      -0.640728       -17.4351
 125   2.0000      -0.637322       -17.3424
 126   2.0000      -0.630730       -17.1630
 127   2.0000      -0.626562       -17.0496
 128   2.0000      -0.614893       -16.7321
 129   2.0000      -0.608049       -16.5459
 130   2.0000      -0.605603       -16.4793
 131   2.0000      -0.603114       -16.4116
 132   2.0000      -0.598791       -16.2939
 133   2.0000      -0.596785       -16.2393
 134   2.0000      -0.593716       -16.1558
 135   2.0000      -0.587338       -15.9823
 136   2.0000      -0.581434       -15.8216
 137   2.0000      -0.575539       -15.6612
 138   2.0000      -0.574042       -15.6205
 139   2.0000      -0.568912       -15.4809
 140   2.0000      -0.565536       -15.3890
 141   2.0000      -0.557434       -15.1685
 142   2.0000      -0.552548       -15.0356
 143   2.0000      -0.552374       -15.0309
 144   2.0000      -0.546891       -14.8817
 145   2.0000      -0.543531       -14.7902
 146   2.0000      -0.543100       -14.7785
 147   2.0000      -0.540476       -14.7071
 148   2.0000      -0.534416       -14.5422
 149   2.0000      -0.529991       -14.4218
 150   2.0000      -0.526985       -14.3400
 151   2.0000      -0.525460       -14.2985
 152   2.0000      -0.523516       -14.2456
 153   2.0000      -0.520947       -14.1757
 154   2.0000      -0.518918       -14.1205
 155   2.0000      -0.517632       -14.0855
 156   2.0000      -0.511443       -13.9171
 157   2.0000      -0.509138       -13.8544
 158   2.0000      -0.508121       -13.8267
 159   2.0000      -0.505487       -13.7550
 160   2.0000      -0.501514       -13.6469
 161   2.0000      -0.500191       -13.6109
 162   2.0000      -0.499187       -13.5836
 163   2.0000      -0.496742       -13.5170
 164   2.0000      -0.496366       -13.5068
 165   2.0000      -0.493092       -13.4177
 166   2.0000      -0.491084       -13.3631
 167   2.0000      -0.490279       -13.3412
 168   2.0000      -0.487373       -13.2621
 169   2.0000      -0.485914       -13.2224
 170   2.0000      -0.479347       -13.0437
 171   2.0000      -0.478874       -13.0308
 172   2.0000      -0.475899       -12.9499
 173   2.0000      -0.475507       -12.9392
 174   2.0000      -0.471251       -12.8234
 175   2.0000      -0.471065       -12.8183
 176   2.0000      -0.467119       -12.7109
 177   2.0000      -0.464651       -12.6438
 178   2.0000      -0.459412       -12.5012
 179   2.0000      -0.457468       -12.4483
 180   2.0000      -0.447169       -12.1681
 181   2.0000      -0.445547       -12.1240
 182   2.0000      -0.443567       -12.0701
 183   2.0000      -0.442185       -12.0325
 184   2.0000      -0.440533       -11.9875
 185   2.0000      -0.438965       -11.9448
 186   2.0000      -0.438912       -11.9434
 187   2.0000      -0.435544       -11.8518
 188   2.0000      -0.434526       -11.8240
 189   2.0000      -0.430932       -11.7263
 190   2.0000      -0.429154       -11.6779
 191   2.0000      -0.427472       -11.6321
 192   2.0000      -0.423849       -11.5335
 193   2.0000      -0.422595       -11.4994
 194   2.0000      -0.417939       -11.3727
 195   2.0000      -0.414927       -11.2907
 196   2.0000      -0.408782       -11.1235
 197   2.0000      -0.407752       -11.0955
 198   2.0000      -0.405851       -11.0438
 199   2.0000      -0.404643       -11.0109
 200   2.0000      -0.402824       -10.9614
 201   2.0000      -0.394806       -10.7432
 202   2.0000      -0.391907       -10.6643
 203   2.0000      -0.387216       -10.5367
 204   2.0000      -0.382850       -10.4179
 205   2.0000      -0.372418       -10.1340
 206   2.0000      -0.364495        -9.9184
 207   2.0000      -0.351139        -9.5550
 208   2.0000      -0.349466        -9.5094
 209   2.0000      -0.342512        -9.3202
 210   2.0000      -0.335663        -9.1339
 211   2.0000      -0.330235        -8.9861
 212   2.0000      -0.323598        -8.8055
 213   2.0000      -0.321018        -8.7353
 214   2.0000      -0.317927        -8.6512
 215   2.0000      -0.311521        -8.4769
 216   2.0000      -0.303146        -8.2490
 217   2.0000      -0.301922        -8.2157
 218   2.0000      -0.295774        -8.0484
 219   2.0000      -0.287203        -7.8152
 220   2.0000      -0.280335        -7.6283
 221   2.0000      -0.273141        -7.4325
 222   2.0000      -0.263456        -7.1690
 223   2.0000      -0.258347        -7.0300
 224   2.0000      -0.191699        -5.2164
 225   0.0000      -0.076912        -2.0929
 226   0.0000      -0.053020        -1.4428
 227   0.0000      -0.050084        -1.3628
 228   0.0000      -0.028685        -0.7806
 229   0.0000      -0.004054        -0.1103

MULLIKEN ATOMIC CHARGES
-----------------------
   0 C :    0.271983
   1 C :   -0.309693
   2 C :   -0.213105
   3 N :    0.154500
   4 C :   -0.185008
   5 N :    0.126943
   6 C :    0.026790
   7 C :    0.014689
   8 C :   -0.087805
   9 C :    0.081831
  10 C :    0.106220
  11 C :   -0.075511
  12 C :   -0.029023
  13 C :    0.014928
  14 C :    0.059987
  15 C :   -0.031819
  16 C :    0.145090
  17 O :   -0.155749
  18 C :   -0.178111
  19 C :    0.077694
  20 N :   -0.230855
  21 C :    0.292810
  22 N :   -0.222201
  23 C :    0.045165
  24 C :    0.161384
  25 N :   -0.289344
  26 C :    0.277526
  27 N :   -0.222046
  28 C :    0.136555
  29 N :   -0.061206
  30 C :    0.128237
  31 C :   -0.174219
  32 C :    0.061556
  33 N :   -0.039855
  34 C :    0.060796
  35 C :   -0.196249
  36 C :   -0.002122
  37 C :    0.065015
  38 N :   -0.293033
  39 C :    0.236623
  40 N :   -0.179702
  41 C :    0.009719
  42 C :    0.179450
  43 N :   -0.218776
  44 C :    0.247930
  45 N :   -0.199137
  46 C :    0.052101
  47 C :   -0.139834
  48 C :    0.373867
  49 C :   -0.400932
  50 C :   -0.183024
  51 N :    0.148960
  52 C :   -0.137906
  53 N :    0.105267
  54 C :    0.020743
  55 C :    0.009634
  56 C :    0.160867
  57 O :   -0.185943
  58 C :   -0.095931
  59 C :    0.103276
  60 C :    0.095252
  61 C :   -0.085796
  62 C :   -0.022263
  63 C :    0.036094
  64 C :    0.038719
  65 C :   -0.019631
  66 H :   -0.017415
  67 H :    0.011253
  68 H :   -0.006450
  69 H :   -0.023354
  70 H :   -0.014660
  71 H :   -0.024390
  72 H :    0.023483
  73 H :    0.037651
  74 H :    0.018968
  75 H :    0.110220
  76 H :    0.012606
  77 H :    0.035171
  78 H :    0.015304
  79 H :    0.027144
  80 H :    0.106319
  81 H :    0.123315
  82 H :   -0.051205
  83 H :    0.108809
  84 H :   -0.046876
  85 H :   -0.029091
  86 H :   -0.037444
  87 H :    0.026712
  88 H :    0.013283
  89 H :    0.109148
  90 H :    0.018695
  91 H :    0.018550
  92 H :    0.071383
  93 H :    0.022915
  94 H :    0.117256
  95 H :    0.024666
  96 H :   -0.015749
  97 H :   -0.010756
  98 H :   -0.008778
  99 H :   -0.004238
 100 H :   -0.006075
 101 H :   -0.018740
Sum of atomic charges:    0.0000000

LOEWDIN ATOMIC CHARGES
----------------------
   0 C :    0.078747
   1 C :   -0.153454
   2 C :   -0.023415
   3 N :   -0.075842
   4 C :   -0.011499
   5 N :   -0.096273
   6 C :   -0.017103
   7 C :   -0.052453
   8 C :    0.029607
   9 C :   -0.014704
  10 C :   -0.008240
  11 C :    0.019873
  12 C :   -0.008300
  13 C :   -0.031679
  14 C :   -0.025985
  15 C :   -0.013497
  16 C :    0.081147
  17 O :   -0.164633
  18 C :   -0.157271
  19 C :    0.116819
  20 N :    0.007787
  21 C :    0.101497
  22 N :   -0.111418
  23 C :    0.053566
  24 C :    0.091344
  25 N :   -0.077753
  26 C :    0.087128
  27 N :   -0.112746
  28 C :    0.029909
  29 N :    0.054607
  30 C :   -0.048837
  31 C :   -0.095902
  32 C :   -0.025111
  33 N :    0.069245
  34 C :   -0.031329
  35 C :   -0.154919
  36 C :   -0.083917
  37 C :   -0.018466
  38 N :   -0.091258
  39 C :    0.089427
  40 N :   -0.096567
  41 C :    0.065970
  42 C :    0.071327
  43 N :    0.017792
  44 C :    0.085995
  45 N :   -0.085733
  46 C :    0.122284
  47 C :   -0.170021
  48 C :    0.099606
  49 C :   -0.173145
  50 C :   -0.016072
  51 N :   -0.067039
  52 C :    0.026663
  53 N :   -0.077518
  54 C :   -0.028175
  55 C :   -0.053244
  56 C :    0.085311
  57 O :   -0.172424
  58 C :    0.027692
  59 C :   -0.009040
  60 C :   -0.009584
  61 C :    0.020310
  62 C :   -0.005184
  63 C :   -0.014818
  64 C :   -0.012105
  65 C :   -0.011026
  66 H :    0.037752
  67 H :    0.044196
  68 H :    0.036036
  69 H :    0.023895
  70 H :    0.027529
  71 H :    0.028602
  72 H :    0.036882
  73 H :    0.012235
  74 H :    0.019677
  75 H :    0.063246
  76 H :    0.020630
  77 H :    0.032290
  78 H :    0.019649
  79 H :    0.013197
  80 H :    0.061052
  81 H :    0.082980
  82 H :    0.019073
  83 H :    0.052013
  84 H :    0.016994
  85 H :    0.028867
  86 H :    0.010875
  87 H :    0.022114
  88 H :    0.006025
  89 H :    0.060479
  90 H :    0.021750
  91 H :    0.017341
  92 H :    0.027091
  93 H :    0.014981
  94 H :    0.068598
  95 H :    0.039643
  96 H :    0.037777
  97 H :    0.038396
  98 H :    0.034892
  99 H :    0.033332
 100 H :    0.032616
 101 H :    0.031336

  Mayer bond orders larger than 0.100000
B(  0-C ,  1-C ) :   1.6296 B(  0-C ,  6-C ) :   0.9827 B(  0-C , 18-C ) :   1.0752
B(  1-C ,  2-C ) :   1.1717 B(  1-C ,  4-C ) :   1.1654 B(  2-C ,  3-N ) :   2.9693
B(  4-C ,  5-N ) :   2.9419 B(  6-C ,  7-C ) :   1.2233 B(  6-C , 11-C ) :   1.4783
B(  7-C ,  8-C ) :   1.4716 B(  7-C , 16-C ) :   0.9116 B(  8-C ,  9-C ) :   1.1747
B(  8-C , 66-H ) :   1.0181 B(  9-C , 10-C ) :   1.2645 B(  9-C , 15-C ) :   1.2373
B( 10-C , 11-C ) :   1.1960 B( 10-C , 12-C ) :   1.2296 B( 11-C , 67-H ) :   0.9882
B( 12-C , 13-C ) :   1.4828 B( 12-C , 68-H ) :   0.9986 B( 13-C , 14-C ) :   1.2520
B( 13-C , 69-H ) :   0.9838 B( 14-C , 15-C ) :   1.4906 B( 14-C , 70-H ) :   0.9789
B( 15-C , 71-H ) :   1.0005 B( 16-C , 17-O ) :   2.2752 B( 16-C , 18-C ) :   0.9778
B( 18-C , 19-C ) :   1.5127 B( 19-C , 20-N ) :   1.3096 B( 19-C , 72-H ) :   0.9363
B( 20-N , 21-C ) :   0.9501 B( 20-N , 24-C ) :   0.9987 B( 21-C , 22-N ) :   1.0353
B( 21-C , 73-H ) :   0.9413 B( 21-C , 74-H ) :   0.9395 B( 22-N , 23-C ) :   1.1175
B( 22-N , 75-H ) :   0.9353 B( 23-C , 24-C ) :   0.9960 B( 23-C , 27-N ) :   1.1291
B( 23-C , 76-H ) :   0.9228 B( 24-C , 25-N ) :   1.0852 B( 24-C , 77-H ) :   0.9158
B( 25-N , 26-C ) :   0.9319 B( 25-N , 28-C ) :   1.0203 B( 26-C , 27-N ) :   1.0536
B( 26-C , 78-H ) :   0.9498 B( 26-C , 79-H ) :   0.9343 B( 27-N , 80-H ) :   0.9421
B( 28-C , 29-N ) :   1.2172 B( 28-C , 35-C ) :   1.4516 B( 29-N , 30-C ) :   1.0868
B( 29-N , 81-H ) :   0.9261 B( 30-C , 31-C ) :   1.2347 B( 30-C , 34-C ) :   1.4190
B( 31-C , 32-C ) :   1.3882 B( 31-C , 82-H ) :   1.0355 B( 32-C , 33-N ) :   1.2149
B( 32-C , 36-C ) :   1.1092 B( 33-N , 34-C ) :   1.1881 B( 33-N , 83-H ) :   0.8924
B( 34-C , 35-C ) :   1.1638 B( 35-C , 84-H ) :   1.0421 B( 36-C , 37-C ) :   1.6913
B( 36-C , 85-H ) :   0.9587 B( 37-C , 38-N ) :   1.0511 B( 37-C , 86-H ) :   0.9622
B( 38-N , 39-C ) :   0.9517 B( 38-N , 42-C ) :   1.1279 B( 39-C , 40-N ) :   1.0873
B( 39-C , 87-H ) :   0.9518 B( 39-C , 88-H ) :   0.9495 B( 40-N , 41-C ) :   1.0885
B( 40-N , 89-H ) :   0.9353 B( 41-C , 42-C ) :   0.9712 B( 41-C , 45-N ) :   1.1683
B( 41-C , 90-H ) :   0.9143 B( 42-C , 43-N ) :   0.9617 B( 42-C , 91-H ) :   0.9150
B( 43-N , 44-C ) :   0.8861 B( 43-N , 46-C ) :   1.4347 B( 44-C , 45-N ) :   1.0533
B( 44-C , 92-H ) :   0.9095 B( 44-C , 93-H ) :   0.9444 B( 45-N , 94-H ) :   0.9462
B( 46-C , 47-C ) :   1.3793 B( 46-C , 95-H ) :   0.9251 B( 47-C , 48-C ) :   1.1725
B( 47-C , 56-C ) :   0.9631 B( 48-C , 49-C ) :   1.5445 B( 48-C , 54-C ) :   0.9777
B( 49-C , 50-C ) :   1.1577 B( 49-C , 52-C ) :   1.1944 B( 50-C , 51-N ) :   2.9308
B( 52-C , 53-N ) :   2.8183 B( 53-N , 83-H ) :   0.1191 B( 54-C , 55-C ) :   1.2195
B( 54-C , 61-C ) :   1.4559 B( 55-C , 56-C ) :   0.9519 B( 55-C , 58-C ) :   1.4724
B( 56-C , 57-O ) :   2.1213 B( 57-O , 92-H ) :   0.1232 B( 58-C , 59-C ) :   1.1648
B( 58-C , 96-H ) :   1.0185 B( 59-C , 60-C ) :   1.2622 B( 59-C , 65-C ) :   1.2475
B( 60-C , 61-C ) :   1.1930 B( 60-C , 62-C ) :   1.2417 B( 61-C , 97-H ) :   0.9915
B( 62-C , 63-C ) :   1.4854 B( 62-C , 98-H ) :   0.9980 B( 63-C , 64-C ) :   1.2640
B( 63-C , 99-H ) :   0.9879 B( 64-C , 65-C ) :   1.4846 B( 64-C ,100-H ) :   0.9882
B( 65-C ,101-H ) :   0.9976

-----------------------------------------------------------------------------
         ABSORPTION SPECTRUM VIA TRANSITION ELECTRIC DIPOLE MOMENTS
-----------------------------------------------------------------------------
State   Energy  Wavelength   fosc         T2         TX        TY        TZ
        (cm-1)    (nm)                  (au**2)     (au)      (au)      (au)
-----------------------------------------------------------------------------
   0   10097.3    990.4   0.004011927   0.13080   0.06604  -0.02879   0.35442
   1   12232.2    817.5   0.009169024   0.24677   0.04801   0.41312  -0.27165
   2   17702.0    564.9   0.010942920   0.20351  -0.00944   0.23673   0.38390
   3   18735.8    533.7   0.000673544   0.01184   0.03841  -0.09655   0.03222
   4   24271.7    412.0   0.021932774   0.29749  -0.38138  -0.36713  -0.13136
   5   25018.8    399.7   0.022865398   0.30088   0.12012  -0.49698   0.19864
   6   26374.2    379.2   0.006638895   0.08287  -0.12823   0.16219  -0.20030
   7   26458.7    377.9   0.031337272   0.38991   0.38922   0.15128  -0.46426
   8   26849.8    372.4   0.036000371   0.44141   0.48908  -0.04445  -0.44748
   9   27768.0    360.1   0.178805331   2.11988  -1.23574   0.38501   0.66678
  10   28212.6    354.5   0.107148066   1.25031  -0.93495  -0.37966  -0.48169
  11   28971.2    345.2   0.040559686   0.46090   0.61594  -0.07681  -0.27499
  12   29682.8    336.9   0.125592824   1.39295  -0.44433  -1.09337  -0.00723
  13   30134.6    331.8   0.046117735   0.50382   0.69225   0.13040  -0.08722
  14   30522.9    327.6   0.002422351   0.02613  -0.14554  -0.06761   0.01936
  15   30586.2    326.9   0.006373150   0.06860  -0.09751   0.02651   0.24163
  16   30672.1    326.0   0.096543678   1.03623   0.23438   0.80043   0.58362
  17   30884.5    323.8   0.032714291   0.34872   0.46147   0.18695  -0.31751
  18   31153.4    321.0   0.038703682   0.40900  -0.41772  -0.43777  -0.20703
  19   31712.3    315.3   0.033712329   0.34997   0.43100  -0.17240  -0.36673
  20   32199.6    310.6   0.012299389   0.12575  -0.12666   0.31815   0.09213
  21   32348.0    309.1   0.000740751   0.00754   0.01649   0.08194   0.02349
  22   32477.4    307.9   0.023828498   0.24154   0.10254   0.44502   0.18161
  23   32724.8    305.6   0.283966972   2.85671  -0.84492   0.22631   1.44624
  24   32913.4    303.8   0.137995247   1.38028   0.69347  -0.15559  -0.93551
  25   33572.6    297.9   0.020270361   0.19877   0.35558   0.05338  -0.26360
  26   33729.3    296.5   0.208305559   2.03315   0.45347  -1.00476  -0.90442
  27   34040.9    293.8   0.136556569   1.32065   0.27624   1.02610   0.43756
  28   34304.2    291.5   0.441000354   4.23222  -0.03181   1.54979   1.35254
  29   34341.7    291.2   0.105891775   1.01512  -0.69099  -0.59459   0.42910
  30   35298.9    283.3   0.101578589   0.94736   0.73153   0.49022  -0.41464
  31   35465.5    282.0   0.503522910   4.67401   0.28827  -1.67776  -1.33268
  32   35560.8    281.2   0.730386764   6.76171   0.31050  -2.20019  -1.35073
  33   36067.7    277.3   0.027882371   0.25450   0.45626  -0.07251   0.20264
  34   36461.2    274.3   0.383937985   3.46662  -0.80169   0.59537   1.57145
  35   36622.8    273.1   0.277434349   2.49393   0.51123  -0.41618  -1.43505
  36   37114.1    269.4   0.011479140   0.10182   0.05768   0.10293  -0.29648
  37   37338.8    267.8   0.286749459   2.52824  -0.18711   1.16955   1.06084
  38   37654.8    265.6   0.009817118   0.08583  -0.21220   0.05689   0.19382
  39   37684.8    265.4   0.004208527   0.03677  -0.02260  -0.15211  -0.11452
  40   38085.3    262.6   0.075111446   0.64927  -0.49411   0.30317   0.55965
  41   38222.2    261.6   0.000972440   0.00838   0.00169   0.02999   0.08645
  42   38618.2    258.9   0.036699817   0.31286  -0.29735   0.13493   0.45413
  43   38771.5    257.9   0.005282674   0.04486  -0.11540  -0.08187   0.15759
  44   38900.9    257.1   0.019446630   0.16457  -0.22915  -0.14580   0.30134
  45   39932.7    250.4   0.005006336   0.04127   0.02907  -0.13627  -0.14785
  46   40164.5    249.0   0.012360881   0.10132  -0.26473  -0.08945   0.15243
  47   40185.5    248.8   0.008975032   0.07353  -0.22940  -0.06923   0.12693

FINAL SINGLE POINT ENERGY     -2840.297927501555

DIPOLE MOMENT
-------------
                                X             Y             Z
Electronic contribution:     -8.87157     -10.79030       5.91093
Nuclear contribution   :      8.85454      10.76644      -8.96916
                        -----------------------------------------
Total Dipole Moment    :     -0.01703      -0.02387      -3.05823
                        -----------------------------------------
Magnitude (a.u.)       :      3.05837
Magnitude (Debye)      :      7.77376

Rotational constants in cm-1:     0.001987     0.000831     0.000642
Rotational constants in MHz :    59.557664    24.902016    19.259066

                             ****ORCA TERMINATED NORMALLY****
TOTAL RUN TIME: 0 days 0 hours 11 minutes 50 seconds 120 msec
