                         Program Version 4.2.0 -  RELEASE  -
|  1> # ORCA input file
|  2> # SCF done       -192.929868523216          0.000899007094
|  3> ! CAM-B3LYP def2-SVP def2/J RIJCOSX Grid4 TightSCF
|  4> %maxcore 5000
|  5> %tddft
|  6>     Mode sTDDFT
|  7>     Ethresh 5.0
|  8>     maxcore 5000
|  9> end
| 10>
| 11> %pal
| 12>   nprocs 6
| 13>   end
| 14> * xyz 0 1
| 15>    C       -3.75973         2.81979         4.67523
| 16>    C       -4.81789         3.30415         3.95136
| 17>    C       -6.06093         3.65063         4.51791
| 18>    N       -7.08293         3.96568         4.93439
| 19>    C       -4.80243         3.42684         2.54709
| 20>    N       -4.83162         3.50490         1.40203
| 21>    C       -3.81401         2.40037         6.07012
| 22>    C       -2.75477         1.47432         6.30435
| 23>    C       -2.58665         0.87260         7.51821
| 24>    C       -3.47634         1.18413         8.57124
| 25>    C       -4.52419         2.12421         8.34786
| 26>    C       -4.68018         2.72624         7.07831
| 27>    C       -5.39885         2.43186         9.40963
| 28>    C       -5.25099         1.83706        10.63298
| 29>    C       -4.22121         0.90968        10.85143
| 30>    C       -3.35309         0.59016         9.84282
| 31>    C       -1.95037         1.33068         5.07773
| 32>    O       -1.00990         0.59857         4.87769
| 33>    C       -2.50117         2.34849         4.13324
| 34>    C       -1.76589         2.73235         3.05795
| 35>    C       -1.86581         3.91433         2.28232
| 36>    C       -1.35565         4.09784         1.00773
| 37>    C       -1.58983         5.38313         0.52565
| 38>    C       -2.24748         6.20169         1.46176
| 39>    S       -2.59111         5.39017         2.91549
| 40>    C       -2.44286         7.48216         0.88577
| 41>    C       -1.91951         7.47340        -0.41654
| 42>    C       -1.35947         6.15660        -0.68486
| 43>    C       -0.74641         5.73939        -1.82859
| 44>    C       -0.58428         6.59104        -2.94229
| 45>    N       -0.45065         7.28709        -3.84322
| 46>    C       -0.22346         4.43592        -1.96991
| 47>    N        0.21167         3.38217        -2.08829
| 48>    C       -2.08600         8.69475        -1.07369
| 49>    C       -2.72463         9.62789        -0.28219
| 50>    S       -3.12803         8.98480         1.30475
| 51>    C       -3.07166        10.98040        -0.60819
| 52>    C       -2.95078        11.52373        -1.90038
| 53>    N       -3.27521        12.76218        -2.18152
| 54>    C       -3.73994        13.52074        -1.18569
| 55>    N       -3.89817        13.10881         0.07730
| 56>    C       -3.57204        11.87228         0.35512
| 57>    C       -4.10572        14.87821        -1.46016
| 58>    C       -4.07472        15.55578        -2.66233
| 59>    C       -4.51672        16.87092        -2.51427
| 60>    C       -4.87616        17.17211        -1.18568
| 61>    S       -4.67765        15.84868        -0.12836
| 62>    C       -5.30586        18.52123        -1.13078
| 63>    C       -5.22308        19.07608        -2.42647
| 64>    C       -4.71861        18.05573        -3.33513
| 65>    C       -4.47797        18.17866        -4.67081
| 66>    C       -4.67806        19.37825        -5.38953
| 67>    N       -4.81558        20.33445        -6.00569
| 68>    C       -3.99272        17.10251        -5.44622
| 69>    N       -3.60181        16.23671        -6.08765
| 70>    C       -5.63669        20.40126        -2.47999
| 71>    C       -6.03621        20.87451        -1.23619
| 72>    S       -5.87785        19.63266         0.01633
| 73>    C       -6.50185        22.12649        -0.78198
| 74>    C       -6.83987        23.26819        -1.45230
| 75>    C       -7.27151        24.49203        -0.79092
| 76>    C       -7.19825        24.77925         0.54798
| 77>    C       -7.63130        25.99542         1.11881
| 78>    N       -7.96938        26.95314         1.65422
| 79>    C       -6.66507        23.94612         1.55403
| 80>    N       -6.23464        23.34520         2.43358
| 81>    C       -7.74949        25.41055        -1.81676
| 82>    C       -7.55146        24.80755        -3.09024
| 83>    C       -6.95771        23.47217        -2.91975
| 84>    O       -6.66147        22.70661        -3.81236
| 85>    C       -7.89361        25.43718        -4.25214
| 86>    C       -8.46718        26.72659        -4.19164
| 87>    C       -8.67698        27.33572        -2.92057
| 88>    C       -8.30900        26.65883        -1.73532
| 89>    C       -9.25483        28.62075        -2.87084
| 90>    C       -9.60784        29.27432        -4.01999
| 91>    C       -9.39982        28.67392        -5.27082
| 92>    C       -8.84130        27.42729        -5.35496
| 93>    H       -1.78539         0.16569         7.67423
| 94>    H       -5.47583         3.44105         6.93570
| 95>    H       -6.19244         3.14348         9.23514
| 96>    H       -5.92771         2.07731        11.43919
| 97>    H       -4.11915         0.44981        11.82291
| 98>    H       -2.55847        -0.12313        10.00558
| 99>    H       -0.93998         2.07552         2.80034
|100>    H       -0.87146         3.30912         0.46073
|101>    H       -1.75369         8.89661        -2.07527
|102>    H       -2.58827        10.93474        -2.73196
|103>    H       -3.70544        11.56383         1.38555
|104>    H       -3.74631        15.09163        -3.57397
|105>    H       -5.66573        21.01265        -3.36452
|106>    H       -6.61817        22.15827         0.29533
|107>    H       -7.72790        24.95540        -5.20426
|108>    H       -8.48540        27.14734        -0.79048
|109>    H       -9.41185        29.07941        -1.90558
|110>    H      -10.04946        30.25837        -3.97140
|111>    H       -9.68451        29.20414        -6.16727
|112>    H       -8.67852        26.95969        -6.31491
|113> *
|114>
|115>                          ****END OF INPUT****

CARTESIAN COORDINATES (ANGSTROEM)
---------------------------------
  C     -3.759730    2.819790    4.675230
  C     -4.817890    3.304150    3.951360
  C     -6.060930    3.650630    4.517910
  N     -7.082930    3.965680    4.934390
  C     -4.802430    3.426840    2.547090
  N     -4.831620    3.504900    1.402030
  C     -3.814010    2.400370    6.070120
  C     -2.754770    1.474320    6.304350
  C     -2.586650    0.872600    7.518210
  C     -3.476340    1.184130    8.571240
  C     -4.524190    2.124210    8.347860
  C     -4.680180    2.726240    7.078310
  C     -5.398850    2.431860    9.409630
  C     -5.250990    1.837060   10.632980
  C     -4.221210    0.909680   10.851430
  C     -3.353090    0.590160    9.842820
  C     -1.950370    1.330680    5.077730
  O     -1.009900    0.598570    4.877690
  C     -2.501170    2.348490    4.133240
  C     -1.765890    2.732350    3.057950
  C     -1.865810    3.914330    2.282320
  C     -1.355650    4.097840    1.007730
  C     -1.589830    5.383130    0.525650
  C     -2.247480    6.201690    1.461760
  S     -2.591110    5.390170    2.915490
  C     -2.442860    7.482160    0.885770
  C     -1.919510    7.473400   -0.416540
  C     -1.359470    6.156600   -0.684860
  C     -0.746410    5.739390   -1.828590
  C     -0.584280    6.591040   -2.942290
  N     -0.450650    7.287090   -3.843220
  C     -0.223460    4.435920   -1.969910
  N      0.211670    3.382170   -2.088290
  C     -2.086000    8.694750   -1.073690
  C     -2.724630    9.627890   -0.282190
  S     -3.128030    8.984800    1.304750
  C     -3.071660   10.980400   -0.608190
  C     -2.950780   11.523730   -1.900380
  N     -3.275210   12.762180   -2.181520
  C     -3.739940   13.520740   -1.185690
  N     -3.898170   13.108810    0.077300
  C     -3.572040   11.872280    0.355120
  C     -4.105720   14.878210   -1.460160
  C     -4.074720   15.555780   -2.662330
  C     -4.516720   16.870920   -2.514270
  C     -4.876160   17.172110   -1.185680
  S     -4.677650   15.848680   -0.128360
  C     -5.305860   18.521230   -1.130780
  C     -5.223080   19.076080   -2.426470
  C     -4.718610   18.055730   -3.335130
  C     -4.477970   18.178660   -4.670810
  C     -4.678060   19.378250   -5.389530
  N     -4.815580   20.334450   -6.005690
  C     -3.992720   17.102510   -5.446220
  N     -3.601810   16.236710   -6.087650
  C     -5.636690   20.401260   -2.479990
  C     -6.036210   20.874510   -1.236190
  S     -5.877850   19.632660    0.016330
  C     -6.501850   22.126490   -0.781980
  C     -6.839870   23.268190   -1.452300
  C     -7.271510   24.492030   -0.790920
  C     -7.198250   24.779250    0.547980
  C     -7.631300   25.995420    1.118810
  N     -7.969380   26.953140    1.654220
  C     -6.665070   23.946120    1.554030
  N     -6.234640   23.345200    2.433580
  C     -7.749490   25.410550   -1.816760
  C     -7.551460   24.807550   -3.090240
  C     -6.957710   23.472170   -2.919750
  O     -6.661470   22.706610   -3.812360
  C     -7.893610   25.437180   -4.252140
  C     -8.467180   26.726590   -4.191640
  C     -8.676980   27.335720   -2.920570
  C     -8.309000   26.658830   -1.735320
  C     -9.254830   28.620750   -2.870840
  C     -9.607840   29.274320   -4.019990
  C     -9.399820   28.673920   -5.270820
  C     -8.841300   27.427290   -5.354960
  H     -1.785390    0.165690    7.674230
  H     -5.475830    3.441050    6.935700
  H     -6.192440    3.143480    9.235140
  H     -5.927710    2.077310   11.439190
  H     -4.119150    0.449810   11.822910
  H     -2.558470   -0.123130   10.005580
  H     -0.939980    2.075520    2.800340
  H     -0.871460    3.309120    0.460730
  H     -1.753690    8.896610   -2.075270
  H     -2.588270   10.934740   -2.731960
  H     -3.705440   11.563830    1.385550
  H     -3.746310   15.091630   -3.573970
  H     -5.665730   21.012650   -3.364520
  H     -6.618170   22.158270    0.295330
  H     -7.727900   24.955400   -5.204260
  H     -8.485400   27.147340   -0.790480
  H     -9.411850   29.079410   -1.905580
  H    -10.049460   30.258370   -3.971400
  H     -9.684510   29.204140   -6.167270
  H     -8.678520   26.959690   -6.314910

 Total Charge           Charge          ....    0
 Multiplicity           Mult            ....    1
 Number of Electrons    NEL             ....  542
 Basis Dimension        Dim             .... 1208

ORBITAL ENERGIES
----------------

  NO   OCC          E(Eh)            E(eV)
   0   2.0000     -89.004757     -2421.9426
   1   2.0000     -89.002664     -2421.8856
   2   2.0000     -88.996520     -2421.7184
   3   2.0000     -88.994367     -2421.6598
   4   2.0000     -19.219947      -523.0014
   5   2.0000     -19.218415      -522.9597
   6   2.0000     -14.439662      -392.9232
   7   2.0000     -14.438583      -392.8938
   8   2.0000     -14.437759      -392.8714
   9   2.0000     -14.434999      -392.7963
  10   2.0000     -14.430581      -392.6761
  11   2.0000     -14.428074      -392.6079
  12   2.0000     -14.422338      -392.4518
  13   2.0000     -14.421706      -392.4346
  14   2.0000     -14.417943      -392.3322
  15   2.0000     -14.413747      -392.2180
  16   2.0000     -10.375733      -282.3380
  17   2.0000     -10.371938      -282.2348
  18   2.0000     -10.370733      -282.2020
  19   2.0000     -10.369446      -282.1670
  20   2.0000     -10.367385      -282.1109
  21   2.0000     -10.362687      -281.9831
  22   2.0000     -10.354122      -281.7500
  23   2.0000     -10.350614      -281.6545
  24   2.0000     -10.350580      -281.6536
  25   2.0000     -10.349212      -281.6164
  26   2.0000     -10.348206      -281.5890
  27   2.0000     -10.346553      -281.5440
  28   2.0000     -10.345750      -281.5222
  29   2.0000     -10.345381      -281.5121
  30   2.0000     -10.342764      -281.4409
  31   2.0000     -10.341857      -281.4162
  32   2.0000     -10.341289      -281.4008
  33   2.0000     -10.339561      -281.3537
  34   2.0000     -10.338242      -281.3179
  35   2.0000     -10.337358      -281.2938
  36   2.0000     -10.335271      -281.2370
  37   2.0000     -10.330915      -281.1185
  38   2.0000     -10.330413      -281.1048
  39   2.0000     -10.330289      -281.1015
  40   2.0000     -10.328548      -281.0541
  41   2.0000     -10.327100      -281.0147
  42   2.0000     -10.324688      -280.9490
  43   2.0000     -10.323828      -280.9256
  44   2.0000     -10.323659      -280.9210
  45   2.0000     -10.323641      -280.9206
  46   2.0000     -10.321045      -280.8499
  47   2.0000     -10.319684      -280.8129
  48   2.0000     -10.319479      -280.8073
  49   2.0000     -10.316957      -280.7387
  50   2.0000     -10.316017      -280.7131
  51   2.0000     -10.315175      -280.6902
  52   2.0000     -10.311333      -280.5856
  53   2.0000     -10.310034      -280.5503
  54   2.0000     -10.309694      -280.5410
  55   2.0000     -10.307404      -280.4787
  56   2.0000     -10.306519      -280.4546
  57   2.0000     -10.306197      -280.4459
  58   2.0000     -10.303422      -280.3704
  59   2.0000     -10.303061      -280.3606
  60   2.0000     -10.303018      -280.3594
  61   2.0000     -10.302906      -280.3563
  62   2.0000     -10.302612      -280.3483
  63   2.0000     -10.302017      -280.3321
  64   2.0000     -10.296805      -280.1903
  65   2.0000     -10.296555      -280.1835
  66   2.0000     -10.296011      -280.1687
  67   2.0000     -10.295404      -280.1522
  68   2.0000     -10.295277      -280.1487
  69   2.0000     -10.291336      -280.0415
  70   2.0000     -10.290985      -280.0319
  71   2.0000     -10.290728      -280.0249
  72   2.0000     -10.290376      -280.0154
  73   2.0000     -10.287362      -279.9334
  74   2.0000     -10.285720      -279.8887
  75   2.0000     -10.285127      -279.8725
  76   2.0000     -10.284958      -279.8679
  77   2.0000     -10.284535      -279.8564
  78   2.0000      -8.099227      -220.3912
  79   2.0000      -8.096849      -220.3265
  80   2.0000      -8.091405      -220.1783
  81   2.0000      -8.088477      -220.0986
  82   2.0000      -6.068447      -165.1308
  83   2.0000      -6.066097      -165.0669
  84   2.0000      -6.064276      -165.0173
  85   2.0000      -6.061860      -164.9516
  86   2.0000      -6.061672      -164.9465
  87   2.0000      -6.060456      -164.9134
  88   2.0000      -6.059290      -164.8817
  89   2.0000      -6.057628      -164.8364
  90   2.0000      -6.056347      -164.8016
  91   2.0000      -6.053987      -164.7374
  92   2.0000      -6.053382      -164.7209
  93   2.0000      -6.051105      -164.6589
  94   2.0000      -1.135605       -30.9014
  95   2.0000      -1.133872       -30.8542
  96   2.0000      -1.110759       -30.2253
  97   2.0000      -1.058300       -28.7978
  98   2.0000      -1.049938       -28.5703
  99   2.0000      -1.031718       -28.0745
 100   2.0000      -1.026332       -27.9279
 101   2.0000      -1.022251       -27.8169
 102   2.0000      -1.019124       -27.7318
 103   2.0000      -1.016786       -27.6682
 104   2.0000      -1.012529       -27.5523
 105   2.0000      -1.006743       -27.3949
 106   2.0000      -1.005673       -27.3657
 107   2.0000      -1.004507       -27.3340
 108   2.0000      -1.002935       -27.2913
 109   2.0000      -1.000075       -27.2134
 110   2.0000      -0.998838       -27.1798
 111   2.0000      -0.993779       -27.0421
 112   2.0000      -0.979032       -26.6408
 113   2.0000      -0.972470       -26.4622
 114   2.0000      -0.971194       -26.4275
 115   2.0000      -0.962880       -26.2013
 116   2.0000      -0.939871       -25.5752
 117   2.0000      -0.931256       -25.3408
 118   2.0000      -0.927369       -25.2350
 119   2.0000      -0.920997       -25.0616
 120   2.0000      -0.913736       -24.8640
 121   2.0000      -0.902812       -24.5668
 122   2.0000      -0.896014       -24.3818
 123   2.0000      -0.887598       -24.1528
 124   2.0000      -0.884609       -24.0714
 125   2.0000      -0.880633       -23.9632
 126   2.0000      -0.876991       -23.8641
 127   2.0000      -0.873782       -23.7768
 128   2.0000      -0.869420       -23.6581
 129   2.0000      -0.864950       -23.5365
 130   2.0000      -0.860426       -23.4134
 131   2.0000      -0.835622       -22.7384
 132   2.0000      -0.833824       -22.6895
 133   2.0000      -0.827521       -22.5180
 134   2.0000      -0.818158       -22.2632
 135   2.0000      -0.807841       -21.9825
 136   2.0000      -0.791714       -21.5436
 137   2.0000      -0.782751       -21.2997
 138   2.0000      -0.779871       -21.2214
 139   2.0000      -0.767813       -20.8932
 140   2.0000      -0.765512       -20.8306
 141   2.0000      -0.762298       -20.7432
 142   2.0000      -0.759558       -20.6686
 143   2.0000      -0.732484       -19.9319
 144   2.0000      -0.724877       -19.7249
 145   2.0000      -0.715105       -19.4590
 146   2.0000      -0.710531       -19.3345
 147   2.0000      -0.706681       -19.2298
 148   2.0000      -0.704651       -19.1745
 149   2.0000      -0.702431       -19.1141
 150   2.0000      -0.698521       -19.0077
 151   2.0000      -0.696026       -18.9398
 152   2.0000      -0.686999       -18.6942
 153   2.0000      -0.684580       -18.6284
 154   2.0000      -0.682955       -18.5842
 155   2.0000      -0.679764       -18.4973
 156   2.0000      -0.673975       -18.3398
 157   2.0000      -0.658972       -17.9316
 158   2.0000      -0.655471       -17.8363
 159   2.0000      -0.648215       -17.6388
 160   2.0000      -0.639514       -17.4021
 161   2.0000      -0.635773       -17.3003
 162   2.0000      -0.631846       -17.1934
 163   2.0000      -0.630835       -17.1659
 164   2.0000      -0.625746       -17.0274
 165   2.0000      -0.622857       -16.9488
 166   2.0000      -0.618182       -16.8216
 167   2.0000      -0.613124       -16.6840
 168   2.0000      -0.611036       -16.6271
 169   2.0000      -0.605998       -16.4901
 170   2.0000      -0.599334       -16.3087
 171   2.0000      -0.596313       -16.2265
 172   2.0000      -0.588591       -16.0164
 173   2.0000      -0.581000       -15.8098
 174   2.0000      -0.565259       -15.3815
 175   2.0000      -0.562106       -15.2957
 176   2.0000      -0.561476       -15.2785
 177   2.0000      -0.559196       -15.2165
 178   2.0000      -0.556672       -15.1478
 179   2.0000      -0.552991       -15.0476
 180   2.0000      -0.551307       -15.0018
 181   2.0000      -0.547524       -14.8989
 182   2.0000      -0.546330       -14.8664
 183   2.0000      -0.545825       -14.8527
 184   2.0000      -0.542330       -14.7575
 185   2.0000      -0.541515       -14.7354
 186   2.0000      -0.537431       -14.6243
 187   2.0000      -0.533641       -14.5211
 188   2.0000      -0.530872       -14.4458
 189   2.0000      -0.527320       -14.3491
 190   2.0000      -0.523868       -14.2552
 191   2.0000      -0.523709       -14.2508
 192   2.0000      -0.518836       -14.1183
 193   2.0000      -0.518160       -14.0999
 194   2.0000      -0.517605       -14.0847
 195   2.0000      -0.516827       -14.0636
 196   2.0000      -0.515762       -14.0346
 197   2.0000      -0.511009       -13.9053
 198   2.0000      -0.509392       -13.8613
 199   2.0000      -0.508401       -13.8343
 200   2.0000      -0.506043       -13.7701
 201   2.0000      -0.503825       -13.7098
 202   2.0000      -0.502596       -13.6763
 203   2.0000      -0.501000       -13.6329
 204   2.0000      -0.498044       -13.5525
 205   2.0000      -0.496683       -13.5154
 206   2.0000      -0.494031       -13.4433
 207   2.0000      -0.490815       -13.3557
 208   2.0000      -0.489911       -13.3312
 209   2.0000      -0.487362       -13.2618
 210   2.0000      -0.482915       -13.1408
 211   2.0000      -0.479830       -13.0568
 212   2.0000      -0.471168       -12.8211
 213   2.0000      -0.470864       -12.8129
 214   2.0000      -0.469445       -12.7742
 215   2.0000      -0.466556       -12.6956
 216   2.0000      -0.464265       -12.6333
 217   2.0000      -0.460802       -12.5391
 218   2.0000      -0.460232       -12.5235
 219   2.0000      -0.457231       -12.4419
 220   2.0000      -0.456870       -12.4321
 221   2.0000      -0.453874       -12.3505
 222   2.0000      -0.453070       -12.3287
 223   2.0000      -0.451427       -12.2840
 224   2.0000      -0.449937       -12.2434
 225   2.0000      -0.448872       -12.2144
 226   2.0000      -0.448183       -12.1957
 227   2.0000      -0.447837       -12.1863
 228   2.0000      -0.447116       -12.1667
 229   2.0000      -0.445012       -12.1094
 230   2.0000      -0.443993       -12.0817
 231   2.0000      -0.439954       -11.9718
 232   2.0000      -0.439085       -11.9481
 233   2.0000      -0.438781       -11.9398
 234   2.0000      -0.437953       -11.9173
 235   2.0000      -0.436132       -11.8677
 236   2.0000      -0.435273       -11.8444
 237   2.0000      -0.433591       -11.7986
 238   2.0000      -0.433428       -11.7942
 239   2.0000      -0.433130       -11.7861
 240   2.0000      -0.430282       -11.7086
 241   2.0000      -0.425943       -11.5905
 242   2.0000      -0.424929       -11.5629
 243   2.0000      -0.423011       -11.5107
 244   2.0000      -0.419488       -11.4148
 245   2.0000      -0.419128       -11.4050
 246   2.0000      -0.414906       -11.2902
 247   2.0000      -0.408143       -11.1061
 248   2.0000      -0.407032       -11.0759
 249   2.0000      -0.406749       -11.0682
 250   2.0000      -0.404747       -11.0137
 251   2.0000      -0.403946       -10.9919
 252   2.0000      -0.387637       -10.5481
 253   2.0000      -0.382155       -10.3990
 254   2.0000      -0.375700       -10.2233
 255   2.0000      -0.369637       -10.0583
 256   2.0000      -0.360586        -9.8120
 257   2.0000      -0.353938        -9.6311
 258   2.0000      -0.348376        -9.4798
 259   2.0000      -0.346191        -9.4203
 260   2.0000      -0.341019        -9.2796
 261   2.0000      -0.338665        -9.2155
 262   2.0000      -0.333794        -9.0830
 263   2.0000      -0.327245        -8.9048
 264   2.0000      -0.323150        -8.7934
 265   2.0000      -0.319813        -8.7026
 266   2.0000      -0.315508        -8.5854
 267   2.0000      -0.300570        -8.1789
 268   2.0000      -0.294581        -8.0160
 269   2.0000      -0.281748        -7.6668
 270   2.0000      -0.263577        -7.1723
 271   0.0000      -0.122251        -3.3266
 272   0.0000      -0.113032        -3.0758
 273   0.0000      -0.095439        -2.5970
 274   0.0000      -0.090193        -2.4543
 275   0.0000      -0.064848        -1.7646

MULLIKEN ATOMIC CHARGES
-----------------------
   0 C :    0.244282
   1 C :   -0.324878
   2 C :   -0.174089
   3 N :    0.158313
   4 C :   -0.208946
   5 N :    0.172605
   6 C :    0.036778
   7 C :    0.013047
   8 C :   -0.083242
   9 C :    0.096243
  10 C :    0.097652
  11 C :   -0.083365
  12 C :   -0.020618
  13 C :    0.036941
  14 C :    0.038283
  15 C :   -0.016711
  16 C :    0.141769
  17 O :   -0.138120
  18 C :   -0.134611
  19 C :    0.049445
  20 C :   -0.099947
  21 C :    0.010897
  22 C :    0.027598
  23 C :   -0.081080
  24 S :    0.207382
  25 C :   -0.096026
  26 C :    0.015922
  27 C :    0.299626
  28 C :   -0.291494
  29 C :   -0.183669
  30 N :    0.174957
  31 C :   -0.190640
  32 N :    0.186401
  33 C :   -0.038574
  34 C :   -0.052493
  35 S :    0.183945
  36 C :    0.030402
  37 C :    0.037829
  38 N :   -0.037196
  39 C :   -0.068356
  40 N :   -0.068966
  41 C :    0.014633
  42 C :   -0.030833
  43 C :   -0.040426
  44 C :    0.014674
  45 C :   -0.099438
  46 S :    0.245184
  47 C :   -0.084213
  48 C :   -0.001772
  49 C :    0.309917
  50 C :   -0.299634
  51 C :   -0.192740
  52 N :    0.195507
  53 C :   -0.194971
  54 N :    0.181738
  55 C :   -0.015693
  56 C :   -0.110209
  57 S :    0.207247
  58 C :    0.032545
  59 C :   -0.089814
  60 C :    0.320521
  61 C :   -0.359618
  62 C :   -0.181522
  63 N :    0.147242
  64 C :   -0.193658
  65 N :    0.152119
  66 C :    0.049208
  67 C :   -0.003297
  68 C :    0.162056
  69 O :   -0.147072
  70 C :   -0.083268
  71 C :    0.100360
  72 C :    0.099554
  73 C :   -0.086298
  74 C :   -0.022375
  75 C :    0.040109
  76 C :    0.037619
  77 C :   -0.017767
  78 H :   -0.009074
  79 H :   -0.004719
  80 H :   -0.009797
  81 H :   -0.002844
  82 H :   -0.004048
  83 H :   -0.015193
  84 H :    0.035634
  85 H :    0.019285
  86 H :    0.011409
  87 H :    0.020079
  88 H :    0.019149
  89 H :    0.022575
  90 H :    0.040916
  91 H :    0.007984
  92 H :   -0.009150
  93 H :   -0.008830
  94 H :   -0.009973
  95 H :   -0.005177
  96 H :   -0.005063
  97 H :   -0.016078
Sum of atomic charges:   -0.0000000

LOEWDIN ATOMIC CHARGES
----------------------
   0 C :    0.060634
   1 C :   -0.144187
   2 C :   -0.020190
   3 N :   -0.049328
   4 C :   -0.036271
   5 N :   -0.048537
   6 C :   -0.023962
   7 C :   -0.057406
   8 C :    0.034041
   9 C :   -0.008525
  10 C :   -0.005174
  11 C :    0.016078
  12 C :   -0.006423
  13 C :   -0.011682
  14 C :   -0.011494
  15 C :   -0.008450
  16 C :    0.083792
  17 O :   -0.139629
  18 C :   -0.096109
  19 C :    0.050145
  20 C :   -0.176706
  21 C :    0.013740
  22 C :   -0.070276
  23 C :   -0.155181
  24 S :    0.511110
  25 C :   -0.182622
  26 C :   -0.055667
  27 C :    0.079596
  28 C :   -0.093745
  29 C :   -0.016055
  30 N :   -0.027585
  31 C :   -0.017701
  32 N :   -0.022974
  33 C :   -0.025715
  34 C :   -0.154356
  35 S :    0.485284
  36 C :   -0.088862
  37 C :    0.065096
  38 N :   -0.069158
  39 C :    0.011563
  40 N :   -0.090184
  41 C :    0.044381
  42 C :   -0.180136
  43 C :   -0.001249
  44 C :   -0.060219
  45 C :   -0.184196
  46 S :    0.520048
  47 C :   -0.162247
  48 C :   -0.070902
  49 C :    0.073789
  50 C :   -0.092707
  51 C :   -0.023286
  52 N :   -0.015040
  53 C :   -0.017722
  54 N :   -0.026214
  55 C :    0.015573
  56 C :   -0.173997
  57 S :    0.499402
  58 C :    0.040866
  59 C :   -0.093255
  60 C :    0.077948
  61 C :   -0.143511
  62 C :   -0.016940
  63 N :   -0.054972
  64 C :   -0.024336
  65 N :   -0.055063
  66 C :   -0.026923
  67 C :   -0.055468
  68 C :    0.087199
  69 O :   -0.135668
  70 C :    0.033930
  71 C :   -0.007870
  72 C :   -0.006231
  73 C :    0.019680
  74 C :   -0.005469
  75 C :   -0.013245
  76 C :   -0.011772
  77 C :   -0.008822
  78 H :    0.040347
  79 H :    0.038708
  80 H :    0.034468
  81 H :    0.033908
  82 H :    0.033443
  83 H :    0.032612
  84 H :    0.055592
  85 H :    0.047724
  86 H :    0.041382
  87 H :    0.032179
  88 H :    0.020943
  89 H :    0.048015
  90 H :    0.043572
  91 H :    0.042215
  92 H :    0.040564
  93 H :    0.038872
  94 H :    0.034580
  95 H :    0.033184
  96 H :    0.032901
  97 H :    0.032513

  Mayer bond orders larger than 0.100000
B(  0-C ,  1-C ) :   1.6563 B(  0-C ,  6-C ) :   1.0047 B(  0-C , 18-C ) :   1.0304
B(  1-C ,  2-C ) :   1.1347 B(  1-C ,  4-C ) :   1.1542 B(  2-C ,  3-N ) :   2.9922
B(  4-C ,  5-N ) :   3.0200 B(  6-C ,  7-C ) :   1.2144 B(  6-C , 11-C ) :   1.4550
B(  7-C ,  8-C ) :   1.4731 B(  7-C , 16-C ) :   0.9213 B(  8-C ,  9-C ) :   1.1843
B(  8-C , 78-H ) :   1.0171 B(  9-C , 10-C ) :   1.2561 B(  9-C , 15-C ) :   1.2438
B( 10-C , 11-C ) :   1.2033 B( 10-C , 12-C ) :   1.2405 B( 11-C , 79-H ) :   0.9952
B( 12-C , 13-C ) :   1.4898 B( 12-C , 80-H ) :   0.9982 B( 13-C , 14-C ) :   1.2596
B( 13-C , 81-H ) :   0.9884 B( 14-C , 15-C ) :   1.4900 B( 14-C , 82-H ) :   0.9886
B( 15-C , 83-H ) :   0.9983 B( 16-C , 17-O ) :   2.2773 B( 16-C , 18-C ) :   0.9324
B( 18-C , 19-C ) :   1.6580 B( 19-C , 20-C ) :   1.1246 B( 19-C , 84-H ) :   0.9472
B( 20-C , 21-C ) :   1.4113 B( 20-C , 24-S ) :   1.0907 B( 21-C , 22-C ) :   1.2996
B( 21-C , 85-H ) :   1.0006 B( 22-C , 23-C ) :   1.4121 B( 22-C , 27-C ) :   0.9899
B( 23-C , 24-S ) :   1.1546 B( 23-C , 25-C ) :   1.1966 B( 25-C , 26-C ) :   1.4488
B( 25-C , 35-S ) :   1.1197 B( 26-C , 27-C ) :   0.9967 B( 26-C , 33-C ) :   1.2875
B( 27-C , 28-C ) :   1.7218 B( 28-C , 29-C ) :   1.1319 B( 28-C , 31-C ) :   1.1346
B( 29-C , 30-N ) :   2.9880 B( 31-C , 32-N ) :   2.9950 B( 33-C , 34-C ) :   1.4925
B( 33-C , 86-H ) :   0.9878 B( 34-C , 35-S ) :   1.1145 B( 34-C , 36-C ) :   1.0773
B( 36-C , 37-C ) :   1.3120 B( 36-C , 41-C ) :   1.3056 B( 37-C , 38-N ) :   1.5815
B( 37-C , 87-H ) :   0.9853 B( 38-N , 39-C ) :   1.5773 B( 39-C , 40-N ) :   1.5637
B( 39-C , 42-C ) :   1.0269 B( 40-N , 41-C ) :   1.5914 B( 41-C , 88-H ) :   0.9793
B( 42-C , 43-C ) :   1.4734 B( 42-C , 46-S ) :   1.1196 B( 43-C , 44-C ) :   1.2702
B( 43-C , 89-H ) :   1.0066 B( 44-C , 45-C ) :   1.4248 B( 44-C , 49-C ) :   0.9938
B( 45-C , 46-S ) :   1.1246 B( 45-C , 47-C ) :   1.1982 B( 47-C , 48-C ) :   1.3918
B( 47-C , 57-S ) :   1.1660 B( 48-C , 49-C ) :   0.9948 B( 48-C , 55-C ) :   1.3024
B( 49-C , 50-C ) :   1.7195 B( 50-C , 51-C ) :   1.1343 B( 50-C , 53-C ) :   1.1366
B( 51-C , 52-N ) :   2.9980 B( 53-C , 54-N ) :   2.9973 B( 55-C , 56-C ) :   1.4027
B( 55-C , 90-H ) :   0.9712 B( 56-C , 57-S ) :   1.0818 B( 56-C , 58-C ) :   1.2106
B( 58-C , 59-C ) :   1.6029 B( 58-C , 91-H ) :   0.9091 B( 59-C , 60-C ) :   1.0779
B( 59-C , 68-C ) :   0.9329 B( 60-C , 61-C ) :   1.6199 B( 60-C , 66-C ) :   0.9847
B( 61-C , 62-C ) :   1.1491 B( 61-C , 64-C ) :   1.1404 B( 62-C , 63-N ) :   2.9632
B( 64-C , 65-N ) :   2.9724 B( 66-C , 67-C ) :   1.2171 B( 66-C , 73-C ) :   1.4447
B( 67-C , 68-C ) :   0.9534 B( 67-C , 70-C ) :   1.4688 B( 68-C , 69-O ) :   2.1705
B( 70-C , 71-C ) :   1.1738 B( 70-C , 92-H ) :   1.0183 B( 71-C , 72-C ) :   1.2579
B( 71-C , 77-C ) :   1.2435 B( 72-C , 73-C ) :   1.2055 B( 72-C , 74-C ) :   1.2383
B( 73-C , 93-H ) :   0.9903 B( 74-C , 75-C ) :   1.4891 B( 74-C , 94-H ) :   0.9978
B( 75-C , 76-C ) :   1.2600 B( 75-C , 95-H ) :   0.9879 B( 76-C , 77-C ) :   1.4875
B( 76-C , 96-H ) :   0.9890 B( 77-C , 97-H ) :   0.9986

-----------------------------------------------------------------------------
         ABSORPTION SPECTRUM VIA TRANSITION ELECTRIC DIPOLE MOMENTS
-----------------------------------------------------------------------------
State   Energy  Wavelength   fosc         T2         TX        TY        TZ
        (cm-1)    (nm)                  (au**2)     (au)      (au)      (au)
-----------------------------------------------------------------------------
   0   14034.8    712.5   0.436825863  10.24657   0.25198  -2.96670   1.17549
   1   15723.4    636.0   0.317450658   6.64667   0.83086  -2.43981  -0.06076
   2   20664.4    483.9   1.242862494  19.80050   0.09017   4.05596  -1.82799
   3   22046.6    453.6   0.943774653  14.09295   1.88258  -3.03086  -1.16736
   4   23289.2    429.4   0.054598772   0.77180  -0.13384   0.76677   0.40737
   5   24738.5    404.2   0.089906798   1.19645   0.29282  -0.44271   0.95641
   6   25035.6    399.4   0.021964044   0.28882  -0.28606   0.20319   0.40707
   7   25862.1    386.7   0.023223214   0.29562  -0.20832   0.50211   0.01054
   8   27225.2    367.3   0.021458517   0.25948   0.10754   0.43633  -0.23986
   9   27885.7    358.6   0.045243968   0.53414   0.26038  -0.61211   0.30275
  10   28269.7    353.7   0.354782975   4.13158   0.70269  -1.73006   0.80292
  11   28806.7    347.1   0.139147509   1.59022  -0.35652   0.84140  -0.86900
  12   29008.9    344.7   0.330062466   3.74577   0.63773  -1.66087   0.76196
  13   29266.1    341.7   0.027942542   0.31432   0.17782  -0.07134  -0.52689
  14   29601.2    337.8   0.073741196   0.82012   0.19077  -0.33434   0.81972
  15   30040.6    332.9   0.172046842   1.88545  -0.54634   0.27856   1.22856
  16   30256.2    330.5   0.045339114   0.49333   0.10878  -0.65581   0.22674
  17   30636.5    326.4   0.111301846   1.19602  -0.89947   0.50702   0.36042
  18   30846.4    324.2   0.083257093   0.88857   0.15400  -0.51788   0.77244
  19   30958.0    323.0   0.934219936   9.93464  -0.44057  -0.86383   2.99906
  20   31008.4    322.5   0.012612079   0.13390   0.10156   0.06677  -0.34515
  21   31301.2    319.5   0.050351010   0.52957  -0.38258  -0.18361   0.59118
  22   31790.5    314.6   0.160870432   1.66592   0.33390  -0.85290   0.90939
  23   32197.3    310.6   0.157835397   1.61384  -0.29572   1.02626   0.68788
  24   32429.6    308.4   0.042762935   0.43411  -0.05342   0.55197  -0.35579
  25   32910.0    303.9   0.084669641   0.84698   0.39638  -0.56236  -0.61124
  26   32938.7    303.6   0.339715963   3.39536  -0.39267   1.60963  -0.80639
  27   33026.3    302.8   0.183948663   1.83363  -0.58245   1.07913  -0.57434
  28   33516.0    298.4   0.148570813   1.45934   0.28214  -0.44736  -1.08610
  29   33895.2    295.0   0.000172387   0.00167   0.03680  -0.01084  -0.01422
  30   34279.5    291.7   0.087370498   0.83908   0.60594  -0.41764   0.54544
  31   34499.3    289.9   0.011288230   0.10772  -0.06581   0.00446   0.32151
  32   34530.9    289.6   0.019500829   0.18592  -0.03266   0.04877  -0.42717
  33   34615.6    288.9   0.197072882   1.87426  -0.28226   0.07424   1.33756
  34   34749.4    287.8   0.136486114   1.29305   0.66414  -0.22827  -0.89435
  35   34869.5    286.8   0.303899086   2.86919   0.16083  -0.28994   1.66110
  36   35031.1    285.5   0.138498912   1.30157  -0.29747   0.50412  -0.97926
  37   35147.8    284.5   0.421048527   3.94376   0.41081  -0.67610   1.82151
  38   35307.3    283.2   0.096510442   0.89988  -0.36881   0.38894   0.78268
  39   35424.8    282.3   0.016939477   0.15742   0.21017  -0.33270   0.05058
  40   36126.1    276.8   0.156642542   1.42746  -0.22422  -0.12428   1.16694
  41   36734.4    272.2   0.182112105   1.63208   0.19873  -0.43068   1.18621
  42   37028.5    270.1   0.006912511   0.06146  -0.05706   0.18979  -0.14894
  43   37530.0    266.5   0.017620028   0.15456   0.23037  -0.19364  -0.25298
  44   37772.9    264.7   0.019924940   0.17366  -0.31774   0.21759   0.15923
  45   38196.3    261.8   0.003549722   0.03059  -0.09482   0.06515  -0.13175
  46   38682.1    258.5   0.003542753   0.03015   0.06065   0.00642   0.16258
  47   38753.2    258.0   0.075398701   0.64052   0.10336  -0.07780  -0.78980
  48   38898.0    257.1   0.035297882   0.29874  -0.28273   0.41349   0.21870
  49   38940.7    256.8   0.003557766   0.03008  -0.14550   0.01137  -0.09370
  50   39019.0    256.3   0.011136434   0.09396   0.19204  -0.09413   0.21960
  51   39178.3    255.2   0.057292859   0.48143   0.06474  -0.57459  -0.38352
  52   39432.8    253.6   0.053578628   0.44731   0.03624  -0.11631  -0.65762
  53   39870.8    250.8   0.036005798   0.29730   0.52498   0.05694  -0.13583
  54   39960.1    250.2   0.059451076   0.48979  -0.15206   0.45661   0.50811
  55   39991.7    250.1   0.051500994   0.42396   0.11620   0.47090   0.43440
  56   40228.1    248.6   0.041614200   0.34056  -0.01744  -0.52571   0.25275

FINAL SINGLE POINT ENERGY     -4660.816291635410

DIPOLE MOMENT
-------------
                                X             Y             Z
Electronic contribution:     14.02240     -11.31911     -13.56153
Nuclear contribution   :    -14.36330      10.86987      16.32036
                        -----------------------------------------
Total Dipole Moment    :     -0.34091      -0.44924       2.75883
                        -----------------------------------------
Magnitude (a.u.)       :      2.81588
Magnitude (Debye)      :      7.15739

Rotational constants in cm-1:     0.001550     0.000164     0.000151
Rotational constants in MHz :    46.456110     4.913506     4.517713

                             ****ORCA TERMINATED NORMALLY****
TOTAL RUN TIME: 0 days 0 hours 10 minutes 38 seconds 202 msec
