                         Program Version 4.2.0 -  RELEASE  -
|  1> # ORCA input file
|  2> # SCF done       -200.976324995458          0.000809508690
|  3> ! CAM-B3LYP def2-SVP def2/J RIJCOSX Grid4 TightSCF
|  4> %maxcore 5000
|  5> %tddft
|  6>     Mode sTDDFT
|  7>     Ethresh 5.0
|  8>     maxcore 5000
|  9> end
| 10>
| 11> %pal
| 12>   nprocs 6
| 13>   end
| 14> * xyz 0 1
| 15>    C        1.43725         7.19953         4.59620
| 16>    C        1.11383         8.12060         5.55941
| 17>    C        2.02826         8.62091         6.50869
| 18>    N        2.72639         9.06027         7.30760
| 19>    C       -0.15217         8.72617         5.70426
| 20>    N       -1.14172         9.28318         5.87568
| 21>    C        2.76352         6.64429         4.35827
| 22>    C        2.72020         5.87357         3.16219
| 23>    C        3.82227         5.22866         2.68077
| 24>    C        5.04164         5.32454         3.38869
| 25>    C        5.08990         6.08386         4.59315
| 26>    C        3.93181         6.74295         5.06635
| 27>    C        6.30809         6.16108         5.29833
| 28>    C        7.42659         5.52246         4.83635
| 29>    C        7.37871         4.77763         3.64864
| 30>    C        6.21181         4.68141         2.94010
| 31>    C        1.35187         5.88717         2.60933
| 32>    O        0.97265         5.29478         1.62465
| 33>    C        0.54604         6.68544         3.57507
| 34>    C       -0.81728         6.72377         3.61718
| 35>    C       -1.70951         6.33659         2.59088
| 36>    C       -1.57561         6.36053         1.18352
| 37>    C       -2.79485         5.88233         0.65487
| 38>    C       -3.62397         5.64592         1.79339
| 39>    N       -2.96989         5.92620         2.92065
| 40>    O       -4.88012         5.25722         1.76836
| 41>    C       -5.50110         5.09249         3.03288
| 42>    C       -2.67914         5.97499        -0.75734
| 43>    N       -1.48750         6.54024        -1.08624
| 44>    C       -0.81971         6.78304         0.04098
| 45>    O        0.35009         7.36678         0.07671
| 46>    C        0.91672         7.70213        -1.18031
| 47>    C       -3.62149         5.56800        -1.73472
| 48>    C       -3.67969         6.17243        -3.01835
| 49>    C       -4.58946         5.70424        -4.02943
| 50>    N       -4.64011         6.33509        -5.20960
| 51>    C       -3.78826         7.28611        -5.46363
| 52>    C       -2.88055         7.72997        -4.48026
| 53>    N       -2.88139         7.21609        -3.28434
| 54>    C       -5.45420         4.59876        -3.79924
| 55>    C       -5.39299         4.00091        -2.52296
| 56>    C       -4.49820         4.48894        -1.49881
| 57>    N       -4.52518         3.71859        -0.41283
| 58>    S       -5.57346         2.52902        -0.64384
| 59>    N       -6.02380         2.89348        -2.13928
| 60>    C       -6.28918         4.09550        -4.82407
| 61>    C       -7.49863         3.35288        -4.70727
| 62>    C       -7.90263         3.06157        -6.02828
| 63>    C       -6.94010         3.69817        -6.87027
| 64>    N       -6.00112         4.29640        -6.13921
| 65>    O       -6.97383         3.69969        -8.17976
| 66>    C       -5.97193         4.45637        -8.83953
| 67>    C       -9.13135         2.35663        -5.94103
| 68>    N       -9.46393         2.21290        -4.63666
| 69>    C       -8.53286         2.80190        -3.88444
| 70>    O       -8.62715         2.89151        -2.58070
| 71>    C       -9.71216         2.19688        -1.97421
| 72>    C       -9.87566         1.89806        -7.04840
| 73>    C      -11.05215         1.20398        -7.07055
| 74>    C      -11.67304         0.69876        -8.28362
| 75>    C      -11.37994         1.06372        -9.57344
| 76>    C      -12.03792         0.54067       -10.70663
| 77>    N      -12.52784         0.15653       -11.67159
| 78>    C      -10.43051         2.02721        -9.97592
| 79>    N       -9.70084         2.80096       -10.41045
| 80>    C      -12.71902        -0.23980        -7.89455
| 81>    C      -12.83638        -0.22025        -6.47697
| 82>    C      -11.86232         0.73545        -5.90677
| 83>    O      -11.79531         1.06439        -4.74652
| 84>    C      -13.74798        -0.99247        -5.81798
| 85>    C      -14.59418        -1.84634        -6.56075
| 86>    C      -14.47420        -1.88168        -7.97982
| 87>    C      -13.52502        -1.06437        -8.63499
| 88>    C      -15.31903        -2.74140        -8.71138
| 89>    C      -16.24042        -3.52666        -8.07409
| 90>    C      -16.35943        -3.48908        -6.67673
| 91>    C      -15.55377        -2.66709        -5.93646
| 92>    H        3.76418         4.64918         1.77125
| 93>    H        3.99689         7.30270         5.98598
| 94>    H        6.34024         6.73676         6.21172
| 95>    H        8.35486         5.58759         5.38398
| 96>    H        8.27057         4.27966         3.29852
| 97>    H        6.16850         4.10787         2.02562
| 98>    H       -1.30872         7.02786         4.53407
| 99>    H       -5.02565         4.27979         3.58524
|100>    H       -6.54433         4.85820         2.83179
|101>    H       -5.41578         6.00834         3.62076
|102>    H        1.77049         8.34333        -0.97045
|103>    H        0.18047         8.21437        -1.80196
|104>    H        1.23902         6.79522        -1.69532
|105>    H       -3.86741         7.77469        -6.42488
|106>    H       -2.22014         8.56809        -4.65508
|107>    H       -6.23633         4.44674        -9.89458
|108>    H       -4.99177         4.00126        -8.68261
|109>    H       -5.94886         5.47549        -8.44999
|110>    H      -10.04717         2.80369        -1.13426
|111>    H       -9.35646         1.22965        -1.61309
|112>    H      -10.51223         2.04086        -2.69962
|113>    H       -9.39849         2.11637        -7.99631
|114>    H      -13.82142        -0.95416        -4.74115
|115>    H      -13.45742        -1.11708        -9.70990
|116>    H      -15.22480        -2.76526        -9.78718
|117>    H      -16.88351        -4.18112        -8.64330
|118>    H      -17.09261        -4.11491        -6.19005
|119>    H      -15.64076        -2.63410        -4.86017
|120> *
|121>
|122>                          ****END OF INPUT****

CARTESIAN COORDINATES (ANGSTROEM)
---------------------------------
  C      1.437250    7.199530    4.596200
  C      1.113830    8.120600    5.559410
  C      2.028260    8.620910    6.508690
  N      2.726390    9.060270    7.307600
  C     -0.152170    8.726170    5.704260
  N     -1.141720    9.283180    5.875680
  C      2.763520    6.644290    4.358270
  C      2.720200    5.873570    3.162190
  C      3.822270    5.228660    2.680770
  C      5.041640    5.324540    3.388690
  C      5.089900    6.083860    4.593150
  C      3.931810    6.742950    5.066350
  C      6.308090    6.161080    5.298330
  C      7.426590    5.522460    4.836350
  C      7.378710    4.777630    3.648640
  C      6.211810    4.681410    2.940100
  C      1.351870    5.887170    2.609330
  O      0.972650    5.294780    1.624650
  C      0.546040    6.685440    3.575070
  C     -0.817280    6.723770    3.617180
  C     -1.709510    6.336590    2.590880
  C     -1.575610    6.360530    1.183520
  C     -2.794850    5.882330    0.654870
  C     -3.623970    5.645920    1.793390
  N     -2.969890    5.926200    2.920650
  O     -4.880120    5.257220    1.768360
  C     -5.501100    5.092490    3.032880
  C     -2.679140    5.974990   -0.757340
  N     -1.487500    6.540240   -1.086240
  C     -0.819710    6.783040    0.040980
  O      0.350090    7.366780    0.076710
  C      0.916720    7.702130   -1.180310
  C     -3.621490    5.568000   -1.734720
  C     -3.679690    6.172430   -3.018350
  C     -4.589460    5.704240   -4.029430
  N     -4.640110    6.335090   -5.209600
  C     -3.788260    7.286110   -5.463630
  C     -2.880550    7.729970   -4.480260
  N     -2.881390    7.216090   -3.284340
  C     -5.454200    4.598760   -3.799240
  C     -5.392990    4.000910   -2.522960
  C     -4.498200    4.488940   -1.498810
  N     -4.525180    3.718590   -0.412830
  S     -5.573460    2.529020   -0.643840
  N     -6.023800    2.893480   -2.139280
  C     -6.289180    4.095500   -4.824070
  C     -7.498630    3.352880   -4.707270
  C     -7.902630    3.061570   -6.028280
  C     -6.940100    3.698170   -6.870270
  N     -6.001120    4.296400   -6.139210
  O     -6.973830    3.699690   -8.179760
  C     -5.971930    4.456370   -8.839530
  C     -9.131350    2.356630   -5.941030
  N     -9.463930    2.212900   -4.636660
  C     -8.532860    2.801900   -3.884440
  O     -8.627150    2.891510   -2.580700
  C     -9.712160    2.196880   -1.974210
  C     -9.875660    1.898060   -7.048400
  C    -11.052150    1.203980   -7.070550
  C    -11.673040    0.698760   -8.283620
  C    -11.379940    1.063720   -9.573440
  C    -12.037920    0.540670  -10.706630
  N    -12.527840    0.156530  -11.671590
  C    -10.430510    2.027210   -9.975920
  N     -9.700840    2.800960  -10.410450
  C    -12.719020   -0.239800   -7.894550
  C    -12.836380   -0.220250   -6.476970
  C    -11.862320    0.735450   -5.906770
  O    -11.795310    1.064390   -4.746520
  C    -13.747980   -0.992470   -5.817980
  C    -14.594180   -1.846340   -6.560750
  C    -14.474200   -1.881680   -7.979820
  C    -13.525020   -1.064370   -8.634990
  C    -15.319030   -2.741400   -8.711380
  C    -16.240420   -3.526660   -8.074090
  C    -16.359430   -3.489080   -6.676730
  C    -15.553770   -2.667090   -5.936460
  H      3.764180    4.649180    1.771250
  H      3.996890    7.302700    5.985980
  H      6.340240    6.736760    6.211720
  H      8.354860    5.587590    5.383980
  H      8.270570    4.279660    3.298520
  H      6.168500    4.107870    2.025620
  H     -1.308720    7.027860    4.534070
  H     -5.025650    4.279790    3.585240
  H     -6.544330    4.858200    2.831790
  H     -5.415780    6.008340    3.620760
  H      1.770490    8.343330   -0.970450
  H      0.180470    8.214370   -1.801960
  H      1.239020    6.795220   -1.695320
  H     -3.867410    7.774690   -6.424880
  H     -2.220140    8.568090   -4.655080
  H     -6.236330    4.446740   -9.894580
  H     -4.991770    4.001260   -8.682610
  H     -5.948860    5.475490   -8.449990
  H    -10.047170    2.803690   -1.134260
  H     -9.356460    1.229650   -1.613090
  H    -10.512230    2.040860   -2.699620
  H     -9.398490    2.116370   -7.996310
  H    -13.821420   -0.954160   -4.741150
  H    -13.457420   -1.117080   -9.709900
  H    -15.224800   -2.765260   -9.787180
  H    -16.883510   -4.181120   -8.643300
  H    -17.092610   -4.114910   -6.190050
  H    -15.640760   -2.634100   -4.860170

 Total Charge           Charge          ....    0
 Multiplicity           Mult            ....    1
 Number of Electrons    NEL             ....  524
 Basis Dimension        Dim             .... 1222

ORBITAL ENERGIES
----------------

  NO   OCC          E(Eh)            E(eV)
   0   2.0000     -89.037456     -2422.8324
   1   2.0000     -19.275088      -524.5018
   2   2.0000     -19.272703      -524.4369
   3   2.0000     -19.262986      -524.1725
   4   2.0000     -19.261262      -524.1256
   5   2.0000     -19.211066      -522.7597
   6   2.0000     -19.204461      -522.5800
   7   2.0000     -14.442691      -393.0056
   8   2.0000     -14.442240      -392.9933
   9   2.0000     -14.423394      -392.4805
  10   2.0000     -14.422327      -392.4515
  11   2.0000     -14.412775      -392.1916
  12   2.0000     -14.412605      -392.1869
  13   2.0000     -14.411952      -392.1691
  14   2.0000     -14.410273      -392.1235
  15   2.0000     -14.379093      -391.2750
  16   2.0000     -14.378674      -391.2636
  17   2.0000     -14.378067      -391.2471
  18   2.0000     -14.370639      -391.0450
  19   2.0000     -10.375712      -282.3375
  20   2.0000     -10.374796      -282.3126
  21   2.0000     -10.368320      -282.1363
  22   2.0000     -10.366780      -282.0944
  23   2.0000     -10.362178      -281.9692
  24   2.0000     -10.358456      -281.8679
  25   2.0000     -10.339963      -281.3647
  26   2.0000     -10.339876      -281.3623
  27   2.0000     -10.336723      -281.2765
  28   2.0000     -10.336025      -281.2575
  29   2.0000     -10.334621      -281.2193
  30   2.0000     -10.334359      -281.2122
  31   2.0000     -10.333447      -281.1874
  32   2.0000     -10.333184      -281.1802
  33   2.0000     -10.332719      -281.1676
  34   2.0000     -10.332337      -281.1572
  35   2.0000     -10.324971      -280.9567
  36   2.0000     -10.324495      -280.9438
  37   2.0000     -10.321918      -280.8737
  38   2.0000     -10.320264      -280.8286
  39   2.0000     -10.319113      -280.7973
  40   2.0000     -10.319003      -280.7944
  41   2.0000     -10.317846      -280.7629
  42   2.0000     -10.315178      -280.6903
  43   2.0000     -10.315080      -280.6876
  44   2.0000     -10.314836      -280.6810
  45   2.0000     -10.312606      -280.6203
  46   2.0000     -10.310081      -280.5516
  47   2.0000     -10.309159      -280.5265
  48   2.0000     -10.308594      -280.5111
  49   2.0000     -10.307411      -280.4789
  50   2.0000     -10.306656      -280.4584
  51   2.0000     -10.301429      -280.3161
  52   2.0000     -10.299837      -280.2728
  53   2.0000     -10.299493      -280.2635
  54   2.0000     -10.298075      -280.2249
  55   2.0000     -10.295636      -280.1585
  56   2.0000     -10.295314      -280.1497
  57   2.0000     -10.294111      -280.1170
  58   2.0000     -10.293626      -280.1038
  59   2.0000     -10.293547      -280.1017
  60   2.0000     -10.293252      -280.0936
  61   2.0000     -10.292378      -280.0698
  62   2.0000     -10.290502      -280.0188
  63   2.0000     -10.285500      -279.8827
  64   2.0000     -10.285084      -279.8714
  65   2.0000     -10.284452      -279.8542
  66   2.0000     -10.284114      -279.8450
  67   2.0000     -10.283609      -279.8312
  68   2.0000     -10.283269      -279.8220
  69   2.0000     -10.282457      -279.7999
  70   2.0000     -10.282352      -279.7970
  71   2.0000     -10.282286      -279.7952
  72   2.0000     -10.281819      -279.7825
  73   2.0000     -10.255586      -279.0687
  74   2.0000     -10.254354      -279.0352
  75   2.0000     -10.253843      -279.0213
  76   2.0000     -10.252930      -278.9964
  77   2.0000      -8.128613      -221.1908
  78   2.0000      -6.099571      -165.9778
  79   2.0000      -6.091862      -165.7680
  80   2.0000      -6.091649      -165.7622
  81   2.0000      -1.187930       -32.3252
  82   2.0000      -1.185331       -32.2545
  83   2.0000      -1.176509       -32.0144
  84   2.0000      -1.174985       -31.9730
  85   2.0000      -1.133806       -30.8524
  86   2.0000      -1.126237       -30.6465
  87   2.0000      -1.120585       -30.4927
  88   2.0000      -1.088673       -29.6243
  89   2.0000      -1.052402       -28.6373
  90   2.0000      -1.051015       -28.5996
  91   2.0000      -1.025024       -27.8923
  92   2.0000      -1.022651       -27.8277
  93   2.0000      -1.014365       -27.6023
  94   2.0000      -1.014087       -27.5947
  95   2.0000      -1.006260       -27.3817
  96   2.0000      -0.994937       -27.0736
  97   2.0000      -0.994015       -27.0485
  98   2.0000      -0.990162       -26.9437
  99   2.0000      -0.989438       -26.9240
 100   2.0000      -0.986458       -26.8429
 101   2.0000      -0.968631       -26.3578
 102   2.0000      -0.967184       -26.3184
 103   2.0000      -0.960799       -26.1447
 104   2.0000      -0.921937       -25.0872
 105   2.0000      -0.920422       -25.0460
 106   2.0000      -0.898794       -24.4574
 107   2.0000      -0.897745       -24.4289
 108   2.0000      -0.887327       -24.1454
 109   2.0000      -0.879040       -23.9199
 110   2.0000      -0.877105       -23.8673
 111   2.0000      -0.874823       -23.8051
 112   2.0000      -0.871571       -23.7167
 113   2.0000      -0.870363       -23.6838
 114   2.0000      -0.848358       -23.0850
 115   2.0000      -0.847915       -23.0729
 116   2.0000      -0.842525       -22.9263
 117   2.0000      -0.831535       -22.6272
 118   2.0000      -0.825700       -22.4684
 119   2.0000      -0.823761       -22.4157
 120   2.0000      -0.820293       -22.3213
 121   2.0000      -0.817159       -22.2360
 122   2.0000      -0.803726       -21.8705
 123   2.0000      -0.801664       -21.8144
 124   2.0000      -0.800177       -21.7739
 125   2.0000      -0.780525       -21.2392
 126   2.0000      -0.762272       -20.7425
 127   2.0000      -0.757830       -20.6216
 128   2.0000      -0.756844       -20.5948
 129   2.0000      -0.748183       -20.3591
 130   2.0000      -0.746683       -20.3183
 131   2.0000      -0.734831       -19.9958
 132   2.0000      -0.708437       -19.2776
 133   2.0000      -0.701631       -19.0923
 134   2.0000      -0.700845       -19.0709
 135   2.0000      -0.699867       -19.0444
 136   2.0000      -0.698511       -19.0075
 137   2.0000      -0.691450       -18.8153
 138   2.0000      -0.688833       -18.7441
 139   2.0000      -0.681549       -18.5459
 140   2.0000      -0.675792       -18.3892
 141   2.0000      -0.672959       -18.3122
 142   2.0000      -0.670284       -18.2394
 143   2.0000      -0.668820       -18.1995
 144   2.0000      -0.662315       -18.0225
 145   2.0000      -0.661768       -18.0076
 146   2.0000      -0.649380       -17.6705
 147   2.0000      -0.640931       -17.4406
 148   2.0000      -0.636627       -17.3235
 149   2.0000      -0.632591       -17.2137
 150   2.0000      -0.627641       -17.0790
 151   2.0000      -0.627253       -17.0684
 152   2.0000      -0.623626       -16.9697
 153   2.0000      -0.615232       -16.7413
 154   2.0000      -0.605725       -16.4826
 155   2.0000      -0.604869       -16.4593
 156   2.0000      -0.604148       -16.4397
 157   2.0000      -0.602259       -16.3883
 158   2.0000      -0.597532       -16.2597
 159   2.0000      -0.583409       -15.8754
 160   2.0000      -0.580834       -15.8053
 161   2.0000      -0.579616       -15.7722
 162   2.0000      -0.574258       -15.6264
 163   2.0000      -0.573072       -15.5941
 164   2.0000      -0.570399       -15.5214
 165   2.0000      -0.562638       -15.3102
 166   2.0000      -0.561767       -15.2865
 167   2.0000      -0.560165       -15.2429
 168   2.0000      -0.558847       -15.2070
 169   2.0000      -0.555561       -15.1176
 170   2.0000      -0.550398       -14.9771
 171   2.0000      -0.546769       -14.8783
 172   2.0000      -0.544761       -14.8237
 173   2.0000      -0.544133       -14.8066
 174   2.0000      -0.542895       -14.7729
 175   2.0000      -0.541668       -14.7395
 176   2.0000      -0.541108       -14.7243
 177   2.0000      -0.532377       -14.4867
 178   2.0000      -0.531317       -14.4579
 179   2.0000      -0.530658       -14.4399
 180   2.0000      -0.528827       -14.3901
 181   2.0000      -0.527036       -14.3414
 182   2.0000      -0.525012       -14.2863
 183   2.0000      -0.516086       -14.0434
 184   2.0000      -0.513575       -13.9751
 185   2.0000      -0.513304       -13.9677
 186   2.0000      -0.511373       -13.9152
 187   2.0000      -0.509039       -13.8517
 188   2.0000      -0.508295       -13.8314
 189   2.0000      -0.506315       -13.7775
 190   2.0000      -0.503254       -13.6942
 191   2.0000      -0.502939       -13.6857
 192   2.0000      -0.499864       -13.6020
 193   2.0000      -0.494212       -13.4482
 194   2.0000      -0.493973       -13.4417
 195   2.0000      -0.492064       -13.3897
 196   2.0000      -0.491524       -13.3751
 197   2.0000      -0.488790       -13.3007
 198   2.0000      -0.483153       -13.1473
 199   2.0000      -0.480834       -13.0842
 200   2.0000      -0.480062       -13.0631
 201   2.0000      -0.477207       -12.9855
 202   2.0000      -0.473363       -12.8809
 203   2.0000      -0.463272       -12.6063
 204   2.0000      -0.461576       -12.5601
 205   2.0000      -0.460756       -12.5378
 206   2.0000      -0.456847       -12.4314
 207   2.0000      -0.447246       -12.1702
 208   2.0000      -0.445957       -12.1351
 209   2.0000      -0.445421       -12.1205
 210   2.0000      -0.443306       -12.0630
 211   2.0000      -0.441573       -12.0158
 212   2.0000      -0.441000       -12.0002
 213   2.0000      -0.440177       -11.9778
 214   2.0000      -0.439039       -11.9469
 215   2.0000      -0.437639       -11.9088
 216   2.0000      -0.436038       -11.8652
 217   2.0000      -0.435656       -11.8548
 218   2.0000      -0.431812       -11.7502
 219   2.0000      -0.430760       -11.7216
 220   2.0000      -0.430143       -11.7048
 221   2.0000      -0.426907       -11.6167
 222   2.0000      -0.426742       -11.6122
 223   2.0000      -0.424076       -11.5397
 224   2.0000      -0.423195       -11.5157
 225   2.0000      -0.422421       -11.4947
 226   2.0000      -0.421350       -11.4655
 227   2.0000      -0.417596       -11.3634
 228   2.0000      -0.415277       -11.3003
 229   2.0000      -0.414568       -11.2810
 230   2.0000      -0.412445       -11.2232
 231   2.0000      -0.407892       -11.0993
 232   2.0000      -0.405121       -11.0239
 233   2.0000      -0.402455       -10.9514
 234   2.0000      -0.400382       -10.8949
 235   2.0000      -0.398217       -10.8360
 236   2.0000      -0.394862       -10.7447
 237   2.0000      -0.391100       -10.6424
 238   2.0000      -0.387172       -10.5355
 239   2.0000      -0.385363       -10.4863
 240   2.0000      -0.372331       -10.1316
 241   2.0000      -0.371936       -10.1209
 242   2.0000      -0.370563       -10.0835
 243   2.0000      -0.364574        -9.9206
 244   2.0000      -0.355483        -9.6732
 245   2.0000      -0.340748        -9.2722
 246   2.0000      -0.339379        -9.2350
 247   2.0000      -0.337092        -9.1727
 248   2.0000      -0.333984        -9.0882
 249   2.0000      -0.330129        -8.9833
 250   2.0000      -0.321591        -8.7509
 251   2.0000      -0.312364        -8.4999
 252   2.0000      -0.311502        -8.4764
 253   2.0000      -0.307981        -8.3806
 254   2.0000      -0.304654        -8.2900
 255   2.0000      -0.293869        -7.9966
 256   2.0000      -0.292042        -7.9469
 257   2.0000      -0.290263        -7.8985
 258   2.0000      -0.283841        -7.7237
 259   2.0000      -0.282817        -7.6958
 260   2.0000      -0.267115        -7.2686
 261   2.0000      -0.243759        -6.6330
 262   0.0000      -0.136228        -3.7070
 263   0.0000      -0.100343        -2.7305
 264   0.0000      -0.083169        -2.2632
 265   0.0000      -0.057467        -1.5638
 266   0.0000      -0.054747        -1.4898

MULLIKEN ATOMIC CHARGES
-----------------------
   0 C :    0.301336
   1 C :   -0.335928
   2 C :   -0.184665
   3 N :    0.147284
   4 C :   -0.201262
   5 N :    0.169026
   6 C :    0.052240
   7 C :   -0.008381
   8 C :   -0.084026
   9 C :    0.099424
  10 C :    0.096325
  11 C :   -0.084817
  12 C :   -0.018617
  13 C :    0.034465
  14 C :    0.037819
  15 C :   -0.018832
  16 C :    0.153727
  17 O :   -0.135844
  18 C :   -0.077933
  19 C :   -0.020265
  20 C :    0.023590
  21 C :    0.053863
  22 C :    0.036515
  23 C :    0.066500
  24 N :   -0.189975
  25 O :   -0.248302
  26 C :    0.200979
  27 C :   -0.100678
  28 N :   -0.149526
  29 C :    0.105048
  30 O :   -0.238074
  31 C :    0.193774
  32 C :    0.138714
  33 C :   -0.080257
  34 C :   -0.086179
  35 N :    0.047936
  36 C :    0.028840
  37 C :    0.025119
  38 N :    0.045468
  39 C :    0.149970
  40 C :   -0.014430
  41 C :   -0.006775
  42 N :   -0.246768
  43 S :    0.534185
  44 N :   -0.246242
  45 C :   -0.108495
  46 C :    0.054337
  47 C :   -0.004996
  48 C :    0.104230
  49 N :   -0.142637
  50 O :   -0.235293
  51 C :    0.196813
  52 C :   -0.004293
  53 N :   -0.131539
  54 C :    0.058370
  55 O :   -0.242194
  56 C :    0.163385
  57 C :   -0.043923
  58 C :   -0.056212
  59 C :    0.310330
  60 C :   -0.346012
  61 C :   -0.186525
  62 N :    0.151976
  63 C :   -0.194256
  64 N :    0.160762
  65 C :    0.051509
  66 C :   -0.001406
  67 C :    0.139905
  68 O :   -0.095454
  69 C :   -0.086786
  70 C :    0.100537
  71 C :    0.094744
  72 C :   -0.085217
  73 C :   -0.020662
  74 C :    0.035264
  75 C :    0.036120
  76 C :   -0.018828
  77 H :   -0.016546
  78 H :   -0.009634
  79 H :   -0.009926
  80 H :   -0.005531
  81 H :   -0.006725
  82 H :   -0.019260
  83 H :    0.028837
  84 H :    0.028709
  85 H :    0.027279
  86 H :    0.038701
  87 H :    0.034624
  88 H :    0.045630
  89 H :    0.035035
  90 H :    0.012555
  91 H :    0.013179
  92 H :    0.048310
  93 H :    0.029806
  94 H :    0.037758
  95 H :    0.028579
  96 H :    0.024203
  97 H :    0.076390
  98 H :    0.003330
  99 H :   -0.015835
 100 H :   -0.007856
 101 H :   -0.008778
 102 H :   -0.006181
 103 H :   -0.006610
 104 H :   -0.017970
Sum of atomic charges:   -0.0000000

LOEWDIN ATOMIC CHARGES
----------------------
   0 C :    0.071947
   1 C :   -0.132023
   2 C :   -0.016413
   3 N :   -0.053140
   4 C :   -0.025437
   5 N :   -0.044701
   6 C :   -0.025603
   7 C :   -0.052913
   8 C :    0.028634
   9 C :   -0.008395
  10 C :   -0.006773
  11 C :    0.017911
  12 C :   -0.005602
  13 C :   -0.014815
  14 C :   -0.013189
  15 C :   -0.010943
  16 C :    0.081170
  17 O :   -0.126098
  18 C :   -0.069185
  19 C :    0.064385
  20 C :    0.045641
  21 C :   -0.100517
  22 C :   -0.121469
  23 C :    0.099468
  24 N :   -0.180064
  25 O :   -0.045706
  26 C :    0.083992
  27 C :    0.091522
  28 N :   -0.165038
  29 C :    0.117821
  30 O :   -0.026558
  31 C :    0.087258
  32 C :   -0.020973
  33 C :    0.005128
  34 C :    0.006608
  35 N :   -0.010496
  36 C :    0.013304
  37 C :    0.013257
  38 N :   -0.014023
  39 C :   -0.023462
  40 C :   -0.040861
  41 C :   -0.040537
  42 N :   -0.264052
  43 S :    0.675898
  44 N :   -0.263648
  45 C :    0.088083
  46 C :   -0.124635
  47 C :   -0.115470
  48 C :    0.104905
  49 N :   -0.164978
  50 O :   -0.035132
  51 C :    0.089705
  52 C :    0.042243
  53 N :   -0.156050
  54 C :    0.104300
  55 O :   -0.040041
  56 C :    0.082411
  57 C :    0.050030
  58 C :   -0.055923
  59 C :    0.073338
  60 C :   -0.134087
  61 C :   -0.016334
  62 N :   -0.053959
  63 C :   -0.024289
  64 N :   -0.047668
  65 C :   -0.027368
  66 C :   -0.052656
  67 C :    0.077394
  68 O :   -0.108046
  69 C :    0.027221
  70 C :   -0.007206
  71 C :   -0.007262
  72 C :    0.017848
  73 C :   -0.005857
  74 C :   -0.015657
  75 C :   -0.013199
  76 C :   -0.011400
  77 H :    0.037481
  78 H :    0.038531
  79 H :    0.034503
  80 H :    0.032821
  81 H :    0.032199
  82 H :    0.031139
  83 H :    0.052684
  84 H :    0.023758
  85 H :    0.021805
  86 H :    0.026382
  87 H :    0.024919
  88 H :    0.028391
  89 H :    0.027993
  90 H :    0.026143
  91 H :    0.026125
  92 H :    0.030920
  93 H :    0.024941
  94 H :    0.027092
  95 H :    0.021534
  96 H :    0.020805
  97 H :    0.033675
  98 H :    0.048543
  99 H :    0.037214
 100 H :    0.038390
 101 H :    0.034504
 102 H :    0.032509
 103 H :    0.032108
 104 H :    0.031319

  Mayer bond orders larger than 0.100000
B(  0-C ,  1-C ) :   1.6458 B(  0-C ,  6-C ) :   0.9897 B(  0-C , 18-C ) :   1.0554
B(  1-C ,  2-C ) :   1.1452 B(  1-C ,  4-C ) :   1.1394 B(  2-C ,  3-N ) :   2.9670
B(  4-C ,  5-N ) :   3.0003 B(  6-C ,  7-C ) :   1.2146 B(  6-C , 11-C ) :   1.4477
B(  7-C ,  8-C ) :   1.4741 B(  7-C , 16-C ) :   0.9404 B(  8-C ,  9-C ) :   1.1781
B(  8-C , 77-H ) :   1.0160 B(  9-C , 10-C ) :   1.2578 B(  9-C , 15-C ) :   1.2431
B( 10-C , 11-C ) :   1.2051 B( 10-C , 12-C ) :   1.2394 B( 11-C , 78-H ) :   0.9911
B( 12-C , 13-C ) :   1.4897 B( 12-C , 79-H ) :   0.9972 B( 13-C , 14-C ) :   1.2594
B( 13-C , 80-H ) :   0.9885 B( 14-C , 15-C ) :   1.4896 B( 14-C , 81-H ) :   0.9887
B( 15-C , 82-H ) :   0.9975 B( 16-C , 17-O ) :   2.2281 B( 16-C , 18-C ) :   0.9331
B( 18-C , 19-C ) :   1.5789 B( 19-C , 20-C ) :   1.1648 B( 19-C , 83-H ) :   0.9380
B( 20-C , 21-C ) :   1.1840 B( 20-C , 24-N ) :   1.3874 B( 21-C , 22-C ) :   1.3066
B( 21-C , 29-C ) :   1.0513 B( 22-C , 23-C ) :   1.0889 B( 22-C , 27-C ) :   1.1612
B( 23-C , 24-N ) :   1.4745 B( 23-C , 25-O ) :   1.3009 B( 25-O , 26-C ) :   0.9204
B( 26-C , 84-H ) :   0.9741 B( 26-C , 85-H ) :   0.9788 B( 26-C , 86-H ) :   0.9697
B( 27-C , 28-N ) :   1.4825 B( 27-C , 32-C ) :   1.0747 B( 28-N , 29-C ) :   1.4413
B( 29-C , 30-O ) :   1.3242 B( 30-O , 31-C ) :   0.9081 B( 31-C , 87-H ) :   0.9791
B( 31-C , 88-H ) :   0.9680 B( 31-C , 89-H ) :   0.9754 B( 32-C , 33-C ) :   1.2537
B( 32-C , 39-C ) :   0.1574 B( 32-C , 41-C ) :   1.2407 B( 33-C , 34-C ) :   1.1099
B( 33-C , 38-N ) :   1.5167 B( 34-C , 35-N ) :   1.5152 B( 34-C , 39-C ) :   1.2433
B( 35-N , 36-C ) :   1.6871 B( 36-C , 37-C ) :   1.1797 B( 36-C , 90-H ) :   0.9724
B( 37-C , 38-N ) :   1.6872 B( 37-C , 91-H ) :   0.9726 B( 39-C , 40-C ) :   1.2317
B( 39-C , 45-C ) :   1.0898 B( 40-C , 41-C ) :   1.0836 B( 40-C , 44-N ) :   1.5370
B( 41-C , 42-N ) :   1.5303 B( 42-N , 43-S ) :   1.2908 B( 42-N , 44-N ) :   0.1542
B( 43-S , 44-N ) :   1.2872 B( 45-C , 46-C ) :   1.1484 B( 45-C , 49-N ) :   1.4886
B( 46-C , 47-C ) :   1.3048 B( 46-C , 54-C ) :   1.0673 B( 47-C , 48-C ) :   1.0651
B( 47-C , 52-C ) :   1.1523 B( 48-C , 49-N ) :   1.4469 B( 48-C , 50-O ) :   1.3350
B( 50-O , 51-C ) :   0.9068 B( 51-C , 92-H ) :   0.9786 B( 51-C , 93-H ) :   0.9749
B( 51-C , 94-H ) :   0.9715 B( 52-C , 53-N ) :   1.4574 B( 52-C , 57-C ) :   1.1882
B( 53-N , 54-C ) :   1.4650 B( 54-C , 55-O ) :   1.3122 B( 55-O , 56-C ) :   0.9029
B( 56-C , 95-H ) :   0.9802 B( 56-C , 96-H ) :   0.9770 B( 56-C , 97-H ) :   0.9535
B( 57-C , 58-C ) :   1.5624 B( 57-C , 98-H ) :   0.9361 B( 58-C , 59-C ) :   1.0580
B( 58-C , 67-C ) :   0.9043 B( 59-C , 60-C ) :   1.6268 B( 59-C , 65-C ) :   0.9890
B( 60-C , 61-C ) :   1.1478 B( 60-C , 63-C ) :   1.1410 B( 61-C , 62-N ) :   2.9667
B( 63-C , 64-N ) :   2.9833 B( 65-C , 66-C ) :   1.2173 B( 65-C , 72-C ) :   1.4462
B( 66-C , 67-C ) :   0.9292 B( 66-C , 69-C ) :   1.4787 B( 67-C , 68-O ) :   2.2710
B( 69-C , 70-C ) :   1.1822 B( 69-C , 99-H ) :   1.0136 B( 70-C , 71-C ) :   1.2553
B( 70-C , 76-C ) :   1.2455 B( 71-C , 72-C ) :   1.2121 B( 71-C , 73-C ) :   1.2387
B( 72-C ,100-H ) :   0.9884 B( 73-C , 74-C ) :   1.4926 B( 73-C ,101-H ) :   0.9962
B( 74-C , 75-C ) :   1.2594 B( 74-C ,102-H ) :   0.9881 B( 75-C , 76-C ) :   1.4904
B( 75-C ,103-H ) :   0.9883 B( 76-C ,104-H ) :   0.9967

-----------------------------------------------------------------------------
         ABSORPTION SPECTRUM VIA TRANSITION ELECTRIC DIPOLE MOMENTS
-----------------------------------------------------------------------------
State   Energy  Wavelength   fosc         T2         TX        TY        TZ
        (cm-1)    (nm)                  (au**2)     (au)      (au)      (au)
-----------------------------------------------------------------------------
   0    9007.5   1110.2   0.973467564  35.57892  -4.06017  -2.00816  -3.88088
   1   11842.6    844.4   0.002529169   0.07031  -0.04176   0.07447  -0.25104
   2   12046.2    830.1   0.032102918   0.87735  -0.70984  -0.34174  -0.50665
   3   13361.8    748.4   0.083738377   2.06318  -0.89489  -0.66750   0.90377
   4   14346.9    697.0   0.015417893   0.35379  -0.33563  -0.33949   0.35480
   5   16529.8    605.0   0.000447514   0.00891  -0.05171  -0.05186  -0.05958
   6   17009.2    587.9   0.068823556   1.33207   0.46926   0.67252  -0.81215
   7   18569.5    538.5   0.355481036   6.30219   1.86520   0.89120   1.42442
   8   19680.9    508.1   0.004271124   0.07145   0.04059  -0.01602   0.26371
   9   21304.2    469.4   0.098601202   1.52368   0.65460   0.21292   1.02462
  10   21630.7    462.3   0.010649692   0.16208  -0.22318  -0.33508   0.00011
  11   21645.6    462.0   0.006669631   0.10144   0.24173   0.10496  -0.17886
  12   21966.0    455.2   0.005061422   0.07586   0.03024   0.06567   0.26576
  13   22023.5    454.1   0.011051179   0.16520   0.06651  -0.32522  -0.23453
  14   23105.7    432.8   0.003552765   0.05062  -0.11104  -0.13271   0.14380
  15   23721.0    421.6   0.000704334   0.00978  -0.02515  -0.06787   0.06735
  16   24236.4    412.6   0.000098253   0.00133   0.02379  -0.02746  -0.00385
  17   24770.1    403.7   0.007330753   0.09743   0.18920   0.10453   0.22518
  18   25124.7    398.0   0.022031035   0.28868   0.02288   0.13807  -0.51874
  19   25353.3    394.4   0.014494641   0.18821   0.24317   0.35925   0.00437
  20   25609.9    390.5   0.067409269   0.86654  -0.04784  -0.60108  -0.70919
  21   25797.2    387.6   0.002647712   0.03379  -0.09529  -0.15718   0.00135
  22   26814.2    372.9   0.027459510   0.33714   0.15433   0.03858   0.55842
  23   27087.2    369.2   0.051343291   0.62402   0.05685  -0.13093  -0.77694
  24   27425.4    364.6   0.002637340   0.03166  -0.07145   0.15846   0.03800
  25   27822.9    359.4   0.186105027   2.20207   0.13116   1.03224  -1.05800
  26   27952.4    357.8   0.104239948   1.22770   0.91874   0.60507  -0.13229
  27   28513.2    350.7   0.030907280   0.35685  -0.03887   0.57103  -0.17107
  28   28814.5    347.0   0.056236428   0.64251   0.00626   0.73147  -0.32776
  29   29130.5    343.3   0.146565283   1.65637   0.86690   0.52346   0.79426
  30   29652.3    337.2   0.040455816   0.44916   0.09482   0.58601  -0.31106
  31   29710.0    336.6   0.040775621   0.45183  -0.46942  -0.34373  -0.33664
  32   29749.2    336.1   0.146602075   1.62233  -1.22268   0.31259   0.17228
  33   29894.0    334.5   0.207571524   2.28591   1.22304   0.76652  -0.45004
  34   29928.9    334.1   0.013725193   0.15097  -0.36340  -0.11552  -0.07460
  35   30065.4    332.6   0.194448808   2.12919  -1.37251  -0.29883  -0.39511
  36   30521.6    327.6   0.109134348   1.17714  -1.00014  -0.41818  -0.04452
  37   30704.8    325.7   0.004412161   0.04731   0.21245   0.04597  -0.00760
  38   30823.4    324.4   0.042117559   0.44984   0.34719   0.29661   0.49125
  39   31199.9    320.5   0.002886724   0.03046  -0.12876   0.02258   0.11563
  40   31635.5    316.1   0.071654123   0.74566  -0.42006  -0.14383   0.74063
  41   31732.3    315.1   0.179441581   1.86165   1.30849   0.00919   0.38654
  42   31887.9    313.6   0.051998060   0.53683  -0.71892   0.04906   0.13258
  43   32105.8    311.5   0.101164629   1.03734  -0.68365  -0.66531  -0.35682
  44   32824.7    304.6   0.071045319   0.71254  -0.77819  -0.06846   0.31980
  45   33053.0    302.5   0.016295032   0.16230   0.03065  -0.33647  -0.21943
  46   33214.8    301.1   0.021057918   0.20872  -0.34682   0.28934   0.06870
  47   33412.5    299.3   0.031879866   0.31411  -0.39412   0.34671   0.19640
  48   33911.6    294.9   0.021656304   0.21024  -0.44144   0.05063   0.11315
  49   34055.1    293.6   0.050589325   0.48905   0.65800   0.15602   0.17816
  50   34196.9    292.4   0.096162949   0.92576  -0.69796  -0.00479   0.66225
  51   34683.6    288.3   0.297913592   2.82775   1.08620  -1.23839  -0.33810
  52   34753.3    287.7   0.331735878   3.14247   1.14584   0.72215  -1.14369
  53   34919.7    286.4   0.159493470   1.50366  -1.06216  -0.57723   0.20560
  54   35064.7    285.2   0.034765449   0.32640   0.22912  -0.30382  -0.42615
  55   35234.8    283.8   0.059160040   0.55275  -0.69217  -0.26509  -0.05810
  56   35341.7    283.0   0.009157855   0.08531  -0.21201  -0.15058  -0.13298
  57   35824.3    279.1   0.029654251   0.27251  -0.47494   0.19186   0.10066
  58   36334.0    275.2   0.044128919   0.39984  -0.30538   0.54343   0.10616
  59   36667.5    272.7   0.059625401   0.53534   0.68349   0.23856  -0.10616
  60   36776.6    271.9   0.028096119   0.25151  -0.45893  -0.17943   0.09326
  61   36925.4    270.8   0.005376729   0.04794  -0.12420  -0.17493   0.04370
  62   36986.6    270.4   0.018558046   0.16518   0.13432   0.37966   0.05480
  63   37171.6    269.0   0.030570762   0.27075  -0.07130   0.21532  -0.46830
  64   37366.4    267.6   0.182187520   1.60514   1.23668   0.00456  -0.27523
  65   37394.6    267.4   0.046020155   0.40515   0.03699  -0.62901   0.09015
  66   37546.6    266.3   0.137418175   1.20490   1.09515   0.03489  -0.06574
  67   37706.5    265.2   0.086375426   0.75414   0.55657   0.14222   0.65126
  68   37986.8    263.2   0.060226787   0.52195   0.49575   0.32555   0.41256
  69   38225.2    261.6   0.020835119   0.17944  -0.40112  -0.06924  -0.11726
  70   38444.9    260.1   0.033483858   0.28673   0.32565   0.42381  -0.03264
  71   38562.2    259.3   0.015992161   0.13653   0.31834   0.15436   0.10658
  72   38805.0    257.7   0.004620749   0.03920   0.08947   0.17440   0.02794
  73   38951.5    256.7   0.033406669   0.28235  -0.16758  -0.37088  -0.34164
  74   39216.6    255.0   0.182455065   1.53166  -0.09943  -0.82848  -0.91399
  75   39379.2    253.9   0.039512517   0.33033   0.46465  -0.13604   0.30971
  76   39515.7    253.1   0.095023231   0.79165  -0.54707   0.49194   0.50036
  77   39653.3    252.2   0.138668520   1.15126  -0.60096  -0.33110   0.82491
  78   39865.2    250.8   0.056938208   0.47020   0.12927  -0.06684   0.67009
  79   40034.5    249.8   0.028712259   0.23611  -0.03985   0.31813   0.36512
  80   40181.1    248.9   0.022800233   0.18681  -0.35334  -0.21245  -0.12971

FINAL SINGLE POINT ENERGY     -3729.091215666447

DIPOLE MOMENT
-------------
                                X             Y             Z
Electronic contribution:     -3.07775       8.19100       1.74810
Nuclear contribution   :      4.10616     -10.17133      -2.00348
                        -----------------------------------------
Total Dipole Moment    :      1.02841      -1.98034      -0.25539
                        -----------------------------------------
Magnitude (a.u.)       :      2.24602
Magnitude (Debye)      :      5.70892

Rotational constants in cm-1:     0.002271     0.000247     0.000236
Rotational constants in MHz :    68.084704     7.393530     7.081953

                             ****ORCA TERMINATED NORMALLY****
TOTAL RUN TIME: 0 days 0 hours 11 minutes 20 seconds 278 msec
