                         Program Version 4.2.0 -  RELEASE  -
|  1> # ORCA input file
|  2> # SCF done       -189.356149910412          0.000418779922
|  3> ! CAM-B3LYP def2-SVP def2/J RIJCOSX Grid4 TightSCF
|  4> %maxcore 5000
|  5> %tddft
|  6>     Mode sTDDFT
|  7>     Ethresh 5.0
|  8>     maxcore 5000
|  9> end
| 10>
| 11> %pal
| 12>   nprocs 6
| 13>   end
| 14> * xyz 0 1
| 15>    C        3.26306         3.58578        -0.98397
| 16>    C        3.54236         4.46424         0.03210
| 17>    C        4.58881         4.29756         0.95721
| 18>    N        5.38491         4.19243         1.77891
| 19>    C        2.83068         5.66029         0.24684
| 20>    N        2.30337         6.66166         0.44181
| 21>    C        4.14115         2.51566        -1.44302
| 22>    C        3.73118         2.12447        -2.75158
| 23>    C        4.39722         1.16194        -3.45330
| 24>    C        5.51558         0.52844        -2.86429
| 25>    C        5.92170         0.90576        -1.55177
| 26>    C        5.21751         1.91285        -0.85154
| 27>    C        7.03457         0.26188        -0.97425
| 28>    C        7.71697        -0.70678        -1.65879
| 29>    C        7.31719        -1.07693        -2.95129
| 30>    C        6.24033        -0.47212        -3.54105
| 31>    C        2.53642         2.89841        -3.13923
| 32>    O        1.93890         2.87345        -4.19022
| 33>    C        2.17355         3.68273        -1.92337
| 34>    C        0.91938         4.21471        -1.82132
| 35>    C        0.22836         4.61914        -0.66542
| 36>    C        0.45450         4.29963         0.67194
| 37>    C       -0.46612         4.91357         1.56244
| 38>    S       -0.07451         4.46944         3.18236
| 39>    C        1.25641         3.48942         2.53535
| 40>    N        1.38108         3.50156         1.25836
| 41>    C        2.16124         2.76068         3.44634
| 42>    C       -1.43594         5.68654         0.93317
| 43>    S       -1.19153         5.63228        -0.79717
| 44>    C       -2.50016         6.43848         1.48418
| 45>    C       -3.41485         7.11715         0.64088
| 46>    C       -4.51248         7.88959         1.15651
| 47>    N       -5.35322         8.47865         0.30294
| 48>    C       -5.15788         8.39821        -0.98862
| 49>    C       -4.04657         7.65224        -1.50098
| 50>    N       -3.23549         7.02973        -0.67954
| 51>    C       -3.82991         7.55862        -2.89792
| 52>    N       -3.68781         7.50621        -4.03310
| 53>    C       -6.06617         9.03498        -1.87255
| 54>    N       -6.76992         9.52809        -2.62921
| 55>    C       -4.75728         8.04216         2.54439
| 56>    C       -3.81959         7.40493         3.39099
| 57>    C       -2.72519         6.60852         2.87018
| 58>    N       -1.97358         6.11761         3.85182
| 59>    S       -2.55358         6.61373         5.26810
| 60>    N       -3.78518         7.46716         4.71828
| 61>    C       -5.86088         8.80917         2.99095
| 62>    C       -6.41931         8.89623         4.27153
| 63>    C       -7.51396         9.79168         4.31372
| 64>    S       -8.18864         9.84529         5.89794
| 65>    C       -6.95404         8.64128         6.37770
| 66>    N       -6.16058         8.27492         5.44900
| 67>    C       -6.91621         8.14948         7.76896
| 68>    C       -7.83077        10.40462         3.10195
| 69>    S       -6.73105         9.82000         1.86559
| 70>    C       -8.89485        11.30498         2.95887
| 71>    C       -9.36840        11.91593         1.82581
| 72>    C      -10.50057        12.81833         1.74402
| 73>    C      -11.23662        13.32214         2.78678
| 74>    C      -12.32167        14.20973         2.62990
| 75>    N      -13.21316        14.93149         2.57890
| 76>    C      -11.02342        13.05106         4.15402
| 77>    N      -10.91489        12.88594         5.28585
| 78>    C      -10.71696        13.12496         0.33270
| 79>    C       -9.72199        12.45394        -0.43545
| 80>    C       -8.83710        11.71139         0.46881
| 81>    O       -7.85372        11.06510         0.15267
| 82>    C       -9.66777        12.54118        -1.79643
| 83>    C      -10.62885        13.32975        -2.46832
| 84>    C      -11.62645        14.00916        -1.71053
| 85>    C      -11.65733        13.89287        -0.30073
| 86>    C      -12.57706        14.79548        -2.39193
| 87>    C      -12.54492        14.90759        -3.75574
| 88>    C      -11.56314        14.23747        -4.50030
| 89>    C      -10.62541        13.46436        -3.87027
| 90>    H        4.07643         0.88493        -4.44658
| 91>    H        5.54118         2.17683         0.14328
| 92>    H        7.34037         0.55231         0.02028
| 93>    H        8.56933        -1.19275        -1.20795
| 94>    H        7.86646        -1.84345        -3.47724
| 95>    H        5.92814        -0.75322        -4.53624
| 96>    H        0.36373         4.27535        -2.75226
| 97>    H        1.68927         2.60489         4.41244
| 98>    H        3.07463         3.34052         3.59109
| 99>    H        2.44244         1.80662         3.00563
|100>    H       -6.77231         8.98048         8.45807
|101>    H       -6.09945         7.44145         7.87673
|102>    H       -7.85734         7.66405         8.02428
|103>    H       -9.40749        11.51379         3.89136
|104>    H       -8.90407        12.01339        -2.34843
|105>    H      -12.42948        14.41630         0.24036
|106>    H      -13.33170        15.30963        -1.81482
|107>    H      -13.27707        15.51391        -4.26780
|108>    H      -11.55320        14.33680        -5.57540
|109>    H       -9.86660        12.94490        -4.43652
|110> *
|111>
|112>                          ****END OF INPUT****

CARTESIAN COORDINATES (ANGSTROEM)
---------------------------------
  C      3.263060    3.585780   -0.983970
  C      3.542360    4.464240    0.032100
  C      4.588810    4.297560    0.957210
  N      5.384910    4.192430    1.778910
  C      2.830680    5.660290    0.246840
  N      2.303370    6.661660    0.441810
  C      4.141150    2.515660   -1.443020
  C      3.731180    2.124470   -2.751580
  C      4.397220    1.161940   -3.453300
  C      5.515580    0.528440   -2.864290
  C      5.921700    0.905760   -1.551770
  C      5.217510    1.912850   -0.851540
  C      7.034570    0.261880   -0.974250
  C      7.716970   -0.706780   -1.658790
  C      7.317190   -1.076930   -2.951290
  C      6.240330   -0.472120   -3.541050
  C      2.536420    2.898410   -3.139230
  O      1.938900    2.873450   -4.190220
  C      2.173550    3.682730   -1.923370
  C      0.919380    4.214710   -1.821320
  C      0.228360    4.619140   -0.665420
  C      0.454500    4.299630    0.671940
  C     -0.466120    4.913570    1.562440
  S     -0.074510    4.469440    3.182360
  C      1.256410    3.489420    2.535350
  N      1.381080    3.501560    1.258360
  C      2.161240    2.760680    3.446340
  C     -1.435940    5.686540    0.933170
  S     -1.191530    5.632280   -0.797170
  C     -2.500160    6.438480    1.484180
  C     -3.414850    7.117150    0.640880
  C     -4.512480    7.889590    1.156510
  N     -5.353220    8.478650    0.302940
  C     -5.157880    8.398210   -0.988620
  C     -4.046570    7.652240   -1.500980
  N     -3.235490    7.029730   -0.679540
  C     -3.829910    7.558620   -2.897920
  N     -3.687810    7.506210   -4.033100
  C     -6.066170    9.034980   -1.872550
  N     -6.769920    9.528090   -2.629210
  C     -4.757280    8.042160    2.544390
  C     -3.819590    7.404930    3.390990
  C     -2.725190    6.608520    2.870180
  N     -1.973580    6.117610    3.851820
  S     -2.553580    6.613730    5.268100
  N     -3.785180    7.467160    4.718280
  C     -5.860880    8.809170    2.990950
  C     -6.419310    8.896230    4.271530
  C     -7.513960    9.791680    4.313720
  S     -8.188640    9.845290    5.897940
  C     -6.954040    8.641280    6.377700
  N     -6.160580    8.274920    5.449000
  C     -6.916210    8.149480    7.768960
  C     -7.830770   10.404620    3.101950
  S     -6.731050    9.820000    1.865590
  C     -8.894850   11.304980    2.958870
  C     -9.368400   11.915930    1.825810
  C    -10.500570   12.818330    1.744020
  C    -11.236620   13.322140    2.786780
  C    -12.321670   14.209730    2.629900
  N    -13.213160   14.931490    2.578900
  C    -11.023420   13.051060    4.154020
  N    -10.914890   12.885940    5.285850
  C    -10.716960   13.124960    0.332700
  C     -9.721990   12.453940   -0.435450
  C     -8.837100   11.711390    0.468810
  O     -7.853720   11.065100    0.152670
  C     -9.667770   12.541180   -1.796430
  C    -10.628850   13.329750   -2.468320
  C    -11.626450   14.009160   -1.710530
  C    -11.657330   13.892870   -0.300730
  C    -12.577060   14.795480   -2.391930
  C    -12.544920   14.907590   -3.755740
  C    -11.563140   14.237470   -4.500300
  C    -10.625410   13.464360   -3.870270
  H      4.076430    0.884930   -4.446580
  H      5.541180    2.176830    0.143280
  H      7.340370    0.552310    0.020280
  H      8.569330   -1.192750   -1.207950
  H      7.866460   -1.843450   -3.477240
  H      5.928140   -0.753220   -4.536240
  H      0.363730    4.275350   -2.752260
  H      1.689270    2.604890    4.412440
  H      3.074630    3.340520    3.591090
  H      2.442440    1.806620    3.005630
  H     -6.772310    8.980480    8.458070
  H     -6.099450    7.441450    7.876730
  H     -7.857340    7.664050    8.024280
  H     -9.407490   11.513790    3.891360
  H     -8.904070   12.013390   -2.348430
  H    -12.429480   14.416300    0.240360
  H    -13.331700   15.309630   -1.814820
  H    -13.277070   15.513910   -4.267800
  H    -11.553200   14.336800   -5.575400
  H     -9.866600   12.944900   -4.436520

 Total Charge           Charge          ....    0
 Multiplicity           Mult            ....    1
 Number of Electrons    NEL             ....  536
 Basis Dimension        Dim             .... 1170

ORBITAL ENERGIES
----------------

  NO   OCC          E(Eh)            E(eV)
   0   2.0000     -89.053238     -2423.2618
   1   2.0000     -88.972486     -2421.0644
   2   2.0000     -88.969248     -2420.9763
   3   2.0000     -88.967609     -2420.9317
   4   2.0000     -88.965556     -2420.8759
   5   2.0000     -19.218492      -522.9618
   6   2.0000     -19.208288      -522.6841
   7   2.0000     -14.475891      -393.9090
   8   2.0000     -14.472034      -393.8041
   9   2.0000     -14.462733      -393.5510
  10   2.0000     -14.456956      -393.3938
  11   2.0000     -14.437193      -392.8560
  12   2.0000     -14.435823      -392.8187
  13   2.0000     -14.415490      -392.2654
  14   2.0000     -14.414481      -392.2380
  15   2.0000     -14.413856      -392.2210
  16   2.0000     -14.412015      -392.1709
  17   2.0000     -14.411269      -392.1506
  18   2.0000     -14.407335      -392.0435
  19   2.0000     -10.394131      -282.8387
  20   2.0000     -10.393509      -282.8217
  21   2.0000     -10.366254      -282.0801
  22   2.0000     -10.359490      -281.8961
  23   2.0000     -10.358942      -281.8811
  24   2.0000     -10.358853      -281.8787
  25   2.0000     -10.357016      -281.8287
  26   2.0000     -10.353790      -281.7410
  27   2.0000     -10.352025      -281.6929
  28   2.0000     -10.349573      -281.6262
  29   2.0000     -10.339079      -281.3407
  30   2.0000     -10.338501      -281.3249
  31   2.0000     -10.336375      -281.2671
  32   2.0000     -10.335302      -281.2379
  33   2.0000     -10.332602      -281.1644
  34   2.0000     -10.330282      -281.1013
  35   2.0000     -10.329942      -281.0920
  36   2.0000     -10.328822      -281.0615
  37   2.0000     -10.327415      -281.0233
  38   2.0000     -10.323908      -280.9278
  39   2.0000     -10.322972      -280.9023
  40   2.0000     -10.321508      -280.8625
  41   2.0000     -10.321185      -280.8537
  42   2.0000     -10.320611      -280.8381
  43   2.0000     -10.318413      -280.7783
  44   2.0000     -10.317875      -280.7636
  45   2.0000     -10.317312      -280.7483
  46   2.0000     -10.315104      -280.6882
  47   2.0000     -10.314474      -280.6711
  48   2.0000     -10.314336      -280.6674
  49   2.0000     -10.313833      -280.6537
  50   2.0000     -10.309128      -280.5256
  51   2.0000     -10.299049      -280.2514
  52   2.0000     -10.298579      -280.2386
  53   2.0000     -10.295864      -280.1647
  54   2.0000     -10.293576      -280.1024
  55   2.0000     -10.293439      -280.0987
  56   2.0000     -10.292858      -280.0829
  57   2.0000     -10.292756      -280.0801
  58   2.0000     -10.292047      -280.0608
  59   2.0000     -10.291409      -280.0435
  60   2.0000     -10.291367      -280.0423
  61   2.0000     -10.290930      -280.0304
  62   2.0000     -10.288898      -279.9751
  63   2.0000     -10.288305      -279.9590
  64   2.0000     -10.284198      -279.8472
  65   2.0000     -10.284029      -279.8426
  66   2.0000     -10.282368      -279.7975
  67   2.0000     -10.282087      -279.7898
  68   2.0000     -10.281840      -279.7831
  69   2.0000     -10.281481      -279.7733
  70   2.0000     -10.281330      -279.7692
  71   2.0000     -10.281233      -279.7666
  72   2.0000     -10.281175      -279.7650
  73   2.0000     -10.280791      -279.7545
  74   2.0000     -10.280411      -279.7442
  75   2.0000      -8.144373      -221.6197
  76   2.0000      -8.065516      -219.4739
  77   2.0000      -8.063459      -219.4179
  78   2.0000      -8.061659      -219.3689
  79   2.0000      -8.059089      -219.2989
  80   2.0000      -6.115422      -166.4091
  81   2.0000      -6.107639      -166.1973
  82   2.0000      -6.107245      -166.1866
  83   2.0000      -6.035158      -164.2250
  84   2.0000      -6.033056      -164.1678
  85   2.0000      -6.031046      -164.1131
  86   2.0000      -6.030558      -164.0998
  87   2.0000      -6.028714      -164.0496
  88   2.0000      -6.028712      -164.0496
  89   2.0000      -6.027435      -164.0148
  90   2.0000      -6.027054      -164.0045
  91   2.0000      -6.025069      -163.9505
  92   2.0000      -6.024031      -163.9222
  93   2.0000      -6.023196      -163.8995
  94   2.0000      -6.020863      -163.8360
  95   2.0000      -1.152160       -31.3519
  96   2.0000      -1.135756       -30.9055
  97   2.0000      -1.134389       -30.8683
  98   2.0000      -1.123264       -30.5656
  99   2.0000      -1.078784       -29.3552
 100   2.0000      -1.078052       -29.3353
 101   2.0000      -1.062970       -28.9249
 102   2.0000      -1.022273       -27.8175
 103   2.0000      -1.016211       -27.6525
 104   2.0000      -1.011965       -27.5370
 105   2.0000      -1.011070       -27.5126
 106   2.0000      -1.007601       -27.4182
 107   2.0000      -0.999480       -27.1972
 108   2.0000      -0.996298       -27.1106
 109   2.0000      -0.992147       -26.9977
 110   2.0000      -0.991457       -26.9789
 111   2.0000      -0.988783       -26.9061
 112   2.0000      -0.986121       -26.8337
 113   2.0000      -0.976036       -26.5593
 114   2.0000      -0.967213       -26.3192
 115   2.0000      -0.964653       -26.2496
 116   2.0000      -0.928891       -25.2764
 117   2.0000      -0.923599       -25.1324
 118   2.0000      -0.919222       -25.0133
 119   2.0000      -0.916734       -24.9456
 120   2.0000      -0.908440       -24.7199
 121   2.0000      -0.898124       -24.4392
 122   2.0000      -0.895336       -24.3633
 123   2.0000      -0.890682       -24.2367
 124   2.0000      -0.877580       -23.8802
 125   2.0000      -0.875493       -23.8234
 126   2.0000      -0.873705       -23.7747
 127   2.0000      -0.869558       -23.6619
 128   2.0000      -0.868466       -23.6321
 129   2.0000      -0.860428       -23.4134
 130   2.0000      -0.846151       -23.0249
 131   2.0000      -0.826788       -22.4980
 132   2.0000      -0.824536       -22.4368
 133   2.0000      -0.823920       -22.4200
 134   2.0000      -0.822197       -22.3731
 135   2.0000      -0.809280       -22.0216
 136   2.0000      -0.798051       -21.7161
 137   2.0000      -0.795070       -21.6350
 138   2.0000      -0.789959       -21.4959
 139   2.0000      -0.767568       -20.8866
 140   2.0000      -0.759853       -20.6766
 141   2.0000      -0.754129       -20.5209
 142   2.0000      -0.749794       -20.4029
 143   2.0000      -0.736743       -20.0478
 144   2.0000      -0.719074       -19.5670
 145   2.0000      -0.713544       -19.4165
 146   2.0000      -0.711003       -19.3474
 147   2.0000      -0.702067       -19.1042
 148   2.0000      -0.701003       -19.0753
 149   2.0000      -0.696476       -18.9521
 150   2.0000      -0.694316       -18.8933
 151   2.0000      -0.688008       -18.7217
 152   2.0000      -0.678930       -18.4746
 153   2.0000      -0.675615       -18.3844
 154   2.0000      -0.669645       -18.2220
 155   2.0000      -0.667658       -18.1679
 156   2.0000      -0.664078       -18.0705
 157   2.0000      -0.658203       -17.9106
 158   2.0000      -0.643622       -17.5138
 159   2.0000      -0.642643       -17.4872
 160   2.0000      -0.637635       -17.3509
 161   2.0000      -0.632611       -17.2142
 162   2.0000      -0.627906       -17.0862
 163   2.0000      -0.623981       -16.9794
 164   2.0000      -0.615950       -16.7608
 165   2.0000      -0.605871       -16.4866
 166   2.0000      -0.601768       -16.3749
 167   2.0000      -0.600844       -16.3498
 168   2.0000      -0.599804       -16.3215
 169   2.0000      -0.593010       -16.1366
 170   2.0000      -0.588206       -16.0059
 171   2.0000      -0.583144       -15.8682
 172   2.0000      -0.573984       -15.6189
 173   2.0000      -0.568354       -15.4657
 174   2.0000      -0.567505       -15.4426
 175   2.0000      -0.563975       -15.3465
 176   2.0000      -0.553439       -15.0598
 177   2.0000      -0.551232       -14.9998
 178   2.0000      -0.548508       -14.9257
 179   2.0000      -0.547970       -14.9110
 180   2.0000      -0.546702       -14.8765
 181   2.0000      -0.542931       -14.7739
 182   2.0000      -0.540724       -14.7138
 183   2.0000      -0.539470       -14.6797
 184   2.0000      -0.536787       -14.6067
 185   2.0000      -0.536719       -14.6049
 186   2.0000      -0.530086       -14.4244
 187   2.0000      -0.527959       -14.3665
 188   2.0000      -0.524836       -14.2815
 189   2.0000      -0.518360       -14.1053
 190   2.0000      -0.517619       -14.0851
 191   2.0000      -0.514808       -14.0086
 192   2.0000      -0.513676       -13.9778
 193   2.0000      -0.511969       -13.9314
 194   2.0000      -0.510292       -13.8857
 195   2.0000      -0.509333       -13.8596
 196   2.0000      -0.507295       -13.8042
 197   2.0000      -0.506308       -13.7773
 198   2.0000      -0.501267       -13.6402
 199   2.0000      -0.497421       -13.5355
 200   2.0000      -0.495248       -13.4764
 201   2.0000      -0.494933       -13.4678
 202   2.0000      -0.493605       -13.4317
 203   2.0000      -0.492987       -13.4149
 204   2.0000      -0.490488       -13.3469
 205   2.0000      -0.489561       -13.3216
 206   2.0000      -0.484992       -13.1973
 207   2.0000      -0.483475       -13.1560
 208   2.0000      -0.479420       -13.0457
 209   2.0000      -0.476266       -12.9599
 210   2.0000      -0.474512       -12.9121
 211   2.0000      -0.465631       -12.6705
 212   2.0000      -0.462690       -12.5904
 213   2.0000      -0.462438       -12.5836
 214   2.0000      -0.460478       -12.5302
 215   2.0000      -0.459808       -12.5120
 216   2.0000      -0.458315       -12.4714
 217   2.0000      -0.454023       -12.3546
 218   2.0000      -0.448628       -12.2078
 219   2.0000      -0.447370       -12.1735
 220   2.0000      -0.446160       -12.1406
 221   2.0000      -0.444578       -12.0976
 222   2.0000      -0.441405       -12.0112
 223   2.0000      -0.440357       -11.9827
 224   2.0000      -0.439949       -11.9716
 225   2.0000      -0.438666       -11.9367
 226   2.0000      -0.436950       -11.8900
 227   2.0000      -0.435104       -11.8398
 228   2.0000      -0.433775       -11.8036
 229   2.0000      -0.432491       -11.7687
 230   2.0000      -0.432124       -11.7587
 231   2.0000      -0.430570       -11.7164
 232   2.0000      -0.429856       -11.6970
 233   2.0000      -0.427318       -11.6279
 234   2.0000      -0.425251       -11.5717
 235   2.0000      -0.424454       -11.5500
 236   2.0000      -0.423690       -11.5292
 237   2.0000      -0.421728       -11.4758
 238   2.0000      -0.418496       -11.3879
 239   2.0000      -0.417680       -11.3657
 240   2.0000      -0.412214       -11.2169
 241   2.0000      -0.407353       -11.0846
 242   2.0000      -0.404387       -11.0039
 243   2.0000      -0.402062       -10.9407
 244   2.0000      -0.401317       -10.9204
 245   2.0000      -0.398131       -10.8337
 246   2.0000      -0.386461       -10.5161
 247   2.0000      -0.380118       -10.3435
 248   2.0000      -0.378263       -10.2931
 249   2.0000      -0.372577       -10.1383
 250   2.0000      -0.368691       -10.0326
 251   2.0000      -0.359058        -9.7705
 252   2.0000      -0.355812        -9.6821
 253   2.0000      -0.354592        -9.6489
 254   2.0000      -0.350762        -9.5447
 255   2.0000      -0.342412        -9.3175
 256   2.0000      -0.334240        -9.0951
 257   2.0000      -0.331858        -9.0303
 258   2.0000      -0.325715        -8.8632
 259   2.0000      -0.323061        -8.7909
 260   2.0000      -0.315411        -8.5828
 261   2.0000      -0.312407        -8.5010
 262   2.0000      -0.306941        -8.3523
 263   2.0000      -0.304402        -8.2832
 264   2.0000      -0.293273        -7.9804
 265   2.0000      -0.286565        -7.7978
 266   2.0000      -0.282947        -7.6994
 267   2.0000      -0.244861        -6.6630
 268   0.0000      -0.142385        -3.8745
 269   0.0000      -0.089476        -2.4348
 270   0.0000      -0.082903        -2.2559
 271   0.0000      -0.060438        -1.6446
 272   0.0000      -0.054572        -1.4850

MULLIKEN ATOMIC CHARGES
-----------------------
   0 C :    0.309333
   1 C :   -0.306904
   2 C :   -0.173928
   3 N :    0.128594
   4 C :   -0.219166
   5 N :    0.164644
   6 C :    0.045102
   7 C :    0.005393
   8 C :   -0.077964
   9 C :    0.090455
  10 C :    0.096581
  11 C :   -0.089836
  12 C :   -0.018974
  13 C :    0.035994
  14 C :    0.031237
  15 C :   -0.013344
  16 C :    0.134875
  17 O :   -0.141095
  18 C :   -0.125729
  19 C :    0.058618
  20 C :   -0.131058
  21 C :    0.071174
  22 C :    0.012070
  23 S :    0.148474
  24 C :   -0.165882
  25 N :   -0.048564
  26 C :    0.123583
  27 C :   -0.269268
  28 S :    0.200963
  29 C :    0.195097
  30 C :   -0.069157
  31 C :   -0.057865
  32 N :    0.024119
  33 C :   -0.113442
  34 C :   -0.095409
  35 N :    0.005774
  36 C :   -0.241138
  37 N :    0.250660
  38 C :   -0.209015
  39 N :    0.247898
  40 C :    0.172299
  41 C :   -0.041704
  42 C :    0.019781
  43 N :   -0.323885
  44 S :    0.555129
  45 N :   -0.234217
  46 C :   -0.263154
  47 C :    0.143774
  48 C :   -0.036012
  49 S :    0.114158
  50 C :   -0.205147
  51 N :    0.012337
  52 C :    0.126943
  53 C :   -0.104606
  54 S :    0.228806
  55 C :   -0.037281
  56 C :   -0.097999
  57 C :    0.330999
  58 C :   -0.355412
  59 C :   -0.182824
  60 N :    0.147478
  61 C :   -0.191824
  62 N :    0.145235
  63 C :    0.047512
  64 C :   -0.007130
  65 C :    0.172506
  66 O :   -0.175717
  67 C :   -0.078919
  68 C :    0.095097
  69 C :    0.097041
  70 C :   -0.086701
  71 C :   -0.021542
  72 C :    0.036812
  73 C :    0.034106
  74 C :   -0.015194
  75 H :   -0.014182
  76 H :   -0.012722
  77 H :   -0.014500
  78 H :   -0.007479
  79 H :   -0.006877
  80 H :   -0.019276
  81 H :    0.020649
  82 H :    0.017224
  83 H :    0.068607
  84 H :    0.047626
  85 H :    0.044222
  86 H :    0.036221
  87 H :    0.043756
  88 H :    0.004566
  89 H :   -0.002300
  90 H :   -0.008557
  91 H :   -0.009830
  92 H :   -0.005754
  93 H :   -0.003546
  94 H :   -0.011494
Sum of atomic charges:   -0.0000000

LOEWDIN ATOMIC CHARGES
----------------------
   0 C :    0.069695
   1 C :   -0.129924
   2 C :   -0.012094
   3 N :   -0.068500
   4 C :   -0.018808
   5 N :   -0.057411
   6 C :   -0.016781
   7 C :   -0.057430
   8 C :    0.031863
   9 C :   -0.011340
  10 C :   -0.005199
  11 C :    0.008825
  12 C :   -0.009165
  13 C :   -0.014853
  14 C :   -0.016856
  15 C :   -0.009201
  16 C :    0.083091
  17 O :   -0.141536
  18 C :   -0.073147
  19 C :    0.039850
  20 C :   -0.179943
  21 C :   -0.048484
  22 C :   -0.182379
  23 S :    0.431514
  24 C :   -0.091322
  25 N :   -0.101949
  26 C :   -0.065926
  27 C :   -0.168285
  28 S :    0.505313
  29 C :   -0.035139
  30 C :   -0.011336
  31 C :   -0.007044
  32 N :   -0.007251
  33 C :   -0.015915
  34 C :   -0.018032
  35 N :   -0.014076
  36 C :   -0.038676
  37 N :    0.003577
  38 C :   -0.029508
  39 N :   -0.001254
  40 C :   -0.039332
  41 C :   -0.038396
  42 C :   -0.035274
  43 N :   -0.297295
  44 S :    0.681118
  45 N :   -0.243003
  46 C :   -0.164839
  47 C :   -0.057258
  48 C :   -0.183953
  49 S :    0.382906
  50 C :   -0.094045
  51 N :   -0.079470
  52 C :   -0.066047
  53 C :   -0.204383
  54 S :    0.560059
  55 C :    0.047379
  56 C :   -0.096592
  57 C :    0.076117
  58 C :   -0.143001
  59 C :   -0.017131
  60 N :   -0.056004
  61 C :   -0.021475
  62 N :   -0.056225
  63 C :   -0.025977
  64 C :   -0.056492
  65 C :    0.085982
  66 O :   -0.162488
  67 C :    0.037100
  68 C :   -0.008428
  69 C :   -0.006274
  70 C :    0.018543
  71 C :   -0.006739
  72 C :   -0.013574
  73 C :   -0.012918
  74 C :   -0.006999
  75 H :    0.038441
  76 H :    0.036594
  77 H :    0.032657
  78 H :    0.031956
  79 H :    0.031757
  80 H :    0.031148
  81 H :    0.047050
  82 H :    0.033800
  83 H :    0.057063
  84 H :    0.050337
  85 H :    0.045931
  86 H :    0.045518
  87 H :    0.045601
  88 H :    0.044880
  89 H :    0.043708
  90 H :    0.038680
  91 H :    0.034231
  92 H :    0.032765
  93 H :    0.033038
  94 H :    0.034285

  Mayer bond orders larger than 0.100000
B(  0-C ,  1-C ) :   1.6231 B(  0-C ,  6-C ) :   1.0074 B(  0-C , 18-C ) :   1.0643
B(  1-C ,  2-C ) :   1.1571 B(  1-C ,  4-C ) :   1.1659 B(  2-C ,  3-N ) :   2.9294
B(  4-C ,  5-N ) :   3.0025 B(  6-C ,  7-C ) :   1.2093 B(  6-C , 11-C ) :   1.4643
B(  7-C ,  8-C ) :   1.4784 B(  7-C , 16-C ) :   0.9185 B(  8-C ,  9-C ) :   1.1842
B(  8-C , 75-H ) :   1.0144 B(  9-C , 10-C ) :   1.2576 B(  9-C , 15-C ) :   1.2465
B( 10-C , 11-C ) :   1.1988 B( 10-C , 12-C ) :   1.2436 B( 11-C , 76-H ) :   0.9919
B( 12-C , 13-C ) :   1.4888 B( 12-C , 77-H ) :   0.9963 B( 13-C , 14-C ) :   1.2597
B( 13-C , 78-H ) :   0.9891 B( 14-C , 15-C ) :   1.4891 B( 14-C , 79-H ) :   0.9893
B( 15-C , 80-H ) :   0.9966 B( 16-C , 17-O ) :   2.2743 B( 16-C , 18-C ) :   0.9366
B( 18-C , 19-C ) :   1.6284 B( 19-C , 20-C ) :   1.1676 B( 19-C , 81-H ) :   0.9327
B( 20-C , 21-C ) :   1.3827 B( 20-C , 28-S ) :   1.0593 B( 21-C , 22-C ) :   1.2508
B( 21-C , 25-N ) :   1.3230 B( 22-C , 23-S ) :   1.0700 B( 22-C , 27-C ) :   1.4726
B( 23-S , 24-C ) :   1.0650 B( 24-C , 25-N ) :   1.6990 B( 24-C , 26-C ) :   1.0864
B( 26-C , 82-H ) :   0.9401 B( 26-C , 83-H ) :   0.9357 B( 26-C , 84-H ) :   0.9466
B( 27-C , 28-S ) :   1.1422 B( 27-C , 29-C ) :   1.2238 B( 29-C , 30-C ) :   1.2345
B( 29-C , 40-C ) :   0.1160 B( 29-C , 42-C ) :   1.1793 B( 30-C , 31-C ) :   1.1309
B( 30-C , 35-N ) :   1.4078 B( 31-C , 32-N ) :   1.4135 B( 31-C , 40-C ) :   1.2415
B( 32-N , 33-C ) :   1.6994 B( 33-C , 34-C ) :   1.2182 B( 33-C , 38-C ) :   1.1679
B( 34-C , 35-N ) :   1.6881 B( 34-C , 36-C ) :   1.1640 B( 36-C , 37-N ) :   3.0387
B( 38-C , 39-N ) :   3.0146 B( 40-C , 41-C ) :   1.1717 B( 40-C , 46-C ) :   1.2248
B( 41-C , 42-C ) :   1.0865 B( 41-C , 45-N ) :   1.5587 B( 42-C , 43-N ) :   1.4975
B( 43-N , 44-S ) :   1.2557 B( 43-N , 45-N ) :   0.1460 B( 44-S , 45-N ) :   1.3014
B( 46-C , 47-C ) :   1.3109 B( 46-C , 53-C ) :   0.1049 B( 46-C , 54-S ) :   1.1305
B( 47-C , 48-C ) :   1.2893 B( 47-C , 51-N ) :   1.3189 B( 48-C , 49-S ) :   1.0862
B( 48-C , 53-C ) :   1.3906 B( 49-S , 50-C ) :   1.0444 B( 49-S , 51-N ) :   0.1024
B( 50-C , 51-N ) :   1.8041 B( 50-C , 52-C ) :   1.0652 B( 52-C , 85-H ) :   0.9446
B( 52-C , 86-H ) :   0.9491 B( 52-C , 87-H ) :   0.9446 B( 53-C , 54-S ) :   1.0466
B( 53-C , 55-C ) :   1.2833 B( 55-C , 56-C ) :   1.5184 B( 55-C , 88-H ) :   0.9388
B( 56-C , 57-C ) :   1.0775 B( 56-C , 65-C ) :   0.9708 B( 57-C , 58-C ) :   1.6147
B( 57-C , 63-C ) :   0.9856 B( 58-C , 59-C ) :   1.1511 B( 58-C , 61-C ) :   1.1483
B( 59-C , 60-N ) :   2.9613 B( 61-C , 62-N ) :   2.9560 B( 63-C , 64-C ) :   1.2112
B( 63-C , 70-C ) :   1.4568 B( 64-C , 65-C ) :   0.9611 B( 64-C , 67-C ) :   1.4740
B( 65-C , 66-O ) :   2.1141 B( 67-C , 68-C ) :   1.1718 B( 67-C , 89-H ) :   1.0164
B( 68-C , 69-C ) :   1.2559 B( 68-C , 74-C ) :   1.2480 B( 69-C , 70-C ) :   1.2033
B( 69-C , 71-C ) :   1.2428 B( 70-C , 90-H ) :   0.9890 B( 71-C , 72-C ) :   1.4883
B( 71-C , 91-H ) :   0.9968 B( 72-C , 73-C ) :   1.2617 B( 72-C , 92-H ) :   0.9879
B( 73-C , 74-C ) :   1.4858 B( 73-C , 93-H ) :   0.9885 B( 74-C , 94-H ) :   0.9979

-----------------------------------------------------------------------------
         ABSORPTION SPECTRUM VIA TRANSITION ELECTRIC DIPOLE MOMENTS
-----------------------------------------------------------------------------
State   Energy  Wavelength   fosc         T2         TX        TY        TZ
        (cm-1)    (nm)                  (au**2)     (au)      (au)      (au)
-----------------------------------------------------------------------------
   0    7271.2   1375.3   0.622084852  28.16572   4.27782  -2.95069  -1.07673
   1   16483.9    606.7   0.014982299   0.29922  -0.37110  -0.16965   0.36431
   2   18220.8    548.8   0.041410739   0.74821  -0.49289   0.38116   0.59999
   3   18310.5    546.1   0.033483140   0.60201   0.69466  -0.33816  -0.07142
   4   19173.1    521.6   0.545276665   9.36268   2.28945  -2.01210   0.26936
   5   19586.1    510.6   0.173669005   2.91911   1.55067  -0.65235  -0.29830
   6   19912.1    502.2   0.221182320   3.65686   1.71061  -0.69556  -0.49685
   7   20659.6    484.0   0.006173414   0.09837  -0.02538   0.08136  -0.30184
   8   20900.8    478.5   0.002031812   0.03200   0.08372  -0.14299  -0.06744
   9   22023.0    454.1   0.002915018   0.04358  -0.20158   0.05364  -0.00791
  10   23136.3    432.2   0.007511564   0.10688  -0.30304   0.10301  -0.06661
  11   24220.5    412.9   0.075237767   1.02265  -0.02545  -0.51011   0.87281
  12   24828.1    402.8   0.001846700   0.02449  -0.03712  -0.06335  -0.13819
  13   24958.7    400.7   0.079236316   1.04515  -0.67126   0.68704   0.35005
  14   25335.7    394.7   0.001851404   0.02406   0.01867   0.01189  -0.15352
  15   25752.0    388.3   0.003012627   0.03851  -0.13362  -0.11947  -0.07991
  16   26167.8    382.1   0.040229289   0.50612  -0.58476   0.28915   0.28384
  17   26770.2    373.6   0.078153115   0.96111  -0.63229   0.58665  -0.46599
  18   27507.6    363.5   0.003760809   0.04501   0.18630  -0.02715  -0.09780
  19   27690.1    361.1   0.021635598   0.25723   0.32986   0.04383   0.38275
  20   28092.3    356.0   0.032061465   0.37573   0.30593  -0.51908  -0.11264
  21   28589.7    349.8   0.244317871   2.81334  -0.82700   1.15083   0.89722
  22   29121.6    343.4   0.052192629   0.59002  -0.44773   0.30327  -0.54552
  23   29265.6    341.7   0.249379703   2.80530  -0.26377   0.73450  -1.48197
  24   29501.3    339.0   0.022343723   0.24934   0.39998  -0.28712  -0.08319
  25   30336.5    329.6   0.034215790   0.37131  -0.23907  -0.06603   0.55659
  26   30459.0    328.3   0.383480865   4.14480   0.25916  -0.11261  -2.01617
  27   30569.6    327.1   0.205098543   2.20876  -0.65520   0.84629  -1.03114
  28   30860.8    324.0   0.222284132   2.37124  -0.43786   0.18726  -1.46440
  29   30948.8    323.1   0.029830481   0.31732  -0.11044   0.05197  -0.54993
  30   31217.8    320.3   0.114365889   1.20606   0.53810  -0.53086   0.79668
  31   31572.3    316.7   0.009675462   0.10089  -0.13944  -0.02059  -0.28464
  32   31693.9    315.5   0.032836686   0.34108   0.21823  -0.13063   0.52573
  33   32131.3    311.2   0.146902582   1.50514   0.98816  -0.68823   0.23458
  34   32810.4    304.8   0.165162730   1.65721   0.42874  -0.80894  -0.90499
  35   33153.8    301.6   0.033178582   0.32946   0.00428  -0.02875  -0.57325
  36   33544.1    298.1   0.100350047   0.98487   0.01576  -0.59641  -0.79304
  37   33863.3    295.3   0.088029514   0.85580  -0.12310   0.58431   0.70656
  38   34079.2    293.4   0.024793342   0.23951  -0.33535   0.35405   0.04128
  39   34388.0    290.8   0.830776986   7.95341  -0.37510  -0.06662   2.79433
  40   34552.8    289.4   0.098834642   0.94168   0.35946  -0.40336   0.80608
  41   34678.3    288.4   0.008209399   0.07793   0.20819  -0.14592   0.11532
  42   34857.8    286.9   0.030810932   0.29099  -0.34403   0.39702   0.12253
  43   34939.9    286.2   0.008049999   0.07585  -0.10125   0.22950  -0.11369
  44   35648.7    280.5   0.026986822   0.24922  -0.21900   0.28206   0.34886
  45   35964.3    278.1   0.060901817   0.55749   0.40501  -0.62690  -0.02126
  46   36046.0    277.4   0.008154903   0.07448  -0.19564   0.18101   0.05866
  47   36189.3    276.3   0.089361473   0.81292   0.54456  -0.68360   0.22149
  48   36396.8    274.7   0.135281338   1.22363   0.10373  -0.67947  -0.86671
  49   36449.6    274.4   0.005894257   0.05324  -0.06865  -0.03982   0.21665
  50   36652.9    272.8   0.246576886   2.21472  -0.81151   1.09819   0.59172
  51   36954.0    270.6   0.097113490   0.86515   0.03279   0.05164   0.92812
  52   37028.5    270.1   0.020697814   0.18402   0.38834  -0.04438   0.17676
  53   37139.2    269.3   0.038182638   0.33846  -0.39704   0.41858  -0.07487
  54   37738.1    265.0   0.049666080   0.43327  -0.49256   0.40157  -0.17145
  55   37953.2    263.5   0.009856757   0.08550  -0.19206   0.12377   0.18247
  56   38087.0    262.6   0.033568132   0.29015  -0.00114   0.10316  -0.52869
  57   38423.6    260.3   0.020804443   0.17825   0.36799  -0.11688   0.17081
  58   38465.3    260.0   0.071344004   0.61061   0.10421  -0.20862   0.74581
  59   38742.3    258.1   0.098722330   0.83889  -0.16134   0.05647   0.89982
  60   38861.6    257.3   0.017789305   0.15070   0.31457  -0.10834  -0.20002
  61   38927.6    256.9   0.100575862   0.85057  -0.47031   0.36203  -0.70592
  62   38997.7    256.4   0.043796243   0.36972   0.01585  -0.35858  -0.49080
  63   39139.3    255.5   0.041273579   0.34716  -0.11974   0.47301  -0.33029
  64   39431.2    253.6   0.123685264   1.03265  -0.82947   0.57900   0.09690
  65   39527.0    253.0   0.015136517   0.12607   0.12886   0.06568   0.32427
  66   39555.9    252.8   0.023310415   0.19401   0.24004  -0.20003  -0.31044
  67   39901.6    250.6   0.034057251   0.28099  -0.22058   0.24162  -0.41708
  68   40006.9    250.0   0.060588756   0.49858   0.39940  -0.32564   0.48272
  69   40171.3    248.9   0.003220475   0.02639   0.06479  -0.09524   0.11456

FINAL SINGLE POINT ENERGY     -4939.967886084384

DIPOLE MOMENT
-------------
                                X             Y             Z
Electronic contribution:    -14.66459      14.08300      11.53218
Nuclear contribution   :     15.41880     -16.72090     -10.13314
                        -----------------------------------------
Total Dipole Moment    :      0.75421      -2.63790       1.39904
                        -----------------------------------------
Magnitude (a.u.)       :      3.07972
Magnitude (Debye)      :      7.82803

Rotational constants in cm-1:     0.001813     0.000311     0.000270
Rotational constants in MHz :    54.352431     9.317132     8.082560

                             ****ORCA TERMINATED NORMALLY****
TOTAL RUN TIME: 0 days 0 hours 10 minutes 40 seconds 10 msec
