                         Program Version 4.2.0 -  RELEASE  -
|  1> # ORCA input file
|  2> # SCF done       -202.967876648773          0.000918681195
|  3> ! CAM-B3LYP def2-SVP def2/J RIJCOSX Grid4 TightSCF
|  4> %maxcore 5000
|  5> %tddft
|  6>     Mode sTDDFT
|  7>     Ethresh 5.0
|  8>     maxcore 5000
|  9> end
| 10>
| 11> %pal
| 12>   nprocs 6
| 13>   end
| 14> * xyz 0 1
| 15>    C        2.15758         0.28215        -4.83446
| 16>    C        0.85786         0.70704        -4.93390
| 17>    C       -0.18923         0.21619        -4.12949
| 18>    N       -1.07044        -0.14059        -3.48592
| 19>    C        0.41420         1.61187        -5.91957
| 20>    N        0.01262         2.30921        -6.73857
| 21>    C        2.61139        -0.86489        -4.05599
| 22>    C        3.84079        -1.32787        -4.61121
| 23>    C        4.48006        -2.42798        -4.11687
| 24>    C        3.91623        -3.11800        -3.01979
| 25>    C        2.69782        -2.64839        -2.44913
| 26>    C        2.05282        -1.51054        -2.98674
| 27>    C        2.15026        -3.34290        -1.35153
| 28>    C        2.77202        -4.45061        -0.84283
| 29>    C        3.97060        -4.91313        -1.40611
| 30>    C        4.53025        -4.26115        -2.47130
| 31>    C        4.24182        -0.43997        -5.71754
| 32>    O        5.19274        -0.54644        -6.45754
| 33>    C        3.25057         0.67419        -5.69851
| 34>    C        3.53674         1.83496        -6.34834
| 35>    C        2.99768         3.12768        -6.15433
| 36>    C        3.07786         4.18287        -7.04843
| 37>    C        2.47272         5.34750        -6.57900
| 38>    C        1.97562         5.20768        -5.27795
| 39>    S        2.22288         3.61802        -4.66603
| 40>    C        1.39608         6.32255        -4.64690
| 41>    C        1.18827         7.48568        -5.38773
| 42>    C        1.49316         7.49101        -6.85607
| 43>    O        2.44140         6.50604        -7.26292
| 44>    C        0.62848         8.50939        -4.64056
| 45>    C        0.39769         8.14549        -3.31711
| 46>    S        0.90060         6.50036        -3.00429
| 47>    C       -0.18755         8.94188        -2.32066
| 48>    C       -0.67464        10.25131        -2.46504
| 49>    C       -1.25870        10.76276        -1.25574
| 50>    N       -1.78949        11.98264        -1.19420
| 51>    C       -1.75207        12.70494        -2.29452
| 52>    C       -2.34280        14.06464        -2.23592
| 53>    O       -2.84777        14.51801        -1.23062
| 54>    C       -2.27217        14.82701        -3.49502
| 55>    C       -1.72067        14.35732        -4.61924
| 56>    C       -1.11816        13.01954        -4.73416
| 57>    O       -0.61879        12.61595        -5.76529
| 58>    C       -1.16552        12.20157        -3.49825
| 59>    N       -0.64088        10.99506        -3.57076
| 60>    C       -1.21334         9.85827        -0.18835
| 61>    S       -0.44398         8.38454        -0.69185
| 62>    C       -1.73641        10.07474         1.09465
| 63>    C       -1.69810         9.21624         2.18482
| 64>    C       -2.33715         9.74565         3.30052
| 65>    C       -2.88729        11.01395         3.05512
| 66>    S       -2.57112        11.56356         1.44478
| 67>    C       -3.67876        11.60575         4.05729
| 68>    C       -3.75476        10.98933         5.31045
| 69>    C       -2.87429         9.81483         5.61109
| 70>    O       -2.47399         9.07599         4.45902
| 71>    C       -4.64502        11.60855         6.16778
| 72>    C       -5.27387        12.71385         5.60233
| 73>    S       -4.70934        12.97629         3.95588
| 74>    C       -6.23398        13.61552         6.09357
| 75>    C       -6.96878        13.61502         7.25180
| 76>    C       -7.93823        14.64951         7.57645
| 77>    C       -8.04676        15.89014         7.00165
| 78>    C       -9.00711        16.85095         7.38185
| 79>    N       -9.76386        17.67623         7.63645
| 80>    C       -7.20503        16.41688         5.99938
| 81>    N       -6.55637        16.93606         5.20599
| 82>    C       -8.74456        14.17561         8.69552
| 83>    C       -8.20852        12.93420         9.13614
| 84>    C       -7.05730        12.56574         8.29472
| 85>    O       -6.35460        11.58758         8.45693
| 86>    C       -8.74473        12.24498        10.18499
| 87>    C       -9.87402        12.77320        10.84941
| 88>    C      -10.42506        14.01031        10.40761
| 89>    C       -9.84175        14.70422         9.32197
| 90>    C      -11.55640        14.52459        11.07284
| 91>    C      -12.11647        13.85194        12.12473
| 92>    C      -11.57185        12.63469        12.55980
| 93>    C      -10.47424        12.10693        11.93566
| 94>    H        5.40532        -2.76914        -4.55678
| 95>    H        1.13545        -1.16969        -2.53242
| 96>    H        1.22568        -2.98455        -0.92320
| 97>    H        2.34341        -4.97676        -0.00310
| 98>    H        4.44812        -5.78854        -0.99208
| 99>    H        5.45273        -4.61314        -2.90954
|100>    H        4.34850         1.77348        -7.06739
|101>    H        3.52508         4.09727        -8.02109
|102>    H        1.91472         8.45153        -7.16425
|103>    H        0.55893         7.32771        -7.41901
|104>    H        0.37550         9.48685        -5.00954
|105>    H       -2.70483        15.81751        -3.45276
|106>    H       -1.68908        14.95277        -5.52183
|107>    H       -1.23117         8.24912         2.16000
|108>    H       -3.38634         9.09868         6.25919
|109>    H       -1.96553        10.16239         6.13118
|110>    H       -4.85172        11.28345         7.17069
|111>    H       -6.44296        14.42479         5.40330
|112>    H       -8.31427        11.30645        10.50151
|113>    H      -10.28621        15.63564         9.00986
|114>    H      -11.97137        15.46310        10.73550
|115>    H      -12.98259        14.25491        12.62812
|116>    H      -12.02637        12.11710        13.39137
|117>    H      -10.05050        11.16943        12.26536
|118> *
|119>
|120>                          ****END OF INPUT****

CARTESIAN COORDINATES (ANGSTROEM)
---------------------------------
  C      2.157580    0.282150   -4.834460
  C      0.857860    0.707040   -4.933900
  C     -0.189230    0.216190   -4.129490
  N     -1.070440   -0.140590   -3.485920
  C      0.414200    1.611870   -5.919570
  N      0.012620    2.309210   -6.738570
  C      2.611390   -0.864890   -4.055990
  C      3.840790   -1.327870   -4.611210
  C      4.480060   -2.427980   -4.116870
  C      3.916230   -3.118000   -3.019790
  C      2.697820   -2.648390   -2.449130
  C      2.052820   -1.510540   -2.986740
  C      2.150260   -3.342900   -1.351530
  C      2.772020   -4.450610   -0.842830
  C      3.970600   -4.913130   -1.406110
  C      4.530250   -4.261150   -2.471300
  C      4.241820   -0.439970   -5.717540
  O      5.192740   -0.546440   -6.457540
  C      3.250570    0.674190   -5.698510
  C      3.536740    1.834960   -6.348340
  C      2.997680    3.127680   -6.154330
  C      3.077860    4.182870   -7.048430
  C      2.472720    5.347500   -6.579000
  C      1.975620    5.207680   -5.277950
  S      2.222880    3.618020   -4.666030
  C      1.396080    6.322550   -4.646900
  C      1.188270    7.485680   -5.387730
  C      1.493160    7.491010   -6.856070
  O      2.441400    6.506040   -7.262920
  C      0.628480    8.509390   -4.640560
  C      0.397690    8.145490   -3.317110
  S      0.900600    6.500360   -3.004290
  C     -0.187550    8.941880   -2.320660
  C     -0.674640   10.251310   -2.465040
  C     -1.258700   10.762760   -1.255740
  N     -1.789490   11.982640   -1.194200
  C     -1.752070   12.704940   -2.294520
  C     -2.342800   14.064640   -2.235920
  O     -2.847770   14.518010   -1.230620
  C     -2.272170   14.827010   -3.495020
  C     -1.720670   14.357320   -4.619240
  C     -1.118160   13.019540   -4.734160
  O     -0.618790   12.615950   -5.765290
  C     -1.165520   12.201570   -3.498250
  N     -0.640880   10.995060   -3.570760
  C     -1.213340    9.858270   -0.188350
  S     -0.443980    8.384540   -0.691850
  C     -1.736410   10.074740    1.094650
  C     -1.698100    9.216240    2.184820
  C     -2.337150    9.745650    3.300520
  C     -2.887290   11.013950    3.055120
  S     -2.571120   11.563560    1.444780
  C     -3.678760   11.605750    4.057290
  C     -3.754760   10.989330    5.310450
  C     -2.874290    9.814830    5.611090
  O     -2.473990    9.075990    4.459020
  C     -4.645020   11.608550    6.167780
  C     -5.273870   12.713850    5.602330
  S     -4.709340   12.976290    3.955880
  C     -6.233980   13.615520    6.093570
  C     -6.968780   13.615020    7.251800
  C     -7.938230   14.649510    7.576450
  C     -8.046760   15.890140    7.001650
  C     -9.007110   16.850950    7.381850
  N     -9.763860   17.676230    7.636450
  C     -7.205030   16.416880    5.999380
  N     -6.556370   16.936060    5.205990
  C     -8.744560   14.175610    8.695520
  C     -8.208520   12.934200    9.136140
  C     -7.057300   12.565740    8.294720
  O     -6.354600   11.587580    8.456930
  C     -8.744730   12.244980   10.184990
  C     -9.874020   12.773200   10.849410
  C    -10.425060   14.010310   10.407610
  C     -9.841750   14.704220    9.321970
  C    -11.556400   14.524590   11.072840
  C    -12.116470   13.851940   12.124730
  C    -11.571850   12.634690   12.559800
  C    -10.474240   12.106930   11.935660
  H      5.405320   -2.769140   -4.556780
  H      1.135450   -1.169690   -2.532420
  H      1.225680   -2.984550   -0.923200
  H      2.343410   -4.976760   -0.003100
  H      4.448120   -5.788540   -0.992080
  H      5.452730   -4.613140   -2.909540
  H      4.348500    1.773480   -7.067390
  H      3.525080    4.097270   -8.021090
  H      1.914720    8.451530   -7.164250
  H      0.558930    7.327710   -7.419010
  H      0.375500    9.486850   -5.009540
  H     -2.704830   15.817510   -3.452760
  H     -1.689080   14.952770   -5.521830
  H     -1.231170    8.249120    2.160000
  H     -3.386340    9.098680    6.259190
  H     -1.965530   10.162390    6.131180
  H     -4.851720   11.283450    7.170690
  H     -6.442960   14.424790    5.403300
  H     -8.314270   11.306450   10.501510
  H    -10.286210   15.635640    9.009860
  H    -11.971370   15.463100   10.735500
  H    -12.982590   14.254910   12.628120
  H    -12.026370   12.117100   13.391370
  H    -10.050500   11.169430   12.265360

 Total Charge           Charge          ....    0
 Multiplicity           Mult            ....    1
 Number of Electrons    NEL             ....  566
 Basis Dimension        Dim             .... 1246

ORBITAL ENERGIES
----------------

  NO   OCC          E(Eh)            E(eV)
   0   2.0000     -89.002420     -2421.8790
   1   2.0000     -88.981277     -2421.3036
   2   2.0000     -88.976961     -2421.1862
   3   2.0000     -88.970446     -2421.0089
   4   2.0000     -88.969852     -2420.9927
   5   2.0000     -19.264252      -524.2069
   6   2.0000     -19.263901      -524.1974
   7   2.0000     -19.231248      -523.3089
   8   2.0000     -19.230141      -523.2787
   9   2.0000     -19.212191      -522.7903
  10   2.0000     -19.210284      -522.7384
  11   2.0000     -14.455049      -393.3419
  12   2.0000     -14.454556      -393.3285
  13   2.0000     -14.414337      -392.2341
  14   2.0000     -14.411585      -392.1592
  15   2.0000     -14.405999      -392.0072
  16   2.0000     -14.404114      -391.9559
  17   2.0000     -10.380282      -282.4618
  18   2.0000     -10.379638      -282.4443
  19   2.0000     -10.364063      -282.0205
  20   2.0000     -10.361576      -281.9528
  21   2.0000     -10.353068      -281.7213
  22   2.0000     -10.352766      -281.7131
  23   2.0000     -10.347715      -281.5756
  24   2.0000     -10.347022      -281.5568
  25   2.0000     -10.345345      -281.5112
  26   2.0000     -10.344911      -281.4993
  27   2.0000     -10.342075      -281.4222
  28   2.0000     -10.341180      -281.3978
  29   2.0000     -10.340049      -281.3670
  30   2.0000     -10.338659      -281.3292
  31   2.0000     -10.337444      -281.2961
  32   2.0000     -10.336080      -281.2590
  33   2.0000     -10.330941      -281.1192
  34   2.0000     -10.330214      -281.0994
  35   2.0000     -10.329861      -281.0898
  36   2.0000     -10.329073      -281.0684
  37   2.0000     -10.328883      -281.0632
  38   2.0000     -10.328641      -281.0566
  39   2.0000     -10.323630      -280.9203
  40   2.0000     -10.323539      -280.9178
  41   2.0000     -10.321374      -280.8589
  42   2.0000     -10.316939      -280.7382
  43   2.0000     -10.316251      -280.7195
  44   2.0000     -10.313868      -280.6546
  45   2.0000     -10.312596      -280.6200
  46   2.0000     -10.311900      -280.6011
  47   2.0000     -10.311755      -280.5971
  48   2.0000     -10.309334      -280.5312
  49   2.0000     -10.308853      -280.5182
  50   2.0000     -10.307850      -280.4909
  51   2.0000     -10.302544      -280.3465
  52   2.0000     -10.299827      -280.2725
  53   2.0000     -10.297645      -280.2132
  54   2.0000     -10.297187      -280.2007
  55   2.0000     -10.296762      -280.1891
  56   2.0000     -10.296749      -280.1888
  57   2.0000     -10.296076      -280.1705
  58   2.0000     -10.295824      -280.1636
  59   2.0000     -10.294279      -280.1216
  60   2.0000     -10.291694      -280.0512
  61   2.0000     -10.291033      -280.0332
  62   2.0000     -10.290846      -280.0282
  63   2.0000     -10.290806      -280.0271
  64   2.0000     -10.290498      -280.0187
  65   2.0000     -10.289758      -279.9985
  66   2.0000     -10.289178      -279.9828
  67   2.0000     -10.288766      -279.9715
  68   2.0000     -10.288420      -279.9621
  69   2.0000     -10.286280      -279.9039
  70   2.0000     -10.285943      -279.8947
  71   2.0000     -10.285553      -279.8841
  72   2.0000     -10.285307      -279.8774
  73   2.0000     -10.284855      -279.8651
  74   2.0000     -10.280805      -279.7549
  75   2.0000     -10.280542      -279.7478
  76   2.0000     -10.280293      -279.7410
  77   2.0000     -10.279845      -279.7288
  78   2.0000     -10.279306      -279.7141
  79   2.0000      -8.096846      -220.3264
  80   2.0000      -8.076781      -219.7804
  81   2.0000      -8.071781      -219.6443
  82   2.0000      -8.065935      -219.4853
  83   2.0000      -8.063892      -219.4297
  84   2.0000      -6.065938      -165.0626
  85   2.0000      -6.061834      -164.9509
  86   2.0000      -6.059486      -164.8870
  87   2.0000      -6.046141      -164.5239
  88   2.0000      -6.042075      -164.4132
  89   2.0000      -6.041231      -164.3902
  90   2.0000      -6.038679      -164.3208
  91   2.0000      -6.037161      -164.2795
  92   2.0000      -6.035114      -164.2238
  93   2.0000      -6.033559      -164.1815
  94   2.0000      -6.033490      -164.1796
  95   2.0000      -6.031107      -164.1148
  96   2.0000      -6.029190      -164.0626
  97   2.0000      -6.028080      -164.0324
  98   2.0000      -6.025527      -163.9629
  99   2.0000      -1.172512       -31.9057
 100   2.0000      -1.172223       -31.8978
 101   2.0000      -1.147606       -31.2279
 102   2.0000      -1.142890       -31.0996
 103   2.0000      -1.127472       -30.6801
 104   2.0000      -1.124948       -30.6114
 105   2.0000      -1.105705       -30.0878
 106   2.0000      -1.034030       -28.1374
 107   2.0000      -1.021474       -27.7957
 108   2.0000      -1.017893       -27.6983
 109   2.0000      -1.009723       -27.4760
 110   2.0000      -1.008525       -27.4434
 111   2.0000      -1.003324       -27.3018
 112   2.0000      -0.996885       -27.1266
 113   2.0000      -0.995777       -27.0965
 114   2.0000      -0.990285       -26.9470
 115   2.0000      -0.989862       -26.9355
 116   2.0000      -0.984123       -26.7794
 117   2.0000      -0.983342       -26.7581
 118   2.0000      -0.970112       -26.3981
 119   2.0000      -0.963718       -26.2241
 120   2.0000      -0.943410       -25.6715
 121   2.0000      -0.924807       -25.1653
 122   2.0000      -0.919646       -25.0249
 123   2.0000      -0.912959       -24.8429
 124   2.0000      -0.905128       -24.6298
 125   2.0000      -0.901152       -24.5216
 126   2.0000      -0.884199       -24.0603
 127   2.0000      -0.884002       -24.0549
 128   2.0000      -0.881235       -23.9796
 129   2.0000      -0.879914       -23.9437
 130   2.0000      -0.876984       -23.8639
 131   2.0000      -0.873562       -23.7708
 132   2.0000      -0.864551       -23.5256
 133   2.0000      -0.858984       -23.3742
 134   2.0000      -0.853372       -23.2214
 135   2.0000      -0.848579       -23.0910
 136   2.0000      -0.838348       -22.8126
 137   2.0000      -0.827479       -22.5169
 138   2.0000      -0.822101       -22.3705
 139   2.0000      -0.821012       -22.3409
 140   2.0000      -0.813330       -22.1318
 141   2.0000      -0.798123       -21.7180
 142   2.0000      -0.796455       -21.6726
 143   2.0000      -0.793972       -21.6051
 144   2.0000      -0.791187       -21.5293
 145   2.0000      -0.773736       -21.0544
 146   2.0000      -0.760227       -20.6868
 147   2.0000      -0.756952       -20.5977
 148   2.0000      -0.753591       -20.5062
 149   2.0000      -0.740069       -20.1383
 150   2.0000      -0.735854       -20.0236
 151   2.0000      -0.712372       -19.3846
 152   2.0000      -0.703905       -19.1542
 153   2.0000      -0.701085       -19.0775
 154   2.0000      -0.699587       -19.0367
 155   2.0000      -0.694969       -18.9111
 156   2.0000      -0.693364       -18.8674
 157   2.0000      -0.692386       -18.8408
 158   2.0000      -0.688973       -18.7479
 159   2.0000      -0.683419       -18.5968
 160   2.0000      -0.674891       -18.3647
 161   2.0000      -0.672781       -18.3073
 162   2.0000      -0.670135       -18.2353
 163   2.0000      -0.665334       -18.1046
 164   2.0000      -0.658330       -17.9141
 165   2.0000      -0.650498       -17.7010
 166   2.0000      -0.645821       -17.5737
 167   2.0000      -0.641930       -17.4678
 168   2.0000      -0.630724       -17.1629
 169   2.0000      -0.626654       -17.0521
 170   2.0000      -0.621689       -16.9170
 171   2.0000      -0.620184       -16.8761
 172   2.0000      -0.609412       -16.5829
 173   2.0000      -0.607696       -16.5363
 174   2.0000      -0.606497       -16.5036
 175   2.0000      -0.600706       -16.3460
 176   2.0000      -0.599391       -16.3102
 177   2.0000      -0.596497       -16.2315
 178   2.0000      -0.589402       -16.0384
 179   2.0000      -0.586690       -15.9646
 180   2.0000      -0.583664       -15.8823
 181   2.0000      -0.576197       -15.6791
 182   2.0000      -0.573006       -15.5923
 183   2.0000      -0.570689       -15.5292
 184   2.0000      -0.568350       -15.4656
 185   2.0000      -0.563412       -15.3312
 186   2.0000      -0.562691       -15.3116
 187   2.0000      -0.561034       -15.2665
 188   2.0000      -0.556640       -15.1469
 189   2.0000      -0.550906       -14.9909
 190   2.0000      -0.546071       -14.8593
 191   2.0000      -0.544910       -14.8278
 192   2.0000      -0.540781       -14.7154
 193   2.0000      -0.539282       -14.6746
 194   2.0000      -0.537203       -14.6181
 195   2.0000      -0.535174       -14.5628
 196   2.0000      -0.532454       -14.4888
 197   2.0000      -0.531320       -14.4579
 198   2.0000      -0.529077       -14.3969
 199   2.0000      -0.528386       -14.3781
 200   2.0000      -0.527990       -14.3673
 201   2.0000      -0.520938       -14.1754
 202   2.0000      -0.517472       -14.0811
 203   2.0000      -0.515478       -14.0269
 204   2.0000      -0.513500       -13.9731
 205   2.0000      -0.513028       -13.9602
 206   2.0000      -0.511312       -13.9135
 207   2.0000      -0.509254       -13.8575
 208   2.0000      -0.508954       -13.8493
 209   2.0000      -0.507138       -13.7999
 210   2.0000      -0.504972       -13.7410
 211   2.0000      -0.504263       -13.7217
 212   2.0000      -0.502274       -13.6676
 213   2.0000      -0.498925       -13.5764
 214   2.0000      -0.497716       -13.5435
 215   2.0000      -0.494903       -13.4670
 216   2.0000      -0.493780       -13.4364
 217   2.0000      -0.491990       -13.3877
 218   2.0000      -0.491464       -13.3734
 219   2.0000      -0.488543       -13.2939
 220   2.0000      -0.487851       -13.2751
 221   2.0000      -0.485274       -13.2050
 222   2.0000      -0.483166       -13.1476
 223   2.0000      -0.481287       -13.0965
 224   2.0000      -0.476953       -12.9785
 225   2.0000      -0.475245       -12.9321
 226   2.0000      -0.472440       -12.8558
 227   2.0000      -0.466580       -12.6963
 228   2.0000      -0.464146       -12.6301
 229   2.0000      -0.459237       -12.4965
 230   2.0000      -0.457783       -12.4569
 231   2.0000      -0.451031       -12.2732
 232   2.0000      -0.449477       -12.2309
 233   2.0000      -0.447779       -12.1847
 234   2.0000      -0.445225       -12.1152
 235   2.0000      -0.442761       -12.0481
 236   2.0000      -0.441080       -12.0024
 237   2.0000      -0.439861       -11.9692
 238   2.0000      -0.437831       -11.9140
 239   2.0000      -0.437298       -11.8995
 240   2.0000      -0.436882       -11.8882
 241   2.0000      -0.433315       -11.7911
 242   2.0000      -0.432237       -11.7618
 243   2.0000      -0.431656       -11.7460
 244   2.0000      -0.428170       -11.6511
 245   2.0000      -0.426586       -11.6080
 246   2.0000      -0.425498       -11.5784
 247   2.0000      -0.424449       -11.5499
 248   2.0000      -0.424099       -11.5403
 249   2.0000      -0.417136       -11.3508
 250   2.0000      -0.415922       -11.3178
 251   2.0000      -0.414594       -11.2817
 252   2.0000      -0.412183       -11.2161
 253   2.0000      -0.409573       -11.1451
 254   2.0000      -0.407553       -11.0901
 255   2.0000      -0.404584       -11.0093
 256   2.0000      -0.398687       -10.8488
 257   2.0000      -0.396902       -10.8003
 258   2.0000      -0.396209       -10.7814
 259   2.0000      -0.384971       -10.4756
 260   2.0000      -0.378362       -10.2957
 261   2.0000      -0.376552       -10.2465
 262   2.0000      -0.371631       -10.1126
 263   2.0000      -0.367443        -9.9986
 264   2.0000      -0.366677        -9.9778
 265   2.0000      -0.355016        -9.6605
 266   2.0000      -0.351090        -9.5536
 267   2.0000      -0.350225        -9.5301
 268   2.0000      -0.341977        -9.3057
 269   2.0000      -0.339796        -9.2463
 270   2.0000      -0.336733        -9.1630
 271   2.0000      -0.334883        -9.1126
 272   2.0000      -0.331189        -9.0121
 273   2.0000      -0.329721        -8.9722
 274   2.0000      -0.319651        -8.6981
 275   2.0000      -0.314298        -8.5525
 276   2.0000      -0.312989        -8.5169
 277   2.0000      -0.308511        -8.3950
 278   2.0000      -0.298119        -8.1122
 279   2.0000      -0.292696        -7.9647
 280   2.0000      -0.285757        -7.7758
 281   2.0000      -0.259222        -7.0538
 282   2.0000      -0.228722        -6.2239
 283   0.0000      -0.116314        -3.1651
 284   0.0000      -0.097492        -2.6529
 285   0.0000      -0.087905        -2.3920
 286   0.0000      -0.081049        -2.2054
 287   0.0000      -0.054804        -1.4913

MULLIKEN ATOMIC CHARGES
-----------------------
   0 C :    0.248107
   1 C :   -0.317680
   2 C :   -0.174266
   3 N :    0.150583
   4 C :   -0.206392
   5 N :    0.165877
   6 C :    0.034618
   7 C :    0.012318
   8 C :   -0.076824
   9 C :    0.090256
  10 C :    0.091381
  11 C :   -0.075308
  12 C :   -0.015432
  13 C :    0.034502
  14 C :    0.035146
  15 C :   -0.013107
  16 C :    0.138231
  17 O :   -0.143663
  18 C :   -0.137407
  19 C :    0.051060
  20 C :   -0.079526
  21 C :    0.000823
  22 C :    0.220576
  23 C :   -0.156477
  24 S :    0.173316
  25 C :   -0.043248
  26 C :   -0.118204
  27 C :    0.357914
  28 O :   -0.298147
  29 C :   -0.043556
  30 C :   -0.094721
  31 S :    0.155134
  32 C :   -0.093649
  33 C :    0.027317
  34 C :    0.011274
  35 N :    0.044636
  36 C :   -0.116216
  37 C :    0.137656
  38 O :   -0.098385
  39 C :   -0.015158
  40 C :   -0.017242
  41 C :    0.142435
  42 O :   -0.112990
  43 C :   -0.118589
  44 N :    0.063772
  45 C :   -0.108445
  46 S :    0.212315
  47 C :   -0.050827
  48 C :   -0.096547
  49 C :    0.233692
  50 C :   -0.172197
  51 S :    0.215089
  52 C :   -0.035652
  53 C :   -0.144478
  54 C :    0.352473
  55 O :   -0.294647
  56 C :    0.004728
  57 C :   -0.112530
  58 S :    0.180933
  59 C :    0.049785
  60 C :   -0.100814
  61 C :    0.308133
  62 C :   -0.356454
  63 C :   -0.184002
  64 N :    0.139874
  65 C :   -0.201554
  66 N :    0.153191
  67 C :    0.044795
  68 C :    0.001551
  69 C :    0.158873
  70 O :   -0.167362
  71 C :   -0.081704
  72 C :    0.095952
  73 C :    0.092423
  74 C :   -0.079264
  75 C :   -0.016994
  76 C :    0.034783
  77 C :    0.033965
  78 C :   -0.014966
  79 H :   -0.013102
  80 H :   -0.007570
  81 H :   -0.012098
  82 H :   -0.004937
  83 H :   -0.005591
  84 H :   -0.018226
  85 H :    0.029464
  86 H :   -0.003123
  87 H :    0.034815
  88 H :    0.039496
  89 H :    0.008594
  90 H :    0.020590
  91 H :    0.019003
  92 H :   -0.012790
  93 H :    0.032885
  94 H :    0.033710
  95 H :    0.008730
  96 H :    0.010116
  97 H :   -0.018686
  98 H :   -0.009842
  99 H :   -0.010981
 100 H :   -0.006916
 101 H :   -0.007297
 102 H :   -0.021104
Sum of atomic charges:   -0.0000000

LOEWDIN ATOMIC CHARGES
----------------------
   0 C :    0.060820
   1 C :   -0.143405
   2 C :   -0.019215
   3 N :   -0.054030
   4 C :   -0.035607
   5 N :   -0.050850
   6 C :   -0.022209
   7 C :   -0.056573
   8 C :    0.032256
   9 C :   -0.009529
  10 C :   -0.005654
  11 C :    0.014803
  12 C :   -0.006799
  13 C :   -0.013558
  14 C :   -0.013796
  15 C :   -0.009070
  16 C :    0.082629
  17 O :   -0.145060
  18 C :   -0.097743
  19 C :    0.049483
  20 C :   -0.169872
  21 C :   -0.025825
  22 C :    0.031937
  23 C :   -0.215809
  24 S :    0.471692
  25 C :   -0.181571
  26 C :   -0.068154
  27 C :    0.110861
  28 O :   -0.092289
  29 C :   -0.025377
  30 C :   -0.184510
  31 S :    0.436557
  32 C :   -0.181928
  33 C :   -0.045179
  34 C :   -0.049318
  35 N :   -0.006598
  36 C :   -0.036888
  37 C :    0.054984
  38 O :   -0.096529
  39 C :   -0.009703
  40 C :   -0.013380
  41 C :    0.056432
  42 O :   -0.108842
  43 C :   -0.044445
  44 N :    0.009775
  45 C :   -0.195248
  46 S :    0.502808
  47 C :   -0.165457
  48 C :   -0.076839
  49 C :    0.042870
  50 C :   -0.251783
  51 S :    0.492445
  52 C :   -0.158868
  53 C :   -0.089006
  54 C :    0.108298
  55 O :   -0.089946
  56 C :   -0.002503
  57 C :   -0.181642
  58 S :    0.466669
  59 C :    0.044696
  60 C :   -0.105982
  61 C :    0.077151
  62 C :   -0.149079
  63 C :   -0.017132
  64 N :   -0.061853
  65 C :   -0.026702
  66 N :   -0.056562
  67 C :   -0.025039
  68 C :   -0.053472
  69 C :    0.087162
  70 O :   -0.153335
  71 C :    0.028186
  72 C :   -0.009452
  73 C :   -0.007193
  74 C :    0.017674
  75 C :   -0.005809
  76 C :   -0.015824
  77 C :   -0.014961
  78 C :   -0.010946
  79 H :    0.039029
  80 H :    0.038129
  81 H :    0.033819
  82 H :    0.032896
  83 H :    0.032497
  84 H :    0.031610
  85 H :    0.052955
  86 H :    0.043257
  87 H :    0.038554
  88 H :    0.030568
  89 H :    0.038334
  90 H :    0.047065
  91 H :    0.046196
  92 H :    0.032855
  93 H :    0.037472
  94 H :    0.026964
  95 H :    0.034700
  96 H :    0.043304
  97 H :    0.036641
  98 H :    0.038410
  99 H :    0.034134
 100 H :    0.032191
 101 H :    0.031690
 102 H :    0.030487

  Mayer bond orders larger than 0.100000
B(  0-C ,  1-C ) :   1.6532 B(  0-C ,  6-C ) :   1.0010 B(  0-C , 18-C ) :   1.0358
B(  1-C ,  2-C ) :   1.1369 B(  1-C ,  4-C ) :   1.1500 B(  2-C ,  3-N ) :   2.9877
B(  4-C ,  5-N ) :   3.0232 B(  6-C ,  7-C ) :   1.2159 B(  6-C , 11-C ) :   1.4611
B(  7-C ,  8-C ) :   1.4778 B(  7-C , 16-C ) :   0.9211 B(  8-C ,  9-C ) :   1.1846
B(  8-C , 79-H ) :   1.0152 B(  9-C , 10-C ) :   1.2593 B(  9-C , 15-C ) :   1.2460
B( 10-C , 11-C ) :   1.2049 B( 10-C , 12-C ) :   1.2415 B( 11-C , 80-H ) :   0.9931
B( 12-C , 13-C ) :   1.4901 B( 12-C , 81-H ) :   0.9970 B( 13-C , 14-C ) :   1.2606
B( 13-C , 82-H ) :   0.9888 B( 14-C , 15-C ) :   1.4902 B( 14-C , 83-H ) :   0.9887
B( 15-C , 84-H ) :   0.9969 B( 16-C , 17-O ) :   2.2714 B( 16-C , 18-C ) :   0.9384
B( 18-C , 19-C ) :   1.6340 B( 19-C , 20-C ) :   1.1503 B( 19-C , 85-H ) :   0.9468
B( 20-C , 21-C ) :   1.3868 B( 20-C , 24-S ) :   1.1016 B( 21-C , 22-C ) :   1.2893
B( 21-C , 86-H ) :   1.0136 B( 22-C , 23-C ) :   1.4020 B( 22-C , 28-O ) :   1.1646
B( 23-C , 24-S ) :   1.1041 B( 23-C , 25-C ) :   1.1834 B( 25-C , 26-C ) :   1.4895
B( 25-C , 31-S ) :   1.1172 B( 26-C , 27-C ) :   1.0227 B( 26-C , 29-C ) :   1.2885
B( 27-C , 28-O ) :   0.9420 B( 27-C , 87-H ) :   0.9364 B( 27-C , 88-H ) :   0.9326
B( 29-C , 30-C ) :   1.4557 B( 29-C , 89-H ) :   0.9925 B( 30-C , 31-S ) :   1.0917
B( 30-C , 32-C ) :   1.2100 B( 32-C , 33-C ) :   1.3485 B( 32-C , 45-C ) :   0.1294
B( 32-C , 46-S ) :   1.1591 B( 33-C , 34-C ) :   1.1850 B( 33-C , 44-N ) :   1.4486
B( 34-C , 35-N ) :   1.4234 B( 34-C , 45-C ) :   1.3208 B( 35-N , 36-C ) :   1.7014
B( 36-C , 37-C ) :   0.8939 B( 36-C , 43-C ) :   1.1020 B( 37-C , 38-O ) :   2.2543
B( 37-C , 39-C ) :   1.0209 B( 39-C , 40-C ) :   1.6784 B( 39-C , 90-H ) :   0.9977
B( 40-C , 41-C ) :   1.0300 B( 40-C , 91-H ) :   0.9987 B( 41-C , 42-O ) :   2.2233
B( 41-C , 43-C ) :   0.8999 B( 43-C , 44-N ) :   1.7012 B( 45-C , 46-S ) :   1.1426
B( 45-C , 47-C ) :   1.2499 B( 47-C , 48-C ) :   1.3699 B( 47-C , 51-S ) :   1.1402
B( 48-C , 49-C ) :   1.2985 B( 48-C , 92-H ) :   1.0115 B( 49-C , 50-C ) :   1.3950
B( 49-C , 55-O ) :   1.1763 B( 50-C , 51-S ) :   1.0445 B( 50-C , 52-C ) :   1.1923
B( 52-C , 53-C ) :   1.4342 B( 52-C , 58-S ) :   1.1656 B( 53-C , 54-C ) :   1.0246
B( 53-C , 56-C ) :   1.3406 B( 54-C , 55-O ) :   0.9380 B( 54-C , 93-H ) :   0.9370
B( 54-C , 94-H ) :   0.9355 B( 56-C , 57-C ) :   1.3885 B( 56-C , 95-H ) :   0.9781
B( 57-C , 58-S ) :   1.0758 B( 57-C , 59-C ) :   1.2554 B( 59-C , 60-C ) :   1.5471
B( 59-C , 96-H ) :   0.9169 B( 60-C , 61-C ) :   1.0902 B( 60-C , 69-C ) :   0.9495
B( 61-C , 62-C ) :   1.6108 B( 61-C , 67-C ) :   0.9797 B( 62-C , 63-C ) :   1.1517
B( 62-C , 65-C ) :   1.1377 B( 63-C , 64-N ) :   2.9637 B( 65-C , 66-N ) :   2.9868
B( 67-C , 68-C ) :   1.2185 B( 67-C , 74-C ) :   1.4560 B( 68-C , 69-C ) :   0.9543
B( 68-C , 71-C ) :   1.4752 B( 69-C , 70-O ) :   2.1514 B( 71-C , 72-C ) :   1.1756
B( 71-C , 97-H ) :   1.0153 B( 72-C , 73-C ) :   1.2600 B( 72-C , 78-C ) :   1.2464
B( 73-C , 74-C ) :   1.2037 B( 73-C , 75-C ) :   1.2416 B( 74-C , 98-H ) :   0.9891
B( 75-C , 76-C ) :   1.4891 B( 75-C , 99-H ) :   0.9965 B( 76-C , 77-C ) :   1.2608
B( 76-C ,100-H ) :   0.9885 B( 77-C , 78-C ) :   1.4885 B( 77-C ,101-H ) :   0.9887
B( 78-C ,102-H ) :   0.9967

-----------------------------------------------------------------------------
         ABSORPTION SPECTRUM VIA TRANSITION ELECTRIC DIPOLE MOMENTS
-----------------------------------------------------------------------------
State   Energy  Wavelength   fosc         T2         TX        TY        TZ
        (cm-1)    (nm)                  (au**2)     (au)      (au)      (au)
-----------------------------------------------------------------------------
   0    9740.8   1026.6   1.146427782  38.74611  -2.91102   3.74342   4.03223
   1   14508.6    689.2   0.299541082   6.79683   0.41314   2.10683  -1.47899
   2   16682.2    599.4   0.275165979   5.43021  -0.46924   2.21932   0.53353
   3   17664.8    566.1   0.232074068   4.32507   1.41878  -0.49172  -1.43887
   4   18583.5    538.1   0.584229656  10.34977   2.14324  -1.55026  -1.83111
   5   22656.2    441.4   0.029537606   0.42920  -0.16722   0.63341  -0.00560
   6   24452.0    409.0   0.157400357   2.11918  -0.63102   0.63542   1.14771
   7   24672.7    405.3   0.087006583   1.16094   0.74160  -0.43215  -0.65133
   8   24749.0    404.1   0.015769469   0.20977   0.42212  -0.10493  -0.14341
   9   25343.0    394.6   0.007467758   0.09701  -0.24265  -0.03984   0.19116
  10   25715.8    388.9   0.059989837   0.76799   0.25764  -0.69338   0.46993
  11   25791.4    387.7   0.001908811   0.02436  -0.08150  -0.09986   0.08803
  12   25877.4    386.4   0.028217445   0.35898  -0.28729  -0.01395   0.52559
  13   26225.6    381.3   0.112826118   1.41632   0.39774  -1.07665   0.31456
  14   26485.4    377.6   0.004527638   0.05628   0.09646  -0.12019   0.18035
  15   27113.3    368.8   0.126452668   1.53540   0.09631   0.57285  -1.09452
  16   27429.0    364.6   0.105156362   1.26212   0.91910  -0.18914  -0.61774
  17   27823.8    359.4   0.062372265   0.73799  -0.76006   0.20375   0.34464
  18   28437.4    351.7   0.119706835   1.38582  -0.26910   0.99998   0.55985
  19   28778.3    347.5   0.047915594   0.54814   0.14966   0.52544  -0.49965
  20   29226.6    342.2   0.161748048   1.82195   0.19458  -1.13887   0.69790
  21   29445.3    339.6   0.000746608   0.00835  -0.07887  -0.03647  -0.02823
  22   29453.3    339.5   0.080056107   0.89482  -0.14115   0.80888  -0.46970
  23   30036.9    332.9   0.012292103   0.13472  -0.26273  -0.22626   0.12043
  24   30548.5    327.3   0.028473270   0.30685   0.12340   0.32609  -0.43045
  25   30710.5    325.6   0.000069875   0.00075  -0.02225  -0.00718   0.01422
  26   31528.7    317.2   0.008071788   0.08428   0.15351   0.04350  -0.24254
  27   31715.0    315.3   0.058997619   0.61241   0.51720   0.30619  -0.50116
  28   31879.7    313.7   0.065321508   0.67455  -0.57520   0.42516  -0.40365
  29   32061.0    311.9   0.147348526   1.51302  -0.90582   0.83187  -0.02237
  30   32528.5    307.4   0.010277468   0.10402  -0.21914   0.23610  -0.01585
  31   32588.0    306.9   0.248367187   2.50907  -0.60598  -0.74862   1.25754
  32   33185.6    301.3   0.158808904   1.57544   0.20551  -0.84036   0.90939
  33   33293.5    300.4   0.243873306   2.41146   1.24056  -0.92221  -0.14836
  34   33404.0    299.4   0.038141258   0.37590   0.38118   0.30602  -0.37007
  35   33526.4    298.3   0.038945562   0.38243  -0.48093  -0.09787   0.37623
  36   33683.3    296.9   0.328874259   3.21433   0.49523   0.95498  -1.43426
  37   33760.2    296.2   0.001035940   0.01010   0.05005   0.05496  -0.06764
  38   33975.6    294.3   0.020489232   0.19853  -0.00261  -0.21438   0.39060
  39   34157.0    292.8   0.010272257   0.09901   0.28095   0.05035  -0.13243
  40   34265.8    291.8   0.034289344   0.32944   0.29443   0.26754  -0.41373
  41   34656.1    288.5   0.085899377   0.81599  -0.07900   0.66298  -0.60844
  42   34808.6    287.3   0.057059126   0.53965   0.35347   0.33732  -0.54856
  43   34830.4    287.1   0.000714341   0.00675  -0.07793  -0.01816  -0.01870
  44   34954.1    286.1   0.048892202   0.46049  -0.00957  -0.43434   0.52129
  45   34974.4    285.9   0.015989469   0.15051  -0.03376   0.26159  -0.28450
  46   35383.8    282.6   0.015020341   0.13975  -0.25469  -0.18555   0.20114
  47   35434.3    282.2   0.126995369   1.17988  -0.30182   0.86994  -0.57619
  48   36036.0    277.5   0.088888503   0.81205  -0.74541  -0.14833   0.48417
  49   36195.8    276.3   0.015806640   0.14377  -0.13870   0.02829   0.35175
  50   36422.7    274.6   0.155919789   1.40930   0.69215  -0.86876   0.41892
  51   36594.7    273.3   0.118513015   1.06616   0.33432   0.70297  -0.67840
  52   36791.1    271.8   0.180754356   1.61741   0.31053  -1.17396   0.37789
  53   36847.1    271.4   0.586906070   5.24374  -0.55824   1.79664  -1.30546
  54   37242.6    268.5   0.055074747   0.48684   0.27430   0.40987  -0.49356
  55   37608.3    265.9   0.012977471   0.11360   0.12448  -0.29760   0.09768
  56   38002.8    263.1   0.054652621   0.47345  -0.32777   0.08388   0.59915
  57   38070.0    262.7   0.015173648   0.13121  -0.05921  -0.27537   0.22777
  58   38262.2    261.4   0.009707893   0.08353   0.03206   0.23034  -0.17159
  59   38610.5    259.0   0.010508859   0.08960  -0.11866  -0.01958   0.27412
  60   38675.7    258.6   0.093622990   0.79693   0.08500   0.68080  -0.57115
  61   38922.2    256.9   0.011317704   0.09573  -0.24565   0.13046   0.13550
  62   39065.4    256.0   0.069731629   0.58764  -0.60678   0.44270  -0.15321
  63   39348.3    254.1   0.005778010   0.04834  -0.07313   0.19494   0.07066
  64   39497.5    253.2   0.070747789   0.58968   0.17992  -0.69173   0.28076
  65   39581.3    252.6   0.013252356   0.11022   0.26087  -0.18375   0.09170
  66   39811.4    251.2   0.001323639   0.01095  -0.06810  -0.06556   0.04483
  67   40019.9    249.9   0.011354747   0.09341  -0.18510   0.23540   0.06110
  68   40192.6    248.8   0.060588986   0.49628   0.21627   0.52082  -0.42220
  69   40253.7    248.4   0.008513991   0.06963   0.21391   0.05025   0.14611
  70   40323.9    248.0   0.058169942   0.47491   0.08782  -0.61631   0.29556

FINAL SINGLE POINT ENERGY     -5143.203546686602

DIPOLE MOMENT
-------------
                                X             Y             Z
Electronic contribution:     11.53567      20.16231     -28.41471
Nuclear contribution   :     -9.81979     -22.62300      29.54324
                        -----------------------------------------
Total Dipole Moment    :      1.71588      -2.46070       1.12853
                        -----------------------------------------
Magnitude (a.u.)       :      3.20513
Magnitude (Debye)      :      8.14679

Rotational constants in cm-1:     0.001059     0.000199     0.000171
Rotational constants in MHz :    31.737002     5.958877     5.126685

                             ****ORCA TERMINATED NORMALLY****
TOTAL RUN TIME: 0 days 0 hours 12 minutes 10 seconds 817 msec
