                         Program Version 4.2.0 -  RELEASE  -
|  1> # ORCA input file
|  2> # SCF done       -192.887183231131          0.000922761074
|  3> ! CAM-B3LYP def2-SVP def2/J RIJCOSX Grid4 TightSCF
|  4> %maxcore 5000
|  5> %tddft
|  6>     Mode sTDDFT
|  7>     Ethresh 5.0
|  8>     maxcore 5000
|  9> end
| 10>
| 11> %pal
| 12>   nprocs 6
| 13>   end
| 14> * xyz 0 1
| 15>    C       -2.50747         3.44498         5.33088
| 16>    C       -3.67476         4.02958         4.90847
| 17>    C       -4.63491         4.58000         5.77896
| 18>    N       -5.44389         5.05071         6.44437
| 19>    C       -4.08322         4.05324         3.55996
| 20>    N       -4.47114         4.05378         2.47885
| 21>    C       -2.18050         3.12311         6.71539
| 22>    C       -1.20443         2.08377         6.71675
| 23>    C       -0.73422         1.54637         7.87966
| 24>    C       -1.21950         2.03893         9.11289
| 25>    C       -2.18397         3.08753         9.11681
| 26>    C       -2.65843         3.62141         7.89628
| 27>    C       -2.65599         3.57182        10.35340
| 28>    C       -2.20124         3.04516        11.53160
| 29>    C       -1.25176         2.01270        11.52718
| 30>    C       -0.77180         1.52039        10.34383
| 31>    C       -0.83773         1.75801         5.32460
| 32>    O       -0.08555         0.89355         4.93298
| 33>    C       -1.54452         2.76721         4.49225
| 34>    C       -1.17338         2.96698         3.19570
| 35>    C       -1.37880         4.10721         2.39000
| 36>    C       -1.34779         4.15185         1.00034
| 37>    C       -1.56965         5.42357         0.50351
| 38>    C       -1.71639         6.37862         1.51507
| 39>    S       -1.62063         5.70624         3.08337
| 40>    C       -1.92280         7.64387         0.92810
| 41>    C       -1.93226         7.50673        -0.46066
| 42>    C       -1.71727         6.06464        -0.85670
| 43>    C       -2.94651         5.50832        -1.58264
| 44>    C       -0.45783         5.89558        -1.70941
| 45>    C       -2.15299         8.70849        -1.11920
| 46>    C       -2.30640         9.77436        -0.24851
| 47>    S       -2.17120         9.26098         1.42998
| 48>    C       -2.56341        11.15632        -0.53234
| 49>    C       -2.52011        12.09968         0.48756
| 50>    C       -2.80600        13.43642         0.27898
| 51>    C       -3.17047        13.93507        -0.96542
| 52>    C       -3.19679        13.00986        -2.05432
| 53>    N       -3.48766        13.44663        -3.29282
| 54>    C       -3.50275        12.58731        -4.27682
| 55>    C       -3.22951        11.22827        -4.06331
| 56>    N       -2.92977        10.77249        -2.87606
| 57>    C       -2.89281        11.63020        -1.84076
| 58>    C       -3.51031        15.31987        -1.12107
| 59>    C       -4.15702        15.94845        -2.17162
| 60>    C       -4.35852        17.30226        -1.94167
| 61>    C       -3.85321        17.72513        -0.71083
| 62>    S       -3.13675        16.44625         0.17648
| 63>    C       -4.10966        19.10297        -0.55176
| 64>    C       -4.79620        19.56903        -1.68478
| 65>    C       -5.00875        18.44979        -2.67711
| 66>    C       -6.50051        18.18975        -2.90558
| 67>    C       -4.30146        18.74003        -4.00359
| 68>    C       -5.11263        20.90923        -1.61445
| 69>    C       -4.67461        21.49959        -0.42919
| 70>    S       -3.83567        20.32958         0.60089
| 71>    C       -4.75265        22.80935         0.06650
| 72>    C       -5.42841        23.91571        -0.38614
| 73>    C       -5.35521        25.20988         0.26868
| 74>    C       -4.41792        25.62242         1.18244
| 75>    C       -4.40108        26.90509         1.76788
| 76>    N       -4.33204        27.92649         2.28876
| 77>    C       -3.31572        24.86892         1.63692
| 78>    N       -2.37840        24.34012         2.03987
| 79>    C       -6.41664        26.04960        -0.27499
| 80>    C       -7.06032        25.33226        -1.32093
| 81>    C       -6.43748        24.00357        -1.46447
| 82>    O       -6.73451        23.17487        -2.30358
| 83>    C       -8.09882        25.86323        -2.02911
| 84>    C       -8.55593        27.16204        -1.71112
| 85>    C       -7.92080        27.88516        -0.66125
| 86>    C       -6.84297        27.30932         0.05076
| 87>    C       -8.38740        29.17798        -0.34874
| 88>    C       -9.43143        29.73168        -1.03857
| 89>    C      -10.05662        29.01837        -2.07185
| 90>    C       -9.62756        27.76123        -2.40136
| 91>    H       -0.00104         0.75368         7.86176
| 92>    H       -3.38196         4.42140         7.92466
| 93>    H       -3.38943         4.36487        10.35094
| 94>    H       -2.57135         3.42113        12.47375
| 95>    H       -0.90256         1.60917        12.46595
| 96>    H       -0.04064         0.72512        10.33473
| 97>    H       -0.57811         2.17402         2.75249
| 98>    H       -1.20874         3.26653         0.40651
| 99>    H       -3.82827         5.60003        -0.95303
|100>    H       -2.79677         4.45770        -1.81775
|101>    H       -3.11403         6.05777        -2.50555
|102>    H        0.41042         6.29089        -1.18682
|103>    H       -0.57156         6.42893        -2.64971
|104>    H       -0.28857         4.84271        -1.92060
|105>    H       -2.20905         8.83869        -2.18292
|106>    H       -2.26046        11.77703         1.48535
|107>    H       -2.76193        14.11293         1.12016
|108>    H       -3.73408        12.97703        -5.25915
|109>    H       -3.25093        10.50723        -4.86957
|110>    H       -4.45943        15.41226        -3.05056
|111>    H       -6.99580        17.97310        -1.96169
|112>    H       -6.63353        17.34143        -3.57225
|113>    H       -6.96552        19.06620        -3.34924
|114>    H       -3.24318        18.92714        -3.83589
|115>    H       -4.74089        19.61603        -4.47363
|116>    H       -4.40334        17.88993        -4.67337
|117>    H       -5.64383        21.46735        -2.36283
|118>    H       -4.19753        22.94480         0.98803
|119>    H       -8.56888        25.29821        -2.82050
|120>    H       -6.38778        27.88086         0.84373
|121>    H       -7.90189        29.72352         0.44720
|122>    H       -9.78142        30.72283        -0.79140
|123>    H      -10.87997        29.46964        -2.60528
|124>    H      -10.10532        27.20707        -3.19627
|125> *
|126>
|127>                          ****END OF INPUT****

CARTESIAN COORDINATES (ANGSTROEM)
---------------------------------
  C     -2.507470    3.444980    5.330880
  C     -3.674760    4.029580    4.908470
  C     -4.634910    4.580000    5.778960
  N     -5.443890    5.050710    6.444370
  C     -4.083220    4.053240    3.559960
  N     -4.471140    4.053780    2.478850
  C     -2.180500    3.123110    6.715390
  C     -1.204430    2.083770    6.716750
  C     -0.734220    1.546370    7.879660
  C     -1.219500    2.038930    9.112890
  C     -2.183970    3.087530    9.116810
  C     -2.658430    3.621410    7.896280
  C     -2.655990    3.571820   10.353400
  C     -2.201240    3.045160   11.531600
  C     -1.251760    2.012700   11.527180
  C     -0.771800    1.520390   10.343830
  C     -0.837730    1.758010    5.324600
  O     -0.085550    0.893550    4.932980
  C     -1.544520    2.767210    4.492250
  C     -1.173380    2.966980    3.195700
  C     -1.378800    4.107210    2.390000
  C     -1.347790    4.151850    1.000340
  C     -1.569650    5.423570    0.503510
  C     -1.716390    6.378620    1.515070
  S     -1.620630    5.706240    3.083370
  C     -1.922800    7.643870    0.928100
  C     -1.932260    7.506730   -0.460660
  C     -1.717270    6.064640   -0.856700
  C     -2.946510    5.508320   -1.582640
  C     -0.457830    5.895580   -1.709410
  C     -2.152990    8.708490   -1.119200
  C     -2.306400    9.774360   -0.248510
  S     -2.171200    9.260980    1.429980
  C     -2.563410   11.156320   -0.532340
  C     -2.520110   12.099680    0.487560
  C     -2.806000   13.436420    0.278980
  C     -3.170470   13.935070   -0.965420
  C     -3.196790   13.009860   -2.054320
  N     -3.487660   13.446630   -3.292820
  C     -3.502750   12.587310   -4.276820
  C     -3.229510   11.228270   -4.063310
  N     -2.929770   10.772490   -2.876060
  C     -2.892810   11.630200   -1.840760
  C     -3.510310   15.319870   -1.121070
  C     -4.157020   15.948450   -2.171620
  C     -4.358520   17.302260   -1.941670
  C     -3.853210   17.725130   -0.710830
  S     -3.136750   16.446250    0.176480
  C     -4.109660   19.102970   -0.551760
  C     -4.796200   19.569030   -1.684780
  C     -5.008750   18.449790   -2.677110
  C     -6.500510   18.189750   -2.905580
  C     -4.301460   18.740030   -4.003590
  C     -5.112630   20.909230   -1.614450
  C     -4.674610   21.499590   -0.429190
  S     -3.835670   20.329580    0.600890
  C     -4.752650   22.809350    0.066500
  C     -5.428410   23.915710   -0.386140
  C     -5.355210   25.209880    0.268680
  C     -4.417920   25.622420    1.182440
  C     -4.401080   26.905090    1.767880
  N     -4.332040   27.926490    2.288760
  C     -3.315720   24.868920    1.636920
  N     -2.378400   24.340120    2.039870
  C     -6.416640   26.049600   -0.274990
  C     -7.060320   25.332260   -1.320930
  C     -6.437480   24.003570   -1.464470
  O     -6.734510   23.174870   -2.303580
  C     -8.098820   25.863230   -2.029110
  C     -8.555930   27.162040   -1.711120
  C     -7.920800   27.885160   -0.661250
  C     -6.842970   27.309320    0.050760
  C     -8.387400   29.177980   -0.348740
  C     -9.431430   29.731680   -1.038570
  C    -10.056620   29.018370   -2.071850
  C     -9.627560   27.761230   -2.401360
  H     -0.001040    0.753680    7.861760
  H     -3.381960    4.421400    7.924660
  H     -3.389430    4.364870   10.350940
  H     -2.571350    3.421130   12.473750
  H     -0.902560    1.609170   12.465950
  H     -0.040640    0.725120   10.334730
  H     -0.578110    2.174020    2.752490
  H     -1.208740    3.266530    0.406510
  H     -3.828270    5.600030   -0.953030
  H     -2.796770    4.457700   -1.817750
  H     -3.114030    6.057770   -2.505550
  H      0.410420    6.290890   -1.186820
  H     -0.571560    6.428930   -2.649710
  H     -0.288570    4.842710   -1.920600
  H     -2.209050    8.838690   -2.182920
  H     -2.260460   11.777030    1.485350
  H     -2.761930   14.112930    1.120160
  H     -3.734080   12.977030   -5.259150
  H     -3.250930   10.507230   -4.869570
  H     -4.459430   15.412260   -3.050560
  H     -6.995800   17.973100   -1.961690
  H     -6.633530   17.341430   -3.572250
  H     -6.965520   19.066200   -3.349240
  H     -3.243180   18.927140   -3.835890
  H     -4.740890   19.616030   -4.473630
  H     -4.403340   17.889930   -4.673370
  H     -5.643830   21.467350   -2.362830
  H     -4.197530   22.944800    0.988030
  H     -8.568880   25.298210   -2.820500
  H     -6.387780   27.880860    0.843730
  H     -7.901890   29.723520    0.447200
  H     -9.781420   30.722830   -0.791400
  H    -10.879970   29.469640   -2.605280
  H    -10.105320   27.207070   -3.196270

 Total Charge           Charge          ....    0
 Multiplicity           Mult            ....    1
 Number of Electrons    NEL             ....  540
 Basis Dimension        Dim             .... 1250

ORBITAL ENERGIES
----------------

  NO   OCC          E(Eh)            E(eV)
   0   2.0000     -88.970568     -2421.0122
   1   2.0000     -88.970385     -2421.0073
   2   2.0000     -88.968798     -2420.9641
   3   2.0000     -88.967032     -2420.9160
   4   2.0000     -19.207952      -522.6749
   5   2.0000     -19.204046      -522.5687
   6   2.0000     -14.436728      -392.8433
   7   2.0000     -14.436581      -392.8394
   8   2.0000     -14.406619      -392.0240
   9   2.0000     -14.405093      -391.9825
  10   2.0000     -14.404878      -391.9767
  11   2.0000     -14.402746      -391.9186
  12   2.0000     -10.359498      -281.8963
  13   2.0000     -10.356319      -281.8098
  14   2.0000     -10.332283      -281.1557
  15   2.0000     -10.332204      -281.1536
  16   2.0000     -10.331975      -281.1473
  17   2.0000     -10.331631      -281.1380
  18   2.0000     -10.331230      -281.1271
  19   2.0000     -10.330894      -281.1179
  20   2.0000     -10.329386      -281.0769
  21   2.0000     -10.327987      -281.0388
  22   2.0000     -10.321308      -280.8571
  23   2.0000     -10.317570      -280.7554
  24   2.0000     -10.314589      -280.6742
  25   2.0000     -10.314467      -280.6709
  26   2.0000     -10.313648      -280.6486
  27   2.0000     -10.312033      -280.6047
  28   2.0000     -10.310647      -280.5670
  29   2.0000     -10.309824      -280.5446
  30   2.0000     -10.309762      -280.5429
  31   2.0000     -10.309154      -280.5264
  32   2.0000     -10.308499      -280.5085
  33   2.0000     -10.307884      -280.4918
  34   2.0000     -10.307721      -280.4874
  35   2.0000     -10.306663      -280.4586
  36   2.0000     -10.305958      -280.4394
  37   2.0000     -10.305409      -280.4244
  38   2.0000     -10.299048      -280.2513
  39   2.0000     -10.298771      -280.2438
  40   2.0000     -10.295512      -280.1551
  41   2.0000     -10.294864      -280.1375
  42   2.0000     -10.294188      -280.1191
  43   2.0000     -10.294085      -280.1163
  44   2.0000     -10.292875      -280.0834
  45   2.0000     -10.291141      -280.0362
  46   2.0000     -10.290833      -280.0278
  47   2.0000     -10.289759      -279.9986
  48   2.0000     -10.289743      -279.9981
  49   2.0000     -10.289329      -279.9869
  50   2.0000     -10.289300      -279.9861
  51   2.0000     -10.287878      -279.9474
  52   2.0000     -10.287435      -279.9354
  53   2.0000     -10.286945      -279.9220
  54   2.0000     -10.286019      -279.8968
  55   2.0000     -10.284072      -279.8438
  56   2.0000     -10.282971      -279.8139
  57   2.0000     -10.281740      -279.7804
  58   2.0000     -10.280951      -279.7589
  59   2.0000     -10.280700      -279.7521
  60   2.0000     -10.280580      -279.7488
  61   2.0000     -10.280366      -279.7430
  62   2.0000     -10.280280      -279.7407
  63   2.0000     -10.280051      -279.7344
  64   2.0000     -10.279867      -279.7294
  65   2.0000     -10.279508      -279.7196
  66   2.0000     -10.279387      -279.7163
  67   2.0000     -10.279315      -279.7144
  68   2.0000     -10.278958      -279.7047
  69   2.0000     -10.278377      -279.6888
  70   2.0000     -10.277248      -279.6581
  71   2.0000     -10.275423      -279.6085
  72   2.0000     -10.269185      -279.4387
  73   2.0000     -10.267870      -279.4029
  74   2.0000     -10.267471      -279.3921
  75   2.0000     -10.265090      -279.3273
  76   2.0000      -8.065632      -219.4770
  77   2.0000      -8.065026      -219.4605
  78   2.0000      -8.063698      -219.4244
  79   2.0000      -8.061930      -219.3763
  80   2.0000      -6.034833      -164.2162
  81   2.0000      -6.034406      -164.2045
  82   2.0000      -6.033055      -164.1678
  83   2.0000      -6.031279      -164.1195
  84   2.0000      -6.030831      -164.1073
  85   2.0000      -6.030278      -164.0922
  86   2.0000      -6.028984      -164.0570
  87   2.0000      -6.027828      -164.0255
  88   2.0000      -6.027220      -164.0090
  89   2.0000      -6.027028      -164.0038
  90   2.0000      -6.025717      -163.9681
  91   2.0000      -6.023953      -163.9201
  92   2.0000      -1.122066       -30.5330
  93   2.0000      -1.118959       -30.4484
  94   2.0000      -1.093875       -29.7658
  95   2.0000      -1.021842       -27.8057
  96   2.0000      -1.020711       -27.7750
  97   2.0000      -1.015703       -27.6387
  98   2.0000      -1.009071       -27.4582
  99   2.0000      -1.007495       -27.4153
 100   2.0000      -0.989988       -26.9390
 101   2.0000      -0.989180       -26.9169
 102   2.0000      -0.988021       -26.8854
 103   2.0000      -0.984791       -26.7975
 104   2.0000      -0.982479       -26.7346
 105   2.0000      -0.980507       -26.6810
 106   2.0000      -0.965838       -26.2818
 107   2.0000      -0.963119       -26.2078
 108   2.0000      -0.960848       -26.1460
 109   2.0000      -0.935871       -25.4663
 110   2.0000      -0.927935       -25.2504
 111   2.0000      -0.915352       -24.9080
 112   2.0000      -0.914686       -24.8899
 113   2.0000      -0.894799       -24.3487
 114   2.0000      -0.892965       -24.2988
 115   2.0000      -0.888921       -24.1888
 116   2.0000      -0.876721       -23.8568
 117   2.0000      -0.874530       -23.7972
 118   2.0000      -0.872526       -23.7426
 119   2.0000      -0.872070       -23.7302
 120   2.0000      -0.869972       -23.6731
 121   2.0000      -0.853664       -23.2294
 122   2.0000      -0.842682       -22.9305
 123   2.0000      -0.836465       -22.7614
 124   2.0000      -0.835348       -22.7310
 125   2.0000      -0.828367       -22.5410
 126   2.0000      -0.826517       -22.4907
 127   2.0000      -0.821415       -22.3518
 128   2.0000      -0.820043       -22.3145
 129   2.0000      -0.809174       -22.0188
 130   2.0000      -0.800350       -21.7786
 131   2.0000      -0.781942       -21.2777
 132   2.0000      -0.779506       -21.2114
 133   2.0000      -0.778914       -21.1953
 134   2.0000      -0.766642       -20.8614
 135   2.0000      -0.761276       -20.7154
 136   2.0000      -0.754300       -20.5255
 137   2.0000      -0.752244       -20.4696
 138   2.0000      -0.748765       -20.3749
 139   2.0000      -0.732736       -19.9388
 140   2.0000      -0.713594       -19.4179
 141   2.0000      -0.706855       -19.2345
 142   2.0000      -0.706348       -19.2207
 143   2.0000      -0.699983       -19.0475
 144   2.0000      -0.695751       -18.9324
 145   2.0000      -0.695394       -18.9226
 146   2.0000      -0.690089       -18.7783
 147   2.0000      -0.685575       -18.6554
 148   2.0000      -0.670652       -18.2494
 149   2.0000      -0.667925       -18.1752
 150   2.0000      -0.661065       -17.9885
 151   2.0000      -0.657912       -17.9027
 152   2.0000      -0.644319       -17.5328
 153   2.0000      -0.643499       -17.5105
 154   2.0000      -0.642022       -17.4703
 155   2.0000      -0.634626       -17.2691
 156   2.0000      -0.632041       -17.1987
 157   2.0000      -0.628584       -17.1046
 158   2.0000      -0.625356       -17.0168
 159   2.0000      -0.623660       -16.9707
 160   2.0000      -0.620743       -16.8913
 161   2.0000      -0.619493       -16.8573
 162   2.0000      -0.601115       -16.3572
 163   2.0000      -0.600228       -16.3330
 164   2.0000      -0.598210       -16.2781
 165   2.0000      -0.597446       -16.2573
 166   2.0000      -0.587743       -15.9933
 167   2.0000      -0.581687       -15.8285
 168   2.0000      -0.575627       -15.6636
 169   2.0000      -0.568540       -15.4708
 170   2.0000      -0.563069       -15.3219
 171   2.0000      -0.558048       -15.1852
 172   2.0000      -0.553713       -15.0673
 173   2.0000      -0.546434       -14.8692
 174   2.0000      -0.545780       -14.8514
 175   2.0000      -0.544739       -14.8231
 176   2.0000      -0.541332       -14.7304
 177   2.0000      -0.540058       -14.6957
 178   2.0000      -0.538694       -14.6586
 179   2.0000      -0.537125       -14.6159
 180   2.0000      -0.536281       -14.5930
 181   2.0000      -0.533529       -14.5181
 182   2.0000      -0.532240       -14.4830
 183   2.0000      -0.529895       -14.4192
 184   2.0000      -0.528575       -14.3832
 185   2.0000      -0.526365       -14.3231
 186   2.0000      -0.523669       -14.2498
 187   2.0000      -0.521409       -14.1883
 188   2.0000      -0.515274       -14.0213
 189   2.0000      -0.514268       -13.9939
 190   2.0000      -0.513290       -13.9673
 191   2.0000      -0.511732       -13.9249
 192   2.0000      -0.508503       -13.8371
 193   2.0000      -0.507986       -13.8230
 194   2.0000      -0.505167       -13.7463
 195   2.0000      -0.504953       -13.7405
 196   2.0000      -0.496971       -13.5233
 197   2.0000      -0.495645       -13.4872
 198   2.0000      -0.493947       -13.4410
 199   2.0000      -0.492880       -13.4119
 200   2.0000      -0.491947       -13.3866
 201   2.0000      -0.486271       -13.2321
 202   2.0000      -0.485281       -13.2052
 203   2.0000      -0.484460       -13.1828
 204   2.0000      -0.481805       -13.1106
 205   2.0000      -0.481250       -13.0955
 206   2.0000      -0.479028       -13.0350
 207   2.0000      -0.477995       -13.0069
 208   2.0000      -0.475782       -12.9467
 209   2.0000      -0.474633       -12.9154
 210   2.0000      -0.472634       -12.8610
 211   2.0000      -0.469866       -12.7857
 212   2.0000      -0.466487       -12.6938
 213   2.0000      -0.464321       -12.6348
 214   2.0000      -0.458811       -12.4849
 215   2.0000      -0.457261       -12.4427
 216   2.0000      -0.454907       -12.3787
 217   2.0000      -0.454617       -12.3707
 218   2.0000      -0.445685       -12.1277
 219   2.0000      -0.441636       -12.0175
 220   2.0000      -0.440718       -11.9926
 221   2.0000      -0.439873       -11.9696
 222   2.0000      -0.439103       -11.9486
 223   2.0000      -0.437732       -11.9113
 224   2.0000      -0.436670       -11.8824
 225   2.0000      -0.435906       -11.8616
 226   2.0000      -0.433372       -11.7927
 227   2.0000      -0.431506       -11.7419
 228   2.0000      -0.431496       -11.7416
 229   2.0000      -0.429575       -11.6893
 230   2.0000      -0.427329       -11.6282
 231   2.0000      -0.426714       -11.6115
 232   2.0000      -0.426040       -11.5931
 233   2.0000      -0.424634       -11.5549
 234   2.0000      -0.423719       -11.5300
 235   2.0000      -0.422309       -11.4916
 236   2.0000      -0.418039       -11.3754
 237   2.0000      -0.415878       -11.3166
 238   2.0000      -0.410846       -11.1797
 239   2.0000      -0.409881       -11.1534
 240   2.0000      -0.409067       -11.1313
 241   2.0000      -0.408601       -11.1186
 242   2.0000      -0.406794       -11.0694
 243   2.0000      -0.405750       -11.0410
 244   2.0000      -0.404788       -11.0148
 245   2.0000      -0.402812       -10.9611
 246   2.0000      -0.395126       -10.7519
 247   2.0000      -0.393483       -10.7072
 248   2.0000      -0.390571       -10.6280
 249   2.0000      -0.379670       -10.3314
 250   2.0000      -0.373592       -10.1659
 251   2.0000      -0.367866       -10.0102
 252   2.0000      -0.361972        -9.8498
 253   2.0000      -0.347371        -9.4524
 254   2.0000      -0.345003        -9.3880
 255   2.0000      -0.333697        -9.0804
 256   2.0000      -0.332240        -9.0407
 257   2.0000      -0.330834        -9.0024
 258   2.0000      -0.330336        -8.9889
 259   2.0000      -0.327635        -8.9154
 260   2.0000      -0.325244        -8.8503
 261   2.0000      -0.324673        -8.8348
 262   2.0000      -0.320610        -8.7242
 263   2.0000      -0.310213        -8.4413
 264   2.0000      -0.307687        -8.3726
 265   2.0000      -0.297234        -8.0881
 266   2.0000      -0.287693        -7.8285
 267   2.0000      -0.284625        -7.7451
 268   2.0000      -0.257059        -6.9949
 269   2.0000      -0.234323        -6.3762
 270   0.0000      -0.097539        -2.6542
 271   0.0000      -0.085598        -2.3292
 272   0.0000      -0.065161        -1.7731
 273   0.0000      -0.049171        -1.3380
 274   0.0000      -0.046930        -1.2770

MULLIKEN ATOMIC CHARGES
-----------------------
   0 C :    0.256080
   1 C :   -0.333260
   2 C :   -0.177792
   3 N :    0.149389
   4 C :   -0.201424
   5 N :    0.163606
   6 C :    0.034407
   7 C :    0.013152
   8 C :   -0.085646
   9 C :    0.095399
  10 C :    0.095421
  11 C :   -0.082287
  12 C :   -0.021025
  13 C :    0.035492
  14 C :    0.034802
  15 C :   -0.018797
  16 C :    0.141335
  17 O :   -0.150102
  18 C :   -0.151331
  19 C :    0.048181
  20 C :   -0.106923
  21 C :    0.007787
  22 C :    0.022732
  23 C :   -0.064417
  24 S :    0.171666
  25 C :   -0.074851
  26 C :    0.032914
  27 C :   -0.111018
  28 C :    0.106894
  29 C :    0.104198
  30 C :   -0.050100
  31 C :   -0.116454
  32 S :    0.125244
  33 C :    0.161362
  34 C :   -0.064783
  35 C :   -0.060486
  36 C :    0.153936
  37 C :   -0.048228
  38 N :   -0.029404
  39 C :    0.034863
  40 C :    0.036582
  41 N :   -0.023885
  42 C :   -0.050410
  43 C :   -0.111807
  44 C :   -0.040735
  45 C :    0.036118
  46 C :   -0.082012
  47 S :    0.130071
  48 C :   -0.062109
  49 C :   -0.008449
  50 C :   -0.107126
  51 C :    0.102195
  52 C :    0.103879
  53 C :   -0.006014
  54 C :   -0.116505
  55 S :    0.169959
  56 C :    0.036881
  57 C :   -0.104305
  58 C :    0.311751
  59 C :   -0.360621
  60 C :   -0.183546
  61 N :    0.138845
  62 C :   -0.203156
  63 N :    0.152835
  64 C :    0.044859
  65 C :    0.003868
  66 C :    0.158762
  67 O :   -0.170778
  68 C :   -0.087559
  69 C :    0.098871
  70 C :    0.096842
  71 C :   -0.084602
  72 C :   -0.021022
  73 C :    0.035754
  74 C :    0.034183
  75 C :   -0.017884
  76 H :   -0.013054
  77 H :   -0.006382
  78 H :   -0.010860
  79 H :   -0.007213
  80 H :   -0.007771
  81 H :   -0.017765
  82 H :    0.025325
  83 H :   -0.012064
  84 H :    0.036486
  85 H :    0.011824
  86 H :    0.010393
  87 H :    0.021097
  88 H :    0.012464
  89 H :    0.011583
  90 H :   -0.010140
  91 H :   -0.001206
  92 H :   -0.002670
  93 H :    0.012494
  94 H :    0.013377
  95 H :   -0.011331
  96 H :    0.020931
  97 H :    0.011672
  98 H :    0.022375
  99 H :    0.021830
 100 H :    0.019451
 101 H :    0.012940
 102 H :    0.009576
 103 H :    0.010923
 104 H :   -0.018320
 105 H :   -0.009492
 106 H :   -0.010459
 107 H :   -0.007796
 108 H :   -0.007948
 109 H :   -0.020528
Sum of atomic charges:    0.0000000

LOEWDIN ATOMIC CHARGES
----------------------
   0 C :    0.061456
   1 C :   -0.149634
   2 C :   -0.019646
   3 N :   -0.059372
   4 C :   -0.031101
   5 N :   -0.057911
   6 C :   -0.021866
   7 C :   -0.055424
   8 C :    0.029328
   9 C :   -0.010000
  10 C :   -0.006335
  11 C :    0.013447
  12 C :   -0.007614
  13 C :   -0.015056
  14 C :   -0.015381
  15 C :   -0.010424
  16 C :    0.081631
  17 O :   -0.151784
  18 C :   -0.109806
  19 C :    0.051622
  20 C :   -0.182154
  21 C :   -0.005480
  22 C :   -0.038901
  23 C :   -0.162062
  24 S :    0.470611
  25 C :   -0.197948
  26 C :   -0.025916
  27 C :   -0.034542
  28 C :   -0.021690
  29 C :   -0.024699
  30 C :   -0.042812
  31 C :   -0.149723
  32 S :    0.440452
  33 C :   -0.034592
  34 C :   -0.017460
  35 C :   -0.014817
  36 C :   -0.038543
  37 C :    0.001636
  38 N :   -0.027550
  39 C :    0.006337
  40 C :    0.007023
  41 N :   -0.026432
  42 C :    0.000992
  43 C :   -0.145410
  44 C :   -0.043715
  45 C :   -0.022564
  46 C :   -0.203286
  47 S :    0.441204
  48 C :   -0.164189
  49 C :   -0.043789
  50 C :   -0.035318
  51 C :   -0.023169
  52 C :   -0.023398
  53 C :   -0.002341
  54 C :   -0.178591
  55 S :    0.458818
  56 C :    0.045033
  57 C :   -0.109940
  58 C :    0.077823
  59 C :   -0.151713
  60 C :   -0.017289
  61 N :   -0.063481
  62 C :   -0.026372
  63 N :   -0.059841
  64 C :   -0.025031
  65 C :   -0.052814
  66 C :    0.086754
  67 O :   -0.156364
  68 C :    0.026886
  69 C :   -0.009518
  70 C :   -0.007466
  71 C :    0.017072
  72 C :   -0.006169
  73 C :   -0.016335
  74 C :   -0.015313
  75 C :   -0.011526
  76 H :    0.038378
  77 H :    0.038065
  78 H :    0.033726
  79 H :    0.032067
  80 H :    0.031644
  81 H :    0.031207
  82 H :    0.050371
  83 H :    0.036461
  84 H :    0.036202
  85 H :    0.024516
  86 H :    0.023626
  87 H :    0.029763
  88 H :    0.024980
  89 H :    0.024096
  90 H :    0.028672
  91 H :    0.025106
  92 H :    0.025584
  93 H :    0.026828
  94 H :    0.026990
  95 H :    0.029161
  96 H :    0.030102
  97 H :    0.024090
  98 H :    0.028526
  99 H :    0.030349
 100 H :    0.027341
 101 H :    0.024687
 102 H :    0.035132
 103 H :    0.042664
 104 H :    0.036588
 105 H :    0.038480
 106 H :    0.034205
 107 H :    0.031945
 108 H :    0.031476
 109 H :    0.030465

  Mayer bond orders larger than 0.100000
B(  0-C ,  1-C ) :   1.6397 B(  0-C ,  6-C ) :   0.9999 B(  0-C , 18-C ) :   1.0512
B(  1-C ,  2-C ) :   1.1422 B(  1-C ,  4-C ) :   1.1559 B(  2-C ,  3-N ) :   2.9876
B(  4-C ,  5-N ) :   3.0177 B(  6-C ,  7-C ) :   1.2176 B(  6-C , 11-C ) :   1.4631
B(  7-C ,  8-C ) :   1.4788 B(  7-C , 16-C ) :   0.9183 B(  8-C ,  9-C ) :   1.1826
B(  8-C , 76-H ) :   1.0160 B(  9-C , 10-C ) :   1.2599 B(  9-C , 15-C ) :   1.2457
B( 10-C , 11-C ) :   1.2008 B( 10-C , 12-C ) :   1.2420 B( 11-C , 77-H ) :   0.9945
B( 12-C , 13-C ) :   1.4879 B( 12-C , 78-H ) :   0.9980 B( 13-C , 14-C ) :   1.2615
B( 13-C , 79-H ) :   0.9891 B( 14-C , 15-C ) :   1.4881 B( 14-C , 80-H ) :   0.9891
B( 15-C , 81-H ) :   0.9979 B( 16-C , 17-O ) :   2.2689 B( 16-C , 18-C ) :   0.9476
B( 18-C , 19-C ) :   1.6002 B( 19-C , 20-C ) :   1.1626 B( 19-C , 82-H ) :   0.9499
B( 20-C , 21-C ) :   1.3736 B( 20-C , 24-S ) :   1.0910 B( 21-C , 22-C ) :   1.3430
B( 21-C , 83-H ) :   1.0085 B( 22-C , 23-C ) :   1.4811 B( 22-C , 27-C ) :   0.9359
B( 23-C , 24-S ) :   1.1133 B( 23-C , 25-C ) :   1.1905 B( 25-C , 26-C ) :   1.5115
B( 25-C , 32-S ) :   1.0801 B( 26-C , 27-C ) :   0.9431 B( 26-C , 30-C ) :   1.2596
B( 27-C , 28-C ) :   1.0341 B( 27-C , 29-C ) :   1.0359 B( 28-C , 84-H ) :   0.9629
B( 28-C , 85-H ) :   0.9638 B( 28-C , 86-H ) :   0.9641 B( 29-C , 87-H ) :   0.9647
B( 29-C , 88-H ) :   0.9649 B( 29-C , 89-H ) :   0.9643 B( 30-C , 31-C ) :   1.4762
B( 30-C , 90-H ) :   0.9951 B( 31-C , 32-S ) :   1.1026 B( 31-C , 33-C ) :   1.1162
B( 33-C , 34-C ) :   1.3840 B( 33-C , 36-C ) :   0.1164 B( 33-C , 42-C ) :   1.2188
B( 34-C , 35-C ) :   1.3056 B( 34-C , 91-H ) :   0.9851 B( 35-C , 36-C ) :   1.3858
B( 35-C , 92-H ) :   0.9865 B( 36-C , 37-C ) :   1.2226 B( 36-C , 43-C ) :   1.1031
B( 37-C , 38-N ) :   1.4758 B( 37-C , 42-C ) :   1.2233 B( 38-N , 39-C ) :   1.6345
B( 39-C , 40-C ) :   1.2403 B( 39-C , 93-H ) :   0.9745 B( 40-C , 41-N ) :   1.6324
B( 40-C , 94-H ) :   0.9743 B( 41-N , 42-C ) :   1.4795 B( 43-C , 44-C ) :   1.4761
B( 43-C , 47-S ) :   1.1088 B( 44-C , 45-C ) :   1.2701 B( 44-C , 95-H ) :   0.9956
B( 45-C , 46-C ) :   1.5082 B( 45-C , 50-C ) :   0.9439 B( 46-C , 47-S ) :   1.0765
B( 46-C , 48-C ) :   1.1848 B( 48-C , 49-C ) :   1.4512 B( 48-C , 55-S ) :   1.1325
B( 49-C , 50-C ) :   0.9349 B( 49-C , 53-C ) :   1.3550 B( 50-C , 51-C ) :   1.0356
B( 50-C , 52-C ) :   1.0338 B( 51-C , 96-H ) :   0.9642 B( 51-C , 97-H ) :   0.9645
B( 51-C , 98-H ) :   0.9651 B( 52-C , 99-H ) :   0.9638 B( 52-C ,100-H ) :   0.9650
B( 52-C ,101-H ) :   0.9647 B( 53-C , 54-C ) :   1.3670 B( 53-C ,102-H ) :   0.9810
B( 54-C , 55-S ) :   1.0680 B( 54-C , 56-C ) :   1.2624 B( 56-C , 57-C ) :   1.5359
B( 56-C ,103-H ) :   0.9166 B( 57-C , 58-C ) :   1.0936 B( 57-C , 66-C ) :   0.9539
B( 58-C , 59-C ) :   1.6075 B( 58-C , 64-C ) :   0.9815 B( 59-C , 60-C ) :   1.1510
B( 59-C , 62-C ) :   1.1408 B( 60-C , 61-N ) :   2.9625 B( 62-C , 63-N ) :   2.9884
B( 64-C , 65-C ) :   1.2189 B( 64-C , 71-C ) :   1.4527 B( 65-C , 66-C ) :   0.9514
B( 65-C , 68-C ) :   1.4747 B( 66-C , 67-O ) :   2.1513 B( 68-C , 69-C ) :   1.1717
B( 68-C ,104-H ) :   1.0165 B( 69-C , 70-C ) :   1.2623 B( 69-C , 75-C ) :   1.2464
B( 70-C , 71-C ) :   1.2013 B( 70-C , 72-C ) :   1.2392 B( 71-C ,105-H ) :   0.9907
B( 72-C , 73-C ) :   1.4879 B( 72-C ,106-H ) :   0.9976 B( 73-C , 74-C ) :   1.2623
B( 73-C ,107-H ) :   0.9879 B( 74-C , 75-C ) :   1.4854 B( 74-C ,108-H ) :   0.9893
B( 75-C ,109-H ) :   0.9977

-----------------------------------------------------------------------------
         ABSORPTION SPECTRUM VIA TRANSITION ELECTRIC DIPOLE MOMENTS
-----------------------------------------------------------------------------
State   Energy  Wavelength   fosc         T2         TX        TY        TZ
        (cm-1)    (nm)                  (au**2)     (au)      (au)      (au)
-----------------------------------------------------------------------------
   0   15179.8    658.8   2.263445133  49.08844   0.78095  -6.62701   2.13572
   1   18578.9    538.2   0.805404905  14.27153   1.21999  -2.81321  -2.20659
   2   22090.5    452.7   0.037011534   0.55158   0.30003   0.57298   0.36505
   3   23206.4    430.9   0.013225568   0.18762  -0.25599   0.08905   0.33787
   4   26106.1    383.1   0.021533918   0.27155  -0.23368  -0.41129  -0.21860
   5   26338.4    379.7   0.022835125   0.28542   0.19254  -0.49831  -0.00633
   6   26469.0    377.8   0.176051539   2.18966  -0.94822   0.87361  -0.72619
   7   27449.8    364.3   0.088104307   1.05665  -0.22698  -0.21722   0.97875
   8   27828.7    359.3   0.257196772   3.04262   0.79578  -1.21988   0.95981
   9   28667.2    348.8   0.147106046   1.68935  -0.65798   0.93480  -0.61851
  10   29055.0    344.2   0.010233602   0.11595   0.19756  -0.11736   0.25130
  11   29428.4    339.8   0.006348294   0.07102   0.21844   0.13045  -0.07928
  12   29731.3    336.3   0.041541681   0.45999  -0.44985   0.49042  -0.13083
  13   29882.0    334.6   0.009149101   0.10080   0.22395   0.17926   0.13606
  14   30068.7    332.6   0.021737606   0.23800  -0.03650  -0.04887  -0.48402
  15   30812.9    324.5   0.131141148   1.40114   0.31024  -1.06467   0.41397
  16   31599.4    316.5   0.188005627   1.95870   0.31158  -1.35551   0.15563
  17   31769.4    314.8   0.009465196   0.09808   0.07183  -0.04299   0.30179
  18   32779.0    305.1   0.026804897   0.26921   0.02537  -0.00404   0.51822
  19   32998.9    303.0   0.085854450   0.85652  -0.19754   0.30012   0.85290
  20   33715.7    296.6   0.218889629   2.13732   0.96395  -0.27311   1.06467
  21   33918.9    294.8   0.918342620   8.91329   1.91841  -1.22691   1.93073
  22   34524.1    289.7   0.210772789   2.00987   1.09113  -0.76730  -0.48015
  23   34615.6    288.9   0.077906795   0.74093   0.33262   0.07690   0.79018
  24   34737.3    287.9   0.103363638   0.97960   0.08567  -0.14292   0.97562
  25   34920.0    286.4   0.120850519   1.13933   0.21644  -0.09897   1.04052
  26   35285.2    283.4   0.009224963   0.08607  -0.27179   0.10621   0.03031
  27   35453.9    282.1   0.011249709   0.10446   0.21515  -0.23277  -0.06315
  28   35874.5    278.7   0.020704868   0.19000   0.14390   0.10834   0.39694
  29   35947.1    278.2   0.013844815   0.12679   0.09612  -0.31604  -0.13295
  30   36070.8    277.2   0.037259311   0.34006   0.21778  -0.25462   0.47728
  31   36417.2    274.6   0.016600529   0.15007   0.20648  -0.16187   0.28501
  32   37056.9    269.9   0.017754768   0.15773  -0.31693   0.05962   0.23180
  33   37573.3    266.1   0.049352939   0.43242  -0.34715   0.39840  -0.39139
  34   38098.4    262.5   0.015314991   0.13234   0.06080  -0.35325   0.06211
  35   38572.2    259.3   0.010869288   0.09277   0.09691   0.03151   0.28703
  36   38659.0    258.7   0.064037775   0.54533  -0.62939   0.26429  -0.28169
  37   38886.8    257.2   0.401284758   3.39724  -1.06718  -0.11922  -1.49805
  38   39124.8    255.6   0.024367117   0.20504   0.00376   0.44995   0.05066
  39   39543.4    252.9   0.023771931   0.19791   0.31812   0.06389  -0.30435
  40   39659.3    252.1   0.059967371   0.49779   0.23784  -0.39539   0.53375
  41   40080.0    249.5   0.176667938   1.45113   0.90464  -0.11049   0.78775
  42   40301.7    248.1   0.268012078   2.18931   0.09151   0.61159   1.34420

FINAL SINGLE POINT ENERGY     -4526.716389079636

DIPOLE MOMENT
-------------
                                X             Y             Z
Electronic contribution:     10.92775       4.37367      28.76437
Nuclear contribution   :    -11.22172      -5.72433     -31.16192
                        -----------------------------------------
Total Dipole Moment    :     -0.29397      -1.35066      -2.39755
                        -----------------------------------------
Magnitude (a.u.)       :      2.76748
Magnitude (Debye)      :      7.03438

Rotational constants in cm-1:     0.001559     0.000172     0.000160
Rotational constants in MHz :    46.731796     5.143651     4.787995

                             ****ORCA TERMINATED NORMALLY****
TOTAL RUN TIME: 0 days 0 hours 12 minutes 6 seconds 396 msec
