                         Program Version 4.2.0 -  RELEASE  -
|  1> # ORCA input file
|  2> # SCF done       -200.205321264396          0.000785851652
|  3> ! CAM-B3LYP def2-SVP def2/J RIJCOSX Grid4 TightSCF
|  4> %maxcore 5000
|  5> %tddft
|  6>     Mode sTDDFT
|  7>     Ethresh 5.0
|  8>     maxcore 5000
|  9> end
| 10>
| 11> %pal
| 12>   nprocs 6
| 13>   end
| 14> * xyz 0 1
| 15>    C        3.18073         0.73991         0.11960
| 16>    C        2.48519         0.04421        -0.83565
| 17>    C        3.04803        -0.97489        -1.63313
| 18>    N        3.43917        -1.80939        -2.31788
| 19>    C        1.11654         0.19231        -1.14584
| 20>    N        0.01029         0.22531        -1.45402
| 21>    C        4.56773         0.48741         0.49105
| 22>    C        4.87954         1.28258         1.62880
| 23>    C        6.11021         1.25069         2.21856
| 24>    C        7.10957         0.40934         1.68073
| 25>    C        6.80928        -0.38278         0.53526
| 26>    C        5.52333        -0.33154        -0.05010
| 27>    C        7.81503        -1.21467         0.00255
| 28>    C        9.05757        -1.26448         0.57347
| 29>    C        9.35173        -0.48506         1.70217
| 30>    C        8.39849         0.33391         2.24403
| 31>    C        3.70565         2.08763         2.00741
| 32>    O        3.63906         2.83574         2.96103
| 33>    C        2.66958         1.79228         0.98591
| 34>    C        1.48006         2.43198         0.76825
| 35>    C        0.82042         3.45278         1.48173
| 36>    C        1.06973         4.08605         2.68754
| 37>    C        0.11301         5.04150         3.00416
| 38>   Cl        0.18401         5.96851         4.44013
| 39>    C       -0.90975         5.18532         2.06041
| 40>    S       -0.64568         4.07542         0.75416
| 41>    C       -2.00770         6.07125         2.09324
| 42>    C       -3.00816         6.21895         1.13381
| 43>   Cl       -3.07905         5.29709        -0.30977
| 44>    C       -3.95399         7.18811         1.44379
| 45>    C       -3.70797         7.80993         2.65500
| 46>    S       -2.28449         7.18180         3.42048
| 47>    C       -4.46597         8.84395         3.26184
| 48>    C       -4.07881         9.36486         4.51977
| 49>    C       -4.78154        10.41817         5.19296
| 50>    N       -4.33157        10.84131         6.39141
| 51>    C       -3.26958        10.28413         6.90308
| 52>    C       -2.57532         9.25265         6.23895
| 53>    N       -2.98572         8.81960         5.08137
| 54>    C       -5.92904        11.01563         4.60943
| 55>    C       -6.31737        10.49182         3.35816
| 56>    C       -5.61365         9.42578         2.68712
| 57>    N       -6.18727         9.12013         1.52045
| 58>    S       -7.46337        10.06249         1.29247
| 59>    N       -7.36703        10.91139         2.64952
| 60>    C       -6.66862        12.08263         5.19035
| 61>    C       -6.46775        12.71853         6.40259
| 62>    C       -7.37873        13.74155         6.63543
| 63>   Cl       -7.35180        14.69035         8.06181
| 64>    C       -8.30689        13.92836         5.61131
| 65>    S       -8.02011        12.77097         4.33906
| 66>    C       -9.33476        14.89415         5.53866
| 67>    C      -10.25928        15.09452         4.50854
| 68>   Cl      -10.30462        14.11705         3.10371
| 69>    C      -11.13965        16.14916         4.71323
| 70>    C      -10.92626        16.80465         5.91368
| 71>    S       -9.60402        16.06231         6.79040
| 72>    C      -11.55284        17.89746         6.54618
| 73>    C      -12.52907        18.75638         6.12139
| 74>    C      -13.05379        19.83910         6.94137
| 75>    C      -12.88036        20.01469         8.29015
| 76>    C      -13.43558        21.08572         9.02238
| 77>    N      -13.84871        21.93232         9.67885
| 78>    C      -12.17481        19.15769         9.16144
| 79>    N      -11.64082        18.51551         9.95059
| 80>    C      -13.87295        20.69155         6.08817
| 81>    C      -13.94200        20.10008         4.79616
| 82>    C      -13.15008        18.85869         4.77660
| 83>    O      -13.04342        18.10333         3.83247
| 84>    C      -14.65363        20.66606         3.77793
| 85>    C      -15.33834        21.88000         4.00858
| 86>    C      -15.26691        22.48458         5.29668
| 87>    C      -14.52477        21.87157         6.33226
| 88>    C      -15.94941        23.69860         5.51542
| 89>    C      -16.66987        24.28744         4.51207
| 90>    C      -16.74038        23.69059         3.24443
| 91>    C      -16.08879        22.51254         2.99805
| 92>    H        6.31881         1.86181         3.08421
| 93>    H        5.33079        -0.94041        -0.91884
| 94>    H        7.58311        -1.81394        -0.86568
| 95>    H        9.82096        -1.90539         0.15841
| 96>    H       10.33749        -0.53658         2.13988
| 97>    H        8.61935         0.93659         3.11290
| 98>    H        0.93637         2.13258        -0.12081
| 99>    H        1.91965         3.86120         3.30576
|100>    H       -4.79115         7.43902         0.81977
|101>    H       -2.94619        10.65376         7.86644
|102>    H       -1.69312         8.78812         6.65496
|103>    H       -5.68362        12.44023         7.08025
|104>    H      -11.90353        16.43617         4.01384
|105>    H      -11.15495        18.08413         7.53733
|106>    H      -14.69182        20.19344         2.80762
|107>    H      -14.48796        22.35821         7.29364
|108>    H      -15.89331        24.15335         6.49357
|109>    H      -17.18981        25.21690         4.68981
|110>    H      -17.31309        24.16918         2.46411
|111>    H      -16.13909        22.04850         2.02385
|112> *
|113>
|114>                          ****END OF INPUT****

CARTESIAN COORDINATES (ANGSTROEM)
---------------------------------
  C      3.180730    0.739910    0.119600
  C      2.485190    0.044210   -0.835650
  C      3.048030   -0.974890   -1.633130
  N      3.439170   -1.809390   -2.317880
  C      1.116540    0.192310   -1.145840
  N      0.010290    0.225310   -1.454020
  C      4.567730    0.487410    0.491050
  C      4.879540    1.282580    1.628800
  C      6.110210    1.250690    2.218560
  C      7.109570    0.409340    1.680730
  C      6.809280   -0.382780    0.535260
  C      5.523330   -0.331540   -0.050100
  C      7.815030   -1.214670    0.002550
  C      9.057570   -1.264480    0.573470
  C      9.351730   -0.485060    1.702170
  C      8.398490    0.333910    2.244030
  C      3.705650    2.087630    2.007410
  O      3.639060    2.835740    2.961030
  C      2.669580    1.792280    0.985910
  C      1.480060    2.431980    0.768250
  C      0.820420    3.452780    1.481730
  C      1.069730    4.086050    2.687540
  C      0.113010    5.041500    3.004160
  Cl     0.184010    5.968510    4.440130
  C     -0.909750    5.185320    2.060410
  S     -0.645680    4.075420    0.754160
  C     -2.007700    6.071250    2.093240
  C     -3.008160    6.218950    1.133810
  Cl    -3.079050    5.297090   -0.309770
  C     -3.953990    7.188110    1.443790
  C     -3.707970    7.809930    2.655000
  S     -2.284490    7.181800    3.420480
  C     -4.465970    8.843950    3.261840
  C     -4.078810    9.364860    4.519770
  C     -4.781540   10.418170    5.192960
  N     -4.331570   10.841310    6.391410
  C     -3.269580   10.284130    6.903080
  C     -2.575320    9.252650    6.238950
  N     -2.985720    8.819600    5.081370
  C     -5.929040   11.015630    4.609430
  C     -6.317370   10.491820    3.358160
  C     -5.613650    9.425780    2.687120
  N     -6.187270    9.120130    1.520450
  S     -7.463370   10.062490    1.292470
  N     -7.367030   10.911390    2.649520
  C     -6.668620   12.082630    5.190350
  C     -6.467750   12.718530    6.402590
  C     -7.378730   13.741550    6.635430
  Cl    -7.351800   14.690350    8.061810
  C     -8.306890   13.928360    5.611310
  S     -8.020110   12.770970    4.339060
  C     -9.334760   14.894150    5.538660
  C    -10.259280   15.094520    4.508540
  Cl   -10.304620   14.117050    3.103710
  C    -11.139650   16.149160    4.713230
  C    -10.926260   16.804650    5.913680
  S     -9.604020   16.062310    6.790400
  C    -11.552840   17.897460    6.546180
  C    -12.529070   18.756380    6.121390
  C    -13.053790   19.839100    6.941370
  C    -12.880360   20.014690    8.290150
  C    -13.435580   21.085720    9.022380
  N    -13.848710   21.932320    9.678850
  C    -12.174810   19.157690    9.161440
  N    -11.640820   18.515510    9.950590
  C    -13.872950   20.691550    6.088170
  C    -13.942000   20.100080    4.796160
  C    -13.150080   18.858690    4.776600
  O    -13.043420   18.103330    3.832470
  C    -14.653630   20.666060    3.777930
  C    -15.338340   21.880000    4.008580
  C    -15.266910   22.484580    5.296680
  C    -14.524770   21.871570    6.332260
  C    -15.949410   23.698600    5.515420
  C    -16.669870   24.287440    4.512070
  C    -16.740380   23.690590    3.244430
  C    -16.088790   22.512540    2.998050
  H      6.318810    1.861810    3.084210
  H      5.330790   -0.940410   -0.918840
  H      7.583110   -1.813940   -0.865680
  H      9.820960   -1.905390    0.158410
  H     10.337490   -0.536580    2.139880
  H      8.619350    0.936590    3.112900
  H      0.936370    2.132580   -0.120810
  H      1.919650    3.861200    3.305760
  H     -4.791150    7.439020    0.819770
  H     -2.946190   10.653760    7.866440
  H     -1.693120    8.788120    6.654960
  H     -5.683620   12.440230    7.080250
  H    -11.903530   16.436170    4.013840
  H    -11.154950   18.084130    7.537330
  H    -14.691820   20.193440    2.807620
  H    -14.487960   22.358210    7.293640
  H    -15.893310   24.153350    6.493570
  H    -17.189810   25.216900    4.689810
  H    -17.313090   24.169180    2.464110
  H    -16.139090   22.048500    2.023850

 Total Charge           Charge          ....    0
 Multiplicity           Mult            ....    1
 Number of Electrons    NEL             ....  588
 Basis Dimension        Dim             .... 1214

ORBITAL ENERGIES
----------------

  NO   OCC          E(Eh)            E(eV)
   0   2.0000    -101.600447     -2764.6887
   1   2.0000    -101.599661     -2764.6673
   2   2.0000    -101.599158     -2764.6536
   3   2.0000    -101.598849     -2764.6452
   4   2.0000     -89.051079     -2423.2031
   5   2.0000     -88.971804     -2421.0459
   6   2.0000     -88.970500     -2421.0104
   7   2.0000     -88.965281     -2420.8684
   8   2.0000     -88.963559     -2420.8215
   9   2.0000     -19.215982      -522.8935
  10   2.0000     -19.215550      -522.8817
  11   2.0000     -14.459074      -393.4514
  12   2.0000     -14.458508      -393.4360
  13   2.0000     -14.451338      -393.2409
  14   2.0000     -14.447749      -393.1432
  15   2.0000     -14.412614      -392.1872
  16   2.0000     -14.411900      -392.1677
  17   2.0000     -14.410097      -392.1187
  18   2.0000     -14.409609      -392.1054
  19   2.0000     -10.366985      -282.1000
  20   2.0000     -10.366552      -282.0882
  21   2.0000     -10.346686      -281.5476
  22   2.0000     -10.346010      -281.5292
  23   2.0000     -10.344866      -281.4981
  24   2.0000     -10.344638      -281.4919
  25   2.0000     -10.343599      -281.4636
  26   2.0000     -10.341804      -281.4148
  27   2.0000     -10.337454      -281.2964
  28   2.0000     -10.337277      -281.2916
  29   2.0000     -10.336889      -281.2811
  30   2.0000     -10.336853      -281.2801
  31   2.0000     -10.336445      -281.2690
  32   2.0000     -10.336289      -281.2647
  33   2.0000     -10.335777      -281.2508
  34   2.0000     -10.335297      -281.2377
  35   2.0000     -10.334384      -281.2129
  36   2.0000     -10.333755      -281.1958
  37   2.0000     -10.322109      -280.8789
  38   2.0000     -10.321452      -280.8610
  39   2.0000     -10.320441      -280.8335
  40   2.0000     -10.320401      -280.8324
  41   2.0000     -10.319810      -280.8163
  42   2.0000     -10.317350      -280.7494
  43   2.0000     -10.315566      -280.7008
  44   2.0000     -10.315343      -280.6947
  45   2.0000     -10.314878      -280.6821
  46   2.0000     -10.314869      -280.6818
  47   2.0000     -10.314375      -280.6684
  48   2.0000     -10.313960      -280.6571
  49   2.0000     -10.313475      -280.6439
  50   2.0000     -10.312957      -280.6298
  51   2.0000     -10.299399      -280.2609
  52   2.0000     -10.298996      -280.2499
  53   2.0000     -10.297839      -280.2184
  54   2.0000     -10.297060      -280.1972
  55   2.0000     -10.295160      -280.1456
  56   2.0000     -10.294872      -280.1377
  57   2.0000     -10.294827      -280.1365
  58   2.0000     -10.294525      -280.1283
  59   2.0000     -10.293760      -280.1074
  60   2.0000     -10.293524      -280.1010
  61   2.0000     -10.293494      -280.1002
  62   2.0000     -10.293170      -280.0914
  63   2.0000     -10.290141      -280.0090
  64   2.0000     -10.289500      -279.9915
  65   2.0000     -10.285437      -279.8810
  66   2.0000     -10.285218      -279.8750
  67   2.0000     -10.285155      -279.8733
  68   2.0000     -10.284590      -279.8579
  69   2.0000     -10.284306      -279.8502
  70   2.0000     -10.283995      -279.8417
  71   2.0000     -10.283779      -279.8359
  72   2.0000     -10.283678      -279.8331
  73   2.0000     -10.283524      -279.8289
  74   2.0000     -10.283420      -279.8261
  75   2.0000     -10.283142      -279.8185
  76   2.0000     -10.282902      -279.8120
  77   2.0000      -9.555201      -260.0102
  78   2.0000      -9.554459      -259.9901
  79   2.0000      -9.553982      -259.9771
  80   2.0000      -9.553580      -259.9661
  81   2.0000      -8.142125      -221.5585
  82   2.0000      -8.066727      -219.5068
  83   2.0000      -8.065431      -219.4715
  84   2.0000      -8.058941      -219.2949
  85   2.0000      -8.056195      -219.2202
  86   2.0000      -7.325226      -199.3295
  87   2.0000      -7.324584      -199.3121
  88   2.0000      -7.324116      -199.2993
  89   2.0000      -7.323596      -199.2852
  90   2.0000      -7.315342      -199.0606
  91   2.0000      -7.315221      -199.0573
  92   2.0000      -7.314559      -199.0393
  93   2.0000      -7.314403      -199.0350
  94   2.0000      -7.314098      -199.0267
  95   2.0000      -7.313908      -199.0216
  96   2.0000      -7.313726      -199.0166
  97   2.0000      -7.313614      -199.0136
  98   2.0000      -6.113192      -166.3484
  99   2.0000      -6.105372      -166.1356
 100   2.0000      -6.105001      -166.1255
 101   2.0000      -6.036080      -164.2501
 102   2.0000      -6.034774      -164.2145
 103   2.0000      -6.031824      -164.1343
 104   2.0000      -6.030501      -164.0983
 105   2.0000      -6.028669      -164.0484
 106   2.0000      -6.028591      -164.0463
 107   2.0000      -6.027413      -164.0143
 108   2.0000      -6.026061      -163.9774
 109   2.0000      -6.023928      -163.9194
 110   2.0000      -6.021080      -163.8419
 111   2.0000      -6.020648      -163.8302
 112   2.0000      -6.017905      -163.7555
 113   2.0000      -1.147602       -31.2278
 114   2.0000      -1.130667       -30.7670
 115   2.0000      -1.130171       -30.7535
 116   2.0000      -1.107698       -30.1420
 117   2.0000      -1.035187       -28.1689
 118   2.0000      -1.027751       -27.9665
 119   2.0000      -1.024730       -27.8843
 120   2.0000      -1.014839       -27.6152
 121   2.0000      -1.014243       -27.5990
 122   2.0000      -1.007408       -27.4130
 123   2.0000      -1.003672       -27.3113
 124   2.0000      -0.997568       -27.1452
 125   2.0000      -0.995521       -27.0895
 126   2.0000      -0.995077       -27.0774
 127   2.0000      -0.989682       -26.9306
 128   2.0000      -0.989173       -26.9168
 129   2.0000      -0.979404       -26.6509
 130   2.0000      -0.969724       -26.3875
 131   2.0000      -0.969314       -26.3764
 132   2.0000      -0.960929       -26.1482
 133   2.0000      -0.958974       -26.0950
 134   2.0000      -0.951507       -25.8918
 135   2.0000      -0.945126       -25.7182
 136   2.0000      -0.921961       -25.0878
 137   2.0000      -0.921493       -25.0751
 138   2.0000      -0.905263       -24.6335
 139   2.0000      -0.901679       -24.5359
 140   2.0000      -0.893916       -24.3247
 141   2.0000      -0.890280       -24.2257
 142   2.0000      -0.883321       -24.0364
 143   2.0000      -0.878878       -23.9155
 144   2.0000      -0.877624       -23.8814
 145   2.0000      -0.875211       -23.8157
 146   2.0000      -0.859975       -23.4011
 147   2.0000      -0.851522       -23.1711
 148   2.0000      -0.829096       -22.5608
 149   2.0000      -0.826659       -22.4945
 150   2.0000      -0.825580       -22.4652
 151   2.0000      -0.825308       -22.4578
 152   2.0000      -0.825105       -22.4523
 153   2.0000      -0.821635       -22.3578
 154   2.0000      -0.819460       -22.2986
 155   2.0000      -0.805116       -21.9083
 156   2.0000      -0.799523       -21.7561
 157   2.0000      -0.778460       -21.1830
 158   2.0000      -0.771242       -20.9866
 159   2.0000      -0.760640       -20.6981
 160   2.0000      -0.759196       -20.6588
 161   2.0000      -0.758716       -20.6457
 162   2.0000      -0.738484       -20.0952
 163   2.0000      -0.721427       -19.6310
 164   2.0000      -0.720343       -19.6015
 165   2.0000      -0.714599       -19.4452
 166   2.0000      -0.702239       -19.1089
 167   2.0000      -0.701391       -19.0858
 168   2.0000      -0.696349       -18.9486
 169   2.0000      -0.695041       -18.9130
 170   2.0000      -0.694461       -18.8973
 171   2.0000      -0.680226       -18.5099
 172   2.0000      -0.678722       -18.4690
 173   2.0000      -0.671166       -18.2633
 174   2.0000      -0.666356       -18.1325
 175   2.0000      -0.660735       -17.9795
 176   2.0000      -0.658772       -17.9261
 177   2.0000      -0.653885       -17.7931
 178   2.0000      -0.646489       -17.5919
 179   2.0000      -0.644862       -17.5476
 180   2.0000      -0.630688       -17.1619
 181   2.0000      -0.627481       -17.0746
 182   2.0000      -0.626400       -17.0452
 183   2.0000      -0.621214       -16.9041
 184   2.0000      -0.619009       -16.8441
 185   2.0000      -0.604133       -16.4393
 186   2.0000      -0.603816       -16.4307
 187   2.0000      -0.599997       -16.3268
 188   2.0000      -0.599695       -16.3185
 189   2.0000      -0.595071       -16.1927
 190   2.0000      -0.594471       -16.1764
 191   2.0000      -0.581123       -15.8132
 192   2.0000      -0.576815       -15.6959
 193   2.0000      -0.576285       -15.6815
 194   2.0000      -0.573044       -15.5933
 195   2.0000      -0.568186       -15.4611
 196   2.0000      -0.566356       -15.4113
 197   2.0000      -0.561760       -15.2863
 198   2.0000      -0.545721       -14.8498
 199   2.0000      -0.545414       -14.8415
 200   2.0000      -0.545028       -14.8310
 201   2.0000      -0.544593       -14.8191
 202   2.0000      -0.544344       -14.8123
 203   2.0000      -0.538144       -14.6436
 204   2.0000      -0.537724       -14.6322
 205   2.0000      -0.534762       -14.5516
 206   2.0000      -0.534201       -14.5364
 207   2.0000      -0.531939       -14.4748
 208   2.0000      -0.529347       -14.4043
 209   2.0000      -0.524804       -14.2806
 210   2.0000      -0.523223       -14.2376
 211   2.0000      -0.522478       -14.2173
 212   2.0000      -0.521898       -14.2016
 213   2.0000      -0.519376       -14.1329
 214   2.0000      -0.517846       -14.0913
 215   2.0000      -0.513044       -13.9606
 216   2.0000      -0.512010       -13.9325
 217   2.0000      -0.509642       -13.8681
 218   2.0000      -0.508943       -13.8490
 219   2.0000      -0.508105       -13.8263
 220   2.0000      -0.505379       -13.7520
 221   2.0000      -0.501012       -13.6332
 222   2.0000      -0.497179       -13.5289
 223   2.0000      -0.495052       -13.4711
 224   2.0000      -0.493348       -13.4247
 225   2.0000      -0.492581       -13.4038
 226   2.0000      -0.491965       -13.3870
 227   2.0000      -0.489996       -13.3335
 228   2.0000      -0.489425       -13.3179
 229   2.0000      -0.484299       -13.1784
 230   2.0000      -0.483582       -13.1589
 231   2.0000      -0.483180       -13.1480
 232   2.0000      -0.482045       -13.1171
 233   2.0000      -0.464263       -12.6332
 234   2.0000      -0.463879       -12.6228
 235   2.0000      -0.463052       -12.6003
 236   2.0000      -0.462241       -12.5782
 237   2.0000      -0.461520       -12.5586
 238   2.0000      -0.458863       -12.4863
 239   2.0000      -0.457669       -12.4538
 240   2.0000      -0.451033       -12.2732
 241   2.0000      -0.447060       -12.1651
 242   2.0000      -0.445032       -12.1099
 243   2.0000      -0.444473       -12.0947
 244   2.0000      -0.444032       -12.0827
 245   2.0000      -0.440638       -11.9904
 246   2.0000      -0.440134       -11.9767
 247   2.0000      -0.437928       -11.9166
 248   2.0000      -0.437258       -11.8984
 249   2.0000      -0.437203       -11.8969
 250   2.0000      -0.436739       -11.8843
 251   2.0000      -0.430840       -11.7238
 252   2.0000      -0.430409       -11.7120
 253   2.0000      -0.430241       -11.7074
 254   2.0000      -0.429684       -11.6923
 255   2.0000      -0.428887       -11.6706
 256   2.0000      -0.422261       -11.4903
 257   2.0000      -0.421781       -11.4772
 258   2.0000      -0.417613       -11.3638
 259   2.0000      -0.415655       -11.3105
 260   2.0000      -0.414668       -11.2837
 261   2.0000      -0.412447       -11.2232
 262   2.0000      -0.411528       -11.1982
 263   2.0000      -0.404370       -11.0035
 264   2.0000      -0.404202       -10.9989
 265   2.0000      -0.401425       -10.9233
 266   2.0000      -0.401023       -10.9124
 267   2.0000      -0.399884       -10.8814
 268   2.0000      -0.393043       -10.6953
 269   2.0000      -0.382215       -10.4006
 270   2.0000      -0.381987       -10.3944
 271   2.0000      -0.379543       -10.3279
 272   2.0000      -0.378577       -10.3016
 273   2.0000      -0.371719       -10.1150
 274   2.0000      -0.368832       -10.0364
 275   2.0000      -0.368423       -10.0253
 276   2.0000      -0.355630        -9.6772
 277   2.0000      -0.354821        -9.6552
 278   2.0000      -0.346635        -9.4324
 279   2.0000      -0.337670        -9.1885
 280   2.0000      -0.336641        -9.1605
 281   2.0000      -0.331176        -9.0118
 282   2.0000      -0.328962        -8.9515
 283   2.0000      -0.327046        -8.8994
 284   2.0000      -0.325759        -8.8643
 285   2.0000      -0.317140        -8.6298
 286   2.0000      -0.316032        -8.5997
 287   2.0000      -0.314605        -8.5608
 288   2.0000      -0.313274        -8.5246
 289   2.0000      -0.301117        -8.1938
 290   2.0000      -0.292099        -7.9484
 291   2.0000      -0.288873        -7.8606
 292   2.0000      -0.268319        -7.3013
 293   2.0000      -0.238659        -6.4942
 294   0.0000      -0.125800        -3.4232
 295   0.0000      -0.092025        -2.5041
 296   0.0000      -0.088343        -2.4039
 297   0.0000      -0.055999        -1.5238
 298   0.0000      -0.055499        -1.5102

MULLIKEN ATOMIC CHARGES
-----------------------
   0 C :    0.313970
   1 C :   -0.352924
   2 C :   -0.183502
   3 N :    0.142673
   4 C :   -0.197439
   5 N :    0.155687
   6 C :    0.044431
   7 C :    0.001510
   8 C :   -0.085566
   9 C :    0.100002
  10 C :    0.097068
  11 C :   -0.083146
  12 C :   -0.019457
  13 C :    0.035957
  14 C :    0.037316
  15 C :   -0.017795
  16 C :    0.160953
  17 O :   -0.158153
  18 C :   -0.094474
  19 C :    0.055793
  20 C :   -0.098636
  21 C :    0.027686
  22 C :    0.052913
  23 Cl:   -0.062534
  24 C :   -0.082598
  25 S :    0.168051
  26 C :   -0.063316
  27 C :    0.076826
  28 Cl:   -0.057909
  29 C :   -0.003412
  30 C :   -0.147682
  31 S :    0.172698
  32 C :    0.180701
  33 C :   -0.041753
  34 C :   -0.069962
  35 N :   -0.020462
  36 C :    0.034359
  37 C :    0.055117
  38 N :   -0.082930
  39 C :    0.209252
  40 C :   -0.022279
  41 C :   -0.001961
  42 N :   -0.285653
  43 S :    0.561400
  44 N :   -0.329274
  45 C :   -0.161471
  46 C :    0.000792
  47 C :    0.081477
  48 Cl:   -0.056490
  49 C :   -0.066615
  50 S :    0.173619
  51 C :   -0.078881
  52 C :    0.052150
  53 Cl:   -0.056731
  54 C :    0.025560
  55 C :   -0.096970
  56 S :    0.168380
  57 C :    0.053804
  58 C :   -0.091867
  59 C :    0.315081
  60 C :   -0.357588
  61 C :   -0.182046
  62 N :    0.143336
  63 C :   -0.195408
  64 N :    0.154156
  65 C :    0.047342
  66 C :    0.001577
  67 C :    0.160245
  68 O :   -0.158210
  69 C :   -0.084299
  70 C :    0.098862
  71 C :    0.095466
  72 C :   -0.083517
  73 C :   -0.018180
  74 C :    0.036528
  75 C :    0.036300
  76 C :   -0.017041
  77 H :   -0.015455
  78 H :   -0.008894
  79 H :   -0.009834
  80 H :   -0.005589
  81 H :   -0.006827
  82 H :   -0.019199
  83 H :    0.008860
  84 H :    0.011067
  85 H :   -0.007787
  86 H :    0.022820
  87 H :    0.022006
  88 H :   -0.008305
  89 H :    0.011932
  90 H :    0.009154
  91 H :   -0.015200
  92 H :   -0.008780
  93 H :   -0.009814
  94 H :   -0.006039
  95 H :   -0.005881
  96 H :   -0.019137
Sum of atomic charges:   -0.0000000

LOEWDIN ATOMIC CHARGES
----------------------
   0 C :    0.076974
   1 C :   -0.143888
   2 C :   -0.016708
   3 N :   -0.057648
   4 C :   -0.026026
   5 N :   -0.052765
   6 C :   -0.025926
   7 C :   -0.054513
   8 C :    0.030164
   9 C :   -0.008756
  10 C :   -0.006575
  11 C :    0.018739
  12 C :   -0.005440
  13 C :   -0.014474
  14 C :   -0.013325
  15 C :   -0.010320
  16 C :    0.088003
  17 O :   -0.144938
  18 C :   -0.096577
  19 C :    0.047675
  20 C :   -0.185904
  21 C :   -0.024343
  22 C :   -0.175989
  23 Cl:    0.159131
  24 C :   -0.183142
  25 S :    0.470039
  26 C :   -0.221067
  27 C :   -0.164233
  28 Cl:    0.162212
  29 C :   -0.053963
  30 C :   -0.164984
  31 S :    0.488451
  32 C :   -0.038081
  33 C :   -0.012771
  34 C :   -0.005874
  35 N :   -0.021267
  36 C :    0.017572
  37 C :    0.024971
  38 N :   -0.042407
  39 C :   -0.040965
  40 C :   -0.045931
  41 C :   -0.039344
  42 N :   -0.278112
  43 S :    0.684452
  44 N :   -0.299161
  45 C :   -0.163072
  46 C :   -0.054748
  47 C :   -0.164678
  48 Cl:    0.163800
  49 C :   -0.217963
  50 S :    0.489902
  51 C :   -0.184313
  52 C :   -0.176026
  53 Cl:    0.163215
  54 C :   -0.024017
  55 C :   -0.185488
  56 S :    0.470614
  57 C :    0.047392
  58 C :   -0.095898
  59 C :    0.077021
  60 C :   -0.143913
  61 C :   -0.016559
  62 N :   -0.057445
  63 C :   -0.025668
  64 N :   -0.052998
  65 C :   -0.025946
  66 C :   -0.054561
  67 C :    0.088038
  68 O :   -0.144441
  69 C :    0.030463
  70 C :   -0.008663
  71 C :   -0.006576
  72 C :    0.018825
  73 C :   -0.005422
  74 C :   -0.014244
  75 C :   -0.013113
  76 C :   -0.010238
  77 H :    0.037921
  78 H :    0.038800
  79 H :    0.034599
  80 H :    0.032849
  81 H :    0.032227
  82 H :    0.031242
  83 H :    0.042898
  84 H :    0.037268
  85 H :    0.033114
  86 H :    0.030911
  87 H :    0.031918
  88 H :    0.031448
  89 H :    0.037605
  90 H :    0.042933
  91 H :    0.038058
  92 H :    0.038838
  93 H :    0.034611
  94 H :    0.032792
  95 H :    0.032395
  96 H :    0.031328

  Mayer bond orders larger than 0.100000
B(  0-C ,  1-C ) :   1.6221 B(  0-C ,  6-C ) :   0.9808 B(  0-C , 18-C ) :   1.0795
B(  1-C ,  2-C ) :   1.1486 B(  1-C ,  4-C ) :   1.1368 B(  2-C ,  3-N ) :   2.9637
B(  4-C ,  5-N ) :   2.9815 B(  6-C ,  7-C ) :   1.2165 B(  6-C , 11-C ) :   1.4497
B(  7-C ,  8-C ) :   1.4684 B(  7-C , 16-C ) :   0.9534 B(  8-C ,  9-C ) :   1.1757
B(  8-C , 77-H ) :   1.0175 B(  9-C , 10-C ) :   1.2573 B(  9-C , 15-C ) :   1.2435
B( 10-C , 11-C ) :   1.2039 B( 10-C , 12-C ) :   1.2395 B( 11-C , 78-H ) :   0.9908
B( 12-C , 13-C ) :   1.4883 B( 12-C , 79-H ) :   0.9980 B( 13-C , 14-C ) :   1.2583
B( 13-C , 80-H ) :   0.9890 B( 14-C , 15-C ) :   1.4883 B( 14-C , 81-H ) :   0.9890
B( 15-C , 82-H ) :   0.9984 B( 16-C , 17-O ) :   2.1696 B( 16-C , 18-C ) :   0.9398
B( 18-C , 19-C ) :   1.5807 B( 19-C , 20-C ) :   1.2240 B( 19-C , 83-H ) :   0.9136
B( 20-C , 21-C ) :   1.4005 B( 20-C , 25-S ) :   1.0807 B( 21-C , 22-C ) :   1.3004
B( 21-C , 84-H ) :   0.9863 B( 22-C , 23-Cl) :   1.0453 B( 22-C , 24-C ) :   1.3980
B( 24-C , 25-S ) :   1.1644 B( 24-C , 26-C ) :   1.2108 B( 26-C , 27-C ) :   1.4270
B( 26-C , 31-S ) :   1.0593 B( 27-C , 28-Cl) :   1.0347 B( 27-C , 29-C ) :   1.2788
B( 29-C , 30-C ) :   1.4224 B( 29-C , 85-H ) :   0.9965 B( 30-C , 31-S ) :   1.1065
B( 30-C , 32-C ) :   1.1918 B( 32-C , 33-C ) :   1.2681 B( 32-C , 39-C ) :   0.1321
B( 32-C , 41-C ) :   1.2111 B( 33-C , 34-C ) :   1.1274 B( 33-C , 38-N ) :   1.3884
B( 34-C , 35-N ) :   1.4607 B( 34-C , 39-C ) :   1.2760 B( 35-N , 36-C ) :   1.6771
B( 36-C , 37-C ) :   1.1916 B( 36-C , 86-H ) :   0.9746 B( 37-C , 38-N ) :   1.6571
B( 37-C , 87-H ) :   0.9737 B( 39-C , 40-C ) :   1.1958 B( 39-C , 45-C ) :   1.1829
B( 40-C , 41-C ) :   1.1093 B( 40-C , 44-N ) :   1.4617 B( 41-C , 42-N ) :   1.5022
B( 42-N , 43-S ) :   1.2883 B( 42-N , 44-N ) :   0.1554 B( 43-S , 44-N ) :   1.2787
B( 45-C , 46-C ) :   1.4197 B( 45-C , 50-S ) :   1.1137 B( 46-C , 47-C ) :   1.2703
B( 46-C , 88-H ) :   0.9937 B( 47-C , 48-Cl) :   1.0390 B( 47-C , 49-C ) :   1.4210
B( 49-C , 50-S ) :   1.0915 B( 49-C , 51-C ) :   1.2010 B( 51-C , 52-C ) :   1.4004
B( 51-C , 56-S ) :   1.1652 B( 52-C , 53-Cl) :   1.0482 B( 52-C , 54-C ) :   1.2977
B( 54-C , 55-C ) :   1.4019 B( 54-C , 89-H ) :   0.9869 B( 55-C , 56-S ) :   1.0797
B( 55-C , 57-C ) :   1.2247 B( 57-C , 58-C ) :   1.5843 B( 57-C , 90-H ) :   0.9117
B( 58-C , 59-C ) :   1.0802 B( 58-C , 67-C ) :   0.9382 B( 59-C , 60-C ) :   1.6204
B( 59-C , 65-C ) :   0.9827 B( 60-C , 61-C ) :   1.1495 B( 60-C , 63-C ) :   1.1376
B( 61-C , 62-N ) :   2.9630 B( 63-C , 64-N ) :   2.9793 B( 65-C , 66-C ) :   1.2164
B( 65-C , 72-C ) :   1.4484 B( 66-C , 67-C ) :   0.9530 B( 66-C , 69-C ) :   1.4695
B( 67-C , 68-O ) :   2.1692 B( 69-C , 70-C ) :   1.1766 B( 69-C , 91-H ) :   1.0164
B( 70-C , 71-C ) :   1.2576 B( 70-C , 76-C ) :   1.2442 B( 71-C , 72-C ) :   1.2051
B( 71-C , 73-C ) :   1.2406 B( 72-C , 92-H ) :   0.9900 B( 73-C , 74-C ) :   1.4876
B( 73-C , 93-H ) :   0.9972 B( 74-C , 75-C ) :   1.2603 B( 74-C , 94-H ) :   0.9887
B( 75-C , 76-C ) :   1.4873 B( 75-C , 95-H ) :   0.9891 B( 76-C , 96-H ) :   0.9979

-----------------------------------------------------------------------------
         ABSORPTION SPECTRUM VIA TRANSITION ELECTRIC DIPOLE MOMENTS
-----------------------------------------------------------------------------
State   Energy  Wavelength   fosc         T2         TX        TY        TZ
        (cm-1)    (nm)                  (au**2)     (au)      (au)      (au)
-----------------------------------------------------------------------------
   0    9878.7   1012.3   1.291130326  43.02765   4.11919  -4.80312  -1.72915
   1   17537.9    570.2   0.004141154   0.07774  -0.08468  -0.18118   0.19427
   2   19276.4    518.8   1.656680164  28.29365  -3.53380   3.86212   0.94337
   3   19587.3    510.5   0.016628925   0.27949  -0.40085   0.12822   0.31996
   4   22359.0    447.2   0.000902267   0.01328   0.06080   0.08848  -0.04195
   5   24026.1    416.2   0.066230857   0.90751  -0.72906   0.60639  -0.09096
   6   24479.3    408.5   0.011349835   0.15264   0.02696  -0.24673  -0.30172
   7   24820.6    402.9   0.019235184   0.25513  -0.13377   0.33420   0.35432
   8   25773.2    388.0   0.007651665   0.09774  -0.20180  -0.16138   0.17599
   9   26041.4    384.0   0.074696424   0.94430  -0.75709   0.57324  -0.20620
  10   26963.7    370.9   0.071768137   0.87625  -0.63260   0.15838  -0.67155
  11   27054.6    369.6   0.041021128   0.49916   0.67171  -0.04331   0.21470
  12   27603.5    362.3   0.011998658   0.14310   0.04632   0.28817  -0.24066
  13   27738.5    360.5   0.250870341   2.97743   1.32826  -1.05272   0.32397
  14   27985.2    357.3   0.008003895   0.09416   0.30288  -0.01591  -0.04657
  15   28721.3    348.2   0.066811192   0.76581  -0.65885   0.34238  -0.46314
  16   28865.7    346.4   0.004962647   0.05660  -0.22374  -0.07843   0.01969
  17   29081.5    343.9   0.009615456   0.10885   0.19020  -0.00434   0.26954
  18   29230.4    342.1   0.037404946   0.42128  -0.37294  -0.01143  -0.53110
  19   29384.1    340.3   0.007231173   0.08102  -0.25544   0.04025  -0.11894
  20   29684.9    336.9   0.010188890   0.11300   0.15177  -0.25335  -0.16054
  21   29945.0    333.9   0.220767384   2.42709   0.87155  -1.20728  -0.45823
  22   30214.8    331.0   0.052349891   0.57039  -0.73184  -0.01207  -0.18614
  23   30681.0    325.9   0.052849242   0.56708   0.30635   0.11134  -0.67885
  24   30792.4    324.8   0.347943155   3.71998   1.50765  -0.89167   0.80740
  25   31188.4    320.6   0.165874300   1.75090   0.37660  -0.97433  -0.81225
  26   31745.2    315.0   0.025072637   0.26001   0.50271   0.01683   0.08377
  27   32559.8    307.1   0.010199958   0.10313   0.30487   0.08928   0.04706
  28   32687.6    305.9   0.289208870   2.91276   1.31483  -0.48041   0.97632
  29   33216.6    301.1   0.093033378   0.92206  -0.25680   0.45627  -0.80494
  30   33379.5    299.6   0.120522797   1.18868   1.07580   0.12028   0.12987
  31   33542.6    298.1   0.074553786   0.73173  -0.41003   0.70976   0.24463
  32   33832.5    295.6   0.022387040   0.21784   0.01424   0.40797  -0.22627
  33   33940.5    294.6   0.022025210   0.21364  -0.43267   0.15432   0.05120
  34   34119.9    293.1   0.087748737   0.84666   0.56143  -0.71552  -0.13960
  35   34590.5    289.1   0.243669258   2.31910  -1.10206   0.36397  -0.98595
  36   34716.5    288.0   0.019507912   0.18499   0.37133  -0.04093   0.21314
  37   34858.5    286.9   0.408777331   3.86059  -1.33141   0.29533  -1.41447
  38   35402.1    282.5   0.064481199   0.59963  -0.67885  -0.37252   0.00391
  39   35636.5    280.6   0.228010941   2.10638   1.30426  -0.27528   0.57404
  40   35779.3    279.5   0.145369050   1.33757   0.39777  -0.67462   0.85102
  41   36064.3    277.3   0.010259547   0.09365   0.23413   0.13794  -0.14074
  42   36113.1    276.9   0.142916489   1.30285  -0.96442   0.34170  -0.50595
  43   36187.9    276.3   0.030136057   0.27416   0.41183   0.19538   0.25764
  44   36488.0    274.1   0.289785021   2.61457  -1.08603   0.29725  -1.16050
  45   36567.5    273.5   0.159085909   1.43223   0.72984  -0.21829   0.92299
  46   36839.7    271.4   0.001821089   0.01627  -0.06485  -0.08836   0.06527
  47   37305.5    268.1   0.053860699   0.47531   0.49161  -0.07901   0.47685
  48   37399.6    267.4   0.011824990   0.10409   0.26783  -0.12092   0.13318
  49   37465.9    266.9   0.001691107   0.01486  -0.04406   0.10227  -0.04960
  50   37683.5    265.4   0.037117121   0.32426   0.33796  -0.09605   0.44813
  51   38859.0    257.3   0.060850037   0.51552  -0.23485  -0.07970  -0.67381
  52   39006.3    256.4   0.062557870   0.52799   0.45784   0.30908   0.47206
  53   39299.1    254.5   0.039433552   0.33034  -0.31993   0.05812  -0.47392
  54   39458.5    253.4   0.000388739   0.00324   0.02895   0.03359  -0.03574
  55   39525.5    253.0   0.102693948   0.85535  -0.15004   0.48195   0.77496
  56   39601.1    252.5   0.099779245   0.82949  -0.17988  -0.50973  -0.73301
  57   39794.8    251.3   0.002132677   0.01764   0.00667   0.02138  -0.13092
  58   39951.1    250.3   0.036606438   0.30165  -0.43329  -0.13725  -0.30835
  59   40000.7    250.0   0.004316709   0.03553   0.00813   0.04871  -0.18190

FINAL SINGLE POINT ENERGY     -6637.643164654372

DIPOLE MOMENT
-------------
                                X             Y             Z
Electronic contribution:    -14.71202      -9.84032       2.76836
Nuclear contribution   :     15.98892      11.08356      -3.23883
                        -----------------------------------------
Total Dipole Moment    :      1.27690       1.24323      -0.47047
                        -----------------------------------------
Magnitude (a.u.)       :      1.84322
Magnitude (Debye)      :      4.68509

Rotational constants in cm-1:     0.002792     0.000137     0.000132
Rotational constants in MHz :    83.701096     4.094576     3.949578

                             ****ORCA TERMINATED NORMALLY****
TOTAL RUN TIME: 0 days 0 hours 9 minutes 57 seconds 269 msec
