                         Program Version 4.2.0 -  RELEASE  -
|  1> # ORCA input file
|  2> # SCF done       -188.024502381950          0.000866434990
|  3> ! CAM-B3LYP def2-SVP def2/J RIJCOSX Grid4 TightSCF
|  4> %maxcore 5000
|  5> %tddft
|  6>     Mode sTDDFT
|  7>     Ethresh 5.0
|  8>     maxcore 5000
|  9> end
| 10>
| 11> %pal
| 12>   nprocs 6
| 13>   end
| 14> * xyz 0 1
| 15>    C        0.04395         0.84859        -3.34521
| 16>    C        1.20426         1.03494        -4.05104
| 17>    C        1.72648         0.10172        -4.97180
| 18>    N        2.20518        -0.61184        -5.73314
| 19>    C        2.04874         2.16165        -3.97020
| 20>    N        2.78998         3.03914        -3.96311
| 21>    C       -0.81914        -0.32548        -3.43870
| 22>    C       -1.91026        -0.16030        -2.53755
| 23>    C       -2.89281        -1.09873        -2.40693
| 24>    C       -2.83035        -2.27252        -3.19059
| 25>    C       -1.74315        -2.44796        -4.09453
| 26>    C       -0.73941        -1.45744        -4.20572
| 27>    C       -1.69128        -3.62192        -4.87285
| 28>    C       -2.66583        -4.57695        -4.76557
| 29>    C       -3.73597        -4.40253        -3.87575
| 30>    C       -3.81627        -3.27469        -3.10434
| 31>    C       -1.76962         1.12588        -1.84414
| 32>    O       -2.51960         1.57811        -0.99501
| 33>    C       -0.55249         1.75291        -2.37696
| 34>    C       -0.08654         2.99279        -2.02954
| 35>    C       -0.61384         3.93292        -1.12631
| 36>    C       -0.02246         5.17850        -0.92617
| 37>    C       -0.70002         5.97107        -0.01640
| 38>   Cl       -0.19401         7.55490         0.40546
| 39>    C       -1.83316         5.35899         0.52280
| 40>    S       -2.03722         3.76246        -0.13500
| 41>    C       -2.75123         5.91028         1.44878
| 42>    C       -3.87212         5.29360         2.00031
| 43>   Cl       -4.32130         3.67719         1.66347
| 44>    C       -4.61212         6.11246         2.85203
| 45>    C       -4.07473         7.37592         2.97156
| 46>    S       -2.62747         7.54943         2.03442
| 47>    C       -4.60441         8.46392         3.70369
| 48>    N       -4.07427         9.64840         3.77068
| 49>    C       -4.83975        10.47266         4.48389
| 50>    C       -6.02731         9.92886         5.00763
| 51>    S       -6.15494         8.27439         4.57277
| 52>    N       -6.81515        10.76050         5.68293
| 53>    C       -6.30440        11.95572         5.72343
| 54>    S       -4.73148        12.13660         4.90157
| 55>    C       -6.96722        13.05533         6.31722
| 56>    C       -6.56352        14.36807         6.41625
| 57>    C       -7.53449        15.17777         7.00822
| 58>   Cl       -7.31121        16.85789         7.25178
| 59>    C       -8.69721        14.50391         7.37058
| 60>    S       -8.55148        12.81303         6.97715
| 61>    C       -9.88464        15.04231         7.92559
| 62>    C      -11.04930        14.35877         8.27662
| 63>   Cl      -11.19947        12.65763         8.15333
| 64>    C      -12.08388        15.16966         8.73121
| 65>    C      -11.75013        16.51075         8.74450
| 66>    S      -10.09906        16.73777         8.20698
| 67>    C      -12.46323        17.67613         9.10179
| 68>    C      -13.78859        17.86809         9.37079
| 69>    C      -14.35925        19.16747         9.70075
| 70>    C      -13.68073        20.27280        10.14232
| 71>    C      -14.30199        21.49748        10.46756
| 72>    N      -14.74514        22.52135        10.73813
| 73>    C      -12.29240        20.34549        10.38589
| 74>    N      -11.17978        20.48002        10.63697
| 75>    C      -15.80641        19.06966         9.56008
| 76>    C      -16.13874        17.71370         9.28528
| 77>    C      -14.91068        16.90408         9.22297
| 78>    O      -14.86306        15.70139         9.07280
| 79>    C      -17.42975        17.30606         9.10998
| 80>    C      -18.46901        18.25906         9.19314
| 81>    C      -18.14476        19.62116         9.45794
| 82>    C      -16.79824        20.01122         9.64197
| 83>    C      -19.18945        20.56494         9.53172
| 84>    C      -20.49150        20.18359         9.35388
| 85>    C      -20.80939        18.84208         9.09410
| 86>    C      -19.81965        17.90019         9.01592
| 87>    H       -3.70834        -0.94616        -1.71568
| 88>    H        0.06761        -1.62238        -4.90142
| 89>    H       -0.86553        -3.75223        -5.55677
| 90>    H       -2.61702        -5.47257        -5.36650
| 91>    H       -4.49629        -5.16581        -3.80413
| 92>    H       -4.63775        -3.13446        -2.41706
| 93>    H        0.81679         3.33651        -2.51861
| 94>    H        0.87060         5.49036        -1.43716
| 95>    H       -5.50786         5.79533         3.35363
| 96>    H       -5.61298        14.72986         6.06966
| 97>    H      -13.04678        14.79703         9.02837
| 98>    H      -11.83809        18.56210         9.11270
| 99>    H      -17.65410        16.26953         8.90620
|100>    H      -16.58595        21.05069         9.83494
|101>    H      -18.94013        21.59636         9.73335
|102>    H      -21.28438        20.91409         9.41250
|103>    H      -21.84213        18.55892         8.95580
|104>    H      -20.05794        16.86575         8.81584
|105> *
|106>
|107>                          ****END OF INPUT****

CARTESIAN COORDINATES (ANGSTROEM)
---------------------------------
  C      0.043950    0.848590   -3.345210
  C      1.204260    1.034940   -4.051040
  C      1.726480    0.101720   -4.971800
  N      2.205180   -0.611840   -5.733140
  C      2.048740    2.161650   -3.970200
  N      2.789980    3.039140   -3.963110
  C     -0.819140   -0.325480   -3.438700
  C     -1.910260   -0.160300   -2.537550
  C     -2.892810   -1.098730   -2.406930
  C     -2.830350   -2.272520   -3.190590
  C     -1.743150   -2.447960   -4.094530
  C     -0.739410   -1.457440   -4.205720
  C     -1.691280   -3.621920   -4.872850
  C     -2.665830   -4.576950   -4.765570
  C     -3.735970   -4.402530   -3.875750
  C     -3.816270   -3.274690   -3.104340
  C     -1.769620    1.125880   -1.844140
  O     -2.519600    1.578110   -0.995010
  C     -0.552490    1.752910   -2.376960
  C     -0.086540    2.992790   -2.029540
  C     -0.613840    3.932920   -1.126310
  C     -0.022460    5.178500   -0.926170
  C     -0.700020    5.971070   -0.016400
  Cl    -0.194010    7.554900    0.405460
  C     -1.833160    5.358990    0.522800
  S     -2.037220    3.762460   -0.135000
  C     -2.751230    5.910280    1.448780
  C     -3.872120    5.293600    2.000310
  Cl    -4.321300    3.677190    1.663470
  C     -4.612120    6.112460    2.852030
  C     -4.074730    7.375920    2.971560
  S     -2.627470    7.549430    2.034420
  C     -4.604410    8.463920    3.703690
  N     -4.074270    9.648400    3.770680
  C     -4.839750   10.472660    4.483890
  C     -6.027310    9.928860    5.007630
  S     -6.154940    8.274390    4.572770
  N     -6.815150   10.760500    5.682930
  C     -6.304400   11.955720    5.723430
  S     -4.731480   12.136600    4.901570
  C     -6.967220   13.055330    6.317220
  C     -6.563520   14.368070    6.416250
  C     -7.534490   15.177770    7.008220
  Cl    -7.311210   16.857890    7.251780
  C     -8.697210   14.503910    7.370580
  S     -8.551480   12.813030    6.977150
  C     -9.884640   15.042310    7.925590
  C    -11.049300   14.358770    8.276620
  Cl   -11.199470   12.657630    8.153330
  C    -12.083880   15.169660    8.731210
  C    -11.750130   16.510750    8.744500
  S    -10.099060   16.737770    8.206980
  C    -12.463230   17.676130    9.101790
  C    -13.788590   17.868090    9.370790
  C    -14.359250   19.167470    9.700750
  C    -13.680730   20.272800   10.142320
  C    -14.301990   21.497480   10.467560
  N    -14.745140   22.521350   10.738130
  C    -12.292400   20.345490   10.385890
  N    -11.179780   20.480020   10.636970
  C    -15.806410   19.069660    9.560080
  C    -16.138740   17.713700    9.285280
  C    -14.910680   16.904080    9.222970
  O    -14.863060   15.701390    9.072800
  C    -17.429750   17.306060    9.109980
  C    -18.469010   18.259060    9.193140
  C    -18.144760   19.621160    9.457940
  C    -16.798240   20.011220    9.641970
  C    -19.189450   20.564940    9.531720
  C    -20.491500   20.183590    9.353880
  C    -20.809390   18.842080    9.094100
  C    -19.819650   17.900190    9.015920
  H     -3.708340   -0.946160   -1.715680
  H      0.067610   -1.622380   -4.901420
  H     -0.865530   -3.752230   -5.556770
  H     -2.617020   -5.472570   -5.366500
  H     -4.496290   -5.165810   -3.804130
  H     -4.637750   -3.134460   -2.417060
  H      0.816790    3.336510   -2.518610
  H      0.870600    5.490360   -1.437160
  H     -5.507860    5.795330    3.353630
  H     -5.612980   14.729860    6.069660
  H    -13.046780   14.797030    9.028370
  H    -11.838090   18.562100    9.112700
  H    -17.654100   16.269530    8.906200
  H    -16.585950   21.050690    9.834940
  H    -18.940130   21.596360    9.733350
  H    -21.284380   20.914090    9.412500
  H    -21.842130   18.558920    8.955800
  H    -20.057940   16.865750    8.815840

 Total Charge           Charge          ....    0
 Multiplicity           Mult            ....    1
 Number of Electrons    NEL             ....  564
 Basis Dimension        Dim             .... 1138

ORBITAL ENERGIES
----------------

  NO   OCC          E(Eh)            E(eV)
   0   2.0000    -101.608511     -2764.9081
   1   2.0000    -101.604404     -2764.7964
   2   2.0000    -101.604355     -2764.7951
   3   2.0000    -101.603190     -2764.7633
   4   2.0000     -88.980749     -2421.2893
   5   2.0000     -88.978963     -2421.2407
   6   2.0000     -88.977065     -2421.1890
   7   2.0000     -88.976898     -2421.1845
   8   2.0000     -88.976752     -2421.1805
   9   2.0000     -88.970702     -2421.0159
  10   2.0000     -19.222675      -523.0756
  11   2.0000     -19.219487      -522.9888
  12   2.0000     -14.434472      -392.7819
  13   2.0000     -14.434154      -392.7733
  14   2.0000     -14.417538      -392.3211
  15   2.0000     -14.414926      -392.2501
  16   2.0000     -14.413803      -392.2195
  17   2.0000     -14.413097      -392.2003
  18   2.0000     -10.370628      -282.1991
  19   2.0000     -10.370504      -282.1957
  20   2.0000     -10.362266      -281.9716
  21   2.0000     -10.362178      -281.9692
  22   2.0000     -10.346965      -281.5552
  23   2.0000     -10.344661      -281.4925
  24   2.0000     -10.341849      -281.4160
  25   2.0000     -10.341326      -281.4018
  26   2.0000     -10.341296      -281.4010
  27   2.0000     -10.341188      -281.3980
  28   2.0000     -10.340880      -281.3896
  29   2.0000     -10.340540      -281.3804
  30   2.0000     -10.340069      -281.3676
  31   2.0000     -10.339573      -281.3541
  32   2.0000     -10.339066      -281.3403
  33   2.0000     -10.332714      -281.1674
  34   2.0000     -10.330466      -281.1063
  35   2.0000     -10.328101      -281.0419
  36   2.0000     -10.326012      -280.9851
  37   2.0000     -10.325861      -280.9810
  38   2.0000     -10.324992      -280.9573
  39   2.0000     -10.324574      -280.9459
  40   2.0000     -10.320430      -280.8332
  41   2.0000     -10.319095      -280.7968
  42   2.0000     -10.318263      -280.7742
  43   2.0000     -10.317725      -280.7596
  44   2.0000     -10.317026      -280.7405
  45   2.0000     -10.316148      -280.7167
  46   2.0000     -10.303549      -280.3738
  47   2.0000     -10.302374      -280.3419
  48   2.0000     -10.302225      -280.3378
  49   2.0000     -10.302044      -280.3329
  50   2.0000     -10.301716      -280.3239
  51   2.0000     -10.300486      -280.2905
  52   2.0000     -10.299495      -280.2635
  53   2.0000     -10.298703      -280.2420
  54   2.0000     -10.298416      -280.2341
  55   2.0000     -10.298183      -280.2278
  56   2.0000     -10.297560      -280.2109
  57   2.0000     -10.297390      -280.2062
  58   2.0000     -10.297303      -280.2039
  59   2.0000     -10.296482      -280.1815
  60   2.0000     -10.296339      -280.1776
  61   2.0000     -10.293634      -280.1040
  62   2.0000     -10.289766      -279.9988
  63   2.0000     -10.288324      -279.9595
  64   2.0000     -10.287769      -279.9444
  65   2.0000     -10.287246      -279.9302
  66   2.0000     -10.286802      -279.9181
  67   2.0000     -10.286575      -279.9119
  68   2.0000     -10.286302      -279.9045
  69   2.0000     -10.286064      -279.8980
  70   2.0000     -10.285781      -279.8903
  71   2.0000     -10.285278      -279.8767
  72   2.0000      -9.563259      -260.2295
  73   2.0000      -9.559151      -260.1177
  74   2.0000      -9.559131      -260.1172
  75   2.0000      -9.557937      -260.0847
  76   2.0000      -8.076543      -219.7739
  77   2.0000      -8.074883      -219.7287
  78   2.0000      -8.071677      -219.6415
  79   2.0000      -8.071500      -219.6367
  80   2.0000      -8.071242      -219.6297
  81   2.0000      -8.063462      -219.4180
  82   2.0000      -7.333376      -199.5513
  83   2.0000      -7.329294      -199.4402
  84   2.0000      -7.329231      -199.4385
  85   2.0000      -7.328008      -199.4052
  86   2.0000      -7.323334      -199.2781
  87   2.0000      -7.323239      -199.2755
  88   2.0000      -7.319280      -199.1677
  89   2.0000      -7.319203      -199.1656
  90   2.0000      -7.319121      -199.1634
  91   2.0000      -7.319040      -199.1612
  92   2.0000      -7.318027      -199.1336
  93   2.0000      -7.317979      -199.1323
  94   2.0000      -6.045697      -164.5118
  95   2.0000      -6.044027      -164.4663
  96   2.0000      -6.042076      -164.4133
  97   2.0000      -6.041062      -164.3857
  98   2.0000      -6.041031      -164.3848
  99   2.0000      -6.040816      -164.3790
 100   2.0000      -6.040417      -164.3681
 101   2.0000      -6.038230      -164.3086
 102   2.0000      -6.036784      -164.2693
 103   2.0000      -6.036589      -164.2639
 104   2.0000      -6.036553      -164.2630
 105   2.0000      -6.036346      -164.2573
 106   2.0000      -6.033629      -164.1834
 107   2.0000      -6.033223      -164.1723
 108   2.0000      -6.033085      -164.1686
 109   2.0000      -6.032990      -164.1660
 110   2.0000      -6.028311      -164.0387
 111   2.0000      -6.025285      -163.9563
 112   2.0000      -1.138123       -30.9699
 113   2.0000      -1.134576       -30.8734
 114   2.0000      -1.106533       -30.1103
 115   2.0000      -1.067506       -29.0483
 116   2.0000      -1.034645       -28.1541
 117   2.0000      -1.031319       -28.0636
 118   2.0000      -1.018958       -27.7273
 119   2.0000      -1.017731       -27.6939
 120   2.0000      -1.010607       -27.5000
 121   2.0000      -1.008286       -27.4369
 122   2.0000      -0.999976       -27.2107
 123   2.0000      -0.998151       -27.1611
 124   2.0000      -0.993921       -27.0460
 125   2.0000      -0.992473       -27.0066
 126   2.0000      -0.973404       -26.4877
 127   2.0000      -0.973073       -26.4787
 128   2.0000      -0.968330       -26.3496
 129   2.0000      -0.966018       -26.2867
 130   2.0000      -0.958986       -26.0953
 131   2.0000      -0.956546       -26.0289
 132   2.0000      -0.928196       -25.2575
 133   2.0000      -0.925287       -25.1784
 134   2.0000      -0.924751       -25.1637
 135   2.0000      -0.909293       -24.7431
 136   2.0000      -0.906773       -24.6745
 137   2.0000      -0.895942       -24.3798
 138   2.0000      -0.891132       -24.2489
 139   2.0000      -0.888428       -24.1753
 140   2.0000      -0.882107       -24.0034
 141   2.0000      -0.880779       -23.9672
 142   2.0000      -0.873650       -23.7732
 143   2.0000      -0.866150       -23.5691
 144   2.0000      -0.848857       -23.0986
 145   2.0000      -0.835328       -22.7304
 146   2.0000      -0.834411       -22.7055
 147   2.0000      -0.833128       -22.6706
 148   2.0000      -0.829580       -22.5740
 149   2.0000      -0.828094       -22.5336
 150   2.0000      -0.825480       -22.4625
 151   2.0000      -0.820697       -22.3323
 152   2.0000      -0.800323       -21.7779
 153   2.0000      -0.785964       -21.3872
 154   2.0000      -0.768940       -20.9239
 155   2.0000      -0.763945       -20.7880
 156   2.0000      -0.761793       -20.7294
 157   2.0000      -0.748588       -20.3701
 158   2.0000      -0.725991       -19.7552
 159   2.0000      -0.724714       -19.7205
 160   2.0000      -0.706629       -19.2284
 161   2.0000      -0.704853       -19.1800
 162   2.0000      -0.702119       -19.1056
 163   2.0000      -0.700001       -19.0480
 164   2.0000      -0.697736       -18.9864
 165   2.0000      -0.695013       -18.9123
 166   2.0000      -0.682876       -18.5820
 167   2.0000      -0.680905       -18.5284
 168   2.0000      -0.672806       -18.3080
 169   2.0000      -0.666705       -18.1420
 170   2.0000      -0.665338       -18.1048
 171   2.0000      -0.654479       -17.8093
 172   2.0000      -0.646379       -17.5889
 173   2.0000      -0.642078       -17.4718
 174   2.0000      -0.633481       -17.2379
 175   2.0000      -0.629949       -17.1418
 176   2.0000      -0.627672       -17.0798
 177   2.0000      -0.623518       -16.9668
 178   2.0000      -0.615529       -16.7494
 179   2.0000      -0.611441       -16.6381
 180   2.0000      -0.607115       -16.5204
 181   2.0000      -0.606680       -16.5086
 182   2.0000      -0.601618       -16.3709
 183   2.0000      -0.598948       -16.2982
 184   2.0000      -0.593994       -16.1634
 185   2.0000      -0.577116       -15.7041
 186   2.0000      -0.573494       -15.6056
 187   2.0000      -0.565632       -15.3916
 188   2.0000      -0.559203       -15.2167
 189   2.0000      -0.558090       -15.1864
 190   2.0000      -0.550393       -14.9770
 191   2.0000      -0.548390       -14.9224
 192   2.0000      -0.547984       -14.9114
 193   2.0000      -0.546703       -14.8765
 194   2.0000      -0.542308       -14.7569
 195   2.0000      -0.541938       -14.7469
 196   2.0000      -0.539760       -14.6876
 197   2.0000      -0.538627       -14.6568
 198   2.0000      -0.537401       -14.6234
 199   2.0000      -0.534877       -14.5548
 200   2.0000      -0.532756       -14.4970
 201   2.0000      -0.531700       -14.4683
 202   2.0000      -0.529698       -14.4138
 203   2.0000      -0.527641       -14.3578
 204   2.0000      -0.526970       -14.3396
 205   2.0000      -0.523104       -14.2344
 206   2.0000      -0.519527       -14.1371
 207   2.0000      -0.518534       -14.1100
 208   2.0000      -0.514472       -13.9995
 209   2.0000      -0.512743       -13.9525
 210   2.0000      -0.509524       -13.8649
 211   2.0000      -0.508053       -13.8248
 212   2.0000      -0.506964       -13.7952
 213   2.0000      -0.504564       -13.7299
 214   2.0000      -0.502080       -13.6623
 215   2.0000      -0.499428       -13.5901
 216   2.0000      -0.498117       -13.5545
 217   2.0000      -0.496024       -13.4975
 218   2.0000      -0.494987       -13.4693
 219   2.0000      -0.490276       -13.3411
 220   2.0000      -0.489819       -13.3287
 221   2.0000      -0.488111       -13.2822
 222   2.0000      -0.485565       -13.2129
 223   2.0000      -0.477169       -12.9844
 224   2.0000      -0.475046       -12.9267
 225   2.0000      -0.467291       -12.7156
 226   2.0000      -0.466044       -12.6817
 227   2.0000      -0.464797       -12.6478
 228   2.0000      -0.460284       -12.5250
 229   2.0000      -0.455664       -12.3993
 230   2.0000      -0.450044       -12.2463
 231   2.0000      -0.448523       -12.2049
 232   2.0000      -0.446869       -12.1599
 233   2.0000      -0.446282       -12.1439
 234   2.0000      -0.443025       -12.0553
 235   2.0000      -0.442648       -12.0451
 236   2.0000      -0.442236       -12.0338
 237   2.0000      -0.439833       -11.9685
 238   2.0000      -0.439397       -11.9566
 239   2.0000      -0.437574       -11.9070
 240   2.0000      -0.435244       -11.8436
 241   2.0000      -0.434215       -11.8156
 242   2.0000      -0.433448       -11.7947
 243   2.0000      -0.432996       -11.7824
 244   2.0000      -0.432376       -11.7655
 245   2.0000      -0.431967       -11.7544
 246   2.0000      -0.426890       -11.6163
 247   2.0000      -0.424942       -11.5633
 248   2.0000      -0.420490       -11.4421
 249   2.0000      -0.420121       -11.4321
 250   2.0000      -0.418783       -11.3957
 251   2.0000      -0.409261       -11.1366
 252   2.0000      -0.407828       -11.0976
 253   2.0000      -0.406759       -11.0685
 254   2.0000      -0.405718       -11.0402
 255   2.0000      -0.403626       -10.9832
 256   2.0000      -0.395900       -10.7730
 257   2.0000      -0.390501       -10.6261
 258   2.0000      -0.389488       -10.5985
 259   2.0000      -0.384836       -10.4719
 260   2.0000      -0.383226       -10.4281
 261   2.0000      -0.376993       -10.2585
 262   2.0000      -0.376618       -10.2483
 263   2.0000      -0.373471       -10.1627
 264   2.0000      -0.372014       -10.1230
 265   2.0000      -0.356723        -9.7069
 266   2.0000      -0.352332        -9.5874
 267   2.0000      -0.342167        -9.3108
 268   2.0000      -0.340926        -9.2771
 269   2.0000      -0.337436        -9.1821
 270   2.0000      -0.332070        -9.0361
 271   2.0000      -0.331557        -9.0221
 272   2.0000      -0.329300        -8.9607
 273   2.0000      -0.324419        -8.8279
 274   2.0000      -0.323924        -8.8144
 275   2.0000      -0.317204        -8.6316
 276   2.0000      -0.316398        -8.6096
 277   2.0000      -0.304714        -8.2917
 278   2.0000      -0.295294        -8.0354
 279   2.0000      -0.292114        -7.9488
 280   2.0000      -0.271109        -7.3772
 281   2.0000      -0.249407        -6.7867
 282   0.0000      -0.103490        -2.8161
 283   0.0000      -0.096755        -2.6328
 284   0.0000      -0.068759        -1.8710
 285   0.0000      -0.060315        -1.6413
 286   0.0000      -0.055988        -1.5235

MULLIKEN ATOMIC CHARGES
-----------------------
   0 C :    0.335875
   1 C :   -0.356768
   2 C :   -0.182835
   3 N :    0.145201
   4 C :   -0.190226
   5 N :    0.147874
   6 C :    0.044736
   7 C :   -0.000349
   8 C :   -0.081943
   9 C :    0.099564
  10 C :    0.095981
  11 C :   -0.085158
  12 C :   -0.020295
  13 C :    0.036273
  14 C :    0.036157
  15 C :   -0.018769
  16 C :    0.171749
  17 O :   -0.185016
  18 C :   -0.098168
  19 C :   -0.006091
  20 C :   -0.044634
  21 C :    0.005407
  22 C :    0.082640
  23 Cl:   -0.058455
  24 C :   -0.071534
  25 S :    0.209444
  26 C :   -0.112865
  27 C :    0.073368
  28 Cl:   -0.043185
  29 C :   -0.009692
  30 C :   -0.030746
  31 S :    0.217181
  32 C :   -0.096055
  33 N :   -0.027997
  34 C :   -0.060995
  35 C :   -0.055429
  36 S :    0.121934
  37 N :   -0.036622
  38 C :   -0.082877
  39 S :    0.134672
  40 C :   -0.038315
  41 C :   -0.001727
  42 C :    0.070961
  43 Cl:   -0.050542
  44 C :   -0.106974
  45 S :    0.215474
  46 C :   -0.075868
  47 C :    0.050140
  48 Cl:   -0.051034
  49 C :    0.033216
  50 C :   -0.100719
  51 S :    0.172186
  52 C :    0.052711
  53 C :   -0.090939
  54 C :    0.302960
  55 C :   -0.349976
  56 C :   -0.181771
  57 N :    0.146496
  58 C :   -0.201637
  59 N :    0.159773
  60 C :    0.046230
  61 C :   -0.002497
  62 C :    0.162499
  63 O :   -0.156512
  64 C :   -0.079678
  65 C :    0.096964
  66 C :    0.093773
  67 C :   -0.079293
  68 C :   -0.017665
  69 C :    0.034565
  70 C :    0.034583
  71 C :   -0.014500
  72 H :   -0.013573
  73 H :   -0.007046
  74 H :   -0.007682
  75 H :   -0.004363
  76 H :   -0.003836
  77 H :   -0.017116
  78 H :    0.008152
  79 H :    0.004398
  80 H :   -0.003378
  81 H :   -0.005290
  82 H :    0.015674
  83 H :    0.015596
  84 H :   -0.013619
  85 H :   -0.007019
  86 H :   -0.009305
  87 H :   -0.003414
  88 H :   -0.005057
  89 H :   -0.017357
Sum of atomic charges:   -0.0000000

LOEWDIN ATOMIC CHARGES
----------------------
   0 C :    0.077613
   1 C :   -0.142506
   2 C :   -0.016724
   3 N :   -0.055464
   4 C :   -0.021195
   5 N :   -0.054213
   6 C :   -0.025108
   7 C :   -0.055007
   8 C :    0.031810
   9 C :   -0.008697
  10 C :   -0.006241
  11 C :    0.020081
  12 C :   -0.005103
  13 C :   -0.013222
  14 C :   -0.012295
  15 C :   -0.009950
  16 C :    0.085910
  17 O :   -0.168740
  18 C :   -0.106159
  19 C :    0.059475
  20 C :   -0.190520
  21 C :   -0.030400
  22 C :   -0.178520
  23 Cl:    0.159721
  24 C :   -0.196457
  25 S :    0.523639
  26 C :   -0.209963
  27 C :   -0.161287
  28 Cl:    0.176169
  29 C :   -0.066370
  30 C :   -0.199621
  31 S :    0.488962
  32 C :   -0.127832
  33 N :   -0.100272
  34 C :   -0.209016
  35 C :   -0.209905
  36 S :    0.415045
  37 N :   -0.102690
  38 C :   -0.132202
  39 S :    0.417107
  40 C :   -0.196814
  41 C :   -0.064478
  42 C :   -0.163096
  43 Cl:    0.169601
  44 C :   -0.211624
  45 S :    0.493435
  46 C :   -0.189295
  47 C :   -0.175788
  48 Cl:    0.169044
  49 C :   -0.023483
  50 C :   -0.184065
  51 S :    0.470748
  52 C :    0.047287
  53 C :   -0.091617
  54 C :    0.076747
  55 C :   -0.141361
  56 C :   -0.016948
  57 N :   -0.054712
  58 C :   -0.026337
  59 N :   -0.050855
  60 C :   -0.026170
  61 C :   -0.054994
  62 C :    0.088555
  63 O :   -0.141252
  64 C :    0.031655
  65 C :   -0.008502
  66 C :   -0.006281
  67 C :    0.019563
  68 C :   -0.005293
  69 C :   -0.013543
  70 C :   -0.012552
  71 C :   -0.009766
  72 H :    0.038694
  73 H :    0.039379
  74 H :    0.035134
  75 H :    0.033411
  76 H :    0.033014
  77 H :    0.031776
  78 H :    0.051116
  79 H :    0.041568
  80 H :    0.031843
  81 H :    0.033927
  82 H :    0.038312
  83 H :    0.043889
  84 H :    0.038537
  85 H :    0.039079
  86 H :    0.034739
  87 H :    0.033410
  88 H :    0.032746
  89 H :    0.031762

  Mayer bond orders larger than 0.100000
B(  0-C ,  1-C ) :   1.6210 B(  0-C ,  6-C ) :   0.9854 B(  0-C , 18-C ) :   1.0736
B(  1-C ,  2-C ) :   1.1505 B(  1-C ,  4-C ) :   1.1449 B(  2-C ,  3-N ) :   2.9600
B(  4-C ,  5-N ) :   2.9577 B(  6-C ,  7-C ) :   1.2153 B(  6-C , 11-C ) :   1.4545
B(  7-C ,  8-C ) :   1.4700 B(  7-C , 16-C ) :   0.9629 B(  8-C ,  9-C ) :   1.1761
B(  8-C , 72-H ) :   1.0165 B(  9-C , 10-C ) :   1.2576 B(  9-C , 15-C ) :   1.2448
B( 10-C , 11-C ) :   1.2034 B( 10-C , 12-C ) :   1.2421 B( 11-C , 73-H ) :   0.9890
B( 12-C , 13-C ) :   1.4884 B( 12-C , 74-H ) :   0.9970 B( 13-C , 14-C ) :   1.2621
B( 13-C , 75-H ) :   0.9879 B( 14-C , 15-C ) :   1.4879 B( 14-C , 76-H ) :   0.9882
B( 15-C , 77-H ) :   0.9975 B( 16-C , 17-O ) :   2.1180 B( 16-C , 18-C ) :   0.9767
B( 18-C , 19-C ) :   1.5052 B( 19-C , 20-C ) :   1.2531 B( 19-C , 78-H ) :   0.9392
B( 20-C , 21-C ) :   1.3422 B( 20-C , 25-S ) :   1.0821 B( 21-C , 22-C ) :   1.3309
B( 21-C , 79-H ) :   1.0149 B( 22-C , 23-Cl) :   1.0355 B( 22-C , 24-C ) :   1.3792
B( 24-C , 25-S ) :   1.1202 B( 24-C , 26-C ) :   1.2023 B( 26-C , 27-C ) :   1.4501
B( 26-C , 30-C ) :   0.1052 B( 26-C , 31-S ) :   1.1236 B( 27-C , 28-Cl) :   1.0541
B( 27-C , 29-C ) :   1.2992 B( 29-C , 30-C ) :   1.4569 B( 29-C , 80-H ) :   0.9956
B( 30-C , 31-S ) :   1.1138 B( 30-C , 32-C ) :   1.1424 B( 32-C , 33-N ) :   1.7293
B( 32-C , 36-S ) :   1.0883 B( 33-N , 34-C ) :   1.4017 B( 34-C , 35-C ) :   1.3016
B( 34-C , 39-S ) :   1.1012 B( 35-C , 36-S ) :   1.1019 B( 35-C , 37-N ) :   1.4073
B( 37-N , 38-C ) :   1.7195 B( 38-C , 39-S ) :   1.0910 B( 38-C , 40-C ) :   1.1361
B( 40-C , 41-C ) :   1.4673 B( 40-C , 44-C ) :   0.1070 B( 40-C , 45-S ) :   1.1190
B( 41-C , 42-C ) :   1.2956 B( 41-C , 81-H ) :   0.9975 B( 42-C , 43-Cl) :   1.0419
B( 42-C , 44-C ) :   1.4567 B( 44-C , 45-S ) :   1.1263 B( 44-C , 46-C ) :   1.1812
B( 46-C , 47-C ) :   1.4176 B( 46-C , 51-S ) :   1.1656 B( 47-C , 48-Cl) :   1.0460
B( 47-C , 49-C ) :   1.2906 B( 49-C , 50-C ) :   1.4206 B( 49-C , 82-H ) :   0.9843
B( 50-C , 51-S ) :   1.0816 B( 50-C , 52-C ) :   1.2059 B( 52-C , 53-C ) :   1.6011
B( 52-C , 83-H ) :   0.9200 B( 53-C , 54-C ) :   1.0699 B( 53-C , 62-C ) :   0.9364
B( 54-C , 55-C ) :   1.6336 B( 54-C , 60-C ) :   0.9862 B( 55-C , 56-C ) :   1.1473
B( 55-C , 58-C ) :   1.1359 B( 56-C , 57-N ) :   2.9680 B( 58-C , 59-N ) :   2.9915
B( 60-C , 61-C ) :   1.2153 B( 60-C , 67-C ) :   1.4514 B( 61-C , 62-C ) :   0.9541
B( 61-C , 64-C ) :   1.4713 B( 62-C , 63-O ) :   2.1719 B( 64-C , 65-C ) :   1.1792
B( 64-C , 84-H ) :   1.0163 B( 65-C , 66-C ) :   1.2556 B( 65-C , 71-C ) :   1.2453
B( 66-C , 67-C ) :   1.2071 B( 66-C , 68-C ) :   1.2403 B( 67-C , 85-H ) :   0.9903
B( 68-C , 69-C ) :   1.4891 B( 68-C , 86-H ) :   0.9973 B( 69-C , 70-C ) :   1.2598
B( 69-C , 87-H ) :   0.9890 B( 70-C , 71-C ) :   1.4876 B( 70-C , 88-H ) :   0.9893
B( 71-C , 89-H ) :   0.9978

-----------------------------------------------------------------------------
         ABSORPTION SPECTRUM VIA TRANSITION ELECTRIC DIPOLE MOMENTS
-----------------------------------------------------------------------------
State   Energy  Wavelength   fosc         T2         TX        TY        TZ
        (cm-1)    (nm)                  (au**2)     (au)      (au)      (au)
-----------------------------------------------------------------------------
   0   17598.7    568.2   3.259596624  60.97612  -4.27995   5.22438   3.91970
   1   20186.3    495.4   0.193134643   3.14977  -1.67303   0.18289  -0.56329
   2   25521.6    391.8   0.020015769   0.25819  -0.27549   0.30463   0.29915
   3   25629.3    390.2   0.005671051   0.07285   0.19392  -0.18241   0.04435
   4   26432.9    378.3   0.002719358   0.03387   0.11199  -0.09358   0.11211
   5   26786.4    373.3   0.056612970   0.69579  -0.72751  -0.23896  -0.33077
   6   27590.5    362.4   0.142287292   1.69778   0.99704   0.83874  -0.01410
   7   27743.4    360.4   0.011728126   0.13917   0.34103   0.11305   0.10046
   8   28202.1    354.6   0.231275796   2.69976   1.24235  -0.89331  -0.59860
   9   28626.5    349.3   0.121635912   1.39884   0.27289  -0.88721  -0.73296
  10   29293.6    341.4   0.053730066   0.60384   0.76772   0.10938  -0.04978
  11   29532.0    338.6   0.023254120   0.25923  -0.39396  -0.31229   0.08058
  12   29926.0    334.2   0.101845871   1.12039   1.01558   0.26410   0.13875
  13   31481.0    317.7   0.011046897   0.11552  -0.32026  -0.02501   0.11106
  14   31842.7    314.0   0.041037683   0.42428   0.14114   0.60733   0.18842
  15   32314.6    309.5   0.000224483   0.00229   0.00139   0.01796  -0.04430
  16   32833.8    304.6   0.107648103   1.07935  -0.22074   1.01520   0.00014
  17   33015.1    302.9   0.019394734   0.19340  -0.02382   0.38895   0.20383
  18   33810.5    295.8   0.602121409   5.86284   1.26952   2.06095  -0.06030
  19   33992.0    294.2   0.575771968   5.57634   2.16582   0.78402   0.52046
  20   34188.9    292.5   0.020931078   0.20155   0.38075  -0.23758  -0.01165
  21   34504.3    289.8   0.723305323   6.90119   2.52412   0.72646   0.04740
  22   34610.2    288.9   0.005854782   0.05569  -0.21736  -0.08599   0.03243
  23   35378.9    282.7   0.043527281   0.40503   0.41018   0.46956   0.12767
  24   36157.7    276.6   0.005714753   0.05203   0.10576   0.20089   0.02214
  25   36296.8    275.5   0.109541754   0.99354   0.72806   0.50461  -0.45699
  26   36761.1    272.0   0.015333429   0.13732  -0.23195  -0.28897  -0.00379
  27   37046.6    269.9   0.021322484   0.18948  -0.36076  -0.23740  -0.05453
  28   37339.5    267.8   0.019030391   0.16779   0.21976   0.34313   0.04185
  29   37463.5    266.9   0.027403778   0.24081   0.46451   0.13674  -0.07964
  30   38454.3    260.0   0.009119129   0.07807  -0.10914  -0.13282   0.22027
  31   38502.0    259.7   0.115050772   0.98374   0.05524   0.91289   0.38383
  32   38600.2    259.1   0.115081291   0.98150  -0.35745  -0.92397   0.00296
  33   38869.3    257.3   0.181520362   1.53743   1.07422   0.29533  -0.54430
  34   39014.9    256.3   0.078741549   0.66443  -0.45420  -0.61532  -0.28198
  35   39512.3    253.1   0.020691451   0.17240  -0.32971  -0.25150   0.02100
  36   39850.9    250.9   0.071299554   0.58901  -0.54244  -0.00799   0.54287
  37   39891.7    250.7   0.029732455   0.24537  -0.41006   0.15090   0.23335
  38   40108.2    249.3   0.178490052   1.46506   0.49979  -0.95570  -0.54947
  39   40200.3    248.8   0.083838815   0.68658   0.06770  -0.67871  -0.47048

FINAL SINGLE POINT ENERGY     -6772.936097595546

DIPOLE MOMENT
-------------
                                X             Y             Z
Electronic contribution:     42.61670      17.26540      14.81985
Nuclear contribution   :    -45.73673     -19.43489     -15.15514
                        -----------------------------------------
Total Dipole Moment    :     -3.12003      -2.16949      -0.33529
                        -----------------------------------------
Magnitude (a.u.)       :      3.81493
Magnitude (Debye)      :      9.69679

Rotational constants in cm-1:     0.001963     0.000135     0.000129
Rotational constants in MHz :    58.850420     4.054242     3.853657

                             ****ORCA TERMINATED NORMALLY****
TOTAL RUN TIME: 0 days 0 hours 8 minutes 43 seconds 973 msec
