                         Program Version 4.2.0 -  RELEASE  -
|  1> # ORCA input file
|  2> # SCF done       -207.516342057896          0.000801650711
|  3> ! CAM-B3LYP def2-SVP def2/J RIJCOSX Grid4 TightSCF
|  4> %maxcore 5000
|  5> %tddft
|  6>     Mode sTDDFT
|  7>     Ethresh 5.0
|  8>     maxcore 5000
|  9> end
| 10>
| 11> %pal
| 12>   nprocs 6
| 13>   end
| 14> * xyz 0 1
| 15>    C        0.74603         1.39321         0.82330
| 16>    C        0.90309         2.43071        -0.05554
| 17>    C        2.12007         3.11115        -0.25676
| 18>    N        3.08312         3.70841        -0.44202
| 19>    C       -0.12202         2.89798        -0.90229
| 20>    N       -0.91345         3.28679        -1.63744
| 21>    C        1.81715         0.71783         1.54566
| 22>    C        1.34126        -0.55445         1.97940
| 23>    C        2.13927        -1.42420         2.66477
| 24>    C        3.46886        -1.05025         2.96389
| 25>    C        3.94633         0.22557         2.54604
| 26>    C        3.09977         1.10268         1.82932
| 27>    C        5.27176         0.58918         2.85991
| 28>    C        6.08783        -0.26423         3.55118
| 29>    C        5.61687        -1.52043         3.96125
| 30>    C        4.33573        -1.90512         3.67285
| 31>    C       -0.07298        -0.70357         1.59112
| 32>    O       -0.79063        -1.66587         1.74021
| 33>    C       -0.46259         0.62235         1.02694
| 34>    C       -1.77648         0.92658         0.90536
| 35>    C       -2.41231         2.20398         0.76957
| 36>    C       -3.69591         2.27122         0.22290
| 37>    O       -4.23226         1.09317        -0.21436
| 38>    C       -5.50947         0.73564         0.29666
| 39>    C       -4.38499         3.50838         0.06456
| 40>    O       -5.60200         3.55490        -0.56763
| 41>    C       -5.57905         3.16666        -1.93840
| 42>    C       -3.88798         4.67526         0.61968
| 43>    C       -2.62646         4.62269         1.24891
| 44>    C       -1.86554         3.40566         1.28402
| 45>    N       -0.69707         3.56873         1.90121
| 46>    S       -0.56346         5.11048         2.35525
| 47>    N       -1.97391         5.63903         1.80984
| 48>    C       -4.63889         5.92973         0.62334
| 49>    C       -4.91294         6.56155         1.84553
| 50>    C       -5.63169         7.80579         1.90586
| 51>    N       -5.79147         8.43829         3.09561
| 52>    C       -5.32252         7.86729         4.16212
| 53>    C       -4.71992         6.58405         4.11542
| 54>    N       -4.52617         5.95679         2.99649
| 55>    C       -6.15466         8.40849         0.75231
| 56>    C       -5.87210         7.78596        -0.46612
| 57>    C       -5.10558         6.55796        -0.53314
| 58>    N       -4.92259         6.16553        -1.80108
| 59>    S       -5.65793         7.20014        -2.77333
| 60>    N       -6.24973         8.20122        -1.68200
| 61>    C       -6.82834         9.70752         0.82032
| 62>    C       -7.94320        10.00376         1.57334
| 63>    O       -8.74196         9.12549         2.21730
| 64>    C       -8.75622         7.76325         1.86823
| 65>    C       -8.43281        11.36269         1.71104
| 66>    O       -9.54190        11.39938         2.47367
| 67>    C      -10.20840        12.59880         2.78138
| 68>    C       -7.85135        12.41681         1.03092
| 69>    C       -6.73711        12.10871         0.20050
| 70>    C       -6.22355        10.77539         0.10949
| 71>    N       -5.13758        10.70575        -0.65221
| 72>    S       -4.80971        12.17756        -1.21753
| 73>    N       -6.01137        12.97587        -0.49591
| 74>    C       -8.23593        13.81496         1.10935
| 75>    C       -8.42847        14.59625         0.02215
| 76>    C       -8.61770        16.03842        -0.00264
| 77>    C       -8.83415        16.85437         1.07602
| 78>    C       -9.01816        18.25055         0.99005
| 79>    N       -9.17872        19.38727         0.98594
| 80>    C       -8.95846        16.40924         2.40804
| 81>    N       -9.09748        16.10837         3.50817
| 82>    C       -8.59277        16.45704        -1.39781
| 83>    C       -8.52465        15.29863        -2.22468
| 84>    C       -8.49826        14.09200        -1.37862
| 85>    O       -8.59694        12.94177        -1.74193
| 86>    C       -8.50979        15.38701        -3.58642
| 87>    C       -8.55460        16.66083        -4.19633
| 88>    C       -8.61586        17.82442        -3.37619
| 89>    C       -8.63384        17.70265        -1.96856
| 90>    C       -8.66483        19.09037        -3.99552
| 91>    C       -8.65655        19.20348        -5.35888
| 92>    C       -8.59649        18.05708        -6.16555
| 93>    C       -8.54549        16.81342        -5.59674
| 94>    H        1.76107        -2.38588         2.97871
| 95>    H        3.48237         2.06670         1.53239
| 96>    H        5.63096         1.55625         2.53975
| 97>    H        7.10168         0.02380         3.78593
| 98>    H        6.27389        -2.18120         4.50691
| 99>    H        3.96731        -2.87125         3.98581
|100>    H       -2.45359         0.08089         0.98177
|101>    H       -5.43304         0.49590         1.36203
|102>    H       -5.80540        -0.15483        -0.25478
|103>    H       -6.25358         1.52129         0.16180
|104>    H       -6.61332         3.22074        -2.27320
|105>    H       -5.19787         2.15288        -2.07428
|106>    H       -4.96522         3.86600        -2.51020
|107>    H       -5.43767         8.40383         5.09410
|108>    H       -4.41325         6.07517         5.01970
|109>    H       -8.58794         7.61733         0.79856
|110>    H       -9.75185         7.40430         2.13304
|111>    H       -8.01354         7.19198         2.43163
|112>    H      -10.37520        13.20913         1.88839
|113>    H       -9.66981        13.18508         3.53022
|114>    H      -11.16919        12.29422         3.19653
|115>    H       -8.25313        14.26460         2.09164
|116>    H       -8.46387        14.49418        -4.19218
|117>    H       -8.67861        18.60179        -1.37454
|118>    H       -8.71213        19.96964        -3.36989
|119>    H       -8.69653        20.17714        -5.82389
|120>    H       -8.59116        18.16471        -7.23997
|121>    H       -8.49974        15.92742        -6.21305
|122> *
|123>
|124>                          ****END OF INPUT****

CARTESIAN COORDINATES (ANGSTROEM)
---------------------------------
  C      0.746030    1.393210    0.823300
  C      0.903090    2.430710   -0.055540
  C      2.120070    3.111150   -0.256760
  N      3.083120    3.708410   -0.442020
  C     -0.122020    2.897980   -0.902290
  N     -0.913450    3.286790   -1.637440
  C      1.817150    0.717830    1.545660
  C      1.341260   -0.554450    1.979400
  C      2.139270   -1.424200    2.664770
  C      3.468860   -1.050250    2.963890
  C      3.946330    0.225570    2.546040
  C      3.099770    1.102680    1.829320
  C      5.271760    0.589180    2.859910
  C      6.087830   -0.264230    3.551180
  C      5.616870   -1.520430    3.961250
  C      4.335730   -1.905120    3.672850
  C     -0.072980   -0.703570    1.591120
  O     -0.790630   -1.665870    1.740210
  C     -0.462590    0.622350    1.026940
  C     -1.776480    0.926580    0.905360
  C     -2.412310    2.203980    0.769570
  C     -3.695910    2.271220    0.222900
  O     -4.232260    1.093170   -0.214360
  C     -5.509470    0.735640    0.296660
  C     -4.384990    3.508380    0.064560
  O     -5.602000    3.554900   -0.567630
  C     -5.579050    3.166660   -1.938400
  C     -3.887980    4.675260    0.619680
  C     -2.626460    4.622690    1.248910
  C     -1.865540    3.405660    1.284020
  N     -0.697070    3.568730    1.901210
  S     -0.563460    5.110480    2.355250
  N     -1.973910    5.639030    1.809840
  C     -4.638890    5.929730    0.623340
  C     -4.912940    6.561550    1.845530
  C     -5.631690    7.805790    1.905860
  N     -5.791470    8.438290    3.095610
  C     -5.322520    7.867290    4.162120
  C     -4.719920    6.584050    4.115420
  N     -4.526170    5.956790    2.996490
  C     -6.154660    8.408490    0.752310
  C     -5.872100    7.785960   -0.466120
  C     -5.105580    6.557960   -0.533140
  N     -4.922590    6.165530   -1.801080
  S     -5.657930    7.200140   -2.773330
  N     -6.249730    8.201220   -1.682000
  C     -6.828340    9.707520    0.820320
  C     -7.943200   10.003760    1.573340
  O     -8.741960    9.125490    2.217300
  C     -8.756220    7.763250    1.868230
  C     -8.432810   11.362690    1.711040
  O     -9.541900   11.399380    2.473670
  C    -10.208400   12.598800    2.781380
  C     -7.851350   12.416810    1.030920
  C     -6.737110   12.108710    0.200500
  C     -6.223550   10.775390    0.109490
  N     -5.137580   10.705750   -0.652210
  S     -4.809710   12.177560   -1.217530
  N     -6.011370   12.975870   -0.495910
  C     -8.235930   13.814960    1.109350
  C     -8.428470   14.596250    0.022150
  C     -8.617700   16.038420   -0.002640
  C     -8.834150   16.854370    1.076020
  C     -9.018160   18.250550    0.990050
  N     -9.178720   19.387270    0.985940
  C     -8.958460   16.409240    2.408040
  N     -9.097480   16.108370    3.508170
  C     -8.592770   16.457040   -1.397810
  C     -8.524650   15.298630   -2.224680
  C     -8.498260   14.092000   -1.378620
  O     -8.596940   12.941770   -1.741930
  C     -8.509790   15.387010   -3.586420
  C     -8.554600   16.660830   -4.196330
  C     -8.615860   17.824420   -3.376190
  C     -8.633840   17.702650   -1.968560
  C     -8.664830   19.090370   -3.995520
  C     -8.656550   19.203480   -5.358880
  C     -8.596490   18.057080   -6.165550
  C     -8.545490   16.813420   -5.596740
  H      1.761070   -2.385880    2.978710
  H      3.482370    2.066700    1.532390
  H      5.630960    1.556250    2.539750
  H      7.101680    0.023800    3.785930
  H      6.273890   -2.181200    4.506910
  H      3.967310   -2.871250    3.985810
  H     -2.453590    0.080890    0.981770
  H     -5.433040    0.495900    1.362030
  H     -5.805400   -0.154830   -0.254780
  H     -6.253580    1.521290    0.161800
  H     -6.613320    3.220740   -2.273200
  H     -5.197870    2.152880   -2.074280
  H     -4.965220    3.866000   -2.510200
  H     -5.437670    8.403830    5.094100
  H     -4.413250    6.075170    5.019700
  H     -8.587940    7.617330    0.798560
  H     -9.751850    7.404300    2.133040
  H     -8.013540    7.191980    2.431630
  H    -10.375200   13.209130    1.888390
  H     -9.669810   13.185080    3.530220
  H    -11.169190   12.294220    3.196530
  H     -8.253130   14.264600    2.091640
  H     -8.463870   14.494180   -4.192180
  H     -8.678610   18.601790   -1.374540
  H     -8.712130   19.969640   -3.369890
  H     -8.696530   20.177140   -5.823890
  H     -8.591160   18.164710   -7.239970
  H     -8.499740   15.927420   -6.213050

 Total Charge           Charge          ....    0
 Multiplicity           Mult            ....    1
 Number of Electrons    NEL             ....  556
 Basis Dimension        Dim             .... 1258

ORBITAL ENERGIES
----------------

  NO   OCC          E(Eh)            E(eV)
   0   2.0000     -89.031391     -2422.6673
   1   2.0000     -89.017427     -2422.2873
   2   2.0000     -89.000243     -2421.8197
   3   2.0000     -19.257472      -524.0224
   4   2.0000     -19.256079      -523.9846
   5   2.0000     -19.249006      -523.7921
   6   2.0000     -19.245591      -523.6991
   7   2.0000     -19.207885      -522.6731
   8   2.0000     -19.205491      -522.6080
   9   2.0000     -14.435811      -392.8184
  10   2.0000     -14.435715      -392.8158
  11   2.0000     -14.432383      -392.7251
  12   2.0000     -14.429882      -392.6571
  13   2.0000     -14.426965      -392.5777
  14   2.0000     -14.426466      -392.5641
  15   2.0000     -14.418617      -392.3505
  16   2.0000     -14.418359      -392.3435
  17   2.0000     -14.418283      -392.3414
  18   2.0000     -14.413364      -392.2076
  19   2.0000     -14.405239      -391.9865
  20   2.0000     -14.403633      -391.9428
  21   2.0000     -10.359330      -281.8917
  22   2.0000     -10.357239      -281.8348
  23   2.0000     -10.355987      -281.8007
  24   2.0000     -10.355868      -281.7975
  25   2.0000     -10.349291      -281.6185
  26   2.0000     -10.348142      -281.5872
  27   2.0000     -10.340534      -281.3802
  28   2.0000     -10.339302      -281.3467
  29   2.0000     -10.328444      -281.0512
  30   2.0000     -10.326187      -280.9898
  31   2.0000     -10.325358      -280.9673
  32   2.0000     -10.325004      -280.9576
  33   2.0000     -10.324235      -280.9367
  34   2.0000     -10.323960      -280.9292
  35   2.0000     -10.323672      -280.9214
  36   2.0000     -10.323467      -280.9158
  37   2.0000     -10.322890      -280.9001
  38   2.0000     -10.321880      -280.8726
  39   2.0000     -10.321535      -280.8633
  40   2.0000     -10.320759      -280.8421
  41   2.0000     -10.319969      -280.8206
  42   2.0000     -10.318423      -280.7786
  43   2.0000     -10.316334      -280.7217
  44   2.0000     -10.314521      -280.6724
  45   2.0000     -10.310776      -280.5705
  46   2.0000     -10.310486      -280.5626
  47   2.0000     -10.308826      -280.5174
  48   2.0000     -10.308108      -280.4979
  49   2.0000     -10.305669      -280.4315
  50   2.0000     -10.304070      -280.3880
  51   2.0000     -10.302447      -280.3438
  52   2.0000     -10.301661      -280.3224
  53   2.0000     -10.300762      -280.2980
  54   2.0000     -10.300126      -280.2807
  55   2.0000     -10.296403      -280.1794
  56   2.0000     -10.295440      -280.1532
  57   2.0000     -10.295138      -280.1449
  58   2.0000     -10.294686      -280.1327
  59   2.0000     -10.293591      -280.1028
  60   2.0000     -10.293103      -280.0896
  61   2.0000     -10.292767      -280.0804
  62   2.0000     -10.290966      -280.0314
  63   2.0000     -10.290170      -280.0098
  64   2.0000     -10.289803      -279.9998
  65   2.0000     -10.288926      -279.9759
  66   2.0000     -10.288455      -279.9631
  67   2.0000     -10.287248      -279.9302
  68   2.0000     -10.285894      -279.8934
  69   2.0000     -10.284772      -279.8629
  70   2.0000     -10.284564      -279.8572
  71   2.0000     -10.284021      -279.8425
  72   2.0000     -10.283845      -279.8377
  73   2.0000     -10.283359      -279.8244
  74   2.0000     -10.280337      -279.7422
  75   2.0000     -10.279991      -279.7328
  76   2.0000     -10.279558      -279.7210
  77   2.0000     -10.279305      -279.7141
  78   2.0000     -10.278595      -279.6948
  79   2.0000      -8.122744      -221.0311
  80   2.0000      -8.108983      -220.6566
  81   2.0000      -8.092206      -220.2001
  82   2.0000      -6.093602      -165.8154
  83   2.0000      -6.085989      -165.6082
  84   2.0000      -6.085843      -165.6042
  85   2.0000      -6.080201      -165.4507
  86   2.0000      -6.072561      -165.2428
  87   2.0000      -6.071329      -165.2093
  88   2.0000      -6.063641      -165.0001
  89   2.0000      -6.055994      -164.7920
  90   2.0000      -6.054059      -164.7393
  91   2.0000      -1.173170       -31.9236
  92   2.0000      -1.167211       -31.7614
  93   2.0000      -1.145050       -31.1584
  94   2.0000      -1.139071       -30.9957
  95   2.0000      -1.125946       -30.6385
  96   2.0000      -1.123554       -30.5735
  97   2.0000      -1.120279       -30.4843
  98   2.0000      -1.118295       -30.4304
  99   2.0000      -1.104427       -30.0530
 100   2.0000      -1.083518       -29.4840
 101   2.0000      -1.017424       -27.6855
 102   2.0000      -1.009632       -27.4735
 103   2.0000      -1.007464       -27.4145
 104   2.0000      -0.997141       -27.1336
 105   2.0000      -0.993261       -27.0280
 106   2.0000      -0.988525       -26.8991
 107   2.0000      -0.984236       -26.7824
 108   2.0000      -0.980246       -26.6738
 109   2.0000      -0.975541       -26.5458
 110   2.0000      -0.970939       -26.4206
 111   2.0000      -0.969399       -26.3787
 112   2.0000      -0.961986       -26.1770
 113   2.0000      -0.960104       -26.1258
 114   2.0000      -0.955100       -25.9896
 115   2.0000      -0.942925       -25.6583
 116   2.0000      -0.921522       -25.0759
 117   2.0000      -0.914406       -24.8823
 118   2.0000      -0.901642       -24.5349
 119   2.0000      -0.897045       -24.4098
 120   2.0000      -0.883021       -24.0282
 121   2.0000      -0.879033       -23.9197
 122   2.0000      -0.875323       -23.8187
 123   2.0000      -0.872672       -23.7466
 124   2.0000      -0.867185       -23.5973
 125   2.0000      -0.866691       -23.5838
 126   2.0000      -0.858327       -23.3563
 127   2.0000      -0.853104       -23.2141
 128   2.0000      -0.839431       -22.8421
 129   2.0000      -0.825865       -22.4729
 130   2.0000      -0.825316       -22.4580
 131   2.0000      -0.820239       -22.3199
 132   2.0000      -0.806226       -21.9385
 133   2.0000      -0.797270       -21.6948
 134   2.0000      -0.796898       -21.6847
 135   2.0000      -0.785832       -21.3836
 136   2.0000      -0.779925       -21.2228
 137   2.0000      -0.777658       -21.1611
 138   2.0000      -0.771184       -20.9850
 139   2.0000      -0.758308       -20.6346
 140   2.0000      -0.750871       -20.4322
 141   2.0000      -0.744733       -20.2652
 142   2.0000      -0.737492       -20.0682
 143   2.0000      -0.718944       -19.5635
 144   2.0000      -0.705331       -19.1930
 145   2.0000      -0.703840       -19.1525
 146   2.0000      -0.701446       -19.0873
 147   2.0000      -0.696778       -18.9603
 148   2.0000      -0.695793       -18.9335
 149   2.0000      -0.694443       -18.8968
 150   2.0000      -0.693138       -18.8613
 151   2.0000      -0.688895       -18.7458
 152   2.0000      -0.685827       -18.6623
 153   2.0000      -0.680545       -18.5186
 154   2.0000      -0.673723       -18.3329
 155   2.0000      -0.665592       -18.1117
 156   2.0000      -0.662916       -18.0389
 157   2.0000      -0.647963       -17.6320
 158   2.0000      -0.644280       -17.5317
 159   2.0000      -0.639453       -17.4004
 160   2.0000      -0.632830       -17.2202
 161   2.0000      -0.626930       -17.0596
 162   2.0000      -0.623700       -16.9718
 163   2.0000      -0.618745       -16.8369
 164   2.0000      -0.615094       -16.7376
 165   2.0000      -0.613817       -16.7028
 166   2.0000      -0.613340       -16.6898
 167   2.0000      -0.606076       -16.4922
 168   2.0000      -0.604775       -16.4568
 169   2.0000      -0.604291       -16.4436
 170   2.0000      -0.600075       -16.3289
 171   2.0000      -0.598789       -16.2939
 172   2.0000      -0.589953       -16.0534
 173   2.0000      -0.581094       -15.8124
 174   2.0000      -0.579143       -15.7593
 175   2.0000      -0.570778       -15.5317
 176   2.0000      -0.568691       -15.4749
 177   2.0000      -0.560851       -15.2615
 178   2.0000      -0.558065       -15.1857
 179   2.0000      -0.555626       -15.1194
 180   2.0000      -0.552648       -15.0383
 181   2.0000      -0.550283       -14.9740
 182   2.0000      -0.548706       -14.9310
 183   2.0000      -0.545906       -14.8549
 184   2.0000      -0.544463       -14.8156
 185   2.0000      -0.544286       -14.8108
 186   2.0000      -0.542769       -14.7695
 187   2.0000      -0.540509       -14.7080
 188   2.0000      -0.538878       -14.6636
 189   2.0000      -0.538316       -14.6483
 190   2.0000      -0.536867       -14.6089
 191   2.0000      -0.532749       -14.4968
 192   2.0000      -0.530447       -14.4342
 193   2.0000      -0.528899       -14.3921
 194   2.0000      -0.525643       -14.3035
 195   2.0000      -0.523158       -14.2358
 196   2.0000      -0.522250       -14.2111
 197   2.0000      -0.518735       -14.1155
 198   2.0000      -0.516792       -14.0626
 199   2.0000      -0.513812       -13.9815
 200   2.0000      -0.510795       -13.8994
 201   2.0000      -0.509538       -13.8652
 202   2.0000      -0.508768       -13.8443
 203   2.0000      -0.507300       -13.8043
 204   2.0000      -0.504260       -13.7216
 205   2.0000      -0.502692       -13.6789
 206   2.0000      -0.500326       -13.6146
 207   2.0000      -0.497386       -13.5346
 208   2.0000      -0.494769       -13.4633
 209   2.0000      -0.492280       -13.3956
 210   2.0000      -0.485673       -13.2158
 211   2.0000      -0.483451       -13.1554
 212   2.0000      -0.480464       -13.0741
 213   2.0000      -0.478410       -13.0182
 214   2.0000      -0.476811       -12.9747
 215   2.0000      -0.474544       -12.9130
 216   2.0000      -0.468477       -12.7479
 217   2.0000      -0.464370       -12.6362
 218   2.0000      -0.461740       -12.5646
 219   2.0000      -0.461441       -12.5565
 220   2.0000      -0.459331       -12.4990
 221   2.0000      -0.455908       -12.4059
 222   2.0000      -0.453619       -12.3436
 223   2.0000      -0.450639       -12.2625
 224   2.0000      -0.444358       -12.0916
 225   2.0000      -0.443291       -12.0626
 226   2.0000      -0.440111       -11.9760
 227   2.0000      -0.438847       -11.9416
 228   2.0000      -0.436502       -11.8778
 229   2.0000      -0.435544       -11.8518
 230   2.0000      -0.433222       -11.7886
 231   2.0000      -0.432522       -11.7695
 232   2.0000      -0.430634       -11.7182
 233   2.0000      -0.429916       -11.6986
 234   2.0000      -0.428962       -11.6726
 235   2.0000      -0.425005       -11.5650
 236   2.0000      -0.424463       -11.5502
 237   2.0000      -0.423010       -11.5107
 238   2.0000      -0.420264       -11.4360
 239   2.0000      -0.419247       -11.4083
 240   2.0000      -0.416514       -11.3339
 241   2.0000      -0.414162       -11.2699
 242   2.0000      -0.412717       -11.2306
 243   2.0000      -0.409103       -11.1322
 244   2.0000      -0.407394       -11.0858
 245   2.0000      -0.406760       -11.0685
 246   2.0000      -0.401892       -10.9360
 247   2.0000      -0.400430       -10.8962
 248   2.0000      -0.397822       -10.8253
 249   2.0000      -0.397395       -10.8137
 250   2.0000      -0.393000       -10.6941
 251   2.0000      -0.390809       -10.6345
 252   2.0000      -0.386587       -10.5196
 253   2.0000      -0.385238       -10.4829
 254   2.0000      -0.382497       -10.4083
 255   2.0000      -0.379761       -10.3338
 256   2.0000      -0.379241       -10.3197
 257   2.0000      -0.371266       -10.1027
 258   2.0000      -0.369690       -10.0598
 259   2.0000      -0.364677        -9.9234
 260   2.0000      -0.359142        -9.7727
 261   2.0000      -0.354358        -9.6426
 262   2.0000      -0.350199        -9.5294
 263   2.0000      -0.338640        -9.2149
 264   2.0000      -0.333047        -9.0627
 265   2.0000      -0.329685        -8.9712
 266   2.0000      -0.327507        -8.9119
 267   2.0000      -0.325268        -8.8510
 268   2.0000      -0.324729        -8.8363
 269   2.0000      -0.312470        -8.5028
 270   2.0000      -0.308744        -8.4014
 271   2.0000      -0.303938        -8.2706
 272   2.0000      -0.298239        -8.1155
 273   2.0000      -0.292340        -7.9550
 274   2.0000      -0.285242        -7.7618
 275   2.0000      -0.282143        -7.6775
 276   2.0000      -0.279612        -7.6086
 277   2.0000      -0.264385        -7.1943
 278   0.0000      -0.095282        -2.5928
 279   0.0000      -0.084994        -2.3128
 280   0.0000      -0.080048        -2.1782
 281   0.0000      -0.049130        -1.3369
 282   0.0000      -0.047557        -1.2941

MULLIKEN ATOMIC CHARGES
-----------------------
   0 C :    0.337552
   1 C :   -0.322412
   2 C :   -0.195013
   3 N :    0.147758
   4 C :   -0.202235
   5 N :    0.157301
   6 C :    0.033758
   7 C :    0.016981
   8 C :   -0.086383
   9 C :    0.096855
  10 C :    0.094872
  11 C :   -0.086573
  12 C :   -0.017576
  13 C :    0.035815
  14 C :    0.032483
  15 C :   -0.015861
  16 C :    0.133108
  17 O :   -0.145311
  18 C :   -0.114995
  19 C :   -0.012947
  20 C :    0.020149
  21 C :    0.107918
  22 O :   -0.321635
  23 C :    0.175094
  24 C :    0.092716
  25 O :   -0.338418
  26 C :    0.181210
  27 C :   -0.035151
  28 C :    0.053677
  29 C :    0.003354
  30 N :   -0.293065
  31 S :    0.505652
  32 N :   -0.255621
  33 C :    0.026077
  34 C :   -0.033799
  35 C :   -0.108896
  36 N :    0.006388
  37 C :    0.027336
  38 C :    0.021950
  39 N :    0.003320
  40 C :   -0.002941
  41 C :    0.001135
  42 C :    0.048465
  43 N :   -0.274005
  44 S :    0.534938
  45 N :   -0.260027
  46 C :   -0.057979
  47 C :    0.136749
  48 O :   -0.283741
  49 C :    0.207967
  50 C :    0.131089
  51 O :   -0.278494
  52 C :    0.170037
  53 C :    0.011884
  54 C :    0.003118
  55 C :    0.035683
  56 N :   -0.271227
  57 S :    0.474753
  58 N :   -0.289641
  59 C :   -0.116922
  60 C :   -0.045804
  61 C :    0.310772
  62 C :   -0.356877
  63 C :   -0.182278
  64 N :    0.148172
  65 C :   -0.188623
  66 N :    0.148202
  67 C :    0.052034
  68 C :   -0.003064
  69 C :    0.157004
  70 O :   -0.137123
  71 C :   -0.081238
  72 C :    0.096817
  73 C :    0.093185
  74 C :   -0.081782
  75 C :   -0.017542
  76 C :    0.036045
  77 C :    0.033076
  78 C :   -0.015138
  79 H :   -0.015830
  80 H :   -0.009610
  81 H :   -0.013170
  82 H :   -0.007769
  83 H :   -0.007076
  84 H :   -0.020576
  85 H :    0.019926
  86 H :    0.024919
  87 H :    0.041218
  88 H :    0.047078
  89 H :    0.023591
  90 H :    0.032563
  91 H :    0.040791
  92 H :    0.016572
  93 H :    0.012648
  94 H :    0.033002
  95 H :    0.033177
  96 H :    0.024223
  97 H :    0.046847
  98 H :    0.044689
  99 H :    0.038664
 100 H :    0.041453
 101 H :   -0.013983
 102 H :   -0.008207
 103 H :   -0.009066
 104 H :   -0.006235
 105 H :   -0.004025
 106 H :   -0.017929
Sum of atomic charges:    0.0000000

LOEWDIN ATOMIC CHARGES
----------------------
   0 C :    0.079117
   1 C :   -0.134581
   2 C :   -0.017963
   3 N :   -0.060755
   4 C :   -0.017229
   5 N :   -0.058004
   6 C :   -0.017699
   7 C :   -0.056398
   8 C :    0.030343
   9 C :   -0.010555
  10 C :   -0.005628
  11 C :    0.013572
  12 C :   -0.007579
  13 C :   -0.015217
  14 C :   -0.016464
  15 C :   -0.010095
  16 C :    0.085397
  17 O :   -0.145150
  18 C :   -0.080152
  19 C :    0.076974
  20 C :   -0.065344
  21 C :    0.073314
  22 O :   -0.103528
  23 C :    0.080383
  24 C :    0.043765
  25 O :   -0.122391
  26 C :    0.075517
  27 C :   -0.008285
  28 C :   -0.037315
  29 C :   -0.042883
  30 N :   -0.289806
  31 S :    0.638977
  32 N :   -0.273022
  33 C :   -0.011467
  34 C :   -0.000070
  35 C :   -0.015746
  36 N :   -0.031787
  37 C :    0.008966
  38 C :    0.008131
  39 N :   -0.027752
  40 C :   -0.009884
  41 C :   -0.043307
  42 C :   -0.036128
  43 N :   -0.282749
  44 S :    0.680972
  45 N :   -0.276260
  46 C :   -0.065797
  47 C :    0.069241
  48 O :   -0.074680
  49 C :    0.081845
  50 C :    0.076303
  51 O :   -0.068736
  52 C :    0.081755
  53 C :   -0.092823
  54 C :   -0.035921
  55 C :   -0.037514
  56 N :   -0.286967
  57 S :    0.608714
  58 N :   -0.296315
  59 C :    0.077941
  60 C :   -0.077327
  61 C :    0.082878
  62 C :   -0.141511
  63 C :   -0.017611
  64 N :   -0.053945
  65 C :   -0.015533
  66 N :   -0.059728
  67 C :   -0.025929
  68 C :   -0.050207
  69 C :    0.085549
  70 O :   -0.133214
  71 C :    0.030290
  72 C :   -0.006979
  73 C :   -0.007194
  74 C :    0.020528
  75 C :   -0.005183
  76 C :   -0.014560
  77 C :   -0.012508
  78 C :   -0.010228
  79 H :    0.037799
  80 H :    0.037716
  81 H :    0.033367
  82 H :    0.031920
  83 H :    0.031607
  84 H :    0.030755
  85 H :    0.045115
  86 H :    0.018334
  87 H :    0.029270
  88 H :    0.017067
  89 H :    0.021635
  90 H :    0.012047
  91 H :    0.015506
  92 H :    0.028117
  93 H :    0.026413
  94 H :    0.021827
  95 H :    0.026592
  96 H :    0.015052
  97 H :    0.023357
  98 H :    0.023225
  99 H :    0.032436
 100 H :    0.042958
 101 H :    0.038548
 102 H :    0.038698
 103 H :    0.034566
 104 H :    0.032760
 105 H :    0.032830
 106 H :    0.031614

  Mayer bond orders larger than 0.100000
B(  0-C ,  1-C ) :   1.6508 B(  0-C ,  6-C ) :   1.0024 B(  0-C , 18-C ) :   1.0267
B(  1-C ,  2-C ) :   1.1478 B(  1-C ,  4-C ) :   1.1594 B(  2-C ,  3-N ) :   2.9832
B(  4-C ,  5-N ) :   3.0070 B(  6-C ,  7-C ) :   1.2145 B(  6-C , 11-C ) :   1.4586
B(  7-C ,  8-C ) :   1.4715 B(  7-C , 16-C ) :   0.9205 B(  8-C ,  9-C ) :   1.1839
B(  8-C , 79-H ) :   1.0157 B(  9-C , 10-C ) :   1.2607 B(  9-C , 15-C ) :   1.2429
B( 10-C , 11-C ) :   1.1990 B( 10-C , 12-C ) :   1.2417 B( 11-C , 80-H ) :   0.9942
B( 12-C , 13-C ) :   1.4894 B( 12-C , 81-H ) :   0.9972 B( 13-C , 14-C ) :   1.2607
B( 13-C , 82-H ) :   0.9885 B( 14-C , 15-C ) :   1.4907 B( 14-C , 83-H ) :   0.9881
B( 15-C , 84-H ) :   0.9973 B( 16-C , 17-O ) :   2.2674 B( 16-C , 18-C ) :   0.9361
B( 18-C , 19-C ) :   1.6789 B( 19-C , 20-C ) :   1.0847 B( 19-C , 85-H ) :   0.9385
B( 20-C , 21-C ) :   1.4205 B( 20-C , 27-C ) :   0.1236 B( 20-C , 29-C ) :   1.1573
B( 21-C , 22-O ) :   1.1832 B( 21-C , 24-C ) :   1.1102 B( 22-O , 23-C ) :   0.9105
B( 23-C , 86-H ) :   0.9700 B( 23-C , 87-H ) :   0.9834 B( 23-C , 88-H ) :   0.9627
B( 24-C , 25-O ) :   1.1681 B( 24-C , 27-C ) :   1.5337 B( 25-O , 26-C ) :   0.9074
B( 26-C , 89-H ) :   0.9833 B( 26-C , 90-H ) :   0.9646 B( 26-C , 91-H ) :   0.9560
B( 27-C , 28-C ) :   1.2554 B( 27-C , 33-C ) :   0.8992 B( 28-C , 29-C ) :   1.1680
B( 28-C , 32-N ) :   1.5395 B( 29-C , 30-N ) :   1.5363 B( 30-N , 31-S ) :   1.2397
B( 30-N , 32-N ) :   0.1414 B( 31-S , 32-N ) :   1.2745 B( 33-C , 34-C ) :   1.4099
B( 33-C , 40-C ) :   0.1599 B( 33-C , 42-C ) :   1.3045 B( 34-C , 35-C ) :   1.1011
B( 34-C , 39-N ) :   1.4194 B( 35-C , 36-N ) :   1.4298 B( 35-C , 40-C ) :   1.3731
B( 36-N , 37-C ) :   1.7287 B( 37-C , 38-C ) :   1.1458 B( 37-C , 92-H ) :   0.9738
B( 38-C , 39-N ) :   1.7320 B( 38-C , 93-H ) :   0.9729 B( 40-C , 41-C ) :   1.2840
B( 40-C , 46-C ) :   0.9106 B( 41-C , 42-C ) :   1.1021 B( 41-C , 45-N ) :   1.4838
B( 42-C , 43-N ) :   1.4809 B( 43-N , 44-S ) :   1.2923 B( 43-N , 45-N ) :   0.1658
B( 44-S , 45-N ) :   1.3139 B( 46-C , 47-C ) :   1.4908 B( 46-C , 53-C ) :   0.1022
B( 46-C , 55-C ) :   1.2286 B( 47-C , 48-O ) :   1.2548 B( 47-C , 50-C ) :   1.0888
B( 48-O , 49-C ) :   0.9469 B( 49-C , 94-H ) :   0.9576 B( 49-C , 95-H ) :   0.9751
B( 49-C , 96-H ) :   0.9670 B( 50-C , 51-O ) :   1.2516 B( 50-C , 53-C ) :   1.4373
B( 51-O , 52-C ) :   0.9363 B( 52-C , 97-H ) :   0.9512 B( 52-C , 98-H ) :   0.9718
B( 52-C , 99-H ) :   0.9709 B( 53-C , 54-C ) :   1.1704 B( 53-C , 59-C ) :   1.0073
B( 54-C , 55-C ) :   1.1599 B( 54-C , 58-N ) :   1.5696 B( 55-C , 56-N ) :   1.5682
B( 56-N , 57-S ) :   1.2405 B( 56-N , 58-N ) :   0.1393 B( 57-S , 58-N ) :   1.2311
B( 59-C , 60-C ) :   1.7317 B( 59-C ,100-H ) :   0.9250 B( 60-C , 61-C ) :   1.0466
B( 60-C , 69-C ) :   0.9114 B( 61-C , 62-C ) :   1.6410 B( 61-C , 67-C ) :   1.0006
B( 62-C , 63-C ) :   1.1401 B( 62-C , 65-C ) :   1.1529 B( 63-C , 64-N ) :   2.9696
B( 65-C , 66-N ) :   2.9666 B( 67-C , 68-C ) :   1.2127 B( 67-C , 74-C ) :   1.4406
B( 68-C , 69-C ) :   0.9390 B( 68-C , 71-C ) :   1.4788 B( 69-C , 70-O ) :   2.2525
B( 71-C , 72-C ) :   1.1811 B( 71-C ,101-H ) :   1.0160 B( 72-C , 73-C ) :   1.2535
B( 72-C , 78-C ) :   1.2445 B( 73-C , 74-C ) :   1.2146 B( 73-C , 75-C ) :   1.2362
B( 74-C ,102-H ) :   0.9897 B( 75-C , 76-C ) :   1.4931 B( 75-C ,103-H ) :   0.9977
B( 76-C , 77-C ) :   1.2560 B( 76-C ,104-H ) :   0.9893 B( 77-C , 78-C ) :   1.4904
B( 77-C ,105-H ) :   0.9892 B( 78-C ,106-H ) :   0.9976

-----------------------------------------------------------------------------
         ABSORPTION SPECTRUM VIA TRANSITION ELECTRIC DIPOLE MOMENTS
-----------------------------------------------------------------------------
State   Energy  Wavelength   fosc         T2         TX        TY        TZ
        (cm-1)    (nm)                  (au**2)     (au)      (au)      (au)
-----------------------------------------------------------------------------
   0   19136.2    522.6   0.624306684  10.74035  -1.89815   2.66849  -0.12864
   1   22187.4    450.7   0.281397075   4.17530   1.41662  -1.46100   0.18429
   2   22603.5    442.4   0.151691351   2.20933  -0.17372  -1.37168   0.54557
   3   23529.8    425.0   0.049039359   0.68612   0.79450  -0.21236  -0.09895
   4   24409.3    409.7   0.013173893   0.17768  -0.35108   0.16158   0.16827
   5   25220.8    396.5   0.011601672   0.15144   0.36388   0.05268   0.12750
   6   25413.9    393.5   0.010348585   0.13406   0.31324   0.12531  -0.14224
   7   25793.4    387.7   0.115138530   1.46956  -0.77371   0.74229  -0.56562
   8   27107.8    368.9   0.064162600   0.77923   0.86050   0.19687  -0.00190
   9   27725.1    360.7   0.091225407   1.08322   0.18689   0.34925  -0.96246
  10   28312.7    353.2   0.105440138   1.22603   1.01377  -0.17122   0.41107
  11   28473.1    351.2   0.031420470   0.36329   0.04408   0.58551   0.13612
  12   28569.7    350.0   0.003381243   0.03896  -0.13690   0.03721  -0.13724
  13   28852.3    346.6   0.020133013   0.22972  -0.37795   0.28673   0.06829
  14   29424.2    339.9   0.009499025   0.10628   0.09309  -0.29026   0.11560
  15   29798.4    335.6   0.001023060   0.01130   0.03229   0.09614   0.03188
  16   30027.8    333.0   0.035175894   0.38565   0.18803  -0.37296  -0.45957
  17   30588.6    326.9   0.088799730   0.95571  -0.10152   0.13066  -0.96350
  18   30814.6    324.5   0.058848289   0.62871   0.30789   0.73023   0.02626
  19   31397.3    318.5   0.041936869   0.43972   0.17977  -0.46415   0.43814
  20   31878.2    313.7   0.030590132   0.31591   0.08431   0.26718  -0.48726
  21   32031.1    312.2   0.133416224   1.37123   0.53367  -1.02720   0.17690
  22   32200.0    310.6   0.186640510   1.90821   0.43363  -0.11884   1.30616
  23   32359.9    309.0   0.062599954   0.63686   0.40616  -0.49995   0.47111
  24   32472.8    308.0   0.126043975   1.27784   0.25552  -0.51558   0.97300
  25   32576.2    307.0   0.161711778   1.63424  -0.81835   0.98208  -0.00812
  26   32837.6    304.5   0.075704090   0.75897  -0.26405   0.40505   0.72469
  27   33071.0    302.4   0.003294713   0.03280   0.17434   0.03750  -0.03160
  28   33273.4    300.5   0.010273731   0.10165  -0.05784   0.26304  -0.17063
  29   33846.4    295.5   0.124327685   1.20929  -0.03355   0.15363   1.08838
  30   34000.4    294.1   0.036093042   0.34947  -0.03198  -0.44807  -0.38429
  31   34202.4    292.4   0.269005540   2.58929   0.84527  -0.89543   1.03587
  32   34708.7    288.1   0.311418066   2.95380   0.10951  -0.08357  -1.71313
  33   34884.5    286.7   0.033211374   0.31342   0.51762  -0.02198   0.21215
  34   35267.2    283.5   0.302509756   2.82386  -1.20692   0.70290  -0.93441
  35   35584.9    281.0   0.388961488   3.59846   0.40283   0.82964  -1.65767
  36   35988.5    277.9   0.034556000   0.31611   0.45637   0.21934   0.24438
  37   36097.3    277.0   0.161190322   1.47008  -0.87540   0.30990  -0.77956
  38   36214.6    276.1   0.008570544   0.07791  -0.06263  -0.27067   0.02696
  39   36368.5    275.0   0.020608024   0.18655   0.28629  -0.32186  -0.03147
  40   36489.4    274.1   0.120572418   1.08782  -0.20050  -0.38789   0.94719
  41   36576.3    273.4   0.084222924   0.75806  -0.55808   0.62423  -0.23863
  42   36913.0    270.9   0.071568557   0.63829  -0.06077   0.40841  -0.68396
  43   37084.7    269.7   0.013968343   0.12400  -0.04663   0.34302   0.06452
  44   37119.8    269.4   0.045816522   0.40634  -0.59845   0.21937   0.00845
  45   37362.0    267.7   0.184517590   1.62586  -0.76417  -0.52390   0.87603
  46   37640.0    265.7   0.007370561   0.06447  -0.17927   0.11159  -0.14098
  47   37709.5    265.2   0.087732996   0.76593  -0.08885   0.33721  -0.80270
  48   37857.6    264.1   0.029492687   0.25647   0.41727  -0.27445  -0.08385
  49   37901.5    263.8   0.008574414   0.07448   0.08526  -0.10120   0.23867
  50   38529.1    259.5   0.019825584   0.16940   0.15021  -0.38124   0.03860
  51   38650.6    258.7   0.029241622   0.24907  -0.10524  -0.33947   0.35036
  52   38753.9    258.0   0.069845815   0.59334  -0.20875  -0.33910   0.65937
  53   38918.7    256.9   0.031316501   0.26491  -0.05189  -0.49025   0.14786
  54   38989.4    256.5   0.005489869   0.04635  -0.08291  -0.15761   0.12099
  55   39388.0    253.9   0.008057941   0.06735  -0.12321  -0.21409  -0.07958
  56   39514.8    253.1   0.177032201   1.47492   0.98326   0.71278   0.00841
  57   39592.3    252.6   0.055223883   0.45919  -0.43244  -0.51131  -0.10371
  58   40149.3    249.1   0.043660027   0.35800  -0.16078  -0.56478   0.11476
  59   40171.0    248.9   0.052604452   0.43111   0.00015   0.65653   0.00841

FINAL SINGLE POINT ENERGY     -4525.268792509788

DIPOLE MOMENT
-------------
                                X             Y             Z
Electronic contribution:     12.17315      13.57138      -2.59166
Nuclear contribution   :    -13.05572     -14.98005       2.46886
                        -----------------------------------------
Total Dipole Moment    :     -0.88258      -1.40867      -0.12279
                        -----------------------------------------
Magnitude (a.u.)       :      1.66685
Magnitude (Debye)      :      4.23679

Rotational constants in cm-1:     0.001977     0.000271     0.000268
Rotational constants in MHz :    59.266808     8.120999     8.033984

                             ****ORCA TERMINATED NORMALLY****
TOTAL RUN TIME: 0 days 0 hours 13 minutes 1 seconds 969 msec
