                         Program Version 4.2.0 -  RELEASE  -
|  1> # ORCA input file
|  2> # SCF done       -188.781276287787          0.000890129412
|  3> ! CAM-B3LYP def2-SVP def2/J RIJCOSX Grid4 TightSCF
|  4> %maxcore 5000
|  5> %tddft
|  6>     Mode sTDDFT
|  7>     Ethresh 5.0
|  8>     maxcore 5000
|  9> end
| 10>
| 11> %pal
| 12>   nprocs 6
| 13>   end
| 14> * xyz 0 1
| 15>    C        3.55574         3.78376        -1.24137
| 16>    C        3.76744         5.07871        -0.84201
| 17>    C        4.97913         5.55444        -0.30927
| 18>    N        5.92148         5.99127         0.18189
| 19>    C        2.80082         6.09617        -0.96108
| 20>    N        2.05752         6.96436        -1.07318
| 21>    C        4.59135         2.77612        -1.44050
| 22>    C        4.05987         1.73860        -2.26175
| 23>    C        4.81684         0.67062        -2.64720
| 24>    C        6.15888         0.58346        -2.21124
| 25>    C        6.69189         1.61091        -1.38063
| 26>    C        5.88662         2.71160        -1.00532
| 27>    C        8.02947         1.50802        -0.94868
| 28>    C        8.80584         0.44368        -1.31882
| 29>    C        8.28037        -0.56711        -2.13685
| 30>    C        6.98533        -0.49806        -2.57392
| 31>    C        2.64460         2.03007        -2.55890
| 32>    O        1.88575         1.40525        -3.26376
| 33>    C        2.32130         3.23942        -1.74919
| 34>    C        1.01307         3.54668        -1.50572
| 35>    C        0.46324         4.34295        -0.48514
| 36>    C        1.01291         4.78035         0.71846
| 37>    C        0.11497         5.55925         1.49801
| 38>    S        0.91095         6.06223         2.94458
| 39>    C        2.34960         5.18055         2.39880
| 40>    N        2.23423         4.57763         1.27154
| 41>    C        3.58627         5.19037         3.20589
| 42>    C       -1.14375         5.71938         0.92839
| 43>    S       -1.19823         4.87109        -0.59712
| 44>    C       -2.27688         6.43137         1.39747
| 45>    C       -3.48004         6.46222         0.65131
| 46>    C       -4.64070         7.18282         1.07956
| 47>    N       -5.72864         7.20777         0.28584
| 48>    C       -5.73375         6.54418        -0.82276
| 49>    C       -4.60357         5.77941        -1.21884
| 50>    N       -3.52777         5.76841        -0.50108
| 51>    F       -4.61454         5.06498        -2.33799
| 52>    F       -6.81284         6.60947        -1.59139
| 53>    C       -4.68412         7.89894         2.29839
| 54>    C       -3.50463         7.83596         3.07565
| 55>    C       -2.32127         7.12928         2.62733
| 56>    N       -1.34605         7.19762         3.52994
| 57>    S       -1.85681         8.03386         4.80582
| 58>    N       -3.33292         8.35247         4.28938
| 59>    C       -5.85491         8.59516         2.69816
| 60>    C       -5.98261         9.60251         3.65886
| 61>    C       -7.32514        10.01995         3.81328
| 62>    S       -7.43471        11.28178         4.97944
| 63>    C       -5.65456        11.16821         5.15114
| 64>    N       -5.09227        10.28802         4.42084
| 65>    C       -4.95791        12.06674         6.09245
| 66>    C       -8.25006         9.36485         2.99943
| 67>    S       -7.39832         8.21184         1.98676
| 68>    C       -9.61780         9.66485         3.02394
| 69>    C      -10.63810         9.15733         2.26049
| 70>    C      -12.03282         9.54526         2.32402
| 71>    C      -12.61078        10.43002         3.19952
| 72>    C      -13.98380        10.75271         3.20376
| 73>    N      -15.08848        11.06070         3.26479
| 74>    C      -11.94346        11.13758         4.22043
| 75>    N      -11.47906        11.74928         5.07506
| 76>    C      -12.74055         8.81055         1.27860
| 77>    C      -11.80872         7.97039         0.60361
| 78>    C      -10.48066         8.14260         1.20882
| 79>    O       -9.46018         7.55107         0.90411
| 80>    C      -12.17621         7.16683        -0.43618
| 81>    C      -13.52482         7.16416        -0.85840
| 82>    C      -14.46594         7.99595        -0.18616
| 83>    C      -14.05282         8.81924         0.88760
| 84>    C      -15.80895         7.98328        -0.61333
| 85>    C      -16.20494         7.18946        -1.65561
| 86>    C      -15.27677         6.37322        -2.31849
| 87>    C      -13.96488         6.36057        -1.92803
| 88>    H        4.39828        -0.10155        -3.27542
| 89>    H        6.31145         3.47411        -0.37115
| 90>    H        8.43063         2.29008        -0.32075
| 91>    H        9.82982         0.37503        -0.98312
| 92>    H        8.90639        -1.40043        -2.41905
| 93>    H        6.57525        -1.27345        -3.20439
| 94>    H        0.29523         3.05148        -2.15261
| 95>    H        3.37794         5.51476         4.22145
| 96>    H        4.30825         5.87450         2.75695
| 97>    H        4.03412         4.19873         3.21252
| 98>    H       -5.14432        13.10724         5.83007
| 99>    H       -3.89080        11.86671         6.05808
|100>    H       -5.32590        11.90759         7.10514
|101>    H       -9.87331        10.42255         3.75636
|102>    H      -11.44653         6.54407        -0.93202
|103>    H      -14.79069         9.43924         1.37118
|104>    H      -16.52007         8.61416        -0.10040
|105>    H      -17.23630         7.18701        -1.97508
|106>    H      -15.60590         5.75432        -3.13980
|107>    H      -13.24516         5.73419        -2.43445
|108> *
|109>
|110>                          ****END OF INPUT****

CARTESIAN COORDINATES (ANGSTROEM)
---------------------------------
  C      3.555740    3.783760   -1.241370
  C      3.767440    5.078710   -0.842010
  C      4.979130    5.554440   -0.309270
  N      5.921480    5.991270    0.181890
  C      2.800820    6.096170   -0.961080
  N      2.057520    6.964360   -1.073180
  C      4.591350    2.776120   -1.440500
  C      4.059870    1.738600   -2.261750
  C      4.816840    0.670620   -2.647200
  C      6.158880    0.583460   -2.211240
  C      6.691890    1.610910   -1.380630
  C      5.886620    2.711600   -1.005320
  C      8.029470    1.508020   -0.948680
  C      8.805840    0.443680   -1.318820
  C      8.280370   -0.567110   -2.136850
  C      6.985330   -0.498060   -2.573920
  C      2.644600    2.030070   -2.558900
  O      1.885750    1.405250   -3.263760
  C      2.321300    3.239420   -1.749190
  C      1.013070    3.546680   -1.505720
  C      0.463240    4.342950   -0.485140
  C      1.012910    4.780350    0.718460
  C      0.114970    5.559250    1.498010
  S      0.910950    6.062230    2.944580
  C      2.349600    5.180550    2.398800
  N      2.234230    4.577630    1.271540
  C      3.586270    5.190370    3.205890
  C     -1.143750    5.719380    0.928390
  S     -1.198230    4.871090   -0.597120
  C     -2.276880    6.431370    1.397470
  C     -3.480040    6.462220    0.651310
  C     -4.640700    7.182820    1.079560
  N     -5.728640    7.207770    0.285840
  C     -5.733750    6.544180   -0.822760
  C     -4.603570    5.779410   -1.218840
  N     -3.527770    5.768410   -0.501080
  F     -4.614540    5.064980   -2.337990
  F     -6.812840    6.609470   -1.591390
  C     -4.684120    7.898940    2.298390
  C     -3.504630    7.835960    3.075650
  C     -2.321270    7.129280    2.627330
  N     -1.346050    7.197620    3.529940
  S     -1.856810    8.033860    4.805820
  N     -3.332920    8.352470    4.289380
  C     -5.854910    8.595160    2.698160
  C     -5.982610    9.602510    3.658860
  C     -7.325140   10.019950    3.813280
  S     -7.434710   11.281780    4.979440
  C     -5.654560   11.168210    5.151140
  N     -5.092270   10.288020    4.420840
  C     -4.957910   12.066740    6.092450
  C     -8.250060    9.364850    2.999430
  S     -7.398320    8.211840    1.986760
  C     -9.617800    9.664850    3.023940
  C    -10.638100    9.157330    2.260490
  C    -12.032820    9.545260    2.324020
  C    -12.610780   10.430020    3.199520
  C    -13.983800   10.752710    3.203760
  N    -15.088480   11.060700    3.264790
  C    -11.943460   11.137580    4.220430
  N    -11.479060   11.749280    5.075060
  C    -12.740550    8.810550    1.278600
  C    -11.808720    7.970390    0.603610
  C    -10.480660    8.142600    1.208820
  O     -9.460180    7.551070    0.904110
  C    -12.176210    7.166830   -0.436180
  C    -13.524820    7.164160   -0.858400
  C    -14.465940    7.995950   -0.186160
  C    -14.052820    8.819240    0.887600
  C    -15.808950    7.983280   -0.613330
  C    -16.204940    7.189460   -1.655610
  C    -15.276770    6.373220   -2.318490
  C    -13.964880    6.360570   -1.928030
  H      4.398280   -0.101550   -3.275420
  H      6.311450    3.474110   -0.371150
  H      8.430630    2.290080   -0.320750
  H      9.829820    0.375030   -0.983120
  H      8.906390   -1.400430   -2.419050
  H      6.575250   -1.273450   -3.204390
  H      0.295230    3.051480   -2.152610
  H      3.377940    5.514760    4.221450
  H      4.308250    5.874500    2.756950
  H      4.034120    4.198730    3.212520
  H     -5.144320   13.107240    5.830070
  H     -3.890800   11.866710    6.058080
  H     -5.325900   11.907590    7.105140
  H     -9.873310   10.422550    3.756360
  H    -11.446530    6.544070   -0.932020
  H    -14.790690    9.439240    1.371180
  H    -16.520070    8.614160   -0.100400
  H    -17.236300    7.187010   -1.975080
  H    -15.605900    5.754320   -3.139800
  H    -13.245160    5.734190   -2.434450

 Total Charge           Charge          ....    0
 Multiplicity           Mult            ....    1
 Number of Electrons    NEL             ....  528
 Basis Dimension        Dim             .... 1142

ORBITAL ENERGIES
----------------

  NO   OCC          E(Eh)            E(eV)
   0   2.0000     -89.044756     -2423.0310
   1   2.0000     -88.966333     -2420.8970
   2   2.0000     -88.965347     -2420.8702
   3   2.0000     -88.962466     -2420.7918
   4   2.0000     -88.962342     -2420.7884
   5   2.0000     -24.822940      -675.4665
   6   2.0000     -24.819910      -675.3841
   7   2.0000     -19.216841      -522.9168
   8   2.0000     -19.204239      -522.5739
   9   2.0000     -14.463859      -393.5816
  10   2.0000     -14.460583      -393.4925
  11   2.0000     -14.454650      -393.3310
  12   2.0000     -14.449675      -393.1957
  13   2.0000     -14.413352      -392.2072
  14   2.0000     -14.411315      -392.1518
  15   2.0000     -14.409506      -392.1026
  16   2.0000     -14.407702      -392.0535
  17   2.0000     -14.407687      -392.0531
  18   2.0000     -14.402062      -391.9000
  19   2.0000     -10.439859      -284.0830
  20   2.0000     -10.438122      -284.0357
  21   2.0000     -10.364769      -282.0397
  22   2.0000     -10.354828      -281.7692
  23   2.0000     -10.352593      -281.7084
  24   2.0000     -10.352144      -281.6962
  25   2.0000     -10.348028      -281.5842
  26   2.0000     -10.347553      -281.5712
  27   2.0000     -10.344393      -281.4852
  28   2.0000     -10.343628      -281.4644
  29   2.0000     -10.336915      -281.2817
  30   2.0000     -10.336119      -281.2601
  31   2.0000     -10.330871      -281.1173
  32   2.0000     -10.327646      -281.0295
  33   2.0000     -10.327161      -281.0163
  34   2.0000     -10.322232      -280.8822
  35   2.0000     -10.321082      -280.8509
  36   2.0000     -10.320631      -280.8386
  37   2.0000     -10.320608      -280.8380
  38   2.0000     -10.316401      -280.7235
  39   2.0000     -10.315530      -280.6998
  40   2.0000     -10.315346      -280.6948
  41   2.0000     -10.315251      -280.6923
  42   2.0000     -10.314531      -280.6726
  43   2.0000     -10.314248      -280.6649
  44   2.0000     -10.313017      -280.6315
  45   2.0000     -10.310817      -280.5716
  46   2.0000     -10.309219      -280.5281
  47   2.0000     -10.307323      -280.4765
  48   2.0000     -10.304100      -280.3888
  49   2.0000     -10.299297      -280.2581
  50   2.0000     -10.294780      -280.1352
  51   2.0000     -10.294458      -280.1264
  52   2.0000     -10.294058      -280.1156
  53   2.0000     -10.293862      -280.1102
  54   2.0000     -10.293229      -280.0930
  55   2.0000     -10.292172      -280.0642
  56   2.0000     -10.288862      -279.9742
  57   2.0000     -10.288229      -279.9569
  58   2.0000     -10.287600      -279.9398
  59   2.0000     -10.287185      -279.9285
  60   2.0000     -10.285370      -279.8791
  61   2.0000     -10.285211      -279.8748
  62   2.0000     -10.284553      -279.8569
  63   2.0000     -10.284209      -279.8475
  64   2.0000     -10.283692      -279.8335
  65   2.0000     -10.283327      -279.8236
  66   2.0000     -10.282836      -279.8102
  67   2.0000     -10.279367      -279.7158
  68   2.0000     -10.278851      -279.7018
  69   2.0000     -10.278770      -279.6995
  70   2.0000     -10.278518      -279.6927
  71   2.0000     -10.278100      -279.6813
  72   2.0000     -10.277561      -279.6667
  73   2.0000      -8.136013      -221.3922
  74   2.0000      -8.059680      -219.3150
  75   2.0000      -8.058265      -219.2765
  76   2.0000      -8.057156      -219.2464
  77   2.0000      -8.056704      -219.2341
  78   2.0000      -6.107111      -166.1829
  79   2.0000      -6.099302      -165.9704
  80   2.0000      -6.098801      -165.9568
  81   2.0000      -6.029238      -164.0639
  82   2.0000      -6.027698      -164.0220
  83   2.0000      -6.026751      -163.9962
  84   2.0000      -6.026279      -163.9834
  85   2.0000      -6.024713      -163.9408
  86   2.0000      -6.023649      -163.9118
  87   2.0000      -6.022018      -163.8674
  88   2.0000      -6.021994      -163.8668
  89   2.0000      -6.021635      -163.8570
  90   2.0000      -6.019834      -163.8080
  91   2.0000      -6.019107      -163.7882
  92   2.0000      -6.018274      -163.7656
  93   2.0000      -1.350735       -36.7554
  94   2.0000      -1.336392       -36.3651
  95   2.0000      -1.143921       -31.1277
  96   2.0000      -1.132608       -30.8198
  97   2.0000      -1.123431       -30.5701
  98   2.0000      -1.119205       -30.4551
  99   2.0000      -1.073945       -29.2235
 100   2.0000      -1.072440       -29.1826
 101   2.0000      -1.049443       -28.5568
 102   2.0000      -1.014554       -27.6074
 103   2.0000      -1.006445       -27.3868
 104   2.0000      -1.001202       -27.2441
 105   2.0000      -0.995802       -27.0972
 106   2.0000      -0.994233       -27.0545
 107   2.0000      -0.989697       -26.9310
 108   2.0000      -0.988187       -26.8899
 109   2.0000      -0.984003       -26.7761
 110   2.0000      -0.981729       -26.7142
 111   2.0000      -0.970116       -26.3982
 112   2.0000      -0.966219       -26.2922
 113   2.0000      -0.960691       -26.1417
 114   2.0000      -0.924407       -25.1544
 115   2.0000      -0.919562       -25.0225
 116   2.0000      -0.914029       -24.8720
 117   2.0000      -0.904272       -24.6065
 118   2.0000      -0.895396       -24.3650
 119   2.0000      -0.891809       -24.2674
 120   2.0000      -0.887881       -24.1605
 121   2.0000      -0.885033       -24.0830
 122   2.0000      -0.878509       -23.9054
 123   2.0000      -0.872463       -23.7409
 124   2.0000      -0.871926       -23.7263
 125   2.0000      -0.863978       -23.5100
 126   2.0000      -0.863279       -23.4910
 127   2.0000      -0.855500       -23.2793
 128   2.0000      -0.829811       -22.5803
 129   2.0000      -0.825416       -22.4607
 130   2.0000      -0.818978       -22.2855
 131   2.0000      -0.817235       -22.2381
 132   2.0000      -0.811689       -22.0872
 133   2.0000      -0.796710       -21.6796
 134   2.0000      -0.792525       -21.5657
 135   2.0000      -0.786478       -21.4012
 136   2.0000      -0.778624       -21.1874
 137   2.0000      -0.760469       -20.6934
 138   2.0000      -0.759157       -20.6577
 139   2.0000      -0.755114       -20.5477
 140   2.0000      -0.748265       -20.3613
 141   2.0000      -0.732792       -19.9403
 142   2.0000      -0.709701       -19.3119
 143   2.0000      -0.706487       -19.2245
 144   2.0000      -0.702237       -19.1088
 145   2.0000      -0.696882       -18.9631
 146   2.0000      -0.694369       -18.8947
 147   2.0000      -0.691350       -18.8126
 148   2.0000      -0.690209       -18.7815
 149   2.0000      -0.681259       -18.5380
 150   2.0000      -0.674928       -18.3657
 151   2.0000      -0.672866       -18.3096
 152   2.0000      -0.669779       -18.2256
 153   2.0000      -0.664174       -18.0731
 154   2.0000      -0.659520       -17.9465
 155   2.0000      -0.654844       -17.8192
 156   2.0000      -0.641801       -17.4643
 157   2.0000      -0.638303       -17.3691
 158   2.0000      -0.633985       -17.2516
 159   2.0000      -0.631856       -17.1937
 160   2.0000      -0.625677       -17.0255
 161   2.0000      -0.625144       -17.0110
 162   2.0000      -0.620254       -16.8780
 163   2.0000      -0.611684       -16.6448
 164   2.0000      -0.604752       -16.4561
 165   2.0000      -0.602411       -16.3924
 166   2.0000      -0.597439       -16.2571
 167   2.0000      -0.595333       -16.1998
 168   2.0000      -0.585566       -15.9341
 169   2.0000      -0.579918       -15.7804
 170   2.0000      -0.576989       -15.7007
 171   2.0000      -0.571354       -15.5473
 172   2.0000      -0.569605       -15.4997
 173   2.0000      -0.564707       -15.3665
 174   2.0000      -0.562680       -15.3113
 175   2.0000      -0.552677       -15.0391
 176   2.0000      -0.547034       -14.8856
 177   2.0000      -0.546167       -14.8620
 178   2.0000      -0.545530       -14.8446
 179   2.0000      -0.544121       -14.8063
 180   2.0000      -0.543295       -14.7838
 181   2.0000      -0.542251       -14.7554
 182   2.0000      -0.537412       -14.6237
 183   2.0000      -0.537257       -14.6195
 184   2.0000      -0.535243       -14.5647
 185   2.0000      -0.528335       -14.3767
 186   2.0000      -0.527841       -14.3633
 187   2.0000      -0.526483       -14.3263
 188   2.0000      -0.522402       -14.2153
 189   2.0000      -0.520389       -14.1605
 190   2.0000      -0.518319       -14.1042
 191   2.0000      -0.517457       -14.0807
 192   2.0000      -0.512437       -13.9441
 193   2.0000      -0.510378       -13.8881
 194   2.0000      -0.508917       -13.8483
 195   2.0000      -0.508247       -13.8301
 196   2.0000      -0.506706       -13.7882
 197   2.0000      -0.505525       -13.7560
 198   2.0000      -0.503414       -13.6986
 199   2.0000      -0.500730       -13.6256
 200   2.0000      -0.497672       -13.5424
 201   2.0000      -0.493978       -13.4418
 202   2.0000      -0.493624       -13.4322
 203   2.0000      -0.491038       -13.3618
 204   2.0000      -0.487541       -13.2667
 205   2.0000      -0.484690       -13.1891
 206   2.0000      -0.483989       -13.1700
 207   2.0000      -0.482453       -13.1282
 208   2.0000      -0.475838       -12.9482
 209   2.0000      -0.472020       -12.8443
 210   2.0000      -0.470986       -12.8162
 211   2.0000      -0.466320       -12.6892
 212   2.0000      -0.462915       -12.5965
 213   2.0000      -0.457755       -12.4561
 214   2.0000      -0.454736       -12.3740
 215   2.0000      -0.447631       -12.1807
 216   2.0000      -0.446626       -12.1533
 217   2.0000      -0.443011       -12.0549
 218   2.0000      -0.441667       -12.0184
 219   2.0000      -0.441020       -12.0008
 220   2.0000      -0.437985       -11.9182
 221   2.0000      -0.437931       -11.9167
 222   2.0000      -0.437012       -11.8917
 223   2.0000      -0.434935       -11.8352
 224   2.0000      -0.432198       -11.7607
 225   2.0000      -0.431064       -11.7298
 226   2.0000      -0.430855       -11.7241
 227   2.0000      -0.430637       -11.7182
 228   2.0000      -0.428486       -11.6597
 229   2.0000      -0.424821       -11.5600
 230   2.0000      -0.423125       -11.5138
 231   2.0000      -0.422771       -11.5042
 232   2.0000      -0.420128       -11.4323
 233   2.0000      -0.417190       -11.3523
 234   2.0000      -0.415275       -11.3002
 235   2.0000      -0.413872       -11.2620
 236   2.0000      -0.408185       -11.1073
 237   2.0000      -0.403218       -10.9721
 238   2.0000      -0.402914       -10.9638
 239   2.0000      -0.399890       -10.8816
 240   2.0000      -0.396377       -10.7860
 241   2.0000      -0.391274       -10.6471
 242   2.0000      -0.384326       -10.4580
 243   2.0000      -0.379127       -10.3166
 244   2.0000      -0.375152       -10.2084
 245   2.0000      -0.372966       -10.1489
 246   2.0000      -0.365111        -9.9352
 247   2.0000      -0.361353        -9.8329
 248   2.0000      -0.350729        -9.5438
 249   2.0000      -0.348195        -9.4749
 250   2.0000      -0.344275        -9.3682
 251   2.0000      -0.337537        -9.1849
 252   2.0000      -0.333389        -9.0720
 253   2.0000      -0.327436        -8.9100
 254   2.0000      -0.326404        -8.8819
 255   2.0000      -0.319763        -8.7012
 256   2.0000      -0.315459        -8.5841
 257   2.0000      -0.306874        -8.3505
 258   2.0000      -0.304069        -8.2742
 259   2.0000      -0.300787        -8.1848
 260   2.0000      -0.292880        -7.9697
 261   2.0000      -0.283017        -7.7013
 262   2.0000      -0.278028        -7.5655
 263   2.0000      -0.241034        -6.5589
 264   0.0000      -0.127765        -3.4767
 265   0.0000      -0.083943        -2.2842
 266   0.0000      -0.073945        -2.0121
 267   0.0000      -0.054687        -1.4881
 268   0.0000      -0.045013        -1.2249

MULLIKEN ATOMIC CHARGES
-----------------------
   0 C :    0.306521
   1 C :   -0.311002
   2 C :   -0.174048
   3 N :    0.127274
   4 C :   -0.218969
   5 N :    0.166858
   6 C :    0.047460
   7 C :    0.009487
   8 C :   -0.086696
   9 C :    0.095878
  10 C :    0.099970
  11 C :   -0.098594
  12 C :   -0.022850
  13 C :    0.037079
  14 C :    0.033896
  15 C :   -0.017033
  16 C :    0.135271
  17 O :   -0.144730
  18 C :   -0.133816
  19 C :    0.067526
  20 C :   -0.137780
  21 C :    0.077856
  22 C :    0.008092
  23 S :    0.144930
  24 C :   -0.163287
  25 N :   -0.056296
  26 C :    0.127060
  27 C :   -0.270676
  28 S :    0.196024
  29 C :    0.190424
  30 C :   -0.064556
  31 C :   -0.060590
  32 N :   -0.008684
  33 C :    0.152176
  34 C :    0.152223
  35 N :   -0.045017
  36 F :   -0.131717
  37 F :   -0.129988
  38 C :    0.150685
  39 C :   -0.030213
  40 C :    0.016119
  41 N :   -0.327249
  42 S :    0.545762
  43 N :   -0.242750
  44 C :   -0.267251
  45 C :    0.148523
  46 C :   -0.036997
  47 S :    0.111935
  48 C :   -0.203406
  49 N :    0.012750
  50 C :    0.122762
  51 C :   -0.109701
  52 S :    0.239858
  53 C :   -0.043842
  54 C :   -0.101803
  55 C :    0.338421
  56 C :   -0.358210
  57 C :   -0.185908
  58 N :    0.145159
  59 C :   -0.188350
  60 N :    0.141610
  61 C :    0.042905
  62 C :   -0.001137
  63 C :    0.168704
  64 O :   -0.179170
  65 C :   -0.083344
  66 C :    0.099350
  67 C :    0.097277
  68 C :   -0.084662
  69 C :   -0.020148
  70 C :    0.035554
  71 C :    0.035734
  72 C :   -0.017885
  73 H :   -0.015369
  74 H :   -0.012060
  75 H :   -0.014809
  76 H :   -0.009007
  77 H :   -0.008933
  78 H :   -0.020245
  79 H :    0.014488
  80 H :    0.014211
  81 H :    0.067547
  82 H :    0.047078
  83 H :    0.044102
  84 H :    0.037299
  85 H :    0.043374
  86 H :    0.005082
  87 H :   -0.014028
  88 H :   -0.010072
  89 H :   -0.009329
  90 H :   -0.005807
  91 H :   -0.006144
  92 H :   -0.018135
Sum of atomic charges:   -0.0000000

LOEWDIN ATOMIC CHARGES
----------------------
   0 C :    0.068414
   1 C :   -0.130365
   2 C :   -0.011663
   3 N :   -0.070746
   4 C :   -0.018835
   5 N :   -0.059313
   6 C :   -0.016034
   7 C :   -0.057132
   8 C :    0.030114
   9 C :   -0.011799
  10 C :   -0.005307
  11 C :    0.007513
  12 C :   -0.009596
  13 C :   -0.015744
  14 C :   -0.017926
  15 C :   -0.010003
  16 C :    0.082776
  17 O :   -0.146051
  18 C :   -0.079974
  19 C :    0.040264
  20 C :   -0.187398
  21 C :   -0.045813
  22 C :   -0.186762
  23 S :    0.429600
  24 C :   -0.092126
  25 N :   -0.103924
  26 C :   -0.065939
  27 C :   -0.167765
  28 S :    0.505741
  29 C :   -0.038246
  30 C :   -0.014625
  31 C :   -0.008027
  32 N :   -0.044954
  33 C :    0.065271
  34 C :    0.066560
  35 N :   -0.054055
  36 F :   -0.021493
  37 F :   -0.018736
  38 C :   -0.045240
  39 C :   -0.039367
  40 C :   -0.036951
  41 N :   -0.300923
  42 S :    0.672818
  43 N :   -0.248058
  44 C :   -0.158690
  45 C :   -0.061439
  46 C :   -0.180304
  47 S :    0.381738
  48 C :   -0.095154
  49 N :   -0.078549
  50 C :   -0.066522
  51 C :   -0.208551
  52 S :    0.556745
  53 C :    0.050424
  54 C :   -0.105564
  55 C :    0.076437
  56 C :   -0.145964
  57 C :   -0.017399
  58 N :   -0.058701
  59 C :   -0.021485
  60 N :   -0.057541
  61 C :   -0.024732
  62 C :   -0.054446
  63 C :    0.083668
  64 O :   -0.166054
  65 C :    0.030337
  66 C :   -0.009009
  67 C :   -0.006777
  68 C :    0.018834
  69 C :   -0.005501
  70 C :   -0.014494
  71 C :   -0.013310
  72 C :   -0.010314
  73 H :    0.037828
  74 H :    0.036594
  75 H :    0.032525
  76 H :    0.031476
  77 H :    0.031125
  78 H :    0.030736
  79 H :    0.044584
  80 H :    0.032713
  81 H :    0.056572
  82 H :    0.050108
  83 H :    0.045216
  84 H :    0.045854
  85 H :    0.045409
  86 H :    0.045013
  87 H :    0.038451
  88 H :    0.038759
  89 H :    0.034606
  90 H :    0.032804
  91 H :    0.032362
  92 H :    0.031402

  Mayer bond orders larger than 0.100000
B(  0-C ,  1-C ) :   1.6258 B(  0-C ,  6-C ) :   1.0042 B(  0-C , 18-C ) :   1.0687
B(  1-C ,  2-C ) :   1.1622 B(  1-C ,  4-C ) :   1.1636 B(  2-C ,  3-N ) :   2.9273
B(  4-C ,  5-N ) :   3.0071 B(  6-C ,  7-C ) :   1.2122 B(  6-C , 11-C ) :   1.4622
B(  7-C ,  8-C ) :   1.4760 B(  7-C , 16-C ) :   0.9173 B(  8-C ,  9-C ) :   1.1801
B(  8-C , 73-H ) :   1.0161 B(  9-C , 10-C ) :   1.2615 B(  9-C , 15-C ) :   1.2450
B( 10-C , 11-C ) :   1.1954 B( 10-C , 12-C ) :   1.2436 B( 11-C , 74-H ) :   0.9941
B( 12-C , 13-C ) :   1.4871 B( 12-C , 75-H ) :   0.9971 B( 13-C , 14-C ) :   1.2623
B( 13-C , 76-H ) :   0.9880 B( 14-C , 15-C ) :   1.4876 B( 14-C , 77-H ) :   0.9884
B( 15-C , 78-H ) :   0.9975 B( 16-C , 17-O ) :   2.2708 B( 16-C , 18-C ) :   0.9401
B( 18-C , 19-C ) :   1.6214 B( 19-C , 20-C ) :   1.1736 B( 19-C , 79-H ) :   0.9309
B( 20-C , 21-C ) :   1.3827 B( 20-C , 27-C ) :   0.1004 B( 20-C , 28-S ) :   1.0611
B( 21-C , 22-C ) :   1.2487 B( 21-C , 25-N ) :   1.3232 B( 22-C , 23-S ) :   1.0650
B( 22-C , 27-C ) :   1.4810 B( 23-S , 24-C ) :   1.0708 B( 24-C , 25-N ) :   1.6897
B( 24-C , 26-C ) :   1.0888 B( 26-C , 80-H ) :   0.9394 B( 26-C , 81-H ) :   0.9353
B( 26-C , 82-H ) :   0.9461 B( 27-C , 28-S ) :   1.1476 B( 27-C , 29-C ) :   1.2004
B( 29-C , 30-C ) :   1.2775 B( 29-C , 38-C ) :   0.1234 B( 29-C , 40-C ) :   1.1764
B( 30-C , 31-C ) :   1.1392 B( 30-C , 35-N ) :   1.3787 B( 31-C , 32-N ) :   1.4036
B( 31-C , 38-C ) :   1.2917 B( 32-N , 33-C ) :   1.6605 B( 33-C , 34-C ) :   1.1070
B( 33-C , 37-F ) :   1.1888 B( 34-C , 35-N ) :   1.6484 B( 34-C , 36-F ) :   1.1901
B( 38-C , 39-C ) :   1.1880 B( 38-C , 44-C ) :   1.1760 B( 39-C , 40-C ) :   1.0928
B( 39-C , 43-N ) :   1.5400 B( 40-C , 41-N ) :   1.4937 B( 41-N , 42-S ) :   1.2528
B( 41-N , 43-N ) :   0.1489 B( 42-S , 43-N ) :   1.3011 B( 44-C , 45-C ) :   1.3293
B( 44-C , 51-C ) :   0.1075 B( 44-C , 52-S ) :   1.1470 B( 45-C , 46-C ) :   1.2878
B( 45-C , 49-N ) :   1.3045 B( 46-C , 47-S ) :   1.0916 B( 46-C , 51-C ) :   1.3828
B( 47-S , 48-C ) :   1.0375 B( 47-S , 49-N ) :   0.1016 B( 48-C , 49-N ) :   1.8144
B( 48-C , 50-C ) :   1.0652 B( 50-C , 83-H ) :   0.9456 B( 50-C , 84-H ) :   0.9493
B( 50-C , 85-H ) :   0.9452 B( 51-C , 52-S ) :   1.0555 B( 51-C , 53-C ) :   1.2945
B( 53-C , 54-C ) :   1.5017 B( 53-C , 86-H ) :   0.9394 B( 54-C , 55-C ) :   1.0828
B( 54-C , 63-C ) :   0.9751 B( 55-C , 56-C ) :   1.6114 B( 55-C , 61-C ) :   0.9826
B( 56-C , 57-C ) :   1.1504 B( 56-C , 59-C ) :   1.1479 B( 57-C , 58-N ) :   2.9603
B( 59-C , 60-N ) :   2.9542 B( 61-C , 62-C ) :   1.2155 B( 61-C , 68-C ) :   1.4570
B( 62-C , 63-C ) :   0.9571 B( 62-C , 65-C ) :   1.4714 B( 63-C , 64-O ) :   2.1282
B( 65-C , 66-C ) :   1.1740 B( 65-C , 87-H ) :   1.0168 B( 66-C , 67-C ) :   1.2586
B( 66-C , 72-C ) :   1.2444 B( 67-C , 68-C ) :   1.1996 B( 67-C , 69-C ) :   1.2430
B( 68-C , 88-H ) :   0.9898 B( 69-C , 70-C ) :   1.4861 B( 69-C , 89-H ) :   0.9974
B( 70-C , 71-C ) :   1.2612 B( 70-C , 90-H ) :   0.9887 B( 71-C , 72-C ) :   1.4865
B( 71-C , 91-H ) :   0.9893 B( 72-C , 92-H ) :   0.9980

-----------------------------------------------------------------------------
         ABSORPTION SPECTRUM VIA TRANSITION ELECTRIC DIPOLE MOMENTS
-----------------------------------------------------------------------------
State   Energy  Wavelength   fosc         T2         TX        TY        TZ
        (cm-1)    (nm)                  (au**2)     (au)      (au)      (au)
-----------------------------------------------------------------------------
   0    9871.1   1013.1   1.067106729  35.58910  -5.37105   2.24935   1.29665
   1   18281.3    547.0   0.015632606   0.28151  -0.05447  -0.17740  -0.49707
   2   19869.7    503.3   0.456856746   7.56944  -2.71611   0.32515  -0.29407
   3   20296.0    492.7   0.059772607   0.96954  -0.38348   0.68958   0.58904
   4   20768.6    481.5   0.241615247   3.82995   1.72155  -0.43834  -0.82102
   5   21714.9    460.5   0.027782496   0.42120  -0.55779  -0.27207  -0.18986
   6   22017.3    454.2   0.026035906   0.38930  -0.06131  -0.04660  -0.61917
   7   23847.2    419.3   0.006379629   0.08807  -0.00467   0.15237   0.25462
   8   24299.2    411.5   0.004229709   0.05731   0.17882  -0.00355   0.15910
   9   24473.3    408.6   0.008521349   0.11463  -0.30758  -0.13887  -0.02712
  10   25471.5    392.6   0.001355668   0.01752   0.01768   0.12916  -0.02293
  11   25931.1    385.6   0.036198587   0.45957  -0.25497  -0.36787  -0.50914
  12   26939.7    371.2   0.049589579   0.60600  -0.75971   0.14426   0.08959
  13   27338.4    365.8   0.002384342   0.02871  -0.05839   0.11633   0.10849
  14   27709.9    360.9   0.003970133   0.04717  -0.10209   0.14155   0.12927
  15   27806.4    359.6   0.071218614   0.84319  -0.05555   0.74448   0.53465
  16   28583.6    349.9   0.159117873   1.83264   0.95435  -0.89670  -0.34320
  17   28718.7    348.2   0.084283528   0.96617  -0.41625  -0.80448  -0.38174
  18   28947.2    345.5   0.002237953   0.02545  -0.11243  -0.10458  -0.04328
  19   29190.5    342.6   0.132664091   1.49619   0.44486  -0.98438  -0.57384
  20   29519.8    338.8   0.033245197   0.37076   0.48973  -0.27788  -0.23175
  21   29825.0    335.3   0.182362182   2.01293  -0.92358   0.05032  -1.07582
  22   30094.6    332.3   0.034787501   0.38055   0.07722   0.33299   0.51352
  23   30795.2    324.7   0.073316162   0.78378   0.59937  -0.64010  -0.12169
  24   30916.3    323.5   0.358019264   3.81237  -1.10181  -0.95710  -1.29706
  25   31112.3    321.4   0.074317870   0.78639  -0.52539  -0.10766  -0.70623
  26   31631.2    316.1   0.187407715   1.95051  -0.96170   0.94490   0.36442
  27   31908.1    313.4   0.036382841   0.37538   0.51169  -0.11996   0.31491
  28   32069.5    311.8   0.074583245   0.76564   0.24235  -0.48876  -0.68412
  29   32435.7    308.3   0.063090680   0.64035   0.52229  -0.31761  -0.51641
  30   32545.3    307.3   0.003560826   0.03602  -0.16253  -0.07579   0.06213
  31   33531.2    298.2   0.202149114   1.98472  -0.40187  -0.95885  -0.95070
  32   33669.6    297.0   0.000466383   0.00456  -0.00880   0.06644   0.00826
  33   33767.2    296.1   0.145325603   1.41685   0.87606  -0.78817  -0.16779
  34   34070.1    293.5   0.092471759   0.89354   0.75061  -0.51764   0.24933
  35   34506.8    289.8   0.090533426   0.86373  -0.07901  -0.82366  -0.42316
  36   35059.7    285.2   0.007332794   0.06886   0.17259  -0.19740   0.01010
  37   35185.2    284.2   0.012604395   0.11793   0.30388   0.13486   0.08603
  38   35525.6    281.5   0.757212645   7.01701  -0.42361  -1.66476  -2.01647
  39   35791.1    279.4   0.070251003   0.64618   0.02298  -0.65862  -0.46030
  40   35973.0    278.0   0.052277196   0.47842   0.09996  -0.47743  -0.49040
  41   36046.4    277.4   0.044909297   0.41016  -0.22233   0.56301   0.20916
  42   36372.2    274.9   0.135586834   1.22722   0.53814  -0.92046  -0.30062
  43   37054.6    269.9   0.284107089   2.52415  -1.13868  -0.14819  -1.09800
  44   37145.9    269.2   0.025703363   0.22780  -0.32799   0.06358   0.34085
  45   37524.1    266.5   0.026824581   0.23534   0.30234  -0.35684   0.12883
  46   37675.2    265.4   0.061879928   0.54072  -0.50872   0.02598  -0.53032
  47   37755.5    264.9   0.065601322   0.57202   0.60601  -0.43793  -0.11395
  48   38026.6    263.0   0.051158706   0.44290   0.38760  -0.50232   0.20085
  49   38207.6    261.7   0.209840337   1.80807   0.50136   0.62331   1.08083
  50   38538.7    259.5   0.003182609   0.02719  -0.06193  -0.14929   0.03263
  51   38677.3    258.5   0.006101879   0.05194  -0.05577   0.15622   0.15628
  52   38818.2    257.6   0.026673003   0.22621   0.14872  -0.40007  -0.20984
  53   39110.2    255.7   0.109653776   0.92302  -0.68712   0.56643   0.36061
  54   39253.3    254.8   0.024176030   0.20276  -0.28918   0.32655   0.11183
  55   39517.9    253.0   0.107396290   0.89469   0.92796   0.02417   0.18164
  56   39871.5    250.8   0.072555416   0.59908  -0.68864  -0.10913  -0.33606
  57   40208.6    248.7   0.021998323   0.18011  -0.17546   0.35049   0.16273

FINAL SINGLE POINT ENERGY     -4954.024783143203

DIPOLE MOMENT
-------------
                                X             Y             Z
Electronic contribution:    -18.92003      14.41206       1.19462
Nuclear contribution   :     19.66077     -16.10678      -0.55798
                        -----------------------------------------
Total Dipole Moment    :      0.74073      -1.69472       0.63664
                        -----------------------------------------
Magnitude (a.u.)       :      1.95604
Magnitude (Debye)      :      4.97185

Rotational constants in cm-1:     0.001926     0.000307     0.000269
Rotational constants in MHz :    57.730177     9.192567     8.057118

                             ****ORCA TERMINATED NORMALLY****
TOTAL RUN TIME: 0 days 0 hours 9 minutes 30 seconds 106 msec
