                         Program Version 4.2.0 -  RELEASE  -
|  1> # ORCA input file
|  2> # SCF done       -195.840356537546          0.000858718842
|  3> ! CAM-B3LYP def2-SVP def2/J RIJCOSX Grid4 TightSCF
|  4> %maxcore 5000
|  5> %tddft
|  6>     Mode sTDDFT
|  7>     Ethresh 5.0
|  8>     maxcore 5000
|  9> end
| 10>
| 11> %pal
| 12>   nprocs 6
| 13>   end
| 14> * xyz 0 1
| 15>    C        0.44179         1.21059         0.31427
| 16>    C        1.17413         2.06433        -0.47300
| 17>    C        1.83314         1.67387        -1.65563
| 18>    N        2.36152         1.42551        -2.64451
| 19>    C        1.41573         3.41630        -0.16318
| 20>    N        1.66151         4.51830         0.04674
| 21>    C        0.39716        -0.24047         0.15421
| 22>    C       -0.04729        -0.81791         1.37925
| 23>    C       -0.15708        -2.16876         1.53805
| 24>    C        0.16889        -3.01877         0.45670
| 25>    C        0.60253        -2.44761        -0.77433
| 26>    C        0.71282        -1.04402        -0.90772
| 27>    C        0.92060        -3.30562        -1.84638
| 28>    C        0.81689        -4.66334        -1.71103
| 29>    C        0.38896        -5.22486        -0.49899
| 30>    C        0.07280        -4.42014         0.56200
| 31>    C       -0.35187         0.25769         2.33961
| 32>    O       -0.70288         0.15335         3.49274
| 33>    C       -0.19614         1.52578         1.57130
| 34>    C       -0.71576         2.67267         2.09681
| 35>    C       -1.05640         3.87985         1.45439
| 36>    C       -1.29025         4.13189         0.10501
| 37>    C       -1.64345         5.44613        -0.13305
| 38>    C       -1.67954         6.21858         1.03373
| 39>    S       -1.31575         5.31387         2.43463
| 40>    C       -2.00520         7.55058         0.68725
| 41>    C       -2.17621         7.63192        -0.69537
| 42>    C       -1.94920         6.28897        -1.34742
| 43>    C       -3.20108         5.80073        -2.08071
| 44>    C       -0.74225         6.32845        -2.29059
| 45>    C       -2.50301         8.91246        -1.11868
| 46>    C       -2.57856         9.80688        -0.06386
| 47>    S       -2.24068         9.05463         1.47550
| 48>    C       -2.89084        11.20339        -0.15107
| 49>    C       -2.89883        12.05784         0.90695
| 50>    C       -3.21283        13.43951         0.72350
| 51>    C       -3.22959        14.33904         1.77579
| 52>    C       -3.53537        15.69506         1.58146
| 53>    N       -3.78558        16.80349         1.41129
| 54>    C       -2.94097        13.94227         3.09071
| 55>    N       -2.71114        13.60880         4.16600
| 56>    C       -3.50724        13.83264        -0.61824
| 57>    C       -3.48427        12.92140        -1.62740
| 58>    O       -3.18199        11.61081        -1.41723
| 59>    C       -3.76908        13.22484        -2.99958
| 60>    C       -3.79806        12.32766        -4.05449
| 61>    C       -4.09917        12.94732        -5.25940
| 62>    C       -4.29826        14.32187        -5.12045
| 63>    S       -4.12114        14.85967        -3.50172
| 64>    C       -4.58413        14.87829        -6.38849
| 65>    C       -4.56762        13.85275        -7.34475
| 66>    C       -4.26459        12.52147        -6.69880
| 67>    C       -5.43641        11.54867        -6.86233
| 68>    C       -2.97540        11.91383        -7.25841
| 69>    C       -4.82278        14.30046        -8.62582
| 70>    C       -5.03498        15.67599        -8.67435
| 71>    S       -4.92318        16.40502        -7.06744
| 72>    C       -5.32678        16.56088        -9.72825
| 73>    C       -5.39924        16.37482       -11.08368
| 74>    C       -5.72926        17.44384       -12.01500
| 75>    C       -6.27052        18.66730       -11.71387
| 76>    C       -6.57317        19.65263       -12.67754
| 77>    N       -6.84280        20.49905       -13.40491
| 78>    C       -6.64726        19.12036       -10.43174
| 79>    N       -7.00515        19.56190        -9.43322
| 80>    C       -5.45349        16.96469       -13.36425
| 81>    C       -5.06646        15.59830       -13.28347
| 82>    C       -5.06006        15.16832       -11.87516
| 83>    O       -4.81285        14.04427       -11.48347
| 84>    C       -4.75657        14.86702       -14.39370
| 85>    C       -4.81358        15.48486       -15.66279
| 86>    C       -5.19075        16.85571       -15.75230
| 87>    C       -5.51045        17.58528       -14.58404
| 88>    C       -5.23986        17.46449       -17.02281
| 89>    C       -4.93291        16.75466       -18.15169
| 90>    C       -4.56218        15.40468       -18.06236
| 91>    C       -4.50394        14.78328       -16.84441
| 92>    H       -0.48878        -2.58570         2.47728
| 93>    H        1.03533        -0.63897        -1.85426
| 94>    H        1.25293        -2.86866        -2.77667
| 95>    H        1.06481        -5.31224        -2.53761
| 96>    H        0.31114        -6.29807        -0.40993
| 97>    H       -0.25662        -4.84704         1.49795
| 98>    H       -0.96193         2.61120         3.15307
| 99>    H       -1.24010         3.36493        -0.64679
|100>    H       -4.05283         5.77850        -1.40460
|101>    H       -3.03821         4.79901        -2.47004
|102>    H       -3.43057         6.46487        -2.91009
|103>    H        0.15148         6.62315        -1.74621
|104>    H       -0.91715         7.03823        -3.09515
|105>    H       -0.57257         5.34444        -2.72007
|106>    H       -2.67808         9.20775        -2.13655
|107>    H       -2.66187        11.69266         1.89373
|108>    H       -3.75158        14.86180        -0.82912
|109>    H       -3.60665        11.27891        -3.92266
|110>    H       -6.34909        11.98361        -6.46146
|111>    H       -5.22997        10.62138        -6.33367
|112>    H       -5.58868        11.32773        -7.91537
|113>    H       -2.14406        12.60276        -7.12812
|114>    H       -3.09423        11.70828        -8.31883
|115>    H       -2.74393        10.98526        -6.74259
|116>    H       -4.85389        13.68938        -9.50888
|117>    H       -5.49981        17.57427        -9.38445
|118>    H       -4.46949        13.82971       -14.30425
|119>    H       -5.78742        18.62215       -14.68699
|120>    H       -5.52704        18.50379       -17.08665
|121>    H       -4.97430        17.22982       -19.12033
|122>    H       -4.32276        14.85972       -18.96328
|123>    H       -4.21892        13.74396       -16.76936
|124> *
|125>
|126>                          ****END OF INPUT****

CARTESIAN COORDINATES (ANGSTROEM)
---------------------------------
  C      0.441790    1.210590    0.314270
  C      1.174130    2.064330   -0.473000
  C      1.833140    1.673870   -1.655630
  N      2.361520    1.425510   -2.644510
  C      1.415730    3.416300   -0.163180
  N      1.661510    4.518300    0.046740
  C      0.397160   -0.240470    0.154210
  C     -0.047290   -0.817910    1.379250
  C     -0.157080   -2.168760    1.538050
  C      0.168890   -3.018770    0.456700
  C      0.602530   -2.447610   -0.774330
  C      0.712820   -1.044020   -0.907720
  C      0.920600   -3.305620   -1.846380
  C      0.816890   -4.663340   -1.711030
  C      0.388960   -5.224860   -0.498990
  C      0.072800   -4.420140    0.562000
  C     -0.351870    0.257690    2.339610
  O     -0.702880    0.153350    3.492740
  C     -0.196140    1.525780    1.571300
  C     -0.715760    2.672670    2.096810
  C     -1.056400    3.879850    1.454390
  C     -1.290250    4.131890    0.105010
  C     -1.643450    5.446130   -0.133050
  C     -1.679540    6.218580    1.033730
  S     -1.315750    5.313870    2.434630
  C     -2.005200    7.550580    0.687250
  C     -2.176210    7.631920   -0.695370
  C     -1.949200    6.288970   -1.347420
  C     -3.201080    5.800730   -2.080710
  C     -0.742250    6.328450   -2.290590
  C     -2.503010    8.912460   -1.118680
  C     -2.578560    9.806880   -0.063860
  S     -2.240680    9.054630    1.475500
  C     -2.890840   11.203390   -0.151070
  C     -2.898830   12.057840    0.906950
  C     -3.212830   13.439510    0.723500
  C     -3.229590   14.339040    1.775790
  C     -3.535370   15.695060    1.581460
  N     -3.785580   16.803490    1.411290
  C     -2.940970   13.942270    3.090710
  N     -2.711140   13.608800    4.166000
  C     -3.507240   13.832640   -0.618240
  C     -3.484270   12.921400   -1.627400
  O     -3.181990   11.610810   -1.417230
  C     -3.769080   13.224840   -2.999580
  C     -3.798060   12.327660   -4.054490
  C     -4.099170   12.947320   -5.259400
  C     -4.298260   14.321870   -5.120450
  S     -4.121140   14.859670   -3.501720
  C     -4.584130   14.878290   -6.388490
  C     -4.567620   13.852750   -7.344750
  C     -4.264590   12.521470   -6.698800
  C     -5.436410   11.548670   -6.862330
  C     -2.975400   11.913830   -7.258410
  C     -4.822780   14.300460   -8.625820
  C     -5.034980   15.675990   -8.674350
  S     -4.923180   16.405020   -7.067440
  C     -5.326780   16.560880   -9.728250
  C     -5.399240   16.374820  -11.083680
  C     -5.729260   17.443840  -12.015000
  C     -6.270520   18.667300  -11.713870
  C     -6.573170   19.652630  -12.677540
  N     -6.842800   20.499050  -13.404910
  C     -6.647260   19.120360  -10.431740
  N     -7.005150   19.561900   -9.433220
  C     -5.453490   16.964690  -13.364250
  C     -5.066460   15.598300  -13.283470
  C     -5.060060   15.168320  -11.875160
  O     -4.812850   14.044270  -11.483470
  C     -4.756570   14.867020  -14.393700
  C     -4.813580   15.484860  -15.662790
  C     -5.190750   16.855710  -15.752300
  C     -5.510450   17.585280  -14.584040
  C     -5.239860   17.464490  -17.022810
  C     -4.932910   16.754660  -18.151690
  C     -4.562180   15.404680  -18.062360
  C     -4.503940   14.783280  -16.844410
  H     -0.488780   -2.585700    2.477280
  H      1.035330   -0.638970   -1.854260
  H      1.252930   -2.868660   -2.776670
  H      1.064810   -5.312240   -2.537610
  H      0.311140   -6.298070   -0.409930
  H     -0.256620   -4.847040    1.497950
  H     -0.961930    2.611200    3.153070
  H     -1.240100    3.364930   -0.646790
  H     -4.052830    5.778500   -1.404600
  H     -3.038210    4.799010   -2.470040
  H     -3.430570    6.464870   -2.910090
  H      0.151480    6.623150   -1.746210
  H     -0.917150    7.038230   -3.095150
  H     -0.572570    5.344440   -2.720070
  H     -2.678080    9.207750   -2.136550
  H     -2.661870   11.692660    1.893730
  H     -3.751580   14.861800   -0.829120
  H     -3.606650   11.278910   -3.922660
  H     -6.349090   11.983610   -6.461460
  H     -5.229970   10.621380   -6.333670
  H     -5.588680   11.327730   -7.915370
  H     -2.144060   12.602760   -7.128120
  H     -3.094230   11.708280   -8.318830
  H     -2.743930   10.985260   -6.742590
  H     -4.853890   13.689380   -9.508880
  H     -5.499810   17.574270   -9.384450
  H     -4.469490   13.829710  -14.304250
  H     -5.787420   18.622150  -14.686990
  H     -5.527040   18.503790  -17.086650
  H     -4.974300   17.229820  -19.120330
  H     -4.322760   14.859720  -18.963280
  H     -4.218920   13.743960  -16.769360

 Total Charge           Charge          ....    0
 Multiplicity           Mult            ....    1
 Number of Electrons    NEL             ....  546
 Basis Dimension        Dim             .... 1254

ORBITAL ENERGIES
----------------

  NO   OCC          E(Eh)            E(eV)
   0   2.0000     -88.992406     -2421.6065
   1   2.0000     -88.991246     -2421.5749
   2   2.0000     -88.984979     -2421.4044
   3   2.0000     -88.983599     -2421.3668
   4   2.0000     -19.326843      -525.9101
   5   2.0000     -19.219851      -522.9987
   6   2.0000     -19.215068      -522.8686
   7   2.0000     -14.420366      -392.3981
   8   2.0000     -14.419111      -392.3640
   9   2.0000     -14.415140      -392.2559
  10   2.0000     -14.412199      -392.1759
  11   2.0000     -14.394509      -391.6945
  12   2.0000     -14.394419      -391.6920
  13   2.0000     -10.391840      -282.7763
  14   2.0000     -10.391555      -282.7686
  15   2.0000     -10.371028      -282.2100
  16   2.0000     -10.366566      -282.0886
  17   2.0000     -10.345566      -281.5172
  18   2.0000     -10.344825      -281.4970
  19   2.0000     -10.339984      -281.3653
  20   2.0000     -10.339320      -281.3472
  21   2.0000     -10.336499      -281.2705
  22   2.0000     -10.334730      -281.2223
  23   2.0000     -10.333082      -281.1775
  24   2.0000     -10.332936      -281.1735
  25   2.0000     -10.331540      -281.1355
  26   2.0000     -10.331308      -281.1292
  27   2.0000     -10.330755      -281.1141
  28   2.0000     -10.326113      -280.9878
  29   2.0000     -10.326023      -280.9854
  30   2.0000     -10.325254      -280.9644
  31   2.0000     -10.323841      -280.9260
  32   2.0000     -10.322252      -280.8828
  33   2.0000     -10.321923      -280.8738
  34   2.0000     -10.318102      -280.7698
  35   2.0000     -10.315611      -280.7020
  36   2.0000     -10.315504      -280.6991
  37   2.0000     -10.314567      -280.6736
  38   2.0000     -10.314044      -280.6594
  39   2.0000     -10.309830      -280.5447
  40   2.0000     -10.308727      -280.5147
  41   2.0000     -10.306469      -280.4533
  42   2.0000     -10.306345      -280.4499
  43   2.0000     -10.306091      -280.4430
  44   2.0000     -10.305828      -280.4358
  45   2.0000     -10.302126      -280.3351
  46   2.0000     -10.302080      -280.3339
  47   2.0000     -10.300712      -280.2966
  48   2.0000     -10.300395      -280.2880
  49   2.0000     -10.300136      -280.2809
  50   2.0000     -10.299986      -280.2769
  51   2.0000     -10.299820      -280.2723
  52   2.0000     -10.299665      -280.2681
  53   2.0000     -10.299199      -280.2555
  54   2.0000     -10.298318      -280.2315
  55   2.0000     -10.298253      -280.2297
  56   2.0000     -10.297996      -280.2227
  57   2.0000     -10.297588      -280.2116
  58   2.0000     -10.297021      -280.1962
  59   2.0000     -10.296748      -280.1888
  60   2.0000     -10.296241      -280.1750
  61   2.0000     -10.295522      -280.1554
  62   2.0000     -10.295049      -280.1425
  63   2.0000     -10.291355      -280.0420
  64   2.0000     -10.289057      -279.9795
  65   2.0000     -10.288669      -279.9689
  66   2.0000     -10.288574      -279.9663
  67   2.0000     -10.288445      -279.9628
  68   2.0000     -10.288072      -279.9527
  69   2.0000     -10.287246      -279.9302
  70   2.0000     -10.286731      -279.9162
  71   2.0000     -10.286198      -279.9017
  72   2.0000     -10.285668      -279.8873
  73   2.0000     -10.283295      -279.8227
  74   2.0000     -10.281747      -279.7806
  75   2.0000     -10.281353      -279.7698
  76   2.0000     -10.277189      -279.6565
  77   2.0000      -8.086996      -220.0583
  78   2.0000      -8.085860      -220.0274
  79   2.0000      -8.080070      -219.8699
  80   2.0000      -8.078625      -219.8306
  81   2.0000      -6.056400      -164.8030
  82   2.0000      -6.055248      -164.7717
  83   2.0000      -6.052240      -164.6898
  84   2.0000      -6.051125      -164.6595
  85   2.0000      -6.049305      -164.6100
  86   2.0000      -6.049007      -164.6019
  87   2.0000      -6.047862      -164.5707
  88   2.0000      -6.047800      -164.5690
  89   2.0000      -6.045258      -164.4998
  90   2.0000      -6.043787      -164.4598
  91   2.0000      -6.042224      -164.4173
  92   2.0000      -6.040861      -164.3802
  93   2.0000      -1.235868       -33.6297
  94   2.0000      -1.134025       -30.8584
  95   2.0000      -1.130499       -30.7624
  96   2.0000      -1.038896       -28.2698
  97   2.0000      -1.037676       -28.2366
  98   2.0000      -1.022227       -27.8162
  99   2.0000      -1.017545       -27.6888
 100   2.0000      -1.004795       -27.3419
 101   2.0000      -1.001537       -27.2532
 102   2.0000      -1.000746       -27.2317
 103   2.0000      -0.998246       -27.1637
 104   2.0000      -0.996907       -27.1272
 105   2.0000      -0.995352       -27.0849
 106   2.0000      -0.991993       -26.9935
 107   2.0000      -0.974403       -26.5148
 108   2.0000      -0.973710       -26.4960
 109   2.0000      -0.971867       -26.4458
 110   2.0000      -0.959635       -26.1130
 111   2.0000      -0.959613       -26.1124
 112   2.0000      -0.947714       -25.7886
 113   2.0000      -0.927597       -25.2412
 114   2.0000      -0.925798       -25.1922
 115   2.0000      -0.923974       -25.1426
 116   2.0000      -0.907786       -24.7021
 117   2.0000      -0.904452       -24.6114
 118   2.0000      -0.891278       -24.2529
 119   2.0000      -0.886056       -24.1108
 120   2.0000      -0.883728       -24.0475
 121   2.0000      -0.880970       -23.9724
 122   2.0000      -0.879242       -23.9254
 123   2.0000      -0.866394       -23.5758
 124   2.0000      -0.861454       -23.4413
 125   2.0000      -0.856469       -23.3057
 126   2.0000      -0.853658       -23.2292
 127   2.0000      -0.845501       -23.0073
 128   2.0000      -0.844047       -22.9677
 129   2.0000      -0.830930       -22.6107
 130   2.0000      -0.828397       -22.5418
 131   2.0000      -0.823745       -22.4152
 132   2.0000      -0.816112       -22.2075
 133   2.0000      -0.798386       -21.7252
 134   2.0000      -0.797159       -21.6918
 135   2.0000      -0.793418       -21.5900
 136   2.0000      -0.792244       -21.5581
 137   2.0000      -0.766833       -20.8666
 138   2.0000      -0.762156       -20.7393
 139   2.0000      -0.759093       -20.6560
 140   2.0000      -0.754352       -20.5270
 141   2.0000      -0.731950       -19.9174
 142   2.0000      -0.728628       -19.8270
 143   2.0000      -0.721560       -19.6347
 144   2.0000      -0.715234       -19.4625
 145   2.0000      -0.709510       -19.3068
 146   2.0000      -0.704363       -19.1667
 147   2.0000      -0.704005       -19.1570
 148   2.0000      -0.698162       -18.9980
 149   2.0000      -0.690762       -18.7966
 150   2.0000      -0.686230       -18.6733
 151   2.0000      -0.679152       -18.4807
 152   2.0000      -0.676493       -18.4083
 153   2.0000      -0.668215       -18.1830
 154   2.0000      -0.657497       -17.8914
 155   2.0000      -0.652795       -17.7635
 156   2.0000      -0.652096       -17.7444
 157   2.0000      -0.650115       -17.6905
 158   2.0000      -0.647597       -17.6220
 159   2.0000      -0.643227       -17.5031
 160   2.0000      -0.634712       -17.2714
 161   2.0000      -0.632455       -17.2100
 162   2.0000      -0.626301       -17.0425
 163   2.0000      -0.610800       -16.6207
 164   2.0000      -0.609970       -16.5981
 165   2.0000      -0.606669       -16.5083
 166   2.0000      -0.603785       -16.4298
 167   2.0000      -0.600785       -16.3482
 168   2.0000      -0.593239       -16.1429
 169   2.0000      -0.592217       -16.1150
 170   2.0000      -0.590010       -16.0550
 171   2.0000      -0.587479       -15.9861
 172   2.0000      -0.576275       -15.6812
 173   2.0000      -0.574761       -15.6400
 174   2.0000      -0.572607       -15.5814
 175   2.0000      -0.568644       -15.4736
 176   2.0000      -0.555315       -15.1109
 177   2.0000      -0.553537       -15.0625
 178   2.0000      -0.552219       -15.0266
 179   2.0000      -0.549234       -14.9454
 180   2.0000      -0.548837       -14.9346
 181   2.0000      -0.547652       -14.9024
 182   2.0000      -0.547314       -14.8932
 183   2.0000      -0.546245       -14.8641
 184   2.0000      -0.539827       -14.6894
 185   2.0000      -0.539258       -14.6740
 186   2.0000      -0.537167       -14.6170
 187   2.0000      -0.535159       -14.5624
 188   2.0000      -0.529319       -14.4035
 189   2.0000      -0.528792       -14.3892
 190   2.0000      -0.525678       -14.3044
 191   2.0000      -0.525409       -14.2971
 192   2.0000      -0.521721       -14.1968
 193   2.0000      -0.519381       -14.1331
 194   2.0000      -0.514328       -13.9956
 195   2.0000      -0.513970       -13.9858
 196   2.0000      -0.510650       -13.8955
 197   2.0000      -0.507925       -13.8213
 198   2.0000      -0.506235       -13.7754
 199   2.0000      -0.503878       -13.7112
 200   2.0000      -0.502401       -13.6710
 201   2.0000      -0.500238       -13.6122
 202   2.0000      -0.495504       -13.4834
 203   2.0000      -0.495384       -13.4801
 204   2.0000      -0.494802       -13.4642
 205   2.0000      -0.493075       -13.4173
 206   2.0000      -0.491630       -13.3779
 207   2.0000      -0.491009       -13.3610
 208   2.0000      -0.490417       -13.3449
 209   2.0000      -0.489231       -13.3127
 210   2.0000      -0.486034       -13.2257
 211   2.0000      -0.484426       -13.1819
 212   2.0000      -0.483084       -13.1454
 213   2.0000      -0.478897       -13.0315
 214   2.0000      -0.475535       -12.9400
 215   2.0000      -0.474363       -12.9081
 216   2.0000      -0.471881       -12.8405
 217   2.0000      -0.467688       -12.7264
 218   2.0000      -0.465610       -12.6699
 219   2.0000      -0.459792       -12.5116
 220   2.0000      -0.458029       -12.4636
 221   2.0000      -0.454924       -12.3791
 222   2.0000      -0.452588       -12.3156
 223   2.0000      -0.450652       -12.2629
 224   2.0000      -0.449512       -12.2318
 225   2.0000      -0.446777       -12.1574
 226   2.0000      -0.444720       -12.1014
 227   2.0000      -0.442672       -12.0457
 228   2.0000      -0.442455       -12.0398
 229   2.0000      -0.442045       -12.0286
 230   2.0000      -0.440017       -11.9735
 231   2.0000      -0.436843       -11.8871
 232   2.0000      -0.434173       -11.8144
 233   2.0000      -0.433315       -11.7911
 234   2.0000      -0.433050       -11.7839
 235   2.0000      -0.430817       -11.7231
 236   2.0000      -0.429617       -11.6905
 237   2.0000      -0.429447       -11.6858
 238   2.0000      -0.426492       -11.6054
 239   2.0000      -0.425861       -11.5883
 240   2.0000      -0.425493       -11.5783
 241   2.0000      -0.424458       -11.5501
 242   2.0000      -0.423464       -11.5230
 243   2.0000      -0.422921       -11.5083
 244   2.0000      -0.421975       -11.4825
 245   2.0000      -0.418247       -11.3811
 246   2.0000      -0.417626       -11.3642
 247   2.0000      -0.414880       -11.2895
 248   2.0000      -0.411995       -11.2110
 249   2.0000      -0.409980       -11.1561
 250   2.0000      -0.408555       -11.1174
 251   2.0000      -0.404781       -11.0147
 252   2.0000      -0.402248       -10.9457
 253   2.0000      -0.396347       -10.7851
 254   2.0000      -0.385644       -10.4939
 255   2.0000      -0.380647       -10.3579
 256   2.0000      -0.374030       -10.1779
 257   2.0000      -0.366972        -9.9858
 258   2.0000      -0.351285        -9.5589
 259   2.0000      -0.350187        -9.5291
 260   2.0000      -0.344553        -9.3758
 261   2.0000      -0.342389        -9.3169
 262   2.0000      -0.340775        -9.2729
 263   2.0000      -0.339648        -9.2423
 264   2.0000      -0.336440        -9.1550
 265   2.0000      -0.324878        -8.8404
 266   2.0000      -0.318592        -8.6693
 267   2.0000      -0.316206        -8.6044
 268   2.0000      -0.298422        -8.1205
 269   2.0000      -0.295680        -8.0459
 270   2.0000      -0.287976        -7.8362
 271   2.0000      -0.263058        -7.1582
 272   2.0000      -0.261408        -7.1133
 273   0.0000      -0.105734        -2.8772
 274   0.0000      -0.101941        -2.7740
 275   0.0000      -0.071455        -1.9444
 276   0.0000      -0.063694        -1.7332
 277   0.0000      -0.055596        -1.5128

MULLIKEN ATOMIC CHARGES
-----------------------
   0 C :    0.280139
   1 C :   -0.352025
   2 C :   -0.175006
   3 N :    0.149451
   4 C :   -0.199667
   5 N :    0.169200
   6 C :    0.030497
   7 C :    0.016213
   8 C :   -0.082942
   9 C :    0.096478
  10 C :    0.094515
  11 C :   -0.085468
  12 C :   -0.017977
  13 C :    0.036961
  14 C :    0.033104
  15 C :   -0.015043
  16 C :    0.138319
  17 O :   -0.143651
  18 C :   -0.149185
  19 C :    0.081617
  20 C :   -0.117553
  21 C :    0.006128
  22 C :   -0.002270
  23 C :   -0.063072
  24 S :    0.191090
  25 C :   -0.072088
  26 C :    0.025334
  27 C :   -0.115562
  28 C :    0.106105
  29 C :    0.106643
  30 C :   -0.037048
  31 C :   -0.097963
  32 S :    0.186369
  33 C :    0.263909
  34 C :   -0.182978
  35 C :    0.296832
  36 C :   -0.349367
  37 C :   -0.178179
  38 N :    0.126810
  39 C :   -0.175827
  40 N :    0.126495
  41 C :   -0.183068
  42 C :    0.265341
  43 O :   -0.240130
  44 C :   -0.098892
  45 C :   -0.035174
  46 C :    0.029616
  47 C :   -0.076016
  48 S :    0.189176
  49 C :   -0.066224
  50 C :   -0.002100
  51 C :   -0.113082
  52 C :    0.105395
  53 C :    0.102444
  54 C :   -0.010653
  55 C :   -0.113959
  56 S :    0.183183
  57 C :    0.035430
  58 C :   -0.093704
  59 C :    0.315707
  60 C :   -0.360481
  61 C :   -0.181409
  62 N :    0.144216
  63 C :   -0.196796
  64 N :    0.156582
  65 C :    0.044542
  66 C :    0.001324
  67 C :    0.159766
  68 O :   -0.164096
  69 C :   -0.083395
  70 C :    0.097324
  71 C :    0.094186
  72 C :   -0.078911
  73 C :   -0.016874
  74 C :    0.035645
  75 C :    0.036042
  76 C :   -0.016429
  77 H :   -0.011666
  78 H :   -0.008043
  79 H :   -0.011823
  80 H :   -0.004561
  81 H :   -0.003502
  82 H :   -0.017224
  83 H :    0.024366
  84 H :   -0.000152
  85 H :    0.024444
  86 H :    0.016008
  87 H :    0.010708
  88 H :    0.040016
  89 H :    0.008248
  90 H :    0.016767
  91 H :   -0.019450
  92 H :    0.032535
  93 H :    0.034169
  94 H :   -0.018790
  95 H :    0.024672
  96 H :    0.009475
  97 H :    0.024131
  98 H :    0.025254
  99 H :    0.026492
 100 H :    0.009577
 101 H :    0.008901
 102 H :    0.010261
 103 H :   -0.016955
 104 H :   -0.008513
 105 H :   -0.008467
 106 H :   -0.005156
 107 H :   -0.006121
 108 H :   -0.019461
Sum of atomic charges:    0.0000000

LOEWDIN ATOMIC CHARGES
----------------------
   0 C :    0.067992
   1 C :   -0.149134
   2 C :   -0.020798
   3 N :   -0.056775
   4 C :   -0.016192
   5 N :   -0.048666
   6 C :   -0.024043
   7 C :   -0.056461
   8 C :    0.032355
   9 C :   -0.009009
  10 C :   -0.006140
  11 C :    0.014386
  12 C :   -0.006866
  13 C :   -0.013237
  14 C :   -0.012996
  15 C :   -0.008987
  16 C :    0.082271
  17 O :   -0.145381
  18 C :   -0.099230
  19 C :    0.048254
  20 C :   -0.177741
  21 C :   -0.010568
  22 C :   -0.029204
  23 C :   -0.174326
  24 S :    0.475093
  25 C :   -0.182451
  26 C :   -0.028707
  27 C :   -0.035093
  28 C :   -0.024016
  29 C :   -0.021252
  30 C :   -0.030316
  31 C :   -0.188109
  32 S :    0.475898
  33 C :    0.077122
  34 C :   -0.061925
  35 C :    0.054768
  36 C :   -0.179341
  37 C :   -0.030614
  38 N :   -0.071138
  39 C :   -0.030327
  40 N :   -0.071515
  41 C :   -0.060535
  42 C :    0.075852
  43 O :   -0.006704
  44 C :   -0.185620
  45 C :   -0.031595
  46 C :   -0.027153
  47 C :   -0.186001
  48 S :    0.477441
  49 C :   -0.174619
  50 C :   -0.038474
  51 C :   -0.035528
  52 C :   -0.022341
  53 C :   -0.023004
  54 C :   -0.006216
  55 C :   -0.172430
  56 S :    0.471124
  57 C :    0.044926
  58 C :   -0.099988
  59 C :    0.077242
  60 C :   -0.144650
  61 C :   -0.016931
  62 N :   -0.056469
  63 C :   -0.026113
  64 N :   -0.053058
  65 C :   -0.026041
  66 C :   -0.054899
  67 C :    0.088630
  68 O :   -0.152034
  69 C :    0.029986
  70 C :   -0.008936
  71 C :   -0.006453
  72 C :    0.019513
  73 C :   -0.004965
  74 C :   -0.013772
  75 C :   -0.012885
  76 C :   -0.010550
  77 H :    0.039519
  78 H :    0.037901
  79 H :    0.033823
  80 H :    0.033239
  81 H :    0.033151
  82 H :    0.032011
  83 H :    0.046582
  84 H :    0.035802
  85 H :    0.030774
  86 H :    0.026358
  87 H :    0.024244
  88 H :    0.036920
  89 H :    0.022899
  90 H :    0.026744
  91 H :    0.032933
  92 H :    0.041813
  93 H :    0.041997
  94 H :    0.033292
  95 H :    0.031399
  96 H :    0.023377
  97 H :    0.029554
  98 H :    0.031460
  99 H :    0.030439
 100 H :    0.023319
 101 H :    0.034948
 102 H :    0.043230
 103 H :    0.037277
 104 H :    0.039012
 105 H :    0.035011
 106 H :    0.033101
 107 H :    0.032475
 108 H :    0.031062

  Mayer bond orders larger than 0.100000
B(  0-C ,  1-C ) :   1.6266 B(  0-C ,  6-C ) :   0.9986 B(  0-C , 18-C ) :   1.0509
B(  1-C ,  2-C ) :   1.1312 B(  1-C ,  4-C ) :   1.1752 B(  2-C ,  3-N ) :   2.9831
B(  4-C ,  5-N ) :   2.9797 B(  6-C ,  7-C ) :   1.2145 B(  6-C , 11-C ) :   1.4584
B(  7-C ,  8-C ) :   1.4769 B(  7-C , 16-C ) :   0.9203 B(  8-C ,  9-C ) :   1.1819
B(  8-C , 77-H ) :   1.0159 B(  9-C , 10-C ) :   1.2568 B(  9-C , 15-C ) :   1.2457
B( 10-C , 11-C ) :   1.2030 B( 10-C , 12-C ) :   1.2437 B( 11-C , 78-H ) :   0.9927
B( 12-C , 13-C ) :   1.4884 B( 12-C , 79-H ) :   0.9967 B( 13-C , 14-C ) :   1.2610
B( 13-C , 80-H ) :   0.9885 B( 14-C , 15-C ) :   1.4879 B( 14-C , 81-H ) :   0.9894
B( 15-C , 82-H ) :   0.9974 B( 16-C , 17-O ) :   2.2669 B( 16-C , 18-C ) :   0.9443
B( 18-C , 19-C ) :   1.6402 B( 19-C , 20-C ) :   1.1531 B( 19-C , 83-H ) :   0.9276
B( 20-C , 21-C ) :   1.3820 B( 20-C , 24-S ) :   1.0968 B( 21-C , 22-C ) :   1.3878
B( 21-C , 84-H ) :   0.9908 B( 22-C , 23-C ) :   1.4909 B( 22-C , 27-C ) :   0.9408
B( 23-C , 24-S ) :   1.1195 B( 23-C , 25-C ) :   1.1777 B( 25-C , 26-C ) :   1.5200
B( 25-C , 32-S ) :   1.0961 B( 26-C , 27-C ) :   0.9369 B( 26-C , 30-C ) :   1.2955
B( 27-C , 28-C ) :   1.0343 B( 27-C , 29-C ) :   1.0374 B( 28-C , 85-H ) :   0.9643
B( 28-C , 86-H ) :   0.9650 B( 28-C , 87-H ) :   0.9642 B( 29-C , 88-H ) :   0.9617
B( 29-C , 89-H ) :   0.9628 B( 29-C , 90-H ) :   0.9634 B( 30-C , 31-C ) :   1.4306
B( 30-C , 91-H ) :   1.0175 B( 31-C , 32-S ) :   1.1232 B( 31-C , 33-C ) :   1.1033
B( 33-C , 34-C ) :   1.5505 B( 33-C , 43-O ) :   1.1341 B( 34-C , 35-C ) :   1.1385
B( 34-C , 92-H ) :   0.9598 B( 35-C , 36-C ) :   1.5405 B( 35-C , 41-C ) :   1.1378
B( 36-C , 37-C ) :   1.1330 B( 36-C , 39-C ) :   1.1327 B( 37-C , 38-N ) :   3.0044
B( 39-C , 40-N ) :   3.0045 B( 41-C , 42-C ) :   1.5517 B( 41-C , 93-H ) :   0.9591
B( 42-C , 43-O ) :   1.1360 B( 42-C , 44-C ) :   1.1010 B( 44-C , 45-C ) :   1.4323
B( 44-C , 48-S ) :   1.1267 B( 45-C , 46-C ) :   1.2944 B( 45-C , 94-H ) :   1.0177
B( 46-C , 47-C ) :   1.5179 B( 46-C , 51-C ) :   0.9402 B( 47-C , 48-S ) :   1.0948
B( 47-C , 49-C ) :   1.1766 B( 49-C , 50-C ) :   1.4661 B( 49-C , 56-S ) :   1.1305
B( 50-C , 51-C ) :   0.9384 B( 50-C , 54-C ) :   1.3338 B( 51-C , 52-C ) :   1.0337
B( 51-C , 53-C ) :   1.0371 B( 52-C , 95-H ) :   0.9641 B( 52-C , 96-H ) :   0.9643
B( 52-C , 97-H ) :   0.9652 B( 53-C , 98-H ) :   0.9641 B( 53-C , 99-H ) :   0.9648
B( 53-C ,100-H ) :   0.9638 B( 54-C , 55-C ) :   1.3869 B( 54-C ,101-H ) :   0.9821
B( 55-C , 56-S ) :   1.0824 B( 55-C , 57-C ) :   1.2344 B( 57-C , 58-C ) :   1.5731
B( 57-C ,102-H ) :   0.9117 B( 58-C , 59-C ) :   1.0815 B( 58-C , 67-C ) :   0.9447
B( 59-C , 60-C ) :   1.6197 B( 59-C , 65-C ) :   0.9809 B( 60-C , 61-C ) :   1.1511
B( 60-C , 63-C ) :   1.1374 B( 61-C , 62-N ) :   2.9629 B( 63-C , 64-N ) :   2.9808
B( 65-C , 66-C ) :   1.2148 B( 65-C , 72-C ) :   1.4540 B( 66-C , 67-C ) :   0.9572
B( 66-C , 69-C ) :   1.4704 B( 67-C , 68-O ) :   2.1529 B( 69-C , 70-C ) :   1.1790
B( 69-C ,103-H ) :   1.0152 B( 70-C , 71-C ) :   1.2558 B( 70-C , 76-C ) :   1.2449
B( 71-C , 72-C ) :   1.2053 B( 71-C , 73-C ) :   1.2414 B( 72-C ,104-H ) :   0.9887
B( 73-C , 74-C ) :   1.4887 B( 73-C ,105-H ) :   0.9967 B( 74-C , 75-C ) :   1.2591
B( 74-C ,106-H ) :   0.9891 B( 75-C , 76-C ) :   1.4892 B( 75-C ,107-H ) :   0.9890
B( 76-C ,108-H ) :   0.9967

-----------------------------------------------------------------------------
         ABSORPTION SPECTRUM VIA TRANSITION ELECTRIC DIPOLE MOMENTS
-----------------------------------------------------------------------------
State   Energy  Wavelength   fosc         T2         TX        TY        TZ
        (cm-1)    (nm)                  (au**2)     (au)      (au)      (au)
-----------------------------------------------------------------------------
   0   18248.0    548.0   1.835047145  33.10604   1.96699  -5.03189   1.97915
   1   19704.2    507.5   1.492078962  24.92924  -0.28255  -0.00191  -4.98492
   2   23405.0    427.3   0.040818192   0.57414   0.01598   0.75752  -0.00736
   3   24089.5    415.1   0.069086472   0.94415  -0.04111  -0.95593  -0.16930
   4   26084.7    383.4   0.064424999   0.81310  -0.12185   0.54313  -0.70941
   5   26358.2    379.4   0.064868795   0.81021  -0.20041  -0.37862   0.79164
   6   26637.3    375.4   0.215284889   2.66072   0.11029   1.62717  -0.02938
   7   27799.3    359.7   0.374712414   4.43752   0.30379  -1.56511  -1.37682
   8   28237.2    354.1   0.075056189   0.87506  -0.20883  -0.90215  -0.13258
   9   28348.2    352.8   0.015473669   0.17970   0.07211  -0.31921   0.26946
  10   28773.5    347.5   0.067999594   0.77802  -0.00945   0.69425   0.54401
  11   29116.5    343.4   0.146132820   1.65228  -0.13009   1.22976  -0.35080
  12   29606.2    337.8   0.125816069   1.39903  -0.10408  -0.20313  -1.16058
  13   29786.3    335.7   0.083882982   0.92711  -0.05469   0.94124   0.19541
  14   30088.5    332.4   0.054788922   0.59947  -0.36459  -0.08437   0.67781
  15   30522.9    327.6   0.057645471   0.62175  -0.08494  -0.54438   0.56408
  16   31841.2    314.1   0.012037577   0.12446  -0.21274   0.15292  -0.23625
  17   32917.6    303.8   0.045444079   0.45449  -0.07531   0.57061   0.35103
  18   33523.4    298.3   0.509958103   5.00797  -0.49103   0.98107   1.95048
  19   33616.5    297.5   0.435426431   4.26420  -0.45207  -1.87898   0.72751
  20   33888.2    295.1   0.074193609   0.72076   0.13605   0.47817   0.68819
  21   34399.5    290.7   0.177318156   1.69698  -0.07668  -1.29533  -0.11496
  22   34666.5    288.5   0.049072134   0.46602  -0.23811  -0.63965   0.01292
  23   34796.2    287.4   0.020527153   0.19421   0.02402  -0.24719  -0.36405
  24   35095.8    284.9   0.293419042   2.75238   0.26096  -1.19260  -1.12338
  25   35353.7    282.9   0.071684684   0.66752   0.23402  -0.31193  -0.71796
  26   35810.8    279.2   0.020072221   0.18453   0.12002   0.01252   0.41227
  27   36246.5    275.9   0.005087565   0.04621  -0.14586   0.15706   0.01623
  28   36508.4    273.9   0.013927580   0.12559  -0.09362   0.21224   0.26792
  29   36794.8    271.8   0.012720341   0.11381  -0.05054   0.32525  -0.07395
  30   37250.3    268.5   0.033966861   0.30019  -0.01056  -0.39044  -0.38424
  31   37654.8    265.6   0.005579801   0.04878   0.06824  -0.20715  -0.03487
  32   37937.5    263.6   0.017736957   0.15392   0.14942  -0.33663  -0.13516
  33   38259.9    261.4   0.041966691   0.36111  -0.12673  -0.58034   0.09086
  34   38298.1    261.1   0.045332775   0.38968   0.04178  -0.18293  -0.59538
  35   38720.9    258.3   0.042707406   0.36311  -0.39398   0.44925   0.07785
  36   38952.2    256.7   0.041087359   0.34726  -0.45387  -0.34561  -0.14771
  37   39571.6    252.7   0.435761483   3.62527   0.27840  -1.81354  -0.50878
  38   40088.4    249.4   0.020389521   0.16744   0.11255  -0.35933  -0.16016
  39   40132.0    249.2   0.027739621   0.22755  -0.11222   0.23697  -0.39851

FINAL SINGLE POINT ENERGY     -4600.596836864472

DIPOLE MOMENT
-------------
                                X             Y             Z
Electronic contribution:     -1.67726      40.47315      41.95032
Nuclear contribution   :      1.62452     -46.43037     -45.94307
                        -----------------------------------------
Total Dipole Moment    :     -0.05274      -5.95722      -3.99275
                        -----------------------------------------
Magnitude (a.u.)       :      7.17170
Magnitude (Debye)      :     18.22901

Rotational constants in cm-1:     0.001026     0.000207     0.000175
Rotational constants in MHz :    30.760573     6.204553     5.233070

                             ****ORCA TERMINATED NORMALLY****
TOTAL RUN TIME: 0 days 0 hours 11 minutes 1 seconds 497 msec
