                         Program Version 4.2.0 -  RELEASE  -
|  1> # ORCA input file
|  2> # SCF done       -180.882990093142          0.000727056139
|  3> ! CAM-B3LYP def2-SVP def2/J RIJCOSX Grid4 TightSCF
|  4> %maxcore 5000
|  5> %tddft
|  6>     Mode sTDDFT
|  7>     Ethresh 5.0
|  8>     maxcore 5000
|  9> end
| 10>
| 11> %pal
| 12>   nprocs 6
| 13>   end
| 14> * xyz 0 1
| 15>    C       -7.71084        -0.06865        -0.80470
| 16>    C       -6.83295         0.06369         0.24368
| 17>    C       -6.12990        -1.01146         0.81939
| 18>    N       -5.49175        -1.84014         1.29456
| 19>    C       -6.60590         1.26393         0.94550
| 20>    N       -6.43628         2.18417         1.61071
| 21>    C       -8.23618        -1.33263        -1.31161
| 22>    C       -9.36684        -1.05765        -2.13530
| 23>    C      -10.10121        -2.05562        -2.70638
| 24>    C       -9.72899        -3.40080        -2.48246
| 25>    C       -8.59145        -3.68324        -1.67314
| 26>    C       -7.85124        -2.62793        -1.09135
| 27>    C       -8.23013        -5.02844        -1.45679
| 28>    C       -8.95936        -6.04704        -2.00725
| 29>    C      -10.08043        -5.76773        -2.80252
| 30>    C      -10.45609        -4.47254        -3.03597
| 31>    C       -9.55387         0.40180        -2.22905
| 32>    O      -10.42349         1.00387        -2.81923
| 33>    C       -8.40822         0.99778        -1.48735
| 34>    C       -8.17109         2.33327        -1.61275
| 35>    C       -7.04208         3.12812        -1.24483
| 36>    C       -7.28747         4.41742        -0.77925
| 37>    C       -6.28782         5.22706        -0.27656
| 38>    C       -4.94710         4.83082        -0.23067
| 39>    C       -4.62537         3.50922        -0.69416
| 40>    C       -3.39864         2.85139        -0.59458
| 41>   Si       -3.47430         1.57787        -1.88081
| 42>    C       -5.27726         1.42507        -1.74104
| 43>    C       -5.68937         2.67455        -1.27146
| 44>    C       -3.98615         5.76720         0.25965
| 45>    C       -4.22707         7.01565         0.86659
| 46>    C       -3.02898         7.75421         1.20661
| 47>    N       -3.12447         8.94954         1.78673
| 48>    C       -4.31919         9.42661         2.06541
| 49>    C       -4.38360        10.71759         2.78185
| 50>    O       -3.39303        11.28946         3.19928
| 51>    C       -5.74337        11.23680         2.99378
| 52>    C       -6.85218        10.58239         2.62852
| 53>    C       -6.84520         9.27235         1.95587
| 54>    O       -7.86624         8.71691         1.60334
| 55>    C       -5.49730         8.70653         1.71638
| 56>    N       -5.42835         7.53159         1.13194
| 57>    C       -1.84080         7.11288         0.82463
| 58>    S       -2.26808         5.57945         0.10627
| 59>    C       -0.45208         7.43377         0.89407
| 60>    C        0.39526         6.75578        -0.00324
| 61>    C        1.76720         6.78808         0.07982
| 62>    C        2.41011         7.52195         1.08567
| 63>    C        1.62818         8.47250         1.79212
| 64>    C        2.16099         9.59532         2.43402
| 65>   Si        0.89437         9.89511         3.68625
| 66>    C       -0.45540         9.28160         2.64147
| 67>    C        0.16041         8.37173         1.78897
| 68>    C        3.77921         7.26267         1.35471
| 69>    C        4.41318         7.30466         2.57131
| 70>    C        5.83067         7.06235         2.76826
| 71>    C        6.79877         7.03812         1.79657
| 72>    C        8.16876         6.82459         2.05324
| 73>    N        9.29595         6.65282         2.19016
| 74>    C        6.58459         7.24856         0.41871
| 75>    N        6.50613         7.42499        -0.71393
| 76>    C        6.07037         6.92997         4.20032
| 77>    C        4.83746         7.13796         4.88065
| 78>    C        3.76813         7.38422         3.89830
| 79>    O        2.58589         7.55040         4.16155
| 80>    C        4.74591         7.07549         6.24080
| 81>    C        5.90664         6.79665         6.99810
| 82>    C        7.14257         6.58161         6.32402
| 83>    C        7.20596         6.65335         4.91256
| 84>    C        8.29202         6.29553         7.08717
| 85>    C        8.22680         6.22561         8.45256
| 86>    C        7.00972         6.43853         9.11563
| 87>    C        5.87442         6.71872         8.40380
| 88>    H      -10.95981        -1.82303        -3.31872
| 89>    H       -6.99325        -2.87240        -0.48502
| 90>    H       -7.36784        -5.23865        -0.84097
| 91>    H       -8.67685        -7.07432        -1.83146
| 92>    H      -10.64525        -6.58345        -3.22854
| 93>    H      -11.31874        -4.25112        -3.64738
| 94>    H       -8.99265         2.88029        -2.06887
| 95>    H       -8.30585         4.77526        -0.74830
| 96>    H       -6.55564         6.19761         0.10626
| 97>    H       -2.52588         3.32555        -0.18609
| 98>    H       -5.94985         0.82102        -2.32981
| 99>    H       -5.79626        12.19807         3.48712
|100>    H       -7.83428        10.99689         2.81215
|101>    H       -0.05596         6.15203        -0.77844
|102>    H        2.35681         6.18168        -0.59224
|103>    H        3.23117         9.71712         2.48873
|104>    H       -1.52360         9.32028         2.76765
|105>    H        4.34515         6.86885         0.51827
|106>    H        3.79874         7.23475         6.73469
|107>    H        8.15506         6.47893         4.43144
|108>    H        9.22703         6.13285         6.57138
|109>    H        9.11324         6.00548         9.02840
|110>    H        6.97517         6.37872        10.19324
|111>    H        4.93411         6.88223         8.90992
|112> *
|113>
|114>                          ****END OF INPUT****

CARTESIAN COORDINATES (ANGSTROEM)
---------------------------------
  C     -7.710840   -0.068650   -0.804700
  C     -6.832950    0.063690    0.243680
  C     -6.129900   -1.011460    0.819390
  N     -5.491750   -1.840140    1.294560
  C     -6.605900    1.263930    0.945500
  N     -6.436280    2.184170    1.610710
  C     -8.236180   -1.332630   -1.311610
  C     -9.366840   -1.057650   -2.135300
  C    -10.101210   -2.055620   -2.706380
  C     -9.728990   -3.400800   -2.482460
  C     -8.591450   -3.683240   -1.673140
  C     -7.851240   -2.627930   -1.091350
  C     -8.230130   -5.028440   -1.456790
  C     -8.959360   -6.047040   -2.007250
  C    -10.080430   -5.767730   -2.802520
  C    -10.456090   -4.472540   -3.035970
  C     -9.553870    0.401800   -2.229050
  O    -10.423490    1.003870   -2.819230
  C     -8.408220    0.997780   -1.487350
  C     -8.171090    2.333270   -1.612750
  C     -7.042080    3.128120   -1.244830
  C     -7.287470    4.417420   -0.779250
  C     -6.287820    5.227060   -0.276560
  C     -4.947100    4.830820   -0.230670
  C     -4.625370    3.509220   -0.694160
  C     -3.398640    2.851390   -0.594580
  Si    -3.474300    1.577870   -1.880810
  C     -5.277260    1.425070   -1.741040
  C     -5.689370    2.674550   -1.271460
  C     -3.986150    5.767200    0.259650
  C     -4.227070    7.015650    0.866590
  C     -3.028980    7.754210    1.206610
  N     -3.124470    8.949540    1.786730
  C     -4.319190    9.426610    2.065410
  C     -4.383600   10.717590    2.781850
  O     -3.393030   11.289460    3.199280
  C     -5.743370   11.236800    2.993780
  C     -6.852180   10.582390    2.628520
  C     -6.845200    9.272350    1.955870
  O     -7.866240    8.716910    1.603340
  C     -5.497300    8.706530    1.716380
  N     -5.428350    7.531590    1.131940
  C     -1.840800    7.112880    0.824630
  S     -2.268080    5.579450    0.106270
  C     -0.452080    7.433770    0.894070
  C      0.395260    6.755780   -0.003240
  C      1.767200    6.788080    0.079820
  C      2.410110    7.521950    1.085670
  C      1.628180    8.472500    1.792120
  C      2.160990    9.595320    2.434020
  Si     0.894370    9.895110    3.686250
  C     -0.455400    9.281600    2.641470
  C      0.160410    8.371730    1.788970
  C      3.779210    7.262670    1.354710
  C      4.413180    7.304660    2.571310
  C      5.830670    7.062350    2.768260
  C      6.798770    7.038120    1.796570
  C      8.168760    6.824590    2.053240
  N      9.295950    6.652820    2.190160
  C      6.584590    7.248560    0.418710
  N      6.506130    7.424990   -0.713930
  C      6.070370    6.929970    4.200320
  C      4.837460    7.137960    4.880650
  C      3.768130    7.384220    3.898300
  O      2.585890    7.550400    4.161550
  C      4.745910    7.075490    6.240800
  C      5.906640    6.796650    6.998100
  C      7.142570    6.581610    6.324020
  C      7.205960    6.653350    4.912560
  C      8.292020    6.295530    7.087170
  C      8.226800    6.225610    8.452560
  C      7.009720    6.438530    9.115630
  C      5.874420    6.718720    8.403800
  H    -10.959810   -1.823030   -3.318720
  H     -6.993250   -2.872400   -0.485020
  H     -7.367840   -5.238650   -0.840970
  H     -8.676850   -7.074320   -1.831460
  H    -10.645250   -6.583450   -3.228540
  H    -11.318740   -4.251120   -3.647380
  H     -8.992650    2.880290   -2.068870
  H     -8.305850    4.775260   -0.748300
  H     -6.555640    6.197610    0.106260
  H     -2.525880    3.325550   -0.186090
  H     -5.949850    0.821020   -2.329810
  H     -5.796260   12.198070    3.487120
  H     -7.834280   10.996890    2.812150
  H     -0.055960    6.152030   -0.778440
  H      2.356810    6.181680   -0.592240
  H      3.231170    9.717120    2.488730
  H     -1.523600    9.320280    2.767650
  H      4.345150    6.868850    0.518270
  H      3.798740    7.234750    6.734690
  H      8.155060    6.478930    4.431440
  H      9.227030    6.132850    6.571380
  H      9.113240    6.005480    9.028400
  H      6.975170    6.378720   10.193240
  H      4.934110    6.882230    8.909920

 Total Charge           Charge          ....    0
 Multiplicity           Mult            ....    1
 Number of Electrons    NEL             ....  502
 Basis Dimension        Dim             .... 1154

ORBITAL ENERGIES
----------------

  NO   OCC          E(Eh)            E(eV)
   0   2.0000     -89.002096     -2421.8702
   1   2.0000     -66.203058     -1801.4768
   2   2.0000     -66.185139     -1800.9892
   3   2.0000     -19.237006      -523.4655
   4   2.0000     -19.236831      -523.4608
   5   2.0000     -19.214147      -522.8435
   6   2.0000     -19.210647      -522.7483
   7   2.0000     -14.455331      -393.3495
   8   2.0000     -14.454049      -393.3147
   9   2.0000     -14.416314      -392.2879
  10   2.0000     -14.412146      -392.1744
  11   2.0000     -14.410474      -392.1289
  12   2.0000     -14.408869      -392.0852
  13   2.0000     -10.385198      -282.5956
  14   2.0000     -10.384981      -282.5897
  15   2.0000     -10.364237      -282.0252
  16   2.0000     -10.360157      -281.9142
  17   2.0000     -10.349506      -281.6244
  18   2.0000     -10.349031      -281.6115
  19   2.0000     -10.346913      -281.5538
  20   2.0000     -10.345350      -281.5113
  21   2.0000     -10.342436      -281.4320
  22   2.0000     -10.342211      -281.4259
  23   2.0000     -10.338848      -281.3344
  24   2.0000     -10.336669      -281.2751
  25   2.0000     -10.335469      -281.2424
  26   2.0000     -10.334070      -281.2043
  27   2.0000     -10.321980      -280.8754
  28   2.0000     -10.319761      -280.8150
  29   2.0000     -10.319023      -280.7949
  30   2.0000     -10.317533      -280.7544
  31   2.0000     -10.316836      -280.7354
  32   2.0000     -10.315148      -280.6894
  33   2.0000     -10.314936      -280.6837
  34   2.0000     -10.314819      -280.6805
  35   2.0000     -10.313646      -280.6486
  36   2.0000     -10.313608      -280.6476
  37   2.0000     -10.312066      -280.6056
  38   2.0000     -10.308440      -280.5069
  39   2.0000     -10.304862      -280.4096
  40   2.0000     -10.304235      -280.3925
  41   2.0000     -10.303511      -280.3728
  42   2.0000     -10.302571      -280.3472
  43   2.0000     -10.298010      -280.2231
  44   2.0000     -10.297479      -280.2087
  45   2.0000     -10.297004      -280.1957
  46   2.0000     -10.296613      -280.1851
  47   2.0000     -10.296201      -280.1739
  48   2.0000     -10.296067      -280.1702
  49   2.0000     -10.296014      -280.1688
  50   2.0000     -10.294964      -280.1402
  51   2.0000     -10.294688      -280.1327
  52   2.0000     -10.294514      -280.1280
  53   2.0000     -10.291940      -280.0579
  54   2.0000     -10.291883      -280.0564
  55   2.0000     -10.291557      -280.0475
  56   2.0000     -10.290727      -280.0249
  57   2.0000     -10.289722      -279.9976
  58   2.0000     -10.289534      -279.9925
  59   2.0000     -10.288008      -279.9509
  60   2.0000     -10.285915      -279.8940
  61   2.0000     -10.285530      -279.8835
  62   2.0000     -10.285276      -279.8766
  63   2.0000     -10.284706      -279.8611
  64   2.0000     -10.282197      -279.7928
  65   2.0000     -10.281592      -279.7763
  66   2.0000     -10.280955      -279.7590
  67   2.0000     -10.280769      -279.7540
  68   2.0000     -10.280312      -279.7415
  69   2.0000     -10.268041      -279.4076
  70   2.0000     -10.263192      -279.2757
  71   2.0000     -10.245549      -278.7956
  72   2.0000     -10.241385      -278.6823
  73   2.0000      -8.095787      -220.2976
  74   2.0000      -6.064669      -165.0280
  75   2.0000      -6.060390      -164.9116
  76   2.0000      -6.059016      -164.8742
  77   2.0000      -5.374034      -146.2349
  78   2.0000      -5.355579      -145.7327
  79   2.0000      -3.741202      -101.8033
  80   2.0000      -3.733008      -101.5803
  81   2.0000      -3.731528      -101.5400
  82   2.0000      -3.722798      -101.3025
  83   2.0000      -3.714329      -101.0720
  84   2.0000      -3.713358      -101.0456
  85   2.0000      -1.152092       -31.3500
  86   2.0000      -1.147323       -31.2202
  87   2.0000      -1.128273       -30.7019
  88   2.0000      -1.121312       -30.5124
  89   2.0000      -1.108520       -30.1644
  90   2.0000      -1.034594       -28.1527
  91   2.0000      -1.018522       -27.7154
  92   2.0000      -1.015590       -27.6356
  93   2.0000      -1.012549       -27.5529
  94   2.0000      -0.997315       -27.1383
  95   2.0000      -0.995156       -27.0796
  96   2.0000      -0.992787       -27.0151
  97   2.0000      -0.988157       -26.8891
  98   2.0000      -0.986362       -26.8403
  99   2.0000      -0.978806       -26.6347
 100   2.0000      -0.969743       -26.3880
 101   2.0000      -0.965266       -26.2662
 102   2.0000      -0.948814       -25.8185
 103   2.0000      -0.929838       -25.3022
 104   2.0000      -0.922509       -25.1028
 105   2.0000      -0.916195       -24.9309
 106   2.0000      -0.911768       -24.8105
 107   2.0000      -0.904494       -24.6125
 108   2.0000      -0.897704       -24.4278
 109   2.0000      -0.891495       -24.2588
 110   2.0000      -0.884818       -24.0771
 111   2.0000      -0.880423       -23.9575
 112   2.0000      -0.878580       -23.9074
 113   2.0000      -0.874951       -23.8086
 114   2.0000      -0.862602       -23.4726
 115   2.0000      -0.846733       -23.0408
 116   2.0000      -0.832038       -22.6409
 117   2.0000      -0.827394       -22.5145
 118   2.0000      -0.822444       -22.3798
 119   2.0000      -0.807166       -21.9641
 120   2.0000      -0.804964       -21.9042
 121   2.0000      -0.798335       -21.7238
 122   2.0000      -0.793349       -21.5881
 123   2.0000      -0.787045       -21.4166
 124   2.0000      -0.773986       -21.0612
 125   2.0000      -0.767794       -20.8927
 126   2.0000      -0.758640       -20.6436
 127   2.0000      -0.758038       -20.6273
 128   2.0000      -0.756017       -20.5723
 129   2.0000      -0.744405       -20.2563
 130   2.0000      -0.729896       -19.8615
 131   2.0000      -0.709944       -19.3186
 132   2.0000      -0.705125       -19.1874
 133   2.0000      -0.701297       -19.0833
 134   2.0000      -0.698182       -18.9985
 135   2.0000      -0.693577       -18.8732
 136   2.0000      -0.691456       -18.8155
 137   2.0000      -0.685373       -18.6499
 138   2.0000      -0.675586       -18.3836
 139   2.0000      -0.675087       -18.3701
 140   2.0000      -0.673571       -18.3288
 141   2.0000      -0.665328       -18.1045
 142   2.0000      -0.661520       -18.0009
 143   2.0000      -0.655341       -17.8327
 144   2.0000      -0.640067       -17.4171
 145   2.0000      -0.638421       -17.3723
 146   2.0000      -0.632154       -17.2018
 147   2.0000      -0.630491       -17.1565
 148   2.0000      -0.619926       -16.8691
 149   2.0000      -0.616864       -16.7857
 150   2.0000      -0.611661       -16.6441
 151   2.0000      -0.607668       -16.5355
 152   2.0000      -0.605716       -16.4824
 153   2.0000      -0.600966       -16.3531
 154   2.0000      -0.598804       -16.2943
 155   2.0000      -0.591499       -16.0955
 156   2.0000      -0.590919       -16.0797
 157   2.0000      -0.581057       -15.8114
 158   2.0000      -0.576367       -15.6837
 159   2.0000      -0.575644       -15.6641
 160   2.0000      -0.568700       -15.4751
 161   2.0000      -0.561796       -15.2872
 162   2.0000      -0.554539       -15.0898
 163   2.0000      -0.551467       -15.0062
 164   2.0000      -0.549785       -14.9604
 165   2.0000      -0.546145       -14.8614
 166   2.0000      -0.543939       -14.8013
 167   2.0000      -0.540646       -14.7117
 168   2.0000      -0.536705       -14.6045
 169   2.0000      -0.536410       -14.5965
 170   2.0000      -0.534494       -14.5443
 171   2.0000      -0.532731       -14.4963
 172   2.0000      -0.530773       -14.4431
 173   2.0000      -0.527275       -14.3479
 174   2.0000      -0.525173       -14.2907
 175   2.0000      -0.522582       -14.2202
 176   2.0000      -0.520568       -14.1654
 177   2.0000      -0.518153       -14.0997
 178   2.0000      -0.516713       -14.0605
 179   2.0000      -0.515246       -14.0206
 180   2.0000      -0.514097       -13.9893
 181   2.0000      -0.511882       -13.9290
 182   2.0000      -0.510902       -13.9023
 183   2.0000      -0.508646       -13.8410
 184   2.0000      -0.507377       -13.8064
 185   2.0000      -0.505973       -13.7682
 186   2.0000      -0.503403       -13.6983
 187   2.0000      -0.501531       -13.6474
 188   2.0000      -0.499797       -13.6002
 189   2.0000      -0.498949       -13.5771
 190   2.0000      -0.493457       -13.4277
 191   2.0000      -0.489976       -13.3329
 192   2.0000      -0.488663       -13.2972
 193   2.0000      -0.486457       -13.2372
 194   2.0000      -0.482738       -13.1360
 195   2.0000      -0.481230       -13.0949
 196   2.0000      -0.478039       -13.0081
 197   2.0000      -0.470030       -12.7902
 198   2.0000      -0.464946       -12.6518
 199   2.0000      -0.464830       -12.6487
 200   2.0000      -0.461176       -12.5492
 201   2.0000      -0.458975       -12.4893
 202   2.0000      -0.453314       -12.3353
 203   2.0000      -0.450288       -12.2530
 204   2.0000      -0.447866       -12.1871
 205   2.0000      -0.445804       -12.1310
 206   2.0000      -0.443437       -12.0665
 207   2.0000      -0.442769       -12.0484
 208   2.0000      -0.439485       -11.9590
 209   2.0000      -0.439114       -11.9489
 210   2.0000      -0.434858       -11.8331
 211   2.0000      -0.434135       -11.8134
 212   2.0000      -0.432873       -11.7791
 213   2.0000      -0.428862       -11.6699
 214   2.0000      -0.428751       -11.6669
 215   2.0000      -0.427483       -11.6324
 216   2.0000      -0.426839       -11.6149
 217   2.0000      -0.421521       -11.4702
 218   2.0000      -0.419552       -11.4166
 219   2.0000      -0.414396       -11.2763
 220   2.0000      -0.413407       -11.2494
 221   2.0000      -0.409029       -11.1303
 222   2.0000      -0.406439       -11.0598
 223   2.0000      -0.402214       -10.9448
 224   2.0000      -0.401380       -10.9221
 225   2.0000      -0.399381       -10.8677
 226   2.0000      -0.391704       -10.6588
 227   2.0000      -0.385118       -10.4796
 228   2.0000      -0.381224       -10.3736
 229   2.0000      -0.380983       -10.3671
 230   2.0000      -0.379040       -10.3142
 231   2.0000      -0.375081       -10.2065
 232   2.0000      -0.370086       -10.0705
 233   2.0000      -0.369450       -10.0532
 234   2.0000      -0.362910        -9.8753
 235   2.0000      -0.356790        -9.7088
 236   2.0000      -0.354252        -9.6397
 237   2.0000      -0.338556        -9.2126
 238   2.0000      -0.336903        -9.1676
 239   2.0000      -0.335428        -9.1275
 240   2.0000      -0.329402        -8.9635
 241   2.0000      -0.322080        -8.7642
 242   2.0000      -0.314019        -8.5449
 243   2.0000      -0.308368        -8.3911
 244   2.0000      -0.298820        -8.1313
 245   2.0000      -0.292318        -7.9544
 246   2.0000      -0.289096        -7.8667
 247   2.0000      -0.288064        -7.8386
 248   2.0000      -0.270680        -7.3656
 249   2.0000      -0.260176        -7.0797
 250   2.0000      -0.238091        -6.4788
 251   0.0000      -0.136543        -3.7155
 252   0.0000      -0.113514        -3.0889
 253   0.0000      -0.094037        -2.5589
 254   0.0000      -0.085781        -2.3342
 255   0.0000      -0.080546        -2.1918

MULLIKEN ATOMIC CHARGES
-----------------------
   0 C :    0.261766
   1 C :   -0.313821
   2 C :   -0.191676
   3 N :    0.147742
   4 C :   -0.195001
   5 N :    0.165615
   6 C :    0.049314
   7 C :    0.011243
   8 C :   -0.083193
   9 C :    0.093992
  10 C :    0.097127
  11 C :   -0.090641
  12 C :   -0.018571
  13 C :    0.035744
  14 C :    0.035797
  15 C :   -0.016328
  16 C :    0.136856
  17 O :   -0.143179
  18 C :   -0.118112
  19 C :   -0.007840
  20 C :    0.069590
  21 C :    0.028062
  22 C :   -0.028603
  23 C :    0.146298
  24 C :   -0.011100
  25 C :   -0.203289
  26 Si:    0.362871
  27 C :   -0.162781
  28 C :   -0.027989
  29 C :   -0.137047
  30 C :    0.026295
  31 C :    0.084412
  32 N :    0.041433
  33 C :   -0.102769
  34 C :    0.143317
  35 O :   -0.109394
  36 C :   -0.004824
  37 C :   -0.018043
  38 C :    0.144470
  39 O :   -0.108483
  40 C :   -0.104958
  41 N :    0.049316
  42 C :   -0.167383
  43 S :    0.169445
  44 C :    0.132562
  45 C :   -0.067718
  46 C :    0.014038
  47 C :    0.086495
  48 C :   -0.011351
  49 C :   -0.176611
  50 Si:    0.361822
  51 C :   -0.152740
  52 C :    0.007540
  53 C :   -0.053152
  54 C :   -0.085632
  55 C :    0.302503
  56 C :   -0.344079
  57 C :   -0.182858
  58 N :    0.144790
  59 C :   -0.206964
  60 N :    0.156131
  61 C :    0.051247
  62 C :    0.001721
  63 C :    0.157933
  64 O :   -0.164773
  65 C :   -0.084000
  66 C :    0.098905
  67 C :    0.094645
  68 C :   -0.085818
  69 C :   -0.018443
  70 C :    0.036601
  71 C :    0.033266
  72 C :   -0.016467
  73 H :   -0.012829
  74 H :   -0.011808
  75 H :   -0.010143
  76 H :   -0.005321
  77 H :   -0.005483
  78 H :   -0.017889
  79 H :    0.028176
  80 H :    0.000727
  81 H :    0.010022
  82 H :    0.017634
  83 H :    0.020138
  84 H :    0.020709
  85 H :    0.020912
  86 H :    0.003343
  87 H :    0.002481
  88 H :    0.006780
  89 H :    0.009260
  90 H :    0.024595
  91 H :   -0.014277
  92 H :   -0.009906
  93 H :   -0.011107
  94 H :   -0.007067
  95 H :   -0.005253
  96 H :   -0.018968
Sum of atomic charges:   -0.0000000

LOEWDIN ATOMIC CHARGES
----------------------
   0 C :    0.059235
   1 C :   -0.126845
   2 C :   -0.016668
   3 N :   -0.056405
   4 C :   -0.011750
   5 N :   -0.053913
   6 C :   -0.022300
   7 C :   -0.058100
   8 C :    0.032686
   9 C :   -0.010005
  10 C :   -0.005319
  11 C :    0.012388
  12 C :   -0.007015
  13 C :   -0.013236
  14 C :   -0.013592
  15 C :   -0.009418
  16 C :    0.083932
  17 O :   -0.143519
  18 C :   -0.090072
  19 C :    0.067545
  20 C :   -0.031779
  21 C :    0.038981
  22 C :    0.012964
  23 C :   -0.015609
  24 C :   -0.002437
  25 C :   -0.223708
  26 Si:    0.429057
  27 C :   -0.223906
  28 C :   -0.006496
  29 C :   -0.154711
  30 C :   -0.033263
  31 C :   -0.032751
  32 N :    0.019574
  33 C :   -0.037624
  34 C :    0.059658
  35 O :   -0.102105
  36 C :   -0.009582
  37 C :   -0.009673
  38 C :    0.058202
  39 O :   -0.102628
  40 C :   -0.038176
  41 N :    0.011084
  42 C :   -0.157554
  43 S :    0.560275
  44 C :   -0.002556
  45 C :   -0.044240
  46 C :    0.028505
  47 C :   -0.026398
  48 C :    0.001679
  49 C :   -0.226245
  50 Si:    0.441060
  51 C :   -0.169041
  52 C :   -0.022557
  53 C :    0.071760
  54 C :   -0.093979
  55 C :    0.075570
  56 C :   -0.143066
  57 C :   -0.016947
  58 N :   -0.057298
  59 C :   -0.025002
  60 N :   -0.055367
  61 C :   -0.026933
  62 C :   -0.051796
  63 C :    0.085610
  64 O :   -0.149206
  65 C :    0.029332
  66 C :   -0.008445
  67 C :   -0.007645
  68 C :    0.018232
  69 C :   -0.005937
  70 C :   -0.015326
  71 C :   -0.013951
  72 C :   -0.010131
  73 H :    0.039159
  74 H :    0.037727
  75 H :    0.034224
  76 H :    0.032938
  77 H :    0.032611
  78 H :    0.031686
  79 H :    0.048809
  80 H :    0.041258
  81 H :    0.034064
  82 H :   -0.000949
  83 H :    0.025127
  84 H :    0.047333
  85 H :    0.047121
  86 H :    0.020470
  87 H :    0.039648
  88 H :    0.017280
  89 H :    0.013541
  90 H :    0.045824
  91 H :    0.038513
  92 H :    0.038362
  93 H :    0.034064
  94 H :    0.032343
  95 H :    0.032334
  96 H :    0.031410

  Mayer bond orders larger than 0.100000
B(  0-C ,  1-C ) :   1.6227 B(  0-C ,  6-C ) :   1.0107 B(  0-C , 18-C ) :   1.0393
B(  1-C ,  2-C ) :   1.1431 B(  1-C ,  4-C ) :   1.1747 B(  2-C ,  3-N ) :   2.9714
B(  4-C ,  5-N ) :   2.9839 B(  6-C ,  7-C ) :   1.2102 B(  6-C , 11-C ) :   1.4539
B(  7-C ,  8-C ) :   1.4749 B(  7-C , 16-C ) :   0.9228 B(  8-C ,  9-C ) :   1.1815
B(  8-C , 73-H ) :   1.0163 B(  9-C , 10-C ) :   1.2576 B(  9-C , 15-C ) :   1.2451
B( 10-C , 11-C ) :   1.1998 B( 10-C , 12-C ) :   1.2419 B( 11-C , 74-H ) :   0.9933
B( 12-C , 13-C ) :   1.4874 B( 12-C , 75-H ) :   0.9975 B( 13-C , 14-C ) :   1.2610
B( 13-C , 76-H ) :   0.9892 B( 14-C , 15-C ) :   1.4880 B( 14-C , 77-H ) :   0.9891
B( 15-C , 78-H ) :   0.9976 B( 16-C , 17-O ) :   2.2665 B( 16-C , 18-C ) :   0.9309
B( 18-C , 19-C ) :   1.6634 B( 19-C , 20-C ) :   1.0824 B( 19-C , 79-H ) :   0.9391
B( 20-C , 21-C ) :   1.4479 B( 20-C , 28-C ) :   1.1201 B( 21-C , 22-C ) :   1.2014
B( 21-C , 80-H ) :   0.9947 B( 22-C , 23-C ) :   1.4740 B( 22-C , 81-H ) :   0.9582
B( 23-C , 24-C ) :   1.0596 B( 23-C , 29-C ) :   1.1733 B( 24-C , 25-C ) :   1.6588
B( 24-C , 26-Si) :   0.1363 B( 24-C , 28-C ) :   1.0104 B( 25-C , 26-Si) :   0.9896
B( 25-C , 82-H ) :   0.9318 B( 26-Si, 27-C ) :   0.9798 B( 26-Si, 28-C ) :   0.1258
B( 27-C , 28-C ) :   1.6785 B( 27-C , 83-H ) :   0.9124 B( 29-C , 30-C ) :   1.3070
B( 29-C , 42-C ) :   0.1278 B( 29-C , 43-S ) :   1.1701 B( 30-C , 31-C ) :   1.1763
B( 30-C , 41-N ) :   1.4321 B( 31-C , 32-N ) :   1.4395 B( 31-C , 42-C ) :   1.2828
B( 32-N , 33-C ) :   1.6711 B( 33-C , 34-C ) :   0.8980 B( 33-C , 40-C ) :   1.1061
B( 34-C , 35-O ) :   2.2087 B( 34-C , 36-C ) :   1.0312 B( 36-C , 37-C ) :   1.6846
B( 36-C , 84-H ) :   0.9974 B( 37-C , 38-C ) :   1.0284 B( 37-C , 85-H ) :   0.9987
B( 38-C , 39-O ) :   2.2196 B( 38-C , 40-C ) :   0.8960 B( 40-C , 41-N ) :   1.6944
B( 42-C , 43-S ) :   1.1692 B( 42-C , 44-C ) :   1.1532 B( 44-C , 45-C ) :   1.4022
B( 44-C , 52-C ) :   1.1461 B( 45-C , 46-C ) :   1.2776 B( 45-C , 86-H ) :   0.9699
B( 46-C , 47-C ) :   1.4014 B( 46-C , 87-H ) :   0.9891 B( 47-C , 48-C ) :   1.0934
B( 47-C , 53-C ) :   1.1733 B( 48-C , 49-C ) :   1.6388 B( 48-C , 50-Si) :   0.1409
B( 48-C , 52-C ) :   1.0113 B( 49-C , 50-Si) :   1.0276 B( 49-C , 88-H ) :   0.9451
B( 50-Si, 51-C ) :   1.0127 B( 50-Si, 52-C ) :   0.1024 B( 51-C , 52-C ) :   1.6489
B( 51-C , 89-H ) :   0.9151 B( 53-C , 54-C ) :   1.5454 B( 53-C , 90-H ) :   0.9457
B( 54-C , 55-C ) :   1.0740 B( 54-C , 63-C ) :   0.9662 B( 55-C , 56-C ) :   1.6279
B( 55-C , 61-C ) :   0.9882 B( 56-C , 57-C ) :   1.1465 B( 56-C , 59-C ) :   1.1414
B( 57-C , 58-N ) :   2.9639 B( 59-C , 60-N ) :   2.9858 B( 61-C , 62-C ) :   1.2089
B( 61-C , 68-C ) :   1.4531 B( 62-C , 63-C ) :   0.9496 B( 62-C , 65-C ) :   1.4749
B( 63-C , 64-O ) :   2.1276 B( 65-C , 66-C ) :   1.1728 B( 65-C , 91-H ) :   1.0165
B( 66-C , 67-C ) :   1.2591 B( 66-C , 72-C ) :   1.2465 B( 67-C , 68-C ) :   1.1994
B( 67-C , 69-C ) :   1.2432 B( 68-C , 92-H ) :   0.9903 B( 69-C , 70-C ) :   1.4861
B( 69-C , 93-H ) :   0.9972 B( 70-C , 71-C ) :   1.2616 B( 70-C , 94-H ) :   0.9884
B( 71-C , 72-C ) :   1.4859 B( 71-C , 95-H ) :   0.9892 B( 72-C , 96-H ) :   0.9978

-----------------------------------------------------------------------------
         ABSORPTION SPECTRUM VIA TRANSITION ELECTRIC DIPOLE MOMENTS
-----------------------------------------------------------------------------
State   Energy  Wavelength   fosc         T2         TX        TY        TZ
        (cm-1)    (nm)                  (au**2)     (au)      (au)      (au)
-----------------------------------------------------------------------------
   0    6440.5   1552.7   0.323900222  16.55656   3.53015   1.65707   1.16135
   1    8849.1   1130.1   0.114470043   4.25863  -0.27682  -1.95938  -0.58552
   2   12357.3    809.2   0.043607699   1.16175  -1.03541  -0.08557  -0.28696
   3   12887.2    776.0   0.174165308   4.44917   1.14684   1.40970   1.07083
   4   14517.2    688.8   0.043287382   0.98165  -0.10351  -0.95792  -0.23091
   5   14906.8    670.8   0.120753987   2.66681  -1.59368   0.25880   0.24498
   6   15674.4    638.0   0.114306982   2.40080   0.98874   1.10909   0.43945
   7   16451.5    607.8   0.152392420   3.04953   1.65201  -0.55690  -0.10133
   8   17441.4    573.3   0.008213674   0.15504   0.24268  -0.25574   0.17532
   9   18503.3    540.4   0.087609404   1.55876  -1.09355  -0.21913  -0.56114
  10   18568.9    538.5   0.082331509   1.45968   1.20049  -0.11303   0.07573
  11   19347.0    516.9   0.188518090   3.20785   0.32414  -1.75229   0.17964
  12   19713.6    507.3   0.169404914   2.82901   1.54938   0.51900   0.39883
  13   20832.4    480.0   0.051830021   0.81906   0.77254  -0.33148  -0.33520
  14   21029.8    475.5   0.009791026   0.15327   0.09999   0.22262   0.30613
  15   21649.7    461.9   0.026221516   0.39873   0.01343  -0.61067  -0.16013
  16   22139.9    451.7   0.026573567   0.39514  -0.19833   0.59636  -0.01253
  17   22195.8    450.5   0.006578535   0.09757  -0.05187   0.29110   0.10073
  18   22823.7    438.1   0.007015191   0.10119  -0.08415  -0.30178   0.05513
  19   22986.7    435.0   0.016867906   0.24158   0.34015   0.10468   0.33900
  20   23352.5    428.2   0.077474722   1.09220  -0.55445   0.52097  -0.71650
  21   23816.0    419.9   0.005779761   0.07989  -0.09096  -0.12843   0.23479
  22   24055.0    415.7   0.010205030   0.13966  -0.19319  -0.23201  -0.22025
  23   24425.6    409.4   0.009576060   0.12907  -0.31147  -0.10358   0.14603
  24   24851.6    402.4   0.003740061   0.04955   0.20952  -0.01742  -0.07310
  25   25332.7    394.7   0.002243577   0.02916  -0.12525   0.08707   0.07673
  26   25445.6    393.0   0.017357543   0.22457  -0.13133   0.36123   0.27719
  27   25483.1    392.4   0.006822028   0.08813   0.03255   0.29084   0.04986
  28   26103.7    383.1   0.001747931   0.02204   0.11703   0.02832   0.08687
  29   26306.4    380.1   0.024229032   0.30322   0.10194  -0.48473   0.24054
  30   26508.9    377.2   0.027285189   0.33885  -0.56445  -0.00633  -0.14215
  31   26641.0    375.4   0.039365665   0.48646   0.15338   0.66858  -0.12624
  32   26700.1    374.5   0.041607588   0.51302   0.48752   0.50805   0.13126
  33   27248.8    367.0   0.081940108   0.98997   0.41985   0.81957  -0.37683
  34   27720.2    360.7   0.032846818   0.39010  -0.38455  -0.11028  -0.47964
  35   27829.6    359.3   0.142993927   1.69156   1.20798  -0.38853   0.28528
  36   28342.5    352.8   0.060142044   0.69858  -0.36861  -0.70649  -0.25216
  37   28879.0    346.3   0.030150088   0.34370   0.29289   0.46966   0.19321
  38   28901.3    346.0   0.003049045   0.03473   0.05904  -0.17360  -0.03329
  39   29238.1    342.0   0.028188025   0.31739   0.37553  -0.19941   0.36960
  40   29254.2    341.8   0.121743012   1.37003  -0.85555  -0.10895  -0.79132
  41   29376.1    340.4   0.007472123   0.08374  -0.01828  -0.26982  -0.10297
  42   29654.0    337.2   0.157786729   1.75171   0.77788   0.02674   1.07047
  43   29817.5    335.4   0.018943184   0.20915   0.08768   0.36434   0.26215
  44   30390.5    329.1   0.113300329   1.22735  -0.07234  -0.50454   0.98364
  45   30601.6    326.8   0.025024668   0.26922  -0.29981   0.34149   0.25043
  46   30632.0    326.5   0.165911114   1.78310   0.37691  -1.03165  -0.75943
  47   30756.9    325.1   0.108665543   1.16312   0.50493   0.95240   0.03316
  48   30973.2    322.9   0.026022426   0.27659   0.22805   0.14360   0.45162
  49   31347.1    319.0   0.047235142   0.49607  -0.08832   0.15287   0.68184
  50   31532.2    317.1   0.030953746   0.32317  -0.55506  -0.12217   0.01264
  51   31605.3    316.4   0.009300508   0.09688   0.20110   0.05273   0.23164
  52   31697.0    315.5   0.012171224   0.12641   0.25385   0.18833   0.16280
  53   32150.2    311.0   0.003113977   0.03189   0.04574   0.10462  -0.13729
  54   32532.4    307.4   0.018004533   0.18220  -0.31821  -0.27831   0.05906
  55   32556.0    307.2   0.084501200   0.85449  -0.44872  -0.03915  -0.80722
  56   32641.6    306.4   0.050692193   0.51126   0.18715  -0.19815   0.66104
  57   32744.9    305.4   0.008504286   0.08550   0.19738   0.08425   0.19861
  58   32851.2    304.4   0.048388698   0.48492  -0.16571  -0.24382  -0.63088
  59   33132.1    301.8   0.013568055   0.13482   0.06867   0.03875  -0.35861
  60   33166.5    301.5   0.000883981   0.00877   0.05083  -0.03750   0.06917
  61   33313.6    300.2   0.033334601   0.32942   0.05140   0.41682   0.39121
  62   33342.7    299.9   0.006144862   0.06067   0.08258   0.21782  -0.08003
  63   33664.5    297.0   0.010820186   0.10581  -0.21330  -0.00172  -0.24559
  64   33850.1    295.4   0.009616529   0.09353   0.02201   0.27976  -0.12155
  65   33933.9    294.7   0.004991029   0.04842  -0.03835  -0.10773  -0.18800
  66   34096.6    293.3   0.011130504   0.10747   0.26471   0.17073   0.09080
  67   34497.8    289.9   0.089358500   0.85275   0.51139   0.26033   0.72350
  68   34614.9    288.9   0.090941332   0.86492   0.48522   0.72742   0.31677
  69   34640.3    288.7   0.079800109   0.75840  -0.53783  -0.26753  -0.63053
  70   34807.6    287.3   0.061710753   0.58366   0.45656   0.46902   0.39400
  71   34870.2    286.8   0.006067462   0.05728  -0.00717  -0.13577   0.19697
  72   35225.7    283.9   0.150859031   1.40990  -0.44315   0.28080   1.06521
  73   35248.2    283.7   0.176395633   1.64750  -0.40438  -0.81941  -0.90142
  74   35390.9    282.6   0.157697126   1.46693   1.07170   0.18375  -0.53350
  75   35463.0    282.0   0.010746774   0.09977   0.20229   0.22303   0.09539
  76   35602.0    280.9   0.249295769   2.30524   0.21605   0.59738   1.37902
  77   35628.1    280.7   0.093334708   0.86243   0.32247  -0.41649   0.76484
  78   35842.7    279.0   0.216147417   1.98529   1.01401   0.97472   0.08374
  79   36087.3    277.1   0.026003933   0.23722  -0.28244   0.36172   0.16313
  80   36375.0    274.9   0.062077731   0.56184  -0.48519  -0.48294  -0.30528
  81   36554.3    273.6   0.180118985   1.62217   0.27673  -0.05383   1.24205
  82   36713.1    272.4   0.024165637   0.21670  -0.10107  -0.12649  -0.43644
  83   36764.8    272.0   0.022984042   0.20581   0.25892  -0.18461   0.32356
  84   36793.8    271.8   0.024937249   0.22313   0.38900  -0.25695  -0.07607
  85   37018.1    270.1   0.170323511   1.51473  -0.64227  -1.03018  -0.20235
  86   37121.8    269.4   0.026427789   0.23437   0.32868  -0.16564  -0.31449
  87   37224.6    268.6   0.072545174   0.64158  -0.54345   0.45802   0.36940
  88   37611.0    265.9   0.010198232   0.08927  -0.19389   0.20351   0.10128
  89   37674.9    265.4   0.004408978   0.03853   0.18993  -0.00776   0.04894
  90   37813.6    264.5   0.005090512   0.04432  -0.11674  -0.16500  -0.05886
  91   37898.5    263.9   0.018282363   0.15881   0.07220   0.14329  -0.36479
  92   38038.4    262.9   0.025799811   0.22329   0.33519   0.23459  -0.23645
  93   38271.2    261.3   0.027981238   0.24070   0.21597  -0.08277   0.43267
  94   38382.3    260.5   0.013828424   0.11861  -0.07207   0.11934  -0.31492
  95   38444.9    260.1   0.002896965   0.02481   0.13598   0.06717  -0.04248
  96   38497.2    259.8   0.001556865   0.01331  -0.00744   0.07105  -0.09061
  97   38514.9    259.6   0.014787606   0.12640   0.19687   0.12752  -0.26717
  98   38600.5    259.1   0.007780290   0.06636   0.09648  -0.18331  -0.15312
  99   38808.6    257.7   0.006362798   0.05398   0.19060   0.04670   0.12437
 100   38868.6    257.3   0.034175832   0.28946  -0.32205  -0.40672  -0.14259
 101   39164.7    255.3   0.048666055   0.40908   0.09765   0.58866   0.23027
 102   39277.3    254.6   0.028187578   0.23626   0.20746  -0.32767   0.29300
 103   39338.9    254.2   0.009725691   0.08139   0.17516   0.01906  -0.22438
 104   39408.8    253.8   0.009393546   0.07847   0.04258  -0.19475  -0.19680
 105   39632.4    252.3   0.024285022   0.20173   0.18756  -0.11014   0.39296
 106   39734.6    251.7   0.022800511   0.18891  -0.05230   0.40413   0.15116
 107   39836.3    251.0   0.006342360   0.05241  -0.21549   0.04544  -0.06256
 108   39959.4    250.3   0.056138115   0.46250   0.40558  -0.35432   0.41528
 109   40132.9    249.2   0.161101119   1.32152   0.66588  -0.39841  -0.84816

FINAL SINGLE POINT ENERGY     -3903.074295111695

DIPOLE MOMENT
-------------
                                X             Y             Z
Electronic contribution:     -1.30062      21.19757      -7.22548
Nuclear contribution   :     -1.16912     -22.04917       7.55632
                        -----------------------------------------
Total Dipole Moment    :     -2.46975      -0.85160       0.33084
                        -----------------------------------------
Magnitude (a.u.)       :      2.63331
Magnitude (Debye)      :      6.69334

Rotational constants in cm-1:     0.001322     0.000335     0.000293
Rotational constants in MHz :    39.647249    10.053101     8.778875

                             ****ORCA TERMINATED NORMALLY****
TOTAL RUN TIME: 0 days 0 hours 13 minutes 30 seconds 954 msec
