                         Program Version 4.2.0 -  RELEASE  -
|  1> # ORCA input file
|  2> # SCF done       -200.370138767737          0.000563127016
|  3> ! CAM-B3LYP def2-SVP def2/J RIJCOSX Grid4 TightSCF
|  4> %maxcore 5000
|  5> %tddft
|  6>     Mode sTDDFT
|  7>     Ethresh 5.0
|  8>     maxcore 5000
|  9> end
| 10>
| 11> %pal
| 12>   nprocs 6
| 13>   end
| 14> * xyz 0 1
| 15>    C        2.54319         2.49205         3.23352
| 16>    C        2.73800         3.76676         2.77703
| 17>    C        3.59826         4.69449         3.40406
| 18>    N        4.29049         5.47516         3.88088
| 19>    C        2.21409         4.26699         1.56753
| 20>    N        1.89081         4.69960         0.55439
| 21>    C        3.28477         1.85680         4.31653
| 22>    C        3.15356         0.44163         4.19285
| 23>    C        3.78886        -0.41553         5.04516
| 24>    C        4.58990         0.11114         6.08256
| 25>    C        4.70775         1.52441         6.22509
| 26>    C        4.04220         2.38857         5.32642
| 27>    C        5.50523         2.03746         7.26854
| 28>    C        6.15974         1.19695         8.12702
| 29>    C        6.04509        -0.19422         7.98440
| 30>    C        5.27670        -0.72551         6.98452
| 31>    C        2.26231         0.12943         3.06345
| 32>    O        1.96156        -0.95473         2.62065
| 33>    C        1.75280         1.45178         2.59136
| 34>    C        0.66762         1.51598         1.79205
| 35>    C       -0.14463         2.68389         1.51446
| 36>    C       -0.62965         2.91543         0.21650
| 37>    O       -0.29312         2.04569        -0.80072
| 38>    C        1.07720         1.99566        -1.15283
| 39>    C       -1.44957         4.02388        -0.03551
| 40>    O       -1.92233         4.42312        -1.23500
| 41>    C       -1.59400         3.75828        -2.43580
| 42>    C       -1.81487         4.85789         1.04525
| 43>    C       -1.32447         4.61189         2.32128
| 44>    C       -0.49122         3.54385         2.55579
| 45>    C       -2.67449         6.01356         0.79971
| 46>    C       -2.31895         7.29612         1.24671
| 47>    C       -3.11063         8.45951         0.91984
| 48>    N       -2.80254         9.64864         1.46962
| 49>    C       -1.71150         9.76302         2.17285
| 50>    C       -0.84282         8.63073         2.37849
| 51>    N       -1.18221         7.44546         1.95543
| 52>    C        0.36746         8.79344         3.09894
| 53>    N        1.32855         8.96852         3.69675
| 54>    C       -1.39423        11.02118         2.74313
| 55>    N       -1.10546        12.03789         3.18479
| 56>    C       -4.22905         8.38672         0.07235
| 57>    C       -4.63544         7.09713        -0.29665
| 58>    C       -3.87073         5.92339         0.07649
| 59>    N       -4.45401         4.79980        -0.35867
| 60>    S       -5.77589         5.17850        -1.16683
| 61>    N       -5.71629         6.76950        -1.01605
| 62>    C       -4.90356         9.59111        -0.38925
| 63>    C       -4.14472        10.70518        -0.80932
| 64>    O       -2.79714        10.54029        -0.91856
| 65>    C       -2.10954        11.20834        -1.96198
| 66>    C       -4.80874        11.89507        -1.12099
| 67>    O       -4.10023        13.04691        -1.39123
| 68>    C       -3.52540        13.64742        -0.23533
| 69>    C       -6.21953        11.93333        -1.19694
| 70>    C       -6.94638        10.78536        -0.86209
| 71>    C       -6.29589         9.65325        -0.43430
| 72>    C       -6.80989        13.19967        -1.52757
| 73>    C       -8.02658        13.52554        -2.03513
| 74>    C       -8.45112        14.90657        -2.23833
| 75>    C       -7.95268        16.00281        -1.58703
| 76>    C       -8.41380        17.31919        -1.79929
| 77>    N       -8.74461        18.40978        -1.93602
| 78>    C       -6.96037        15.96444        -0.58341
| 79>    N       -6.18478        16.01130         0.26243
| 80>    C       -9.56558        14.90158        -3.17320
| 81>    C       -9.91741        13.54876        -3.44201
| 82>    C       -9.02649        12.64039        -2.69532
| 83>    O       -9.09679        11.43145        -2.67815
| 84>    C      -10.93941        13.22485        -4.28717
| 85>    C      -11.66537        14.25948        -4.91835
| 86>    C      -11.31384        15.61622        -4.66019
| 87>    C      -10.25373        15.92124        -3.77669
| 88>    C      -12.04117        16.63981        -5.30145
| 89>    C      -13.06681        16.34015        -6.15591
| 90>    C      -13.41253        15.00413        -6.40886
| 91>    C      -12.72744        13.98632        -5.80275
| 92>    H        3.68278        -1.48379         4.92776
| 93>    H        4.14139         3.45402         5.46290
| 94>    H        5.59323         3.10893         7.37170
| 95>    H        6.77081         1.59939         8.92090
| 96>    H        6.56872        -0.84258         8.67084
| 97>    H        5.18466        -1.79566         6.86979
| 98>    H        0.32002         0.57498         1.37496
| 99>    H        1.46949         2.99596        -1.35830
|100>    H        1.12892         1.38228        -2.05047
|101>    H        1.68367         1.53872        -0.36534
|102>    H       -2.15295         4.28701        -3.20866
|103>    H       -1.89641         2.71049        -2.41478
|104>    H       -0.52611         3.82952        -2.65529
|105>    H       -1.61478         5.26005         3.13205
|106>    H       -0.13610         3.33690         3.55421
|107>    H       -1.25066        10.57748        -2.19519
|108>    H       -1.75446        12.19287        -1.65152
|109>    H       -2.73720        11.31470        -2.84885
|110>    H       -4.30106        14.10159         0.38941
|111>    H       -2.85823        14.42567        -0.60111
|112>    H       -2.96388        12.92548         0.36362
|113>    H       -8.02101        10.80179        -0.91007
|114>    H       -6.86092         8.78740        -0.12969
|115>    H       -6.12474        14.02739        -1.38226
|116>    H      -11.18938        12.19085        -4.47359
|117>    H      -10.00487        16.95680        -3.60625
|118>    H      -11.77210        17.66675        -5.10224
|119>    H      -13.61784        17.13122        -6.64206
|120>    H      -14.22410        14.78573        -7.08677
|121>    H      -12.98904        12.95580        -5.99393
|122> *
|123>
|124>                          ****END OF INPUT****

CARTESIAN COORDINATES (ANGSTROEM)
---------------------------------
  C      2.543190    2.492050    3.233520
  C      2.738000    3.766760    2.777030
  C      3.598260    4.694490    3.404060
  N      4.290490    5.475160    3.880880
  C      2.214090    4.266990    1.567530
  N      1.890810    4.699600    0.554390
  C      3.284770    1.856800    4.316530
  C      3.153560    0.441630    4.192850
  C      3.788860   -0.415530    5.045160
  C      4.589900    0.111140    6.082560
  C      4.707750    1.524410    6.225090
  C      4.042200    2.388570    5.326420
  C      5.505230    2.037460    7.268540
  C      6.159740    1.196950    8.127020
  C      6.045090   -0.194220    7.984400
  C      5.276700   -0.725510    6.984520
  C      2.262310    0.129430    3.063450
  O      1.961560   -0.954730    2.620650
  C      1.752800    1.451780    2.591360
  C      0.667620    1.515980    1.792050
  C     -0.144630    2.683890    1.514460
  C     -0.629650    2.915430    0.216500
  O     -0.293120    2.045690   -0.800720
  C      1.077200    1.995660   -1.152830
  C     -1.449570    4.023880   -0.035510
  O     -1.922330    4.423120   -1.235000
  C     -1.594000    3.758280   -2.435800
  C     -1.814870    4.857890    1.045250
  C     -1.324470    4.611890    2.321280
  C     -0.491220    3.543850    2.555790
  C     -2.674490    6.013560    0.799710
  C     -2.318950    7.296120    1.246710
  C     -3.110630    8.459510    0.919840
  N     -2.802540    9.648640    1.469620
  C     -1.711500    9.763020    2.172850
  C     -0.842820    8.630730    2.378490
  N     -1.182210    7.445460    1.955430
  C      0.367460    8.793440    3.098940
  N      1.328550    8.968520    3.696750
  C     -1.394230   11.021180    2.743130
  N     -1.105460   12.037890    3.184790
  C     -4.229050    8.386720    0.072350
  C     -4.635440    7.097130   -0.296650
  C     -3.870730    5.923390    0.076490
  N     -4.454010    4.799800   -0.358670
  S     -5.775890    5.178500   -1.166830
  N     -5.716290    6.769500   -1.016050
  C     -4.903560    9.591110   -0.389250
  C     -4.144720   10.705180   -0.809320
  O     -2.797140   10.540290   -0.918560
  C     -2.109540   11.208340   -1.961980
  C     -4.808740   11.895070   -1.120990
  O     -4.100230   13.046910   -1.391230
  C     -3.525400   13.647420   -0.235330
  C     -6.219530   11.933330   -1.196940
  C     -6.946380   10.785360   -0.862090
  C     -6.295890    9.653250   -0.434300
  C     -6.809890   13.199670   -1.527570
  C     -8.026580   13.525540   -2.035130
  C     -8.451120   14.906570   -2.238330
  C     -7.952680   16.002810   -1.587030
  C     -8.413800   17.319190   -1.799290
  N     -8.744610   18.409780   -1.936020
  C     -6.960370   15.964440   -0.583410
  N     -6.184780   16.011300    0.262430
  C     -9.565580   14.901580   -3.173200
  C     -9.917410   13.548760   -3.442010
  C     -9.026490   12.640390   -2.695320
  O     -9.096790   11.431450   -2.678150
  C    -10.939410   13.224850   -4.287170
  C    -11.665370   14.259480   -4.918350
  C    -11.313840   15.616220   -4.660190
  C    -10.253730   15.921240   -3.776690
  C    -12.041170   16.639810   -5.301450
  C    -13.066810   16.340150   -6.155910
  C    -13.412530   15.004130   -6.408860
  C    -12.727440   13.986320   -5.802750
  H      3.682780   -1.483790    4.927760
  H      4.141390    3.454020    5.462900
  H      5.593230    3.108930    7.371700
  H      6.770810    1.599390    8.920900
  H      6.568720   -0.842580    8.670840
  H      5.184660   -1.795660    6.869790
  H      0.320020    0.574980    1.374960
  H      1.469490    2.995960   -1.358300
  H      1.128920    1.382280   -2.050470
  H      1.683670    1.538720   -0.365340
  H     -2.152950    4.287010   -3.208660
  H     -1.896410    2.710490   -2.414780
  H     -0.526110    3.829520   -2.655290
  H     -1.614780    5.260050    3.132050
  H     -0.136100    3.336900    3.554210
  H     -1.250660   10.577480   -2.195190
  H     -1.754460   12.192870   -1.651520
  H     -2.737200   11.314700   -2.848850
  H     -4.301060   14.101590    0.389410
  H     -2.858230   14.425670   -0.601110
  H     -2.963880   12.925480    0.363620
  H     -8.021010   10.801790   -0.910070
  H     -6.860920    8.787400   -0.129690
  H     -6.124740   14.027390   -1.382260
  H    -11.189380   12.190850   -4.473590
  H    -10.004870   16.956800   -3.606250
  H    -11.772100   17.666750   -5.102240
  H    -13.617840   17.131220   -6.642060
  H    -14.224100   14.785730   -7.086770
  H    -12.989040   12.955800   -5.993930

 Total Charge           Charge          ....    0
 Multiplicity           Mult            ....    1
 Number of Electrons    NEL             ....  524
 Basis Dimension        Dim             .... 1232

ORBITAL ENERGIES
----------------

  NO   OCC          E(Eh)            E(eV)
   0   2.0000     -89.043519     -2422.9973
   1   2.0000     -19.248516      -523.7787
   2   2.0000     -19.248309      -523.7731
   3   2.0000     -19.242122      -523.6048
   4   2.0000     -19.241094      -523.5768
   5   2.0000     -19.216911      -522.9187
   6   2.0000     -19.214451      -522.8518
   7   2.0000     -14.454561      -393.3286
   8   2.0000     -14.453991      -393.3131
   9   2.0000     -14.447389      -393.1334
  10   2.0000     -14.447178      -393.1277
  11   2.0000     -14.424826      -392.5195
  12   2.0000     -14.422862      -392.4660
  13   2.0000     -14.416023      -392.2799
  14   2.0000     -14.414692      -392.2437
  15   2.0000     -14.413507      -392.2115
  16   2.0000     -14.412095      -392.1730
  17   2.0000     -10.375168      -282.3227
  18   2.0000     -10.373757      -282.2843
  19   2.0000     -10.367567      -282.1158
  20   2.0000     -10.366702      -282.0923
  21   2.0000     -10.345367      -281.5117
  22   2.0000     -10.344705      -281.4937
  23   2.0000     -10.342772      -281.4411
  24   2.0000     -10.342072      -281.4221
  25   2.0000     -10.341262      -281.4000
  26   2.0000     -10.339740      -281.3586
  27   2.0000     -10.339122      -281.3418
  28   2.0000     -10.338508      -281.3251
  29   2.0000     -10.337304      -281.2924
  30   2.0000     -10.337091      -281.2866
  31   2.0000     -10.336354      -281.2665
  32   2.0000     -10.335748      -281.2500
  33   2.0000     -10.319127      -280.7977
  34   2.0000     -10.319014      -280.7946
  35   2.0000     -10.318334      -280.7761
  36   2.0000     -10.318309      -280.7755
  37   2.0000     -10.317566      -280.7552
  38   2.0000     -10.317483      -280.7530
  39   2.0000     -10.317084      -280.7421
  40   2.0000     -10.316434      -280.7245
  41   2.0000     -10.315827      -280.7079
  42   2.0000     -10.314944      -280.6839
  43   2.0000     -10.313238      -280.6375
  44   2.0000     -10.311924      -280.6017
  45   2.0000     -10.311845      -280.5996
  46   2.0000     -10.311066      -280.5784
  47   2.0000     -10.305356      -280.4230
  48   2.0000     -10.300570      -280.2928
  49   2.0000     -10.300183      -280.2822
  50   2.0000     -10.299330      -280.2590
  51   2.0000     -10.299123      -280.2534
  52   2.0000     -10.298791      -280.2443
  53   2.0000     -10.298157      -280.2271
  54   2.0000     -10.296539      -280.1831
  55   2.0000     -10.296254      -280.1753
  56   2.0000     -10.296245      -280.1751
  57   2.0000     -10.295997      -280.1683
  58   2.0000     -10.295337      -280.1504
  59   2.0000     -10.294965      -280.1402
  60   2.0000     -10.293210      -280.0925
  61   2.0000     -10.291257      -280.0393
  62   2.0000     -10.291076      -280.0344
  63   2.0000     -10.290420      -280.0166
  64   2.0000     -10.287804      -279.9454
  65   2.0000     -10.287302      -279.9317
  66   2.0000     -10.286909      -279.9210
  67   2.0000     -10.286803      -279.9181
  68   2.0000     -10.286308      -279.9047
  69   2.0000     -10.285707      -279.8883
  70   2.0000     -10.285180      -279.8740
  71   2.0000     -10.284871      -279.8656
  72   2.0000     -10.284357      -279.8516
  73   2.0000     -10.278343      -279.6879
  74   2.0000     -10.276666      -279.6423
  75   2.0000     -10.274539      -279.5844
  76   2.0000     -10.272278      -279.5229
  77   2.0000      -8.134865      -221.3609
  78   2.0000      -6.105705      -166.1447
  79   2.0000      -6.098164      -165.9395
  80   2.0000      -6.097906      -165.9325
  81   2.0000      -1.160663       -31.5833
  82   2.0000      -1.159953       -31.5639
  83   2.0000      -1.139290       -31.0017
  84   2.0000      -1.136334       -30.9212
  85   2.0000      -1.134273       -30.8651
  86   2.0000      -1.131825       -30.7985
  87   2.0000      -1.129904       -30.7463
  88   2.0000      -1.113368       -30.2963
  89   2.0000      -1.040852       -28.3230
  90   2.0000      -1.019256       -27.7354
  91   2.0000      -1.015740       -27.6397
  92   2.0000      -1.008320       -27.4378
  93   2.0000      -0.999381       -27.1945
  94   2.0000      -0.998428       -27.1686
  95   2.0000      -0.996363       -27.1124
  96   2.0000      -0.993893       -27.0452
  97   2.0000      -0.991359       -26.9763
  98   2.0000      -0.991222       -26.9725
  99   2.0000      -0.979734       -26.6599
 100   2.0000      -0.973643       -26.4942
 101   2.0000      -0.970361       -26.4049
 102   2.0000      -0.960629       -26.1400
 103   2.0000      -0.953511       -25.9464
 104   2.0000      -0.926265       -25.2049
 105   2.0000      -0.923098       -25.1188
 106   2.0000      -0.911528       -24.8039
 107   2.0000      -0.903910       -24.5966
 108   2.0000      -0.899703       -24.4822
 109   2.0000      -0.891589       -24.2614
 110   2.0000      -0.883278       -24.0352
 111   2.0000      -0.881363       -23.9831
 112   2.0000      -0.878876       -23.9154
 113   2.0000      -0.867269       -23.5996
 114   2.0000      -0.850892       -23.1539
 115   2.0000      -0.846321       -23.0296
 116   2.0000      -0.845746       -23.0139
 117   2.0000      -0.831144       -22.6166
 118   2.0000      -0.829650       -22.5759
 119   2.0000      -0.826728       -22.4964
 120   2.0000      -0.825460       -22.4619
 121   2.0000      -0.805627       -21.9222
 122   2.0000      -0.796956       -21.6863
 123   2.0000      -0.795253       -21.6399
 124   2.0000      -0.786061       -21.3898
 125   2.0000      -0.771339       -20.9892
 126   2.0000      -0.765411       -20.8279
 127   2.0000      -0.762219       -20.7410
 128   2.0000      -0.760870       -20.7043
 129   2.0000      -0.759109       -20.6564
 130   2.0000      -0.745946       -20.2982
 131   2.0000      -0.728573       -19.8255
 132   2.0000      -0.723645       -19.6914
 133   2.0000      -0.709290       -19.3008
 134   2.0000      -0.703455       -19.1420
 135   2.0000      -0.703008       -19.1298
 136   2.0000      -0.701141       -19.0790
 137   2.0000      -0.698222       -18.9996
 138   2.0000      -0.691800       -18.8248
 139   2.0000      -0.688360       -18.7312
 140   2.0000      -0.679832       -18.4992
 141   2.0000      -0.676931       -18.4202
 142   2.0000      -0.675808       -18.3897
 143   2.0000      -0.675200       -18.3731
 144   2.0000      -0.668518       -18.1913
 145   2.0000      -0.658016       -17.9055
 146   2.0000      -0.643393       -17.5076
 147   2.0000      -0.636763       -17.3272
 148   2.0000      -0.634043       -17.2532
 149   2.0000      -0.627047       -17.0628
 150   2.0000      -0.623242       -16.9593
 151   2.0000      -0.622237       -16.9319
 152   2.0000      -0.612432       -16.6651
 153   2.0000      -0.609011       -16.5720
 154   2.0000      -0.607078       -16.5194
 155   2.0000      -0.605359       -16.4727
 156   2.0000      -0.603298       -16.4166
 157   2.0000      -0.599417       -16.3110
 158   2.0000      -0.591435       -16.0938
 159   2.0000      -0.589167       -16.0320
 160   2.0000      -0.587678       -15.9915
 161   2.0000      -0.578252       -15.7350
 162   2.0000      -0.575540       -15.6612
 163   2.0000      -0.568244       -15.4627
 164   2.0000      -0.565381       -15.3848
 165   2.0000      -0.561599       -15.2819
 166   2.0000      -0.556642       -15.1470
 167   2.0000      -0.555604       -15.1187
 168   2.0000      -0.552868       -15.0443
 169   2.0000      -0.550266       -14.9735
 170   2.0000      -0.547997       -14.9118
 171   2.0000      -0.546068       -14.8593
 172   2.0000      -0.545222       -14.8362
 173   2.0000      -0.542957       -14.7746
 174   2.0000      -0.540993       -14.7212
 175   2.0000      -0.537236       -14.6189
 176   2.0000      -0.535573       -14.5737
 177   2.0000      -0.533256       -14.5106
 178   2.0000      -0.532894       -14.5008
 179   2.0000      -0.531432       -14.4610
 180   2.0000      -0.529635       -14.4121
 181   2.0000      -0.528180       -14.3725
 182   2.0000      -0.522482       -14.2174
 183   2.0000      -0.519995       -14.1498
 184   2.0000      -0.518360       -14.1053
 185   2.0000      -0.517023       -14.0689
 186   2.0000      -0.514371       -13.9968
 187   2.0000      -0.511645       -13.9226
 188   2.0000      -0.510390       -13.8884
 189   2.0000      -0.508417       -13.8347
 190   2.0000      -0.506061       -13.7706
 191   2.0000      -0.499710       -13.5978
 192   2.0000      -0.498185       -13.5563
 193   2.0000      -0.495701       -13.4887
 194   2.0000      -0.491351       -13.3703
 195   2.0000      -0.490741       -13.3538
 196   2.0000      -0.487573       -13.2675
 197   2.0000      -0.482825       -13.1383
 198   2.0000      -0.481649       -13.1063
 199   2.0000      -0.479212       -13.0400
 200   2.0000      -0.476640       -12.9700
 201   2.0000      -0.470452       -12.8017
 202   2.0000      -0.468384       -12.7454
 203   2.0000      -0.466727       -12.7003
 204   2.0000      -0.464175       -12.6309
 205   2.0000      -0.462694       -12.5906
 206   2.0000      -0.461664       -12.5625
 207   2.0000      -0.459347       -12.4995
 208   2.0000      -0.452755       -12.3201
 209   2.0000      -0.450561       -12.2604
 210   2.0000      -0.450350       -12.2546
 211   2.0000      -0.447272       -12.1709
 212   2.0000      -0.446952       -12.1622
 213   2.0000      -0.446359       -12.1461
 214   2.0000      -0.442144       -12.0314
 215   2.0000      -0.440354       -11.9826
 216   2.0000      -0.439591       -11.9619
 217   2.0000      -0.437874       -11.9152
 218   2.0000      -0.437719       -11.9109
 219   2.0000      -0.436058       -11.8658
 220   2.0000      -0.435566       -11.8524
 221   2.0000      -0.432479       -11.7684
 222   2.0000      -0.431651       -11.7458
 223   2.0000      -0.430072       -11.7028
 224   2.0000      -0.428644       -11.6640
 225   2.0000      -0.427772       -11.6403
 226   2.0000      -0.426242       -11.5986
 227   2.0000      -0.424175       -11.5424
 228   2.0000      -0.421975       -11.4825
 229   2.0000      -0.418763       -11.3951
 230   2.0000      -0.417206       -11.3527
 231   2.0000      -0.415205       -11.2983
 232   2.0000      -0.414592       -11.2816
 233   2.0000      -0.411087       -11.1862
 234   2.0000      -0.407822       -11.0974
 235   2.0000      -0.407421       -11.0865
 236   2.0000      -0.406420       -11.0592
 237   2.0000      -0.402863       -10.9625
 238   2.0000      -0.401374       -10.9219
 239   2.0000      -0.396719       -10.7953
 240   2.0000      -0.390857       -10.6357
 241   2.0000      -0.389578       -10.6009
 242   2.0000      -0.378210       -10.2916
 243   2.0000      -0.376725       -10.2512
 244   2.0000      -0.373183       -10.1548
 245   2.0000      -0.364833        -9.9276
 246   2.0000      -0.358053        -9.7431
 247   2.0000      -0.353945        -9.6313
 248   2.0000      -0.351836        -9.5739
 249   2.0000      -0.347248        -9.4491
 250   2.0000      -0.339326        -9.2335
 251   2.0000      -0.334879        -9.1125
 252   2.0000      -0.333751        -9.0818
 253   2.0000      -0.320723        -8.7273
 254   2.0000      -0.317256        -8.6330
 255   2.0000      -0.313790        -8.5387
 256   2.0000      -0.302272        -8.2252
 257   2.0000      -0.297035        -8.0827
 258   2.0000      -0.295505        -8.0411
 259   2.0000      -0.292128        -7.9492
 260   2.0000      -0.287238        -7.8162
 261   2.0000      -0.269513        -7.3338
 262   0.0000      -0.113895        -3.0992
 263   0.0000      -0.087543        -2.3822
 264   0.0000      -0.084018        -2.2862
 265   0.0000      -0.055308        -1.5050
 266   0.0000      -0.054574        -1.4850

MULLIKEN ATOMIC CHARGES
-----------------------
   0 C :    0.273711
   1 C :   -0.331069
   2 C :   -0.187044
   3 N :    0.161724
   4 C :   -0.161806
   5 N :    0.160470
   6 C :    0.034499
   7 C :    0.009085
   8 C :   -0.083173
   9 C :    0.096645
  10 C :    0.093626
  11 C :   -0.080037
  12 C :   -0.018361
  13 C :    0.036797
  14 C :    0.036312
  15 C :   -0.016920
  16 C :    0.135395
  17 O :   -0.135074
  18 C :   -0.093857
  19 C :   -0.036052
  20 C :    0.005217
  21 C :    0.085233
  22 O :   -0.350754
  23 C :    0.183958
  24 C :    0.206331
  25 O :   -0.307948
  26 C :    0.201068
  27 C :   -0.060697
  28 C :    0.038292
  29 C :   -0.018190
  30 C :    0.088104
  31 C :   -0.046210
  32 C :   -0.070840
  33 N :    0.079077
  34 C :   -0.151585
  35 C :   -0.139071
  36 N :    0.065143
  37 C :   -0.202420
  38 N :    0.234648
  39 C :   -0.204745
  40 N :    0.233308
  41 C :    0.100809
  42 C :    0.004337
  43 C :    0.001663
  44 N :   -0.253644
  45 S :    0.543268
  46 N :   -0.277168
  47 C :   -0.051573
  48 C :    0.165605
  49 O :   -0.331250
  50 C :    0.195160
  51 C :    0.047606
  52 O :   -0.354125
  53 C :    0.183708
  54 C :    0.055617
  55 C :   -0.003756
  56 C :    0.026250
  57 C :   -0.033666
  58 C :   -0.059164
  59 C :    0.289995
  60 C :   -0.341275
  61 C :   -0.186452
  62 N :    0.150656
  63 C :   -0.196488
  64 N :    0.157215
  65 C :    0.049295
  66 C :   -0.005931
  67 C :    0.155894
  68 O :   -0.146759
  69 C :   -0.081057
  70 C :    0.098018
  71 C :    0.095529
  72 C :   -0.081213
  73 C :   -0.017783
  74 C :    0.036030
  75 C :    0.034350
  76 C :   -0.015322
  77 H :   -0.010306
  78 H :   -0.002390
  79 H :   -0.006507
  80 H :   -0.003251
  81 H :   -0.004063
  82 H :   -0.015943
  83 H :    0.045271
  84 H :    0.039178
  85 H :    0.031106
  86 H :    0.029188
  87 H :    0.020592
  88 H :    0.037040
  89 H :    0.015311
  90 H :   -0.025436
  91 H :   -0.015866
  92 H :    0.030635
  93 H :    0.023706
  94 H :    0.029907
  95 H :    0.036651
  96 H :    0.040223
  97 H :    0.033972
  98 H :   -0.003853
  99 H :   -0.016655
 100 H :    0.032724
 101 H :   -0.013983
 102 H :   -0.006612
 103 H :   -0.009566
 104 H :   -0.004771
 105 H :   -0.005016
 106 H :   -0.018452
Sum of atomic charges:    0.0000000

LOEWDIN ATOMIC CHARGES
----------------------
   0 C :    0.067496
   1 C :   -0.127601
   2 C :   -0.019410
   3 N :   -0.040990
   4 C :   -0.006830
   5 N :   -0.050848
   6 C :   -0.024575
   7 C :   -0.058939
   8 C :    0.033308
   9 C :   -0.008626
  10 C :   -0.005070
  11 C :    0.018652
  12 C :   -0.005023
  13 C :   -0.011847
  14 C :   -0.011869
  15 C :   -0.009474
  16 C :    0.083035
  17 O :   -0.139374
  18 C :   -0.086075
  19 C :    0.082584
  20 C :   -0.050253
  21 C :    0.027887
  22 O :   -0.128471
  23 C :    0.076751
  24 C :    0.065881
  25 O :   -0.088308
  26 C :    0.079802
  27 C :   -0.029062
  28 C :    0.006278
  29 C :   -0.026462
  30 C :    0.005069
  31 C :   -0.006456
  32 C :   -0.004033
  33 N :    0.018499
  34 C :   -0.031720
  35 C :   -0.029015
  36 N :    0.008835
  37 C :   -0.037873
  38 N :   -0.002833
  39 C :   -0.035483
  40 N :   -0.010758
  41 C :   -0.004851
  42 C :   -0.038215
  43 C :   -0.041322
  44 N :   -0.272619
  45 S :    0.687801
  46 N :   -0.289760
  47 C :   -0.019331
  48 C :    0.043055
  49 O :   -0.107706
  50 C :    0.082037
  51 C :    0.033660
  52 O :   -0.131709
  53 C :    0.080363
  54 C :   -0.048512
  55 C :    0.006178
  56 C :   -0.003622
  57 C :    0.087773
  58 C :   -0.089754
  59 C :    0.079322
  60 C :   -0.139774
  61 C :   -0.017309
  62 N :   -0.053936
  63 C :   -0.019327
  64 N :   -0.053301
  65 C :   -0.026764
  66 C :   -0.054552
  67 C :    0.084802
  68 O :   -0.135914
  69 C :    0.031136
  70 C :   -0.008212
  71 C :   -0.006423
  72 C :    0.019760
  73 C :   -0.005350
  74 C :   -0.013729
  75 C :   -0.012914
  76 C :   -0.009912
  77 H :    0.039701
  78 H :    0.039863
  79 H :    0.035670
  80 H :    0.033797
  81 H :    0.033153
  82 H :    0.032187
  83 H :    0.050452
  84 H :    0.016144
  85 H :    0.024920
  86 H :    0.013738
  87 H :    0.020453
  88 H :    0.019827
  89 H :    0.016275
  90 H :    0.030815
  91 H :    0.029967
  92 H :    0.023360
  93 H :    0.016650
  94 H :    0.020630
  95 H :    0.020005
  96 H :    0.027266
  97 H :    0.017427
  98 H :    0.033027
  99 H :    0.032356
 100 H :    0.045383
 101 H :    0.038292
 102 H :    0.039005
 103 H :    0.034607
 104 H :    0.033105
 105 H :    0.032636
 106 H :    0.031420

  Mayer bond orders larger than 0.100000
B(  0-C ,  1-C ) :   1.6735 B(  0-C ,  6-C ) :   1.0032 B(  0-C , 18-C ) :   1.0077
B(  1-C ,  2-C ) :   1.1314 B(  1-C ,  4-C ) :   1.1667 B(  2-C ,  3-N ) :   2.9875
B(  4-C ,  5-N ) :   2.9564 B(  6-C ,  7-C ) :   1.2152 B(  6-C , 11-C ) :   1.4515
B(  7-C ,  8-C ) :   1.4680 B(  7-C , 16-C ) :   0.9206 B(  8-C ,  9-C ) :   1.1880
B(  8-C , 77-H ) :   1.0163 B(  9-C , 10-C ) :   1.2547 B(  9-C , 15-C ) :   1.2428
B( 10-C , 11-C ) :   1.2084 B( 10-C , 12-C ) :   1.2397 B( 11-C , 78-H ) :   0.9935
B( 12-C , 13-C ) :   1.4914 B( 12-C , 79-H ) :   0.9977 B( 13-C , 14-C ) :   1.2591
B( 13-C , 80-H ) :   0.9884 B( 14-C , 15-C ) :   1.4911 B( 14-C , 81-H ) :   0.9887
B( 15-C , 82-H ) :   0.9976 B( 16-C , 17-O ) :   2.2888 B( 16-C , 18-C ) :   0.9244
B( 18-C , 19-C ) :   1.7215 B( 19-C , 20-C ) :   0.9882 B( 19-C , 83-H ) :   0.9454
B( 20-C , 21-C ) :   1.3451 B( 20-C , 27-C ) :   0.1117 B( 20-C , 29-C ) :   1.3348
B( 21-C , 22-O ) :   1.1450 B( 21-C , 24-C ) :   1.3068 B( 22-O , 23-C ) :   0.9310
B( 23-C , 84-H ) :   0.9571 B( 23-C , 85-H ) :   0.9781 B( 23-C , 86-H ) :   0.9582
B( 24-C , 25-O ) :   1.2087 B( 24-C , 27-C ) :   1.3639 B( 25-O , 26-C ) :   0.9331
B( 26-C , 87-H ) :   0.9756 B( 26-C , 88-H ) :   0.9731 B( 26-C , 89-H ) :   0.9751
B( 27-C , 28-C ) :   1.3855 B( 27-C , 30-C ) :   0.9533 B( 28-C , 29-C ) :   1.3519
B( 28-C , 90-H ) :   0.9975 B( 29-C , 91-H ) :   1.0010 B( 30-C , 31-C ) :   1.3583
B( 30-C , 41-C ) :   0.1385 B( 30-C , 43-C ) :   1.2683 B( 31-C , 32-C ) :   1.0881
B( 31-C , 36-N ) :   1.4048 B( 32-C , 33-N ) :   1.4138 B( 32-C , 41-C ) :   1.3359
B( 33-N , 34-C ) :   1.7625 B( 34-C , 35-C ) :   1.1673 B( 34-C , 39-C ) :   1.1560
B( 35-C , 36-N ) :   1.7778 B( 35-C , 37-C ) :   1.1404 B( 37-C , 38-N ) :   3.0503
B( 39-C , 40-N ) :   3.0369 B( 41-C , 42-C ) :   1.2760 B( 41-C , 47-C ) :   0.9684
B( 42-C , 43-C ) :   1.0935 B( 42-C , 46-N ) :   1.4859 B( 43-C , 44-N ) :   1.4947
B( 44-N , 45-S ) :   1.3160 B( 44-N , 46-N ) :   0.1617 B( 45-S , 46-N ) :   1.2944
B( 47-C , 48-C ) :   1.3516 B( 47-C , 56-C ) :   1.3635 B( 48-C , 49-O ) :   1.1689
B( 48-C , 51-C ) :   1.3122 B( 49-O , 50-C ) :   0.9361 B( 50-C , 92-H ) :   0.9788
B( 50-C , 93-H ) :   0.9741 B( 50-C , 94-H ) :   0.9701 B( 51-C , 52-O ) :   1.1306
B( 51-C , 54-C ) :   1.3080 B( 52-O , 53-C ) :   0.9029 B( 53-C , 95-H ) :   0.9612
B( 53-C , 96-H ) :   0.9798 B( 53-C , 97-H ) :   0.9662 B( 54-C , 55-C ) :   1.3080
B( 54-C , 57-C ) :   1.1229 B( 55-C , 56-C ) :   1.3731 B( 55-C , 98-H ) :   0.9869
B( 56-C , 99-H ) :   0.9919 B( 57-C , 58-C ) :   1.6008 B( 57-C ,100-H ) :   0.9393
B( 58-C , 59-C ) :   1.0506 B( 58-C , 67-C ) :   0.9277 B( 59-C , 60-C ) :   1.6482
B( 59-C , 65-C ) :   0.9953 B( 60-C , 61-C ) :   1.1430 B( 60-C , 63-C ) :   1.1410
B( 61-C , 62-N ) :   2.9739 B( 63-C , 64-N ) :   2.9818 B( 65-C , 66-C ) :   1.2136
B( 65-C , 72-C ) :   1.4470 B( 66-C , 67-C ) :   0.9464 B( 66-C , 69-C ) :   1.4747
B( 67-C , 68-O ) :   2.2129 B( 69-C , 70-C ) :   1.1794 B( 69-C ,101-H ) :   1.0161
B( 70-C , 71-C ) :   1.2568 B( 70-C , 76-C ) :   1.2458 B( 71-C , 72-C ) :   1.2085
B( 71-C , 73-C ) :   1.2373 B( 72-C ,102-H ) :   0.9916 B( 73-C , 74-C ) :   1.4906
B( 73-C ,103-H ) :   0.9979 B( 74-C , 75-C ) :   1.2592 B( 74-C ,104-H ) :   0.9887
B( 75-C , 76-C ) :   1.4885 B( 75-C ,105-H ) :   0.9892 B( 76-C ,106-H ) :   0.9980

-----------------------------------------------------------------------------
         ABSORPTION SPECTRUM VIA TRANSITION ELECTRIC DIPOLE MOMENTS
-----------------------------------------------------------------------------
State   Energy  Wavelength   fosc         T2         TX        TY        TZ
        (cm-1)    (nm)                  (au**2)     (au)      (au)      (au)
-----------------------------------------------------------------------------
   0   16073.1    622.2   0.456176124   9.34348  -1.77897   2.33267  -0.85872
   1   19365.6    516.4   0.078349651   1.33193   0.48784  -0.81964   0.64972
   2   21289.6    469.7   0.138817880   2.14661   1.10301  -0.83879   0.47582
   3   23538.8    424.8   0.004367469   0.06108   0.12174   0.21250  -0.03326
   4   23745.0    421.1   0.111556474   1.54667  -1.04194   0.65243  -0.18808
   5   25060.9    399.0   0.448074131   5.88611  -1.26872   1.91774  -0.77377
   6   25515.7    391.9   0.071559812   0.92329   0.74497   0.00155   0.60688
   7   26308.7    380.1   0.010676493   0.13360  -0.33676   0.13083  -0.05545
   8   27167.2    368.1   0.117929553   1.42907  -0.62933   0.53013  -0.86717
   9   27490.9    363.8   0.006121399   0.07331   0.15223   0.07189  -0.21205
  10   27838.1    359.2   0.079653749   0.94198  -0.66811   0.70215  -0.05094
  11   28386.3    352.3   0.100413694   1.16456  -0.84878   0.35795  -0.56214
  12   28884.1    346.2   0.057918028   0.66013  -0.67589  -0.31231  -0.32522
  13   28994.3    344.9   0.026420852   0.29999  -0.28159   0.04672  -0.46746
  14   29258.9    341.8   0.015611287   0.17565   0.07269  -0.36009   0.20175
  15   29696.6    336.7   0.025959379   0.28778   0.38855  -0.21807   0.29876
  16   29955.4    333.8   0.011153841   0.12258   0.01891  -0.21390   0.27654
  17   30600.4    326.8   0.014883006   0.16012   0.05528  -0.01764   0.39592
  18   30997.6    322.6   0.057797175   0.61384  -0.54488  -0.18079  -0.53316
  19   31256.7    319.9   0.080473803   0.84759   0.55221  -0.40598   0.61468
  20   31527.5    317.2   0.305205929   3.18698  -1.16194  -0.92479  -0.99077
  21   31672.8    315.7   0.021922198   0.22786  -0.40280   0.13643  -0.21679
  22   32633.3    306.4   0.003052327   0.03079  -0.04737  -0.16868  -0.00985
  23   32883.3    304.1   0.433006904   4.33506  -1.16971   1.43577  -0.95153
  24   33072.1    302.4   0.013925018   0.13861  -0.11794   0.34897   0.05406
  25   33223.0    301.0   0.131654723   1.30459   0.51775  -0.56638   0.84601
  26   33608.1    297.5   0.172863056   1.69330   0.95921   0.27315   0.83582
  27   33865.9    295.3   0.178292946   1.73320  -0.84233   0.79953  -0.62001
  28   33929.6    294.7   0.052712160   0.51146   0.03742  -0.66864   0.25094
  29   34162.4    292.7   0.381770965   3.67900  -1.44143  -0.30793  -1.22738
  30   34286.4    291.7   0.266564236   2.55950   1.11723   0.76793   0.84946
  31   34781.9    287.5   0.091317512   0.86432  -0.24213   0.64139  -0.62794
  32   35045.6    285.3   0.144089884   1.35355   0.48082   0.74552   0.75270
  33   35187.3    284.2   0.537354783   5.02749  -0.90608   1.36914  -1.52707
  34   35768.2    279.6   0.530226979   4.88023  -1.65578  -0.25644  -1.43975
  35   35806.7    279.3   0.147340164   1.35467   0.08317   1.08465  -0.41387
  36   35948.5    278.2   0.100146183   0.91713   0.60413   0.16792   0.72384
  37   36295.1    275.5   0.078373666   0.71088  -0.59282  -0.44951  -0.39673
  38   36395.8    274.8   0.073023374   0.66052  -0.48708  -0.29854  -0.57806
  39   36899.6    271.0   0.010320546   0.09208  -0.25816   0.02647  -0.15726
  40   37249.0    268.5   0.014133176   0.12491  -0.10235  -0.30776   0.14044
  41   37452.9    267.0   0.125249609   1.10095   0.73307  -0.33230   0.67315
  42   37795.3    264.6   0.084528703   0.73628  -0.59064  -0.47494  -0.40231
  43   37829.7    264.3   0.006134962   0.05339   0.14140  -0.16399   0.08066
  44   38106.5    262.4   0.061883928   0.53463  -0.47569  -0.40318  -0.38184
  45   38259.2    261.4   0.141885887   1.22090  -0.76891  -0.47240  -0.63758
  46   38713.8    258.3   0.033070494   0.28122   0.49975  -0.09097   0.15231
  47   38815.9    257.6   0.007568233   0.06419   0.07734   0.24126   0.00106
  48   39041.6    256.1   0.035831278   0.30214   0.06271  -0.51956  -0.16814
  49   39263.1    254.7   0.002713398   0.02275   0.00918  -0.11777  -0.09380
  50   39381.4    253.9   0.074458074   0.62244   0.44948   0.29546   0.57716
  51   39523.6    253.0   0.002318840   0.01931   0.10135  -0.09422  -0.01288
  52   39588.2    252.6   0.061915408   0.51488   0.27494   0.66279  -0.00121
  53   39952.0    250.3   0.066856058   0.55091   0.26621  -0.68789   0.08271
  54   39966.9    250.2   0.011383051   0.09376  -0.24642   0.08089  -0.16278
  55   40172.8    248.9   0.051455912   0.42168  -0.03418  -0.62404  -0.17632
  56   40298.0    248.2   0.156526304   1.27873   0.37485   0.92321   0.53469

FINAL SINGLE POINT ENERGY     -3697.061619844332

DIPOLE MOMENT
-------------
                                X             Y             Z
Electronic contribution:     -8.26220       3.94073      13.09077
Nuclear contribution   :      7.00486      -7.62462     -14.76287
                        -----------------------------------------
Total Dipole Moment    :     -1.25734      -3.68389      -1.67210
                        -----------------------------------------
Magnitude (a.u.)       :      4.23649
Magnitude (Debye)      :     10.76831

Rotational constants in cm-1:     0.002448     0.000276     0.000255
Rotational constants in MHz :    73.395754     8.269116     7.655298

                             ****ORCA TERMINATED NORMALLY****
TOTAL RUN TIME: 0 days 0 hours 11 minutes 34 seconds 186 msec
