                         Program Version 4.2.0 -  RELEASE  -
|  1> # ORCA input file
|  2> # SCF done       -193.649568062679          0.000837139917
|  3> ! CAM-B3LYP def2-SVP def2/J RIJCOSX Grid4 TightSCF
|  4> %maxcore 5000
|  5> %tddft
|  6>     Mode sTDDFT
|  7>     Ethresh 5.0
|  8>     maxcore 5000
|  9> end
| 10>
| 11> %pal
| 12>   nprocs 6
| 13>   end
| 14> * xyz 0 1
| 15>    C        2.32375         5.34146         2.55798
| 16>    C        1.63154         6.51746         2.44097
| 17>    C        2.13225         7.76610         2.87353
| 18>    N        2.48420         8.81532         3.17710
| 19>    C        0.32058         6.67081         1.96153
| 20>    N       -0.74617         6.92210         1.61281
| 21>    C        3.57450         5.19426         3.29863
| 22>    C        3.74995         3.81892         3.63171
| 23>    C        4.82167         3.38515         4.35792
| 24>    C        5.79299         4.32127         4.77788
| 25>    C        5.63577         5.69448         4.42955
| 26>    C        4.51016         6.11623         3.68520
| 27>    C        6.61914         6.61667         4.84147
| 28>    C        7.70514         6.20466         5.56502
| 29>    C        7.85806         4.85310         5.90892
| 30>    C        6.92205         3.93140         5.52443
| 31>    C        2.65921         3.03407         3.03599
| 32>    O        2.43489         1.85293         3.13740
| 33>    C        1.89565         4.00957         2.18721
| 34>    C        1.18508         3.48403         1.15389
| 35>    C        0.67414         4.06407        -0.02878
| 36>    O        0.63600         5.39312        -0.27785
| 37>    C        0.17394         5.58976        -1.52765
| 38>    C       -0.07689         4.36161        -2.12868
| 39>    C        0.23184         3.37627        -1.16410
| 40>    C        0.14211         1.98003        -1.29176
| 41>    N        0.08664         0.83962        -1.37872
| 42>    C       -0.61293         4.14334        -3.49907
| 43>    F       -1.63696         4.96767        -3.78012
| 44>    F        0.31604         4.37323        -4.45112
| 45>    F       -1.05390         2.89971        -3.69190
| 46>    C       -0.01756         6.92131        -2.00024
| 47>    N       -0.35535         7.93312        -1.12837
| 48>    C       -0.45835         9.07923        -1.84347
| 49>    C       -0.74841        10.43704        -1.75187
| 50>    C       -0.54591        10.95952        -3.03601
| 51>    N       -0.15354         9.94799        -3.89018
| 52>    C       -0.11732         8.78676        -3.19364
| 53>    C        0.13979         7.42262        -3.29528
| 54>    C       -0.62340        12.29426        -3.49904
| 55>    C       -1.20394        13.33425        -2.84611
| 56>    C       -1.14546        14.64352        -3.38570
| 57>    O       -0.38273        14.89040        -4.45702
| 58>    C       -0.45772        16.19607        -4.77095
| 59>    C       -1.32206        16.82608        -3.87515
| 60>    C       -1.76362        15.83463        -2.97326
| 61>    C       -2.63798        15.96001        -1.88358
| 62>    N       -3.34607        16.02404        -0.98494
| 63>    C       -1.67754        18.27256        -3.87623
| 64>    F       -0.57962        19.05516        -3.91672
| 65>    F       -2.41514        18.61080        -4.94684
| 66>    F       -2.36855        18.64005        -2.79580
| 67>    C        0.31382        16.77207        -5.81134
| 68>    C        1.34880        16.20390        -6.48905
| 69>    C        2.20243        16.93292        -7.41997
| 70>    C        1.85649        18.04165        -8.14116
| 71>    C        2.72825        18.68667        -9.04475
| 72>    N        3.39903        19.24668        -9.78846
| 73>    C        0.57611        18.63859        -8.13536
| 74>    N       -0.45004        19.14744        -8.20283
| 75>    C        3.47064        16.22090        -7.49813
| 76>    C        3.33082        14.97849        -6.81674
| 77>    C        1.96599        14.86022        -6.27420
| 78>    O        1.47147        13.86477        -5.79334
| 79>    C        4.36412        14.09158        -6.71611
| 80>    C        5.61327        14.42282        -7.28599
| 81>    C        5.76311        15.66837        -7.96258
| 82>    C        4.67075        16.55974        -8.06476
| 83>    C        7.01803        15.99231        -8.51731
| 84>    C        8.07532        15.13072        -8.40776
| 85>    C        7.92685        13.90525        -7.74085
| 86>    C        6.72169        13.55810        -7.19351
| 87>    H        4.93033         2.33932         4.60326
| 88>    H        4.42606         7.15984         3.42576
| 89>    H        6.49574         7.65649         4.57670
| 90>    H        8.45278         6.91848         5.87617
| 91>    H        8.72119         4.54578         6.47990
| 92>    H        7.03463         2.88967         5.78617
| 93>    H        1.10025         2.40067         1.17285
| 94>    H       -0.61241         7.77983        -0.15933
| 95>    H       -1.03581        10.99543        -0.88507
| 96>    H        0.03161        10.07418        -4.87091
| 97>    H        0.43122         6.86263        -4.15960
| 98>    H       -0.16526        12.49844        -4.45938
| 99>    H       -1.73278        13.21112        -1.91423
|100>    H        0.08216        17.81025        -6.00960
|101>    H        4.23468        13.15362        -6.19657
|102>    H        4.81556        17.49804        -8.57626
|103>    H        7.12757        16.93608        -9.03075
|104>    H        9.03280        15.38878        -8.83445
|105>    H        8.77211        13.23805        -7.66276
|106>    H        6.60148        12.61618        -6.67844
|107> *
|108>
|109>                          ****END OF INPUT****

CARTESIAN COORDINATES (ANGSTROEM)
---------------------------------
  C      2.323750    5.341460    2.557980
  C      1.631540    6.517460    2.440970
  C      2.132250    7.766100    2.873530
  N      2.484200    8.815320    3.177100
  C      0.320580    6.670810    1.961530
  N     -0.746170    6.922100    1.612810
  C      3.574500    5.194260    3.298630
  C      3.749950    3.818920    3.631710
  C      4.821670    3.385150    4.357920
  C      5.792990    4.321270    4.777880
  C      5.635770    5.694480    4.429550
  C      4.510160    6.116230    3.685200
  C      6.619140    6.616670    4.841470
  C      7.705140    6.204660    5.565020
  C      7.858060    4.853100    5.908920
  C      6.922050    3.931400    5.524430
  C      2.659210    3.034070    3.035990
  O      2.434890    1.852930    3.137400
  C      1.895650    4.009570    2.187210
  C      1.185080    3.484030    1.153890
  C      0.674140    4.064070   -0.028780
  O      0.636000    5.393120   -0.277850
  C      0.173940    5.589760   -1.527650
  C     -0.076890    4.361610   -2.128680
  C      0.231840    3.376270   -1.164100
  C      0.142110    1.980030   -1.291760
  N      0.086640    0.839620   -1.378720
  C     -0.612930    4.143340   -3.499070
  F     -1.636960    4.967670   -3.780120
  F      0.316040    4.373230   -4.451120
  F     -1.053900    2.899710   -3.691900
  C     -0.017560    6.921310   -2.000240
  N     -0.355350    7.933120   -1.128370
  C     -0.458350    9.079230   -1.843470
  C     -0.748410   10.437040   -1.751870
  C     -0.545910   10.959520   -3.036010
  N     -0.153540    9.947990   -3.890180
  C     -0.117320    8.786760   -3.193640
  C      0.139790    7.422620   -3.295280
  C     -0.623400   12.294260   -3.499040
  C     -1.203940   13.334250   -2.846110
  C     -1.145460   14.643520   -3.385700
  O     -0.382730   14.890400   -4.457020
  C     -0.457720   16.196070   -4.770950
  C     -1.322060   16.826080   -3.875150
  C     -1.763620   15.834630   -2.973260
  C     -2.637980   15.960010   -1.883580
  N     -3.346070   16.024040   -0.984940
  C     -1.677540   18.272560   -3.876230
  F     -0.579620   19.055160   -3.916720
  F     -2.415140   18.610800   -4.946840
  F     -2.368550   18.640050   -2.795800
  C      0.313820   16.772070   -5.811340
  C      1.348800   16.203900   -6.489050
  C      2.202430   16.932920   -7.419970
  C      1.856490   18.041650   -8.141160
  C      2.728250   18.686670   -9.044750
  N      3.399030   19.246680   -9.788460
  C      0.576110   18.638590   -8.135360
  N     -0.450040   19.147440   -8.202830
  C      3.470640   16.220900   -7.498130
  C      3.330820   14.978490   -6.816740
  C      1.965990   14.860220   -6.274200
  O      1.471470   13.864770   -5.793340
  C      4.364120   14.091580   -6.716110
  C      5.613270   14.422820   -7.285990
  C      5.763110   15.668370   -7.962580
  C      4.670750   16.559740   -8.064760
  C      7.018030   15.992310   -8.517310
  C      8.075320   15.130720   -8.407760
  C      7.926850   13.905250   -7.740850
  C      6.721690   13.558100   -7.193510
  H      4.930330    2.339320    4.603260
  H      4.426060    7.159840    3.425760
  H      6.495740    7.656490    4.576700
  H      8.452780    6.918480    5.876170
  H      8.721190    4.545780    6.479900
  H      7.034630    2.889670    5.786170
  H      1.100250    2.400670    1.172850
  H     -0.612410    7.779830   -0.159330
  H     -1.035810   10.995430   -0.885070
  H      0.031610   10.074180   -4.870910
  H      0.431220    6.862630   -4.159600
  H     -0.165260   12.498440   -4.459380
  H     -1.732780   13.211120   -1.914230
  H      0.082160   17.810250   -6.009600
  H      4.234680   13.153620   -6.196570
  H      4.815560   17.498040   -8.576260
  H      7.127570   16.936080   -9.030750
  H      9.032800   15.388780   -8.834450
  H      8.772110   13.238050   -7.662760
  H      6.601480   12.616180   -6.678440

 Total Charge           Charge          ....    0
 Multiplicity           Mult            ....    1
 Number of Electrons    NEL             ....  486
 Basis Dimension        Dim             .... 1108

ORBITAL ENERGIES
----------------

  NO   OCC          E(Eh)            E(eV)
   0   2.0000     -24.817730      -675.3248
   1   2.0000     -24.812553      -675.1839
   2   2.0000     -24.810980      -675.1411
   3   2.0000     -24.810766      -675.1353
   4   2.0000     -24.807307      -675.0411
   5   2.0000     -24.804086      -674.9535
   6   2.0000     -19.342715      -526.3420
   7   2.0000     -19.323459      -525.8181
   8   2.0000     -19.228230      -523.2267
   9   2.0000     -19.225585      -523.1548
  10   2.0000     -14.474857      -393.8809
  11   2.0000     -14.468906      -393.7189
  12   2.0000     -14.436974      -392.8500
  13   2.0000     -14.430830      -392.6829
  14   2.0000     -14.430464      -392.6729
  15   2.0000     -14.419819      -392.3832
  16   2.0000     -14.419335      -392.3701
  17   2.0000     -14.413957      -392.2237
  18   2.0000     -10.540635      -286.8253
  19   2.0000     -10.534738      -286.6648
  20   2.0000     -10.393074      -282.8099
  21   2.0000     -10.385138      -282.5940
  22   2.0000     -10.379981      -282.4537
  23   2.0000     -10.379179      -282.4318
  24   2.0000     -10.378971      -282.4262
  25   2.0000     -10.372321      -282.2452
  26   2.0000     -10.361052      -281.9386
  27   2.0000     -10.360375      -281.9201
  28   2.0000     -10.355898      -281.7983
  29   2.0000     -10.349414      -281.6219
  30   2.0000     -10.347120      -281.5595
  31   2.0000     -10.345647      -281.5194
  32   2.0000     -10.340299      -281.3738
  33   2.0000     -10.333684      -281.1938
  34   2.0000     -10.333567      -281.1906
  35   2.0000     -10.333269      -281.1825
  36   2.0000     -10.332769      -281.1689
  37   2.0000     -10.331983      -281.1476
  38   2.0000     -10.331112      -281.1238
  39   2.0000     -10.330573      -281.1092
  40   2.0000     -10.324540      -280.9450
  41   2.0000     -10.322176      -280.8807
  42   2.0000     -10.321051      -280.8501
  43   2.0000     -10.320439      -280.8334
  44   2.0000     -10.317006      -280.7400
  45   2.0000     -10.316154      -280.7168
  46   2.0000     -10.315137      -280.6891
  47   2.0000     -10.312792      -280.6253
  48   2.0000     -10.311805      -280.5985
  49   2.0000     -10.309757      -280.5428
  50   2.0000     -10.309596      -280.5384
  51   2.0000     -10.309307      -280.5305
  52   2.0000     -10.308958      -280.5210
  53   2.0000     -10.308771      -280.5159
  54   2.0000     -10.308431      -280.5067
  55   2.0000     -10.304379      -280.3964
  56   2.0000     -10.304005      -280.3862
  57   2.0000     -10.303849      -280.3820
  58   2.0000     -10.303134      -280.3625
  59   2.0000     -10.301884      -280.3285
  60   2.0000     -10.299721      -280.2696
  61   2.0000     -10.296328      -280.1773
  62   2.0000     -10.296253      -280.1753
  63   2.0000     -10.295965      -280.1675
  64   2.0000     -10.295740      -280.1613
  65   2.0000     -10.295369      -280.1512
  66   2.0000     -10.292770      -280.0805
  67   2.0000     -10.292268      -280.0669
  68   2.0000     -10.291648      -280.0500
  69   2.0000     -10.291091      -280.0348
  70   2.0000     -10.289663      -279.9960
  71   2.0000     -10.282858      -279.8108
  72   2.0000      -1.404767       -38.2257
  73   2.0000      -1.398487       -38.0548
  74   2.0000      -1.309128       -35.6232
  75   2.0000      -1.302722       -35.4489
  76   2.0000      -1.302211       -35.4350
  77   2.0000      -1.296676       -35.2844
  78   2.0000      -1.263703       -34.3871
  79   2.0000      -1.252553       -34.0837
  80   2.0000      -1.144781       -31.1511
  81   2.0000      -1.140790       -31.0425
  82   2.0000      -1.107977       -30.1496
  83   2.0000      -1.071334       -29.1525
  84   2.0000      -1.037168       -28.2228
  85   2.0000      -1.024032       -27.8653
  86   2.0000      -1.017716       -27.6935
  87   2.0000      -1.015954       -27.6455
  88   2.0000      -1.010228       -27.4897
  89   2.0000      -1.004510       -27.3341
  90   2.0000      -1.001081       -27.2408
  91   2.0000      -0.998057       -27.1585
  92   2.0000      -0.985072       -26.8052
  93   2.0000      -0.979417       -26.6513
  94   2.0000      -0.967690       -26.3322
  95   2.0000      -0.957587       -26.0573
  96   2.0000      -0.949668       -25.8418
  97   2.0000      -0.948067       -25.7982
  98   2.0000      -0.934671       -25.4337
  99   2.0000      -0.930046       -25.3078
 100   2.0000      -0.913566       -24.8594
 101   2.0000      -0.910406       -24.7734
 102   2.0000      -0.896491       -24.3948
 103   2.0000      -0.893218       -24.3057
 104   2.0000      -0.887999       -24.1637
 105   2.0000      -0.885732       -24.1020
 106   2.0000      -0.880553       -23.9611
 107   2.0000      -0.870118       -23.6771
 108   2.0000      -0.857407       -23.3312
 109   2.0000      -0.840279       -22.8652
 110   2.0000      -0.835143       -22.7254
 111   2.0000      -0.834605       -22.7107
 112   2.0000      -0.823187       -22.4001
 113   2.0000      -0.819922       -22.3112
 114   2.0000      -0.808992       -22.0138
 115   2.0000      -0.784780       -21.3549
 116   2.0000      -0.778839       -21.1933
 117   2.0000      -0.775804       -21.1107
 118   2.0000      -0.768583       -20.9142
 119   2.0000      -0.764971       -20.8159
 120   2.0000      -0.755670       -20.5628
 121   2.0000      -0.740163       -20.1409
 122   2.0000      -0.730230       -19.8706
 123   2.0000      -0.725398       -19.7391
 124   2.0000      -0.722881       -19.6706
 125   2.0000      -0.715009       -19.4564
 126   2.0000      -0.710581       -19.3359
 127   2.0000      -0.710004       -19.3202
 128   2.0000      -0.707452       -19.2508
 129   2.0000      -0.704248       -19.1636
 130   2.0000      -0.698449       -19.0058
 131   2.0000      -0.692158       -18.8346
 132   2.0000      -0.690079       -18.7780
 133   2.0000      -0.686869       -18.6907
 134   2.0000      -0.685347       -18.6492
 135   2.0000      -0.681688       -18.5497
 136   2.0000      -0.680087       -18.5061
 137   2.0000      -0.677884       -18.4462
 138   2.0000      -0.664431       -18.0801
 139   2.0000      -0.659249       -17.9391
 140   2.0000      -0.654417       -17.8076
 141   2.0000      -0.646681       -17.5971
 142   2.0000      -0.639651       -17.4058
 143   2.0000      -0.630933       -17.1686
 144   2.0000      -0.622043       -16.9267
 145   2.0000      -0.619021       -16.8444
 146   2.0000      -0.616246       -16.7689
 147   2.0000      -0.613697       -16.6996
 148   2.0000      -0.612571       -16.6689
 149   2.0000      -0.607670       -16.5355
 150   2.0000      -0.607052       -16.5187
 151   2.0000      -0.597660       -16.2631
 152   2.0000      -0.590482       -16.0678
 153   2.0000      -0.587547       -15.9880
 154   2.0000      -0.580243       -15.7892
 155   2.0000      -0.574408       -15.6304
 156   2.0000      -0.566503       -15.4153
 157   2.0000      -0.564570       -15.3627
 158   2.0000      -0.561750       -15.2860
 159   2.0000      -0.561425       -15.2771
 160   2.0000      -0.559543       -15.2259
 161   2.0000      -0.557929       -15.1820
 162   2.0000      -0.556345       -15.1389
 163   2.0000      -0.554927       -15.1003
 164   2.0000      -0.553690       -15.0667
 165   2.0000      -0.552541       -15.0354
 166   2.0000      -0.549740       -14.9592
 167   2.0000      -0.548029       -14.9126
 168   2.0000      -0.545453       -14.8425
 169   2.0000      -0.543742       -14.7960
 170   2.0000      -0.540921       -14.7192
 171   2.0000      -0.536031       -14.5862
 172   2.0000      -0.534612       -14.5475
 173   2.0000      -0.531459       -14.4617
 174   2.0000      -0.530419       -14.4334
 175   2.0000      -0.529106       -14.3977
 176   2.0000      -0.526711       -14.3325
 177   2.0000      -0.523251       -14.2384
 178   2.0000      -0.521312       -14.1856
 179   2.0000      -0.520447       -14.1621
 180   2.0000      -0.518585       -14.1114
 181   2.0000      -0.515484       -14.0270
 182   2.0000      -0.514523       -14.0009
 183   2.0000      -0.512111       -13.9353
 184   2.0000      -0.511726       -13.9248
 185   2.0000      -0.504129       -13.7180
 186   2.0000      -0.503589       -13.7034
 187   2.0000      -0.501323       -13.6417
 188   2.0000      -0.500184       -13.6107
 189   2.0000      -0.498624       -13.5682
 190   2.0000      -0.496443       -13.5089
 191   2.0000      -0.494351       -13.4520
 192   2.0000      -0.492897       -13.4124
 193   2.0000      -0.492124       -13.3914
 194   2.0000      -0.489969       -13.3327
 195   2.0000      -0.487290       -13.2598
 196   2.0000      -0.480452       -13.0738
 197   2.0000      -0.479088       -13.0366
 198   2.0000      -0.478006       -13.0072
 199   2.0000      -0.475594       -12.9416
 200   2.0000      -0.473557       -12.8861
 201   2.0000      -0.467152       -12.7119
 202   2.0000      -0.466359       -12.6903
 203   2.0000      -0.461036       -12.5454
 204   2.0000      -0.458864       -12.4863
 205   2.0000      -0.456438       -12.4203
 206   2.0000      -0.453174       -12.3315
 207   2.0000      -0.452497       -12.3131
 208   2.0000      -0.448596       -12.2069
 209   2.0000      -0.448190       -12.1959
 210   2.0000      -0.445691       -12.1279
 211   2.0000      -0.444502       -12.0955
 212   2.0000      -0.442289       -12.0353
 213   2.0000      -0.441165       -12.0047
 214   2.0000      -0.440855       -11.9963
 215   2.0000      -0.438737       -11.9386
 216   2.0000      -0.436017       -11.8646
 217   2.0000      -0.434626       -11.8268
 218   2.0000      -0.430721       -11.7205
 219   2.0000      -0.429496       -11.6872
 220   2.0000      -0.428183       -11.6515
 221   2.0000      -0.424958       -11.5637
 222   2.0000      -0.422633       -11.5004
 223   2.0000      -0.416446       -11.3321
 224   2.0000      -0.413892       -11.2626
 225   2.0000      -0.406837       -11.0706
 226   2.0000      -0.396251       -10.7825
 227   2.0000      -0.394894       -10.7456
 228   2.0000      -0.390193       -10.6177
 229   2.0000      -0.383144       -10.4259
 230   2.0000      -0.380096       -10.3429
 231   2.0000      -0.371998       -10.1226
 232   2.0000      -0.356694        -9.7061
 233   2.0000      -0.350416        -9.5353
 234   2.0000      -0.344033        -9.3616
 235   2.0000      -0.330751        -9.0002
 236   2.0000      -0.325484        -8.8569
 237   2.0000      -0.321728        -8.7547
 238   2.0000      -0.307140        -8.3577
 239   2.0000      -0.304966        -8.2985
 240   2.0000      -0.302765        -8.2386
 241   2.0000      -0.294475        -8.0131
 242   2.0000      -0.248286        -6.7562
 243   0.0000      -0.115226        -3.1355
 244   0.0000      -0.103228        -2.8090
 245   0.0000      -0.071728        -1.9518
 246   0.0000      -0.064073        -1.7435
 247   0.0000      -0.056927        -1.5491

MULLIKEN ATOMIC CHARGES
-----------------------
   0 C :    0.285973
   1 C :   -0.344385
   2 C :   -0.192032
   3 N :    0.161313
   4 C :   -0.116424
   5 N :    0.107711
   6 C :    0.031959
   7 C :    0.016814
   8 C :   -0.078459
   9 C :    0.094989
  10 C :    0.096255
  11 C :   -0.079096
  12 C :   -0.017966
  13 C :    0.037448
  14 C :    0.038881
  15 C :   -0.014623
  16 C :    0.128762
  17 O :   -0.132116
  18 C :   -0.099843
  19 C :   -0.046021
  20 C :    0.172035
  21 O :   -0.192310
  22 C :    0.166524
  23 C :   -0.102942
  24 C :   -0.055907
  25 C :   -0.240825
  26 N :    0.199360
  27 C :    0.525291
  28 F :   -0.152367
  29 F :   -0.162648
  30 F :   -0.135017
  31 C :    0.010181
  32 N :   -0.029708
  33 C :    0.120536
  34 C :   -0.148439
  35 C :    0.105812
  36 N :   -0.024065
  37 C :    0.113611
  38 C :   -0.141478
  39 C :    0.025384
  40 C :   -0.082816
  41 C :    0.160499
  42 O :   -0.154066
  43 C :    0.106210
  44 C :   -0.069998
  45 C :   -0.072961
  46 C :   -0.249458
  47 N :    0.182105
  48 C :    0.525981
  49 F :   -0.164510
  50 F :   -0.148116
  51 F :   -0.133107
  52 C :   -0.036295
  53 C :   -0.065732
  54 C :    0.270703
  55 C :   -0.326460
  56 C :   -0.183748
  57 N :    0.153037
  58 C :   -0.202448
  59 N :    0.171774
  60 C :    0.058461
  61 C :    0.004935
  62 C :    0.139007
  63 O :   -0.137630
  64 C :   -0.081159
  65 C :    0.096785
  66 C :    0.093089
  67 C :   -0.079849
  68 C :   -0.015830
  69 C :    0.038291
  70 C :    0.034677
  71 C :   -0.014534
  72 H :   -0.006825
  73 H :   -0.002923
  74 H :   -0.008897
  75 H :   -0.001252
  76 H :   -0.001720
  77 H :   -0.013790
  78 H :    0.046264
  79 H :    0.128618
  80 H :   -0.016238
  81 H :    0.130745
  82 H :   -0.018630
  83 H :    0.016757
  84 H :    0.019429
  85 H :    0.037608
  86 H :   -0.018256
  87 H :   -0.005641
  88 H :   -0.007956
  89 H :   -0.003493
  90 H :   -0.003151
  91 H :   -0.019655
Sum of atomic charges:    0.0000000

LOEWDIN ATOMIC CHARGES
----------------------
   0 C :    0.076689
   1 C :   -0.138241
   2 C :   -0.019558
   3 N :   -0.045233
   4 C :    0.010722
   5 N :   -0.075265
   6 C :   -0.024089
   7 C :   -0.057810
   8 C :    0.036462
   9 C :   -0.007414
  10 C :   -0.004774
  11 C :    0.018808
  12 C :   -0.005227
  13 C :   -0.010085
  14 C :   -0.009086
  15 C :   -0.007412
  16 C :    0.084507
  17 O :   -0.130707
  18 C :   -0.076399
  19 C :    0.040793
  20 C :    0.038498
  21 O :    0.047783
  22 C :    0.084668
  23 C :   -0.113103
  24 C :   -0.053537
  25 C :   -0.040247
  26 N :   -0.015223
  27 C :    0.171461
  28 F :   -0.054020
  29 F :   -0.065248
  30 F :   -0.034295
  31 C :   -0.028732
  32 N :    0.082451
  33 C :   -0.006187
  34 C :   -0.068536
  35 C :   -0.001819
  36 N :    0.077095
  37 C :   -0.015969
  38 C :   -0.068704
  39 C :    0.022200
  40 C :   -0.059659
  41 C :    0.092883
  42 O :    0.061107
  43 C :    0.031581
  44 C :   -0.068959
  45 C :   -0.105895
  46 C :   -0.042397
  47 N :   -0.037040
  48 C :    0.169067
  49 F :   -0.061959
  50 F :   -0.052127
  51 F :   -0.033977
  52 C :    0.039798
  53 C :   -0.072761
  54 C :    0.072821
  55 C :   -0.132120
  56 C :   -0.017368
  57 N :   -0.047893
  58 C :   -0.028798
  59 N :   -0.037995
  60 C :   -0.025369
  61 C :   -0.055497
  62 C :    0.081586
  63 O :   -0.142251
  64 C :    0.029475
  65 C :   -0.007990
  66 C :   -0.005521
  67 C :    0.020698
  68 C :   -0.004434
  69 C :   -0.011729
  70 C :   -0.011344
  71 C :   -0.010256
  72 H :    0.041552
  73 H :    0.039435
  74 H :    0.035041
  75 H :    0.034670
  76 H :    0.034338
  77 H :    0.033358
  78 H :    0.062963
  79 H :    0.076906
  80 H :    0.031986
  81 H :    0.095210
  82 H :    0.026927
  83 H :    0.040588
  84 H :    0.043901
  85 H :    0.051988
  86 H :    0.036691
  87 H :    0.039641
  88 H :    0.035445
  89 H :    0.033866
  90 H :    0.033386
  91 H :    0.031211

  Mayer bond orders larger than 0.100000
B(  0-C ,  1-C ) :   1.6497 B(  0-C ,  6-C ) :   1.0070 B(  0-C , 18-C ) :   1.0183
B(  1-C ,  2-C ) :   1.1247 B(  1-C ,  4-C ) :   1.2020 B(  2-C ,  3-N ) :   2.9912
B(  4-C ,  5-N ) :   2.8484 B(  6-C ,  7-C ) :   1.2086 B(  6-C , 11-C ) :   1.4510
B(  7-C ,  8-C ) :   1.4777 B(  7-C , 16-C ) :   0.9247 B(  8-C ,  9-C ) :   1.1836
B(  8-C , 72-H ) :   1.0167 B(  9-C , 10-C ) :   1.2546 B(  9-C , 15-C ) :   1.2461
B( 10-C , 11-C ) :   1.2091 B( 10-C , 12-C ) :   1.2399 B( 11-C , 73-H ) :   0.9922
B( 12-C , 13-C ) :   1.4900 B( 12-C , 74-H ) :   0.9980 B( 13-C , 14-C ) :   1.2597
B( 13-C , 75-H ) :   0.9886 B( 14-C , 15-C ) :   1.4893 B( 14-C , 76-H ) :   0.9885
B( 15-C , 77-H ) :   0.9980 B( 16-C , 17-O ) :   2.2619 B( 16-C , 18-C ) :   0.9261
B( 18-C , 19-C ) :   1.6340 B( 19-C , 20-C ) :   1.1717 B( 19-C , 78-H ) :   0.9287
B( 20-C , 21-O ) :   1.1196 B( 20-C , 24-C ) :   1.3986 B( 21-O , 22-C ) :   1.1773
B( 22-C , 23-C ) :   1.4550 B( 22-C , 31-C ) :   1.0220 B( 23-C , 24-C ) :   1.3239
B( 23-C , 27-C ) :   0.9258 B( 24-C , 25-C ) :   1.1243 B( 25-C , 26-N ) :   3.0202
B( 27-C , 28-F ) :   1.1828 B( 27-C , 29-F ) :   1.1579 B( 27-C , 30-F ) :   1.1873
B( 31-C , 32-N ) :   1.2176 B( 31-C , 38-C ) :   1.4095 B( 32-N , 33-C ) :   1.1877
B( 32-N , 79-H ) :   0.8933 B( 33-C , 34-C ) :   1.2691 B( 33-C , 37-C ) :   1.2817
B( 34-C , 35-C ) :   1.3937 B( 34-C , 80-H ) :   1.0330 B( 35-C , 36-N ) :   1.1711
B( 35-C , 39-C ) :   1.0975 B( 36-N , 37-C ) :   1.1769 B( 36-N , 81-H ) :   0.9335
B( 37-C , 38-C ) :   1.2684 B( 38-C , 82-H ) :   1.0235 B( 39-C , 40-C ) :   1.6090
B( 39-C , 83-H ) :   0.9656 B( 40-C , 41-C ) :   1.2161 B( 40-C , 84-H ) :   0.9612
B( 41-C , 42-O ) :   1.2066 B( 41-C , 45-C ) :   1.3265 B( 42-O , 43-C ) :   1.1414
B( 43-C , 44-C ) :   1.4053 B( 43-C , 52-C ) :   1.2068 B( 44-C , 45-C ) :   1.3377
B( 44-C , 48-C ) :   0.9241 B( 45-C , 46-C ) :   1.1346 B( 46-C , 47-N ) :   3.0294
B( 48-C , 49-F ) :   1.1466 B( 48-C , 50-F ) :   1.1975 B( 48-C , 51-F ) :   1.1913
B( 52-C , 53-C ) :   1.6033 B( 52-C , 85-H ) :   0.9210 B( 53-C , 54-C ) :   1.0437
B( 53-C , 62-C ) :   0.9182 B( 54-C , 55-C ) :   1.6644 B( 54-C , 60-C ) :   0.9937
B( 55-C , 56-C ) :   1.1405 B( 55-C , 58-C ) :   1.1290 B( 56-C , 57-N ) :   2.9770
B( 58-C , 59-N ) :   3.0065 B( 60-C , 61-C ) :   1.2147 B( 60-C , 67-C ) :   1.4511
B( 61-C , 62-C ) :   0.9406 B( 61-C , 64-C ) :   1.4715 B( 62-C , 63-O ) :   2.2214
B( 64-C , 65-C ) :   1.1856 B( 64-C , 86-H ) :   1.0142 B( 65-C , 66-C ) :   1.2567
B( 65-C , 71-C ) :   1.2451 B( 66-C , 67-C ) :   1.2083 B( 66-C , 68-C ) :   1.2386
B( 67-C , 87-H ) :   0.9913 B( 68-C , 69-C ) :   1.4913 B( 68-C , 88-H ) :   0.9970
B( 69-C , 70-C ) :   1.2608 B( 69-C , 89-H ) :   0.9880 B( 70-C , 71-C ) :   1.4894
B( 70-C , 90-H ) :   0.9885 B( 71-C , 91-H ) :   0.9969

-----------------------------------------------------------------------------
         ABSORPTION SPECTRUM VIA TRANSITION ELECTRIC DIPOLE MOMENTS
-----------------------------------------------------------------------------
State   Energy  Wavelength   fosc         T2         TX        TY        TZ
        (cm-1)    (nm)                  (au**2)     (au)      (au)      (au)
-----------------------------------------------------------------------------
   0   14217.5    703.4   0.850350629  19.69024  -0.55072   3.13152  -3.09525
   1   17675.3    565.8   0.468252445   8.72143  -1.61400  -2.20484   1.12031
   2   24641.0    405.8   0.162608735   2.17251   0.62342  -1.22812   0.52495
   3   25006.9    399.9   0.041105535   0.54115   0.20750   0.69531   0.12101
   4   25312.6    395.1   0.242796952   3.15778   0.93582  -1.47956   0.30483
   5   25473.4    392.6   0.042835530   0.55360  -0.62552   0.37417  -0.14937
   6   25996.1    384.7   0.086903523   1.10054  -0.51319  -0.90241  -0.15109
   7   26399.6    378.8   0.175655092   2.19048   1.03718   0.41514   0.97077
   8   27322.5    366.0   0.160744998   1.93683  -0.07968  -1.37353   0.20955
   9   27373.8    365.3   0.340025365   4.08933  -0.47975   1.95811   0.15808
  10   27875.0    358.7   0.120129465   1.41876  -1.18863  -0.01612   0.07519
  11   28530.6    350.5   0.387007158   4.46564   0.61989  -1.20342  -1.62271
  12   29072.1    344.0   0.036777259   0.41647   0.56145  -0.24766  -0.19976
  13   29170.9    342.8   0.090248827   1.01851  -0.84885   0.53270   0.11911
  14   30265.3    330.4   0.170299198   1.85244   0.50732  -0.82771  -0.95391
  15   31875.4    313.7   0.091870821   0.94885  -0.13523   0.89291   0.36506
  16   32981.6    303.2   0.509921690   5.08988   1.84362  -0.34128   1.25478
  17   33083.0    302.3   0.690135462   6.86760  -2.19460   1.41208  -0.23949
  18   33421.5    299.2   0.123510130   1.21661  -0.91446   0.49516  -0.36768
  19   33571.8    297.9   0.110595526   1.08452   0.56722   0.54437   0.68297
  20   33912.0    294.9   0.153476980   1.48993   0.95117   0.27826   0.71258
  21   34016.5    294.0   0.153717512   1.48768   1.05030  -0.60750   0.12446
  22   35198.6    284.1   0.059671392   0.55811  -0.41117   0.09979   0.61570
  23   35447.6    282.1   0.028713052   0.26667   0.08498  -0.19875  -0.46898
  24   35800.8    279.3   0.148294627   1.36367  -0.97646   0.21776  -0.60231
  25   35868.6    278.8   0.132309326   1.21437   0.63681  -0.78844  -0.43267
  26   36255.7    275.8   0.069231815   0.62864   0.34346  -0.06318   0.71182
  27   36659.7    272.8   0.097185823   0.87275   0.25612  -0.88107  -0.17568
  28   37118.2    269.4   0.059390333   0.52675   0.49873  -0.24028  -0.46934
  29   37603.7    265.9   0.028690713   0.25118  -0.22403  -0.34032   0.29184
  30   37910.6    263.8   0.121203017   1.05251   1.01013  -0.13875   0.11362
  31   38365.8    260.6   0.063413322   0.54414   0.51008  -0.52457   0.09376
  32   38442.0    260.1   0.050120742   0.42923  -0.03034   0.51728   0.40091
  33   39206.8    255.1   0.220961667   1.85537  -0.04644   1.13429  -0.75273
  34   39835.7    251.0   0.008028156   0.06635   0.00788  -0.10559   0.23481
  35   39974.6    250.2   0.043364449   0.35713  -0.28721  -0.52265  -0.03836

FINAL SINGLE POINT ENERGY     -3403.547158051361

DIPOLE MOMENT
-------------
                                X             Y             Z
Electronic contribution:    -55.17879       9.93234     -17.30253
Nuclear contribution   :     60.07063     -12.21548      18.34718
                        -----------------------------------------
Total Dipole Moment    :      4.89184      -2.28314       1.04465
                        -----------------------------------------
Magnitude (a.u.)       :      5.49856
Magnitude (Debye)      :     13.97622

Rotational constants in cm-1:     0.001198     0.000340     0.000327
Rotational constants in MHz :    35.904872    10.205989     9.794293

                             ****ORCA TERMINATED NORMALLY****
TOTAL RUN TIME: 0 days 0 hours 9 minutes 19 seconds 572 msec
