                         Program Version 4.2.0 -  RELEASE  -
|  1> # ORCA input file
|  2> # SCF done       -179.472587820033          0.000563268991
|  3> ! CAM-B3LYP def2-SVP def2/J RIJCOSX Grid4 TightSCF
|  4> %maxcore 5000
|  5> %tddft
|  6>     Mode sTDDFT
|  7>     Ethresh 5.0
|  8>     maxcore 5000
|  9> end
| 10>
| 11> %pal
| 12>   nprocs 6
| 13>   end
| 14> * xyz 0 1
| 15>    C       -1.83524         2.82027        -5.96522
| 16>    C       -2.43829         1.59566        -6.00280
| 17>    C       -2.25755         0.65469        -7.04109
| 18>    N       -2.17456        -0.14277        -7.86126
| 19>    C       -3.36757         1.14958        -5.03863
| 20>    N       -4.13242         0.75214        -4.28083
| 21>    C       -0.90482         3.35607        -6.95184
| 22>    C       -0.68931         4.73841        -6.67895
| 23>    C        0.13409         5.51102        -7.44812
| 24>    C        0.79913         4.92227        -8.54378
| 25>    C        0.60834         3.53466        -8.80919
| 26>    C       -0.25197         2.75878        -7.99886
| 27>    C        1.28742         2.95667        -9.90227
| 28>    C        2.10466         3.71177       -10.69837
| 29>    C        2.28517         5.08002       -10.44106
| 30>    C        1.64977         5.67022        -9.38301
| 31>    C       -1.47060         5.12920        -5.50099
| 32>    O       -1.70885         6.25120        -5.11243
| 33>    C       -2.00872         3.84498        -4.94100
| 34>    C       -2.46145         3.71091        -3.67455
| 35>    C       -2.23821         4.73826        -2.69404
| 36>    C       -3.14710         5.29596        -1.68489
| 37>    N       -2.65241         6.30400        -1.02787
| 38>    C       -1.39233         6.49006        -1.51433
| 39>    C       -1.08167         5.44406        -2.51063
| 40>    C        0.22989         5.64387        -3.06838
| 41>    S        1.09479         4.58929        -3.98638
| 42>    C        0.61040         6.93162        -2.56810
| 43>    C       -0.37212         7.40164        -1.56509
| 44>    N       -0.04522         8.65560        -1.14027
| 45>    C        0.99038         9.01365        -1.83494
| 46>    C        1.44559         8.00054        -2.80312
| 47>    C        2.42150         8.17369        -3.81688
| 48>    C        3.14176         9.32245        -4.11852
| 49>    F        3.08276        10.44086        -3.38982
| 50>    C        3.92937         9.20895        -5.26398
| 51>    F        4.69102        10.20978        -5.71583
| 52>    C        3.84808         7.96513        -5.87797
| 53>    S        2.77963         6.92922        -4.97828
| 54>    C        4.48178         7.54110        -7.07315
| 55>    C        5.23744         8.40776        -7.99162
| 56>    N        5.70595         7.79430        -9.03609
| 57>    C        5.32713         6.49239        -8.90696
| 58>    C        4.53446         6.30061        -7.67728
| 59>    C        4.17459         4.91464        -7.53972
| 60>    S        3.30717         4.16326        -6.36225
| 61>    C        4.75757         4.28268        -8.69665
| 62>    C        5.45784         5.27699        -9.52861
| 63>    N        5.99553         4.67967       -10.62628
| 64>    C        5.73059         3.41071       -10.51259
| 65>    C        4.96311         3.06933        -9.29975
| 66>    C        4.54477         1.78234        -8.85263
| 67>    C        5.32641         0.67643        -8.91743
| 68>    C        5.01190        -0.68394        -8.51154
| 69>    C        3.76899        -1.16994        -8.20752
| 70>    C        3.51341        -2.50821        -7.83707
| 71>    N        3.25304        -3.58311        -7.53196
| 72>    C        2.58382        -0.40704        -8.24983
| 73>    N        1.58708         0.16119        -8.28387
| 74>    C        6.25350        -1.44548        -8.53681
| 75>    C        7.30706        -0.59713        -8.99034
| 76>    C        6.77653         0.74444        -9.25763
| 77>    O        7.39019         1.72484        -9.62313
| 78>    C        8.59239        -1.04356        -9.11386
| 79>    C        8.89027        -2.38337        -8.78217
| 80>    C        7.84462        -3.23724        -8.32309
| 81>    C        6.52379        -2.74782        -8.20630
| 82>    C        8.15541        -4.57085        -7.98807
| 83>    C        9.43612        -5.04008        -8.10060
| 84>    C       10.46398        -4.19916        -8.55353
| 85>    C       10.19703        -2.89904        -8.88793
| 86>    H        0.27921         6.55616        -7.21720
| 87>    H       -0.35764         1.70868        -8.21859
| 88>    H        1.14415         1.90381       -10.09377
| 89>    H        2.61724         3.26251       -11.53655
| 90>    H        2.93071         5.66079       -11.08367
| 91>    H        1.78485         6.72289        -9.17815
| 92>    H       -2.94358         2.80148        -3.33937
| 93>    H       -4.14706         4.94824        -1.49294
| 94>    H        1.44570         9.97578        -1.68220
| 95>    H        5.40657         9.46049        -7.85565
| 96>    H        5.98881         2.72774       -11.30053
| 97>    H        3.57504         1.74538        -8.37159
| 98>    H        9.37156        -0.38055        -9.45959
| 99>    H        5.75642        -3.41714        -7.85105
|100>    H        7.36117        -5.21486        -7.64050
|101>    H        9.66434        -6.06267        -7.84072
|102>    H       11.46834        -4.58634        -8.63559
|103>    H       10.98403        -2.24673        -9.23668
|104> *
|105>
|106>                          ****END OF INPUT****

CARTESIAN COORDINATES (ANGSTROEM)
---------------------------------
  C     -1.835240    2.820270   -5.965220
  C     -2.438290    1.595660   -6.002800
  C     -2.257550    0.654690   -7.041090
  N     -2.174560   -0.142770   -7.861260
  C     -3.367570    1.149580   -5.038630
  N     -4.132420    0.752140   -4.280830
  C     -0.904820    3.356070   -6.951840
  C     -0.689310    4.738410   -6.678950
  C      0.134090    5.511020   -7.448120
  C      0.799130    4.922270   -8.543780
  C      0.608340    3.534660   -8.809190
  C     -0.251970    2.758780   -7.998860
  C      1.287420    2.956670   -9.902270
  C      2.104660    3.711770  -10.698370
  C      2.285170    5.080020  -10.441060
  C      1.649770    5.670220   -9.383010
  C     -1.470600    5.129200   -5.500990
  O     -1.708850    6.251200   -5.112430
  C     -2.008720    3.844980   -4.941000
  C     -2.461450    3.710910   -3.674550
  C     -2.238210    4.738260   -2.694040
  C     -3.147100    5.295960   -1.684890
  N     -2.652410    6.304000   -1.027870
  C     -1.392330    6.490060   -1.514330
  C     -1.081670    5.444060   -2.510630
  C      0.229890    5.643870   -3.068380
  S      1.094790    4.589290   -3.986380
  C      0.610400    6.931620   -2.568100
  C     -0.372120    7.401640   -1.565090
  N     -0.045220    8.655600   -1.140270
  C      0.990380    9.013650   -1.834940
  C      1.445590    8.000540   -2.803120
  C      2.421500    8.173690   -3.816880
  C      3.141760    9.322450   -4.118520
  F      3.082760   10.440860   -3.389820
  C      3.929370    9.208950   -5.263980
  F      4.691020   10.209780   -5.715830
  C      3.848080    7.965130   -5.877970
  S      2.779630    6.929220   -4.978280
  C      4.481780    7.541100   -7.073150
  C      5.237440    8.407760   -7.991620
  N      5.705950    7.794300   -9.036090
  C      5.327130    6.492390   -8.906960
  C      4.534460    6.300610   -7.677280
  C      4.174590    4.914640   -7.539720
  S      3.307170    4.163260   -6.362250
  C      4.757570    4.282680   -8.696650
  C      5.457840    5.276990   -9.528610
  N      5.995530    4.679670  -10.626280
  C      5.730590    3.410710  -10.512590
  C      4.963110    3.069330   -9.299750
  C      4.544770    1.782340   -8.852630
  C      5.326410    0.676430   -8.917430
  C      5.011900   -0.683940   -8.511540
  C      3.768990   -1.169940   -8.207520
  C      3.513410   -2.508210   -7.837070
  N      3.253040   -3.583110   -7.531960
  C      2.583820   -0.407040   -8.249830
  N      1.587080    0.161190   -8.283870
  C      6.253500   -1.445480   -8.536810
  C      7.307060   -0.597130   -8.990340
  C      6.776530    0.744440   -9.257630
  O      7.390190    1.724840   -9.623130
  C      8.592390   -1.043560   -9.113860
  C      8.890270   -2.383370   -8.782170
  C      7.844620   -3.237240   -8.323090
  C      6.523790   -2.747820   -8.206300
  C      8.155410   -4.570850   -7.988070
  C      9.436120   -5.040080   -8.100600
  C     10.463980   -4.199160   -8.553530
  C     10.197030   -2.899040   -8.887930
  H      0.279210    6.556160   -7.217200
  H     -0.357640    1.708680   -8.218590
  H      1.144150    1.903810  -10.093770
  H      2.617240    3.262510  -11.536550
  H      2.930710    5.660790  -11.083670
  H      1.784850    6.722890   -9.178150
  H     -2.943580    2.801480   -3.339370
  H     -4.147060    4.948240   -1.492940
  H      1.445700    9.975780   -1.682200
  H      5.406570    9.460490   -7.855650
  H      5.988810    2.727740  -11.300530
  H      3.575040    1.745380   -8.371590
  H      9.371560   -0.380550   -9.459590
  H      5.756420   -3.417140   -7.851050
  H      7.361170   -5.214860   -7.640500
  H      9.664340   -6.062670   -7.840720
  H     11.468340   -4.586340   -8.635590
  H     10.984030   -2.246730   -9.236680

 Total Charge           Charge          ....    0
 Multiplicity           Mult            ....    1
 Number of Electrons    NEL             ....  492
 Basis Dimension        Dim             .... 1096

ORBITAL ENERGIES
----------------

  NO   OCC          E(Eh)            E(eV)
   0   2.0000     -88.984998     -2421.4049
   1   2.0000     -88.918457     -2419.5942
   2   2.0000     -88.913632     -2419.4629
   3   2.0000     -24.818026      -675.3328
   4   2.0000     -24.816961      -675.3038
   5   2.0000     -19.237699      -523.4844
   6   2.0000     -19.216505      -522.9077
   7   2.0000     -14.433578      -392.7576
   8   2.0000     -14.428057      -392.6074
   9   2.0000     -14.427723      -392.5983
  10   2.0000     -14.426173      -392.5561
  11   2.0000     -14.421405      -392.4264
  12   2.0000     -14.420659      -392.4061
  13   2.0000     -14.416293      -392.2873
  14   2.0000     -14.410983      -392.1428
  15   2.0000     -10.389418      -282.7104
  16   2.0000     -10.388319      -282.6805
  17   2.0000     -10.385960      -282.6163
  18   2.0000     -10.369327      -282.1637
  19   2.0000     -10.358998      -281.8827
  20   2.0000     -10.356466      -281.8138
  21   2.0000     -10.356175      -281.8059
  22   2.0000     -10.351345      -281.6744
  23   2.0000     -10.348823      -281.6058
  24   2.0000     -10.346138      -281.5327
  25   2.0000     -10.345997      -281.5289
  26   2.0000     -10.343679      -281.4658
  27   2.0000     -10.343561      -281.4626
  28   2.0000     -10.343143      -281.4512
  29   2.0000     -10.342338      -281.4293
  30   2.0000     -10.341868      -281.4165
  31   2.0000     -10.340778      -281.3869
  32   2.0000     -10.340286      -281.3735
  33   2.0000     -10.336530      -281.2713
  34   2.0000     -10.336069      -281.2587
  35   2.0000     -10.335270      -281.2370
  36   2.0000     -10.334230      -281.2087
  37   2.0000     -10.329580      -281.0822
  38   2.0000     -10.329552      -281.0814
  39   2.0000     -10.326432      -280.9965
  40   2.0000     -10.319483      -280.8074
  41   2.0000     -10.319244      -280.8009
  42   2.0000     -10.318954      -280.7930
  43   2.0000     -10.318328      -280.7760
  44   2.0000     -10.317235      -280.7462
  45   2.0000     -10.315304      -280.6937
  46   2.0000     -10.312660      -280.6217
  47   2.0000     -10.311208      -280.5822
  48   2.0000     -10.310600      -280.5657
  49   2.0000     -10.310538      -280.5640
  50   2.0000     -10.310501      -280.5630
  51   2.0000     -10.310250      -280.5562
  52   2.0000     -10.310083      -280.5516
  53   2.0000     -10.309401      -280.5331
  54   2.0000     -10.307000      -280.4677
  55   2.0000     -10.306040      -280.4416
  56   2.0000     -10.303574      -280.3745
  57   2.0000     -10.301138      -280.3082
  58   2.0000     -10.297717      -280.2151
  59   2.0000     -10.297250      -280.2024
  60   2.0000     -10.297122      -280.1989
  61   2.0000     -10.296958      -280.1945
  62   2.0000     -10.296431      -280.1801
  63   2.0000     -10.296051      -280.1698
  64   2.0000     -10.295567      -280.1566
  65   2.0000     -10.291160      -280.0367
  66   2.0000     -10.289147      -279.9819
  67   2.0000     -10.288122      -279.9540
  68   2.0000     -10.287310      -279.9319
  69   2.0000     -10.286994      -279.9233
  70   2.0000     -10.283995      -279.8417
  71   2.0000      -8.077774      -219.8074
  72   2.0000      -8.013123      -218.0482
  73   2.0000      -8.008395      -217.9195
  74   2.0000      -6.047172      -164.5519
  75   2.0000      -6.043236      -164.4448
  76   2.0000      -6.039416      -164.3409
  77   2.0000      -5.981794      -162.7729
  78   2.0000      -5.981724      -162.7710
  79   2.0000      -5.977068      -162.6443
  80   2.0000      -5.976900      -162.6397
  81   2.0000      -5.972554      -162.5215
  82   2.0000      -5.967908      -162.3950
  83   2.0000      -1.337590       -36.3977
  84   2.0000      -1.325634       -36.0723
  85   2.0000      -1.152915       -31.3724
  86   2.0000      -1.133256       -30.8375
  87   2.0000      -1.096001       -29.8237
  88   2.0000      -1.093581       -29.7578
  89   2.0000      -1.076348       -29.2889
  90   2.0000      -1.073184       -29.2028
  91   2.0000      -1.033284       -28.1171
  92   2.0000      -1.017515       -27.6880
  93   2.0000      -1.016545       -27.6616
  94   2.0000      -1.013776       -27.5862
  95   2.0000      -1.007969       -27.4282
  96   2.0000      -0.997740       -27.1499
  97   2.0000      -0.991019       -26.9670
  98   2.0000      -0.985220       -26.8092
  99   2.0000      -0.978149       -26.6168
 100   2.0000      -0.975206       -26.5367
 101   2.0000      -0.970840       -26.4179
 102   2.0000      -0.941467       -25.6186
 103   2.0000      -0.929281       -25.2870
 104   2.0000      -0.928048       -25.2535
 105   2.0000      -0.923667       -25.1343
 106   2.0000      -0.915240       -24.9049
 107   2.0000      -0.899715       -24.4825
 108   2.0000      -0.893725       -24.3195
 109   2.0000      -0.893482       -24.3129
 110   2.0000      -0.885685       -24.1007
 111   2.0000      -0.879853       -23.9420
 112   2.0000      -0.869764       -23.6675
 113   2.0000      -0.866450       -23.5773
 114   2.0000      -0.853817       -23.2336
 115   2.0000      -0.851611       -23.1735
 116   2.0000      -0.842316       -22.9206
 117   2.0000      -0.841240       -22.8913
 118   2.0000      -0.828098       -22.5337
 119   2.0000      -0.826555       -22.4917
 120   2.0000      -0.807229       -21.9658
 121   2.0000      -0.798046       -21.7159
 122   2.0000      -0.787458       -21.4278
 123   2.0000      -0.777532       -21.1577
 124   2.0000      -0.776159       -21.1204
 125   2.0000      -0.761053       -20.7093
 126   2.0000      -0.757126       -20.6025
 127   2.0000      -0.749611       -20.3980
 128   2.0000      -0.730708       -19.8836
 129   2.0000      -0.725476       -19.7412
 130   2.0000      -0.717929       -19.5358
 131   2.0000      -0.715797       -19.4778
 132   2.0000      -0.711364       -19.3572
 133   2.0000      -0.709319       -19.3016
 134   2.0000      -0.706724       -19.2309
 135   2.0000      -0.702402       -19.1133
 136   2.0000      -0.701678       -19.0936
 137   2.0000      -0.693217       -18.8634
 138   2.0000      -0.690932       -18.8012
 139   2.0000      -0.680692       -18.5226
 140   2.0000      -0.675753       -18.3882
 141   2.0000      -0.662679       -18.0324
 142   2.0000      -0.657491       -17.8912
 143   2.0000      -0.656657       -17.8685
 144   2.0000      -0.642927       -17.4949
 145   2.0000      -0.640071       -17.4172
 146   2.0000      -0.638476       -17.3738
 147   2.0000      -0.630243       -17.1498
 148   2.0000      -0.625375       -17.0173
 149   2.0000      -0.622776       -16.9466
 150   2.0000      -0.619102       -16.8466
 151   2.0000      -0.613967       -16.7069
 152   2.0000      -0.606908       -16.5148
 153   2.0000      -0.602817       -16.4035
 154   2.0000      -0.600993       -16.3539
 155   2.0000      -0.591079       -16.0841
 156   2.0000      -0.585527       -15.9330
 157   2.0000      -0.581403       -15.8208
 158   2.0000      -0.579139       -15.7592
 159   2.0000      -0.572044       -15.5661
 160   2.0000      -0.569345       -15.4927
 161   2.0000      -0.566235       -15.4080
 162   2.0000      -0.560029       -15.2392
 163   2.0000      -0.558482       -15.1971
 164   2.0000      -0.555791       -15.1239
 165   2.0000      -0.554677       -15.0935
 166   2.0000      -0.552642       -15.0382
 167   2.0000      -0.551071       -14.9954
 168   2.0000      -0.548756       -14.9324
 169   2.0000      -0.547508       -14.8984
 170   2.0000      -0.543900       -14.8003
 171   2.0000      -0.541188       -14.7265
 172   2.0000      -0.537143       -14.6164
 173   2.0000      -0.536081       -14.5875
 174   2.0000      -0.532179       -14.4813
 175   2.0000      -0.529754       -14.4153
 176   2.0000      -0.524340       -14.2680
 177   2.0000      -0.522491       -14.2177
 178   2.0000      -0.520162       -14.1543
 179   2.0000      -0.519082       -14.1249
 180   2.0000      -0.516274       -14.0485
 181   2.0000      -0.513721       -13.9791
 182   2.0000      -0.511698       -13.9240
 183   2.0000      -0.510264       -13.8850
 184   2.0000      -0.508340       -13.8326
 185   2.0000      -0.504591       -13.7306
 186   2.0000      -0.504330       -13.7235
 187   2.0000      -0.500661       -13.6237
 188   2.0000      -0.499161       -13.5828
 189   2.0000      -0.498208       -13.5569
 190   2.0000      -0.496337       -13.5060
 191   2.0000      -0.493141       -13.4190
 192   2.0000      -0.491608       -13.3773
 193   2.0000      -0.489154       -13.3105
 194   2.0000      -0.486625       -13.2418
 195   2.0000      -0.481139       -13.0925
 196   2.0000      -0.477867       -13.0034
 197   2.0000      -0.472207       -12.8494
 198   2.0000      -0.468293       -12.7429
 199   2.0000      -0.465289       -12.6612
 200   2.0000      -0.461760       -12.5651
 201   2.0000      -0.458006       -12.4630
 202   2.0000      -0.452453       -12.3119
 203   2.0000      -0.448372       -12.2008
 204   2.0000      -0.447567       -12.1789
 205   2.0000      -0.447201       -12.1690
 206   2.0000      -0.445125       -12.1125
 207   2.0000      -0.444281       -12.0895
 208   2.0000      -0.442277       -12.0350
 209   2.0000      -0.440963       -11.9992
 210   2.0000      -0.439257       -11.9528
 211   2.0000      -0.438631       -11.9358
 212   2.0000      -0.434614       -11.8265
 213   2.0000      -0.433642       -11.8000
 214   2.0000      -0.429124       -11.6771
 215   2.0000      -0.425395       -11.5756
 216   2.0000      -0.422860       -11.5066
 217   2.0000      -0.420765       -11.4496
 218   2.0000      -0.419273       -11.4090
 219   2.0000      -0.417268       -11.3544
 220   2.0000      -0.408264       -11.1094
 221   2.0000      -0.404070       -10.9953
 222   2.0000      -0.402239       -10.9455
 223   2.0000      -0.392249       -10.6736
 224   2.0000      -0.381620       -10.3844
 225   2.0000      -0.374371       -10.1872
 226   2.0000      -0.368812       -10.0359
 227   2.0000      -0.368196       -10.0191
 228   2.0000      -0.365671        -9.9504
 229   2.0000      -0.362734        -9.8705
 230   2.0000      -0.355200        -9.6655
 231   2.0000      -0.354038        -9.6339
 232   2.0000      -0.343574        -9.3491
 233   2.0000      -0.338897        -9.2218
 234   2.0000      -0.338069        -9.1993
 235   2.0000      -0.332001        -9.0342
 236   2.0000      -0.328214        -8.9311
 237   2.0000      -0.327116        -8.9013
 238   2.0000      -0.321734        -8.7548
 239   2.0000      -0.311043        -8.4639
 240   2.0000      -0.304473        -8.2851
 241   2.0000      -0.303021        -8.2456
 242   2.0000      -0.299015        -8.1366
 243   2.0000      -0.291864        -7.9420
 244   2.0000      -0.290107        -7.8942
 245   2.0000      -0.276526        -7.5246
 246   0.0000      -0.130184        -3.5425
 247   0.0000      -0.119097        -3.2408
 248   0.0000      -0.109074        -2.9681
 249   0.0000      -0.094352        -2.5674
 250   0.0000      -0.082383        -2.2418

MULLIKEN ATOMIC CHARGES
-----------------------
   0 C :    0.296225
   1 C :   -0.330131
   2 C :   -0.182592
   3 N :    0.165162
   4 C :   -0.191028
   5 N :    0.152079
   6 C :    0.061411
   7 C :    0.034263
   8 C :   -0.087057
   9 C :    0.090646
  10 C :    0.089810
  11 C :   -0.074085
  12 C :   -0.029973
  13 C :    0.041027
  14 C :    0.028669
  15 C :   -0.014277
  16 C :    0.090571
  17 O :   -0.147644
  18 C :   -0.045528
  19 C :   -0.023025
  20 C :   -0.017354
  21 C :    0.085627
  22 N :   -0.042006
  23 C :    0.032146
  24 C :    0.016825
  25 C :   -0.017833
  26 S :   -0.100505
  27 C :   -0.011553
  28 C :    0.022041
  29 N :   -0.024505
  30 C :    0.064849
  31 C :    0.015713
  32 C :   -0.147384
  33 C :    0.201035
  34 F :   -0.168508
  35 C :    0.208609
  36 F :   -0.168381
  37 C :   -0.166536
  38 S :    0.231756
  39 C :    0.019287
  40 C :    0.050467
  41 N :   -0.010263
  42 C :   -0.005142
  43 C :   -0.036246
  44 C :    0.000196
  45 S :   -0.092479
  46 C :    0.027298
  47 C :    0.008341
  48 N :   -0.032712
  49 C :    0.115174
  50 C :   -0.027032
  51 C :   -0.036318
  52 C :   -0.096659
  53 C :    0.316316
  54 C :   -0.333888
  55 C :   -0.180694
  56 N :    0.165582
  57 C :   -0.183970
  58 N :    0.169225
  59 C :    0.051522
  60 C :   -0.013223
  61 C :    0.153372
  62 O :   -0.143975
  63 C :   -0.068846
  64 C :    0.095042
  65 C :    0.094805
  66 C :   -0.078201
  67 C :   -0.017289
  68 C :    0.040165
  69 C :    0.038515
  70 C :   -0.013598
  71 H :   -0.021302
  72 H :    0.013520
  73 H :   -0.004215
  74 H :   -0.011225
  75 H :    0.008345
  76 H :   -0.018916
  77 H :    0.035095
  78 H :    0.016722
  79 H :    0.022254
  80 H :    0.020622
  81 H :    0.012067
  82 H :    0.048279
  83 H :   -0.008825
  84 H :   -0.005692
  85 H :   -0.005382
  86 H :   -0.000316
  87 H :   -0.000710
  88 H :   -0.013654
Sum of atomic charges:   -0.0000000

LOEWDIN ATOMIC CHARGES
----------------------
   0 C :    0.077389
   1 C :   -0.127220
   2 C :   -0.020351
   3 N :   -0.038992
   4 C :   -0.017279
   5 N :   -0.049818
   6 C :   -0.023722
   7 C :   -0.056716
   8 C :    0.027757
   9 C :   -0.012109
  10 C :   -0.004072
  11 C :    0.032545
  12 C :   -0.002222
  13 C :   -0.021047
  14 C :   -0.016547
  15 C :   -0.014500
  16 C :    0.075943
  17 O :   -0.143165
  18 C :   -0.054387
  19 C :    0.054306
  20 C :   -0.046456
  21 C :    0.100598
  22 N :   -0.080646
  23 C :    0.046850
  24 C :   -0.005185
  25 C :   -0.145129
  26 S :    0.092231
  27 C :   -0.029135
  28 C :    0.048094
  29 N :   -0.071180
  30 C :    0.094814
  31 C :   -0.052614
  32 C :   -0.197666
  33 C :    0.026648
  34 F :   -0.042705
  35 C :    0.028212
  36 F :   -0.042545
  37 C :   -0.207057
  38 S :    0.523872
  39 C :   -0.051383
  40 C :    0.086715
  41 N :   -0.071227
  42 C :    0.030526
  43 C :   -0.046102
  44 C :   -0.145916
  45 S :    0.090798
  46 C :   -0.000986
  47 C :    0.041894
  48 N :   -0.090646
  49 C :    0.114830
  50 C :   -0.047456
  51 C :    0.075583
  52 C :   -0.077426
  53 C :    0.075298
  54 C :   -0.127871
  55 C :   -0.017933
  56 N :   -0.039514
  57 C :   -0.003935
  58 N :   -0.037700
  59 C :   -0.026104
  60 C :   -0.058963
  61 C :    0.090234
  62 O :   -0.123005
  63 C :    0.038721
  64 C :   -0.007312
  65 C :   -0.004046
  66 C :    0.024195
  67 C :   -0.003458
  68 C :   -0.008217
  69 C :   -0.007794
  70 C :   -0.007295
  71 H :    0.033172
  72 H :    0.040107
  73 H :    0.033741
  74 H :    0.029414
  75 H :    0.034280
  76 H :    0.030188
  77 H :    0.047560
  78 H :    0.030339
  79 H :    0.027557
  80 H :    0.026823
  81 H :    0.026617
  82 H :    0.047446
  83 H :    0.041179
  84 H :    0.040447
  85 H :    0.036378
  86 H :    0.035222
  87 H :    0.034763
  88 H :    0.033468

  Mayer bond orders larger than 0.100000
B(  0-C ,  1-C ) :   1.6729 B(  0-C ,  6-C ) :   1.0043 B(  0-C , 18-C ) :   1.0290
B(  1-C ,  2-C ) :   1.1314 B(  1-C ,  4-C ) :   1.1426 B(  2-C ,  3-N ) :   2.9849
B(  4-C ,  5-N ) :   2.9849 B(  6-C ,  7-C ) :   1.2032 B(  6-C , 11-C ) :   1.4319
B(  7-C ,  8-C ) :   1.4479 B(  7-C , 16-C ) :   0.9291 B(  8-C ,  9-C ) :   1.1884
B(  8-C , 71-H ) :   1.0171 B(  9-C , 10-C ) :   1.2506 B(  9-C , 15-C ) :   1.2277
B( 10-C , 11-C ) :   1.2246 B( 10-C , 12-C ) :   1.2342 B( 11-C , 72-H ) :   0.9851
B( 12-C , 13-C ) :   1.4800 B( 12-C , 73-H ) :   0.9954 B( 13-C , 14-C ) :   1.2517
B( 13-C , 74-H ) :   0.9849 B( 14-C , 15-C ) :   1.4946 B( 14-C , 75-H ) :   0.9829
B( 15-C , 76-H ) :   0.9979 B( 16-C , 17-O ) :   2.2426 B( 16-C , 18-C ) :   0.9034
B( 18-C , 19-C ) :   1.7557 B( 19-C , 20-C ) :   1.0226 B( 19-C , 77-H ) :   0.9366
B( 20-C , 21-C ) :   1.0304 B( 20-C , 24-C ) :   1.6100 B( 21-C , 22-N ) :   1.7197
B( 21-C , 78-H ) :   0.9959 B( 22-N , 23-C ) :   1.2838 B( 23-C , 24-C ) :   1.0424
B( 23-C , 28-C ) :   1.5098 B( 24-C , 25-C ) :   1.0058 B( 25-C , 26-S ) :   1.6895
B( 25-C , 27-C ) :   1.0335 B( 27-C , 28-C ) :   1.0529 B( 27-C , 31-C ) :   1.5322
B( 28-C , 29-N ) :   1.2776 B( 29-N , 30-C ) :   1.7308 B( 30-C , 31-C ) :   1.0402
B( 30-C , 79-H ) :   0.9874 B( 31-C , 32-C ) :   1.1336 B( 32-C , 33-C ) :   1.4091
B( 32-C , 37-C ) :   0.1247 B( 32-C , 38-S ) :   1.1073 B( 33-C , 34-F ) :   1.1401
B( 33-C , 35-C ) :   1.2521 B( 35-C , 36-F ) :   1.1387 B( 35-C , 37-C ) :   1.4009
B( 37-C , 38-S ) :   1.1053 B( 37-C , 39-C ) :   1.1367 B( 39-C , 40-C ) :   1.0359
B( 39-C , 43-C ) :   1.5083 B( 40-C , 41-N ) :   1.7158 B( 40-C , 80-H ) :   0.9878
B( 41-N , 42-C ) :   1.2759 B( 42-C , 43-C ) :   1.0814 B( 42-C , 47-C ) :   1.5032
B( 43-C , 44-C ) :   1.0170 B( 44-C , 45-S ) :   1.7180 B( 44-C , 46-C ) :   1.0093
B( 46-C , 47-C ) :   1.0609 B( 46-C , 50-C ) :   1.5722 B( 47-C , 48-N ) :   1.2763
B( 48-N , 49-C ) :   1.7094 B( 49-C , 50-C ) :   0.9918 B( 49-C , 81-H ) :   0.9877
B( 50-C , 51-C ) :   1.0713 B( 51-C , 52-C ) :   1.6702 B( 51-C , 82-H ) :   0.9387
B( 52-C , 53-C ) :   1.0211 B( 52-C , 61-C ) :   0.9388 B( 53-C , 54-C ) :   1.6604
B( 53-C , 59-C ) :   1.0032 B( 54-C , 55-C ) :   1.1391 B( 54-C , 57-C ) :   1.1470
B( 55-C , 56-N ) :   2.9695 B( 57-C , 58-N ) :   2.9525 B( 59-C , 60-C ) :   1.2082
B( 59-C , 66-C ) :   1.4465 B( 60-C , 61-C ) :   0.9536 B( 60-C , 63-C ) :   1.4684
B( 61-C , 62-O ) :   2.1894 B( 63-C , 64-C ) :   1.1833 B( 63-C , 83-H ) :   1.0154
B( 64-C , 65-C ) :   1.2524 B( 64-C , 70-C ) :   1.2432 B( 65-C , 66-C ) :   1.2097
B( 65-C , 67-C ) :   1.2400 B( 66-C , 84-H ) :   0.9888 B( 67-C , 68-C ) :   1.4908
B( 67-C , 85-H ) :   0.9965 B( 68-C , 69-C ) :   1.2603 B( 68-C , 86-H ) :   0.9879
B( 69-C , 70-C ) :   1.4890 B( 69-C , 87-H ) :   0.9887 B( 70-C , 88-H ) :   0.9973

-----------------------------------------------------------------------------
         ABSORPTION SPECTRUM VIA TRANSITION ELECTRIC DIPOLE MOMENTS
-----------------------------------------------------------------------------
State   Energy  Wavelength   fosc         T2         TX        TY        TZ
        (cm-1)    (nm)                  (au**2)     (au)      (au)      (au)
-----------------------------------------------------------------------------
   0   14988.1    667.2   0.122119090   2.68232  -1.01579   0.85431   0.95951
   1   15400.5    649.3   0.024260464   0.51861   0.51674  -0.28242  -0.41452
   2   15830.4    631.7   0.032663577   0.67928   0.40207  -0.52225  -0.49484
   3   16291.6    613.8   0.008698970   0.17578  -0.26264  -0.31022   0.10278
   4   16712.7    598.3   0.011163565   0.21990   0.36116   0.22436  -0.19782
   5   17015.8    587.7   0.031144226   0.60256  -0.61765  -0.39914   0.24850
   6   18293.5    546.6   0.012046979   0.21680  -0.45988  -0.01085   0.07204
   7   18972.7    527.1   0.106294679   1.84441   0.98707  -0.34166  -0.86797
   8   19509.3    512.6   0.025914339   0.43730  -0.14964   0.34216   0.54574
   9   20231.7    494.3   0.029930489   0.48703  -0.47224  -0.27020   0.43705
  10   21256.4    470.4   0.013274300   0.20559   0.36814  -0.25746  -0.06141
  11   21350.7    468.4   0.007928423   0.12225  -0.25935  -0.15845   0.17286
  12   22382.9    446.8   0.009884849   0.14539   0.33497   0.06004   0.17199
  13   22860.1    437.4   0.007377556   0.10625   0.30648   0.09539   0.05674
  14   22911.6    436.5   0.042053681   0.60426  -0.72590  -0.12805  -0.24684
  15   23629.8    423.2   0.159306960   2.21948   0.21255  -1.40439  -0.44945
  16   23782.1    420.5   0.058356802   0.80782   0.31969   0.78722   0.29310
  17   24116.8    414.6   0.014239982   0.19439  -0.42641  -0.09546   0.05875
  18   24282.9    411.8   0.018853144   0.25560  -0.22884  -0.38962  -0.22677
  19   24620.9    406.2   0.022015812   0.29438   0.34245  -0.39344  -0.14939
  20   24649.1    405.7   0.014933717   0.19945   0.27616  -0.34349  -0.07213
  21   24705.9    404.8   0.127303583   1.69635  -0.64389   1.09946   0.27007
  22   24871.6    402.1   0.023407526   0.30983   0.04731  -0.54514  -0.10207
  23   25211.5    396.6   0.246156588   3.21432  -0.28323   1.71105   0.45431
  24   25717.2    388.8   0.000598165   0.00766   0.02114   0.06396   0.05585
  25   26197.6    381.7   0.032297385   0.40586  -0.32710  -0.48429   0.25364
  26   26456.4    378.0   0.032091018   0.39933   0.50393   0.31178  -0.21950
  27   26555.2    376.6   0.002706902   0.03356  -0.16726   0.06714   0.03277
  28   26737.7    374.0   0.005885548   0.07247  -0.21643  -0.14929   0.05778
  29   27002.3    370.3   0.040066130   0.48849   0.43647   0.49723  -0.22527
  30   27224.2    367.3   0.016867978   0.20398  -0.33506   0.28309   0.10757
  31   27439.4    364.4   0.035865574   0.43031   0.41989  -0.20903  -0.45859
  32   27738.1    360.5   0.001728696   0.02052  -0.03549   0.12870  -0.05190
  33   27830.1    359.3   0.029378293   0.34753   0.16134   0.56517  -0.04564
  34   27851.0    359.1   0.005727660   0.06770   0.06718   0.05053  -0.24625
  35   28068.9    356.3   0.095344434   1.11827   0.36275   0.60314   0.78924
  36   28217.9    354.4   0.090219760   1.05257   0.13428  -0.52589  -0.87062
  37   28293.0    353.4   0.106463867   1.23879   0.32937  -0.93726  -0.50186
  38   28431.2    351.7   0.015165596   0.17561  -0.18510   0.34985   0.13766
  39   28585.8    349.8   0.072251346   0.83209   0.45000   0.70632   0.36154
  40   28972.9    345.1   0.046779680   0.53155  -0.32406   0.54461   0.36046
  41   29406.9    340.1   0.059591640   0.66713  -0.60952  -0.44041  -0.31884
  42   29610.0    337.7   0.037626821   0.41834  -0.42385  -0.01002   0.48846
  43   29770.5    335.9   0.092929631   1.02765  -0.40609   0.84001   0.39639
  44   29849.6    335.0   0.013367207   0.14743  -0.13201   0.13727  -0.33341
  45   30200.8    331.1   0.038035948   0.41462   0.19712   0.59659  -0.14089
  46   30260.8    330.5   0.273263522   2.97288  -1.23130  -0.42625   1.12919
  47   30676.5    326.0   0.122431850   1.31390   0.54959   0.97651   0.24140
  48   30783.9    324.8   0.066102045   0.70691   0.44481  -0.19247  -0.68703
  49   30950.4    323.1   0.051627199   0.54915  -0.17327  -0.71721  -0.06883
  50   31170.9    320.8   0.480678802   5.07670  -1.68942   1.14252   0.95772
  51   31244.0    320.1   0.108346587   1.14163   0.00075  -0.74361  -0.76725
  52   31460.5    317.9   0.116553395   1.21965  -0.75023   0.80984  -0.03114
  53   31492.0    317.5   0.143086409   1.49580  -0.59312   1.01135  -0.34811
  54   31699.8    315.5   0.095151295   0.98818   0.05178   0.95001   0.28806
  55   31862.2    313.9   0.048912028   0.50538  -0.33687  -0.62516  -0.03265
  56   32142.1    311.1   0.075572617   0.77404   0.59480   0.18180  -0.62225
  57   32236.2    310.2   0.105389528   1.07629  -0.02183   0.88366   0.54309
  58   32339.2    309.2   0.010659289   0.10851   0.04857  -0.03598  -0.32382
  59   32424.2    308.4   0.020465673   0.20779   0.37772   0.25006   0.05095
  60   32705.4    305.8   0.066507316   0.66946   0.54589  -0.48714  -0.36628
  61   32979.7    303.2   0.177928533   1.77613  -0.47679   1.18455   0.38163
  62   33044.7    302.6   0.036520385   0.36384  -0.12214   0.58974  -0.03350
  63   33149.7    301.7   0.140637156   1.39668   0.96413  -0.55438  -0.39974
  64   33552.3    298.0   0.006891125   0.06762  -0.06179   0.07711   0.24052
  65   33691.0    296.8   0.095054058   0.92882   0.57468   0.63519   0.44169
  66   33821.1    295.7   0.066543927   0.64773   0.28903   0.25777   0.70552
  67   33920.8    294.8   0.042044886   0.40806  -0.27583  -0.16923   0.55076
  68   34087.9    293.4   0.114365597   1.10451   0.17310   1.02283   0.16841
  69   34219.8    292.2   0.072225527   0.69485  -0.59463   0.56796  -0.13670
  70   34244.1    292.0   0.013968161   0.13429   0.23704  -0.14302   0.24009
  71   34279.9    291.7   0.145269086   1.39511   1.08460  -0.46465   0.05345
  72   34423.3    290.5   0.053728249   0.51384   0.40878  -0.54837  -0.21452
  73   34455.0    290.2   0.061427819   0.58693  -0.66252   0.38467  -0.00540
  74   34713.0    288.1   0.029600617   0.28073   0.17549   0.38668   0.31688
  75   34749.8    287.8   0.050721562   0.48053   0.27139   0.62714   0.11651
  76   34915.1    286.4   0.068781042   0.64853   0.20918   0.77642   0.04412
  77   35147.4    284.5   0.016561828   0.15513   0.04477   0.20518   0.33320
  78   35220.8    283.9   0.046430915   0.43399  -0.40330  -0.48544  -0.18894
  79   35287.6    283.4   0.164535297   1.53501  -0.25847  -1.16685  -0.32662
  80   35608.6    280.8   0.065058625   0.60149  -0.24582  -0.70353   0.21472
  81   35635.1    280.6   0.060527271   0.55918  -0.40215  -0.59380   0.21179
  82   35764.0    279.6   0.042001390   0.38663  -0.13926   0.53351   0.28741
  83   35800.8    279.3   0.042061802   0.38679  -0.35040  -0.18885   0.47785
  84   36124.4    276.8   0.083046409   0.75683  -0.56766  -0.63105   0.19069
  85   36323.4    275.3   0.029488134   0.26726  -0.38137   0.31483   0.15066
  86   36518.3    273.8   0.177952341   1.60424   0.76450   0.54229  -0.85188
  87   36598.4    273.2   0.014930435   0.13430   0.00855  -0.35268  -0.09925
  88   36720.2    272.3   0.074522197   0.66812  -0.63385  -0.42815   0.28818
  89   37253.6    268.4   0.007625224   0.06738  -0.21092  -0.11290  -0.10076
  90   37349.4    267.7   0.083087755   0.73237   0.69662   0.47753   0.13805
  91   37616.9    265.8   0.152866481   1.33784  -1.03815   0.46990  -0.19820
  92   37700.6    265.2   0.159122417   1.38950  -0.75358  -0.78073   0.46051
  93   37857.9    264.1   0.021357260   0.18572  -0.33470   0.10064   0.25213
  94   38264.1    261.3   0.093609925   0.80539   0.70773   0.54941   0.05146
  95   38410.7    260.3   0.058465768   0.50110  -0.50801  -0.47715   0.12389
  96   38518.8    259.6   0.020732358   0.17720   0.31027  -0.24375  -0.14668
  97   38566.1    259.3   0.015245758   0.13014   0.31125  -0.08886  -0.15929
  98   38801.8    257.7   0.250278704   2.12347  -0.80285  -1.05328   0.60787
  99   38931.8    256.9   0.085073269   0.71939   0.59938   0.07945  -0.59482
 100   39131.7    255.5   0.027222831   0.22902  -0.19619  -0.32721   0.28891
 101   39283.6    254.6   0.010766460   0.09023  -0.04897  -0.25303  -0.15428
 102   39548.4    252.9   0.002989804   0.02489  -0.02889   0.10118  -0.11754
 103   39631.1    252.3   0.013170074   0.10940   0.23666  -0.08401   0.21525
 104   39760.2    251.5   0.143903554   1.19151   0.82081  -0.24028  -0.67826
 105   39958.5    250.3   0.142425104   1.17342   0.57815   0.16014  -0.90195
 106   40168.8    248.9   0.010583458   0.08674  -0.08472   0.21299  -0.18492
 107   40305.7    248.1   0.087362424   0.71357  -0.53099  -0.22443   0.61745

FINAL SINGLE POINT ENERGY     -4123.219808808124

DIPOLE MOMENT
-------------
                                X             Y             Z
Electronic contribution:    -16.92235      39.77175      24.84956
Nuclear contribution   :     20.85596     -40.25717     -25.84796
                        -----------------------------------------
Total Dipole Moment    :      3.93361      -0.48542      -0.99840
                        -----------------------------------------
Magnitude (a.u.)       :      4.08726
Magnitude (Debye)      :     10.38899

Rotational constants in cm-1:     0.001451     0.000672     0.000549
Rotational constants in MHz :    43.490789    20.133337    16.468021

                             ****ORCA TERMINATED NORMALLY****
TOTAL RUN TIME: 0 days 0 hours 15 minutes 8 seconds 200 msec
