                         Program Version 4.2.0 -  RELEASE  -
|  1> # ORCA input file
|  2> # SCF done       -182.749069576534          0.000560685343
|  3> ! CAM-B3LYP def2-SVP def2/J RIJCOSX Grid4 TightSCF
|  4> %maxcore 5000
|  5> %tddft
|  6>     Mode sTDDFT
|  7>     Ethresh 5.0
|  8>     maxcore 5000
|  9> end
| 10>
| 11> %pal
| 12>   nprocs 6
| 13>   end
| 14> * xyz 0 1
| 15>    C       -0.98392         5.29159        -2.97015
| 16>    C        0.24424         4.68672        -3.02715
| 17>    C        1.11119         4.78267        -4.13441
| 18>    N        1.84355         4.83766        -5.01597
| 19>    C        0.71242         3.81919        -2.01954
| 20>    N        1.08718         3.07679        -1.22801
| 21>    C       -1.65354         5.96938        -4.07265
| 22>    C       -3.05713         5.97521        -3.81481
| 23>    C       -3.94405         6.51693        -4.70049
| 24>    C       -3.45886         7.09750        -5.89409
| 25>    C       -2.05624         7.10827        -6.14838
| 26>    C       -1.16067         6.53128        -5.21879
| 27>    C       -1.58622         7.69916        -7.33859
| 28>    C       -2.45771         8.25178        -8.23734
| 29>    C       -3.83808         8.23954        -7.98724
| 30>    C       -4.32801         7.67399        -6.84128
| 31>    C       -3.31598         5.35000        -2.50704
| 32>    O       -4.37816         5.11313        -1.97921
| 33>    C       -1.96385         5.11755        -1.91745
| 34>    C       -1.83864         4.89796        -0.58266
| 35>    C       -0.69638         5.07850         0.23758
| 36>    S        0.53096         6.23675        -0.18420
| 37>    C        1.33967         5.92088         1.30578
| 38>    N        2.52392         6.63233         1.58555
| 39>    O        3.07627         6.40661         2.64278
| 40>    O        2.89768         7.42482         0.74334
| 41>    C        0.72101         4.98260         2.08228
| 42>    C       -0.46152         4.48535         1.49120
| 43>    C       -1.29690         3.46486         2.03960
| 44>    C       -1.09059         2.85625         3.23193
| 45>    C       -1.90757         1.82948         3.77027
| 46>    N       -1.61074         1.26745         4.99470
| 47>    C       -2.52885         0.30597         5.26576
| 48>    C       -2.91133        -0.65425         6.19117
| 49>    C       -4.05240        -1.27515         5.65717
| 50>    N       -4.35902        -0.70253         4.43844
| 51>    C       -3.44065         0.26145         4.17453
| 52>    C       -3.05209         1.21466         3.24173
| 53>    C       -4.78220        -2.32035         6.26496
| 54>    C       -5.87453        -2.94799         5.74759
| 55>    C       -6.60319        -3.98394         6.38133
| 56>    S       -7.54439        -5.05813         5.39341
| 57>    C       -7.94338        -6.00680         6.78725
| 58>    N       -8.77235        -7.12368         6.60971
| 59>    O       -9.05074        -7.78443         7.59201
| 60>    O       -9.15475        -7.34693         5.47365
| 61>    C       -7.39900        -5.52369         7.94637
| 62>    C       -6.64938        -4.34822         7.74214
| 63>    C       -6.10247        -3.55400         8.79904
| 64>    C       -5.78068        -4.00690        10.03554
| 65>    C       -5.22622        -3.13067        10.99895
| 66>    C       -4.81598        -3.48791        12.24978
| 67>    C       -4.20518        -2.61706        13.23584
| 68>    C       -3.69360        -1.36371        13.01136
| 69>    C       -3.10923        -0.55852        14.01086
| 70>    N       -2.63277         0.14926        14.77913
| 71>    C       -3.62578        -0.73085        11.75372
| 72>    N       -3.50535        -0.17116        10.75715
| 73>    C       -4.14641        -3.34738        14.49592
| 74>    C       -4.60579        -4.67753        14.27183
| 75>    C       -5.00934        -4.82827        12.86256
| 76>    O       -5.42418        -5.83485        12.32802
| 77>    C       -4.63727        -5.60690        15.27072
| 78>    C       -4.20848        -5.24108        16.56647
| 79>    C       -3.75994        -3.90925        16.80200
| 80>    C       -3.73528        -2.96879        15.74672
| 81>    C       -3.33941        -3.55416        18.09991
| 82>    C       -3.35673        -4.47002        19.11642
| 83>    C       -3.79617        -5.78161        18.88273
| 84>    C       -4.21346        -6.15879        17.63498
| 85>    H       -5.00378         6.50565        -4.49310
| 86>    H       -0.10257         6.55956        -5.42809
| 87>    H       -0.52296         7.70342        -7.52793
| 88>    H       -2.08788         8.70153        -9.14646
| 89>    H       -4.51131         8.68087        -8.70673
| 90>    H       -5.38988         7.66194        -6.64366
| 91>    H       -2.76273         4.64509        -0.07135
| 92>    H        1.11997         4.67952         3.03238
| 93>    H       -2.13900         3.15868         1.43897
| 94>    H       -0.24457         3.14422         3.84101
| 95>    H       -0.83643         1.53776         5.57691
| 96>    H       -2.46177        -0.89125         7.13417
| 97>    H       -5.12904        -0.97064         3.85150
| 98>    H       -3.51312         1.44516         2.30345
| 99>    H       -4.38094        -2.65016         7.21135
|100>    H       -6.20229        -2.70937         4.74418
|101>    H       -7.57027        -5.98305         8.90298
|102>    H       -5.95252        -2.50446         8.57820
|103>    H       -5.88909        -5.04782        10.29798
|104>    H       -5.12347        -2.09551        10.69667
|105>    H       -4.98452        -6.61046        15.07434
|106>    H       -3.39362        -1.96761        15.95713
|107>    H       -3.00048        -2.54351        18.27453
|108>    H       -3.03120        -4.18878        20.10672
|109>    H       -3.80268        -6.49159        19.69617
|110>    H       -4.55338        -7.16713        17.44918
|111> *
|112>
|113>                          ****END OF INPUT****

CARTESIAN COORDINATES (ANGSTROEM)
---------------------------------
  C     -0.983920    5.291590   -2.970150
  C      0.244240    4.686720   -3.027150
  C      1.111190    4.782670   -4.134410
  N      1.843550    4.837660   -5.015970
  C      0.712420    3.819190   -2.019540
  N      1.087180    3.076790   -1.228010
  C     -1.653540    5.969380   -4.072650
  C     -3.057130    5.975210   -3.814810
  C     -3.944050    6.516930   -4.700490
  C     -3.458860    7.097500   -5.894090
  C     -2.056240    7.108270   -6.148380
  C     -1.160670    6.531280   -5.218790
  C     -1.586220    7.699160   -7.338590
  C     -2.457710    8.251780   -8.237340
  C     -3.838080    8.239540   -7.987240
  C     -4.328010    7.673990   -6.841280
  C     -3.315980    5.350000   -2.507040
  O     -4.378160    5.113130   -1.979210
  C     -1.963850    5.117550   -1.917450
  C     -1.838640    4.897960   -0.582660
  C     -0.696380    5.078500    0.237580
  S      0.530960    6.236750   -0.184200
  C      1.339670    5.920880    1.305780
  N      2.523920    6.632330    1.585550
  O      3.076270    6.406610    2.642780
  O      2.897680    7.424820    0.743340
  C      0.721010    4.982600    2.082280
  C     -0.461520    4.485350    1.491200
  C     -1.296900    3.464860    2.039600
  C     -1.090590    2.856250    3.231930
  C     -1.907570    1.829480    3.770270
  N     -1.610740    1.267450    4.994700
  C     -2.528850    0.305970    5.265760
  C     -2.911330   -0.654250    6.191170
  C     -4.052400   -1.275150    5.657170
  N     -4.359020   -0.702530    4.438440
  C     -3.440650    0.261450    4.174530
  C     -3.052090    1.214660    3.241730
  C     -4.782200   -2.320350    6.264960
  C     -5.874530   -2.947990    5.747590
  C     -6.603190   -3.983940    6.381330
  S     -7.544390   -5.058130    5.393410
  C     -7.943380   -6.006800    6.787250
  N     -8.772350   -7.123680    6.609710
  O     -9.050740   -7.784430    7.592010
  O     -9.154750   -7.346930    5.473650
  C     -7.399000   -5.523690    7.946370
  C     -6.649380   -4.348220    7.742140
  C     -6.102470   -3.554000    8.799040
  C     -5.780680   -4.006900   10.035540
  C     -5.226220   -3.130670   10.998950
  C     -4.815980   -3.487910   12.249780
  C     -4.205180   -2.617060   13.235840
  C     -3.693600   -1.363710   13.011360
  C     -3.109230   -0.558520   14.010860
  N     -2.632770    0.149260   14.779130
  C     -3.625780   -0.730850   11.753720
  N     -3.505350   -0.171160   10.757150
  C     -4.146410   -3.347380   14.495920
  C     -4.605790   -4.677530   14.271830
  C     -5.009340   -4.828270   12.862560
  O     -5.424180   -5.834850   12.328020
  C     -4.637270   -5.606900   15.270720
  C     -4.208480   -5.241080   16.566470
  C     -3.759940   -3.909250   16.802000
  C     -3.735280   -2.968790   15.746720
  C     -3.339410   -3.554160   18.099910
  C     -3.356730   -4.470020   19.116420
  C     -3.796170   -5.781610   18.882730
  C     -4.213460   -6.158790   17.634980
  H     -5.003780    6.505650   -4.493100
  H     -0.102570    6.559560   -5.428090
  H     -0.522960    7.703420   -7.527930
  H     -2.087880    8.701530   -9.146460
  H     -4.511310    8.680870   -8.706730
  H     -5.389880    7.661940   -6.643660
  H     -2.762730    4.645090   -0.071350
  H      1.119970    4.679520    3.032380
  H     -2.139000    3.158680    1.438970
  H     -0.244570    3.144220    3.841010
  H     -0.836430    1.537760    5.576910
  H     -2.461770   -0.891250    7.134170
  H     -5.129040   -0.970640    3.851500
  H     -3.513120    1.445160    2.303450
  H     -4.380940   -2.650160    7.211350
  H     -6.202290   -2.709370    4.744180
  H     -7.570270   -5.983050    8.902980
  H     -5.952520   -2.504460    8.578200
  H     -5.889090   -5.047820   10.297980
  H     -5.123470   -2.095510   10.696670
  H     -4.984520   -6.610460   15.074340
  H     -3.393620   -1.967610   15.957130
  H     -3.000480   -2.543510   18.274530
  H     -3.031200   -4.188780   20.106720
  H     -3.802680   -6.491590   19.696170
  H     -4.553380   -7.167130   17.449180

 Total Charge           Charge          ....    0
 Multiplicity           Mult            ....    1
 Number of Electrons    NEL             ....  486
 Basis Dimension        Dim             .... 1118

ORBITAL ENERGIES
----------------

  NO   OCC          E(Eh)            E(eV)
   0   2.0000     -88.987580     -2421.4752
   1   2.0000     -88.982067     -2421.3251
   2   2.0000     -19.250096      -523.8217
   3   2.0000     -19.249710      -523.8112
   4   2.0000     -19.238011      -523.4929
   5   2.0000     -19.237561      -523.4807
   6   2.0000     -19.221542      -523.0447
   7   2.0000     -19.215539      -522.8814
   8   2.0000     -14.660443      -398.9309
   9   2.0000     -14.649041      -398.6207
  10   2.0000     -14.474432      -393.8693
  11   2.0000     -14.472857      -393.8265
  12   2.0000     -14.419554      -392.3760
  13   2.0000     -14.419195      -392.3663
  14   2.0000     -14.419139      -392.3647
  15   2.0000     -14.414319      -392.2336
  16   2.0000     -10.372879      -282.2604
  17   2.0000     -10.366226      -282.0793
  18   2.0000     -10.358707      -281.8747
  19   2.0000     -10.349432      -281.6224
  20   2.0000     -10.346500      -281.5426
  21   2.0000     -10.345146      -281.5057
  22   2.0000     -10.341012      -281.3932
  23   2.0000     -10.340371      -281.3758
  24   2.0000     -10.336822      -281.2792
  25   2.0000     -10.332582      -281.1639
  26   2.0000     -10.328608      -281.0557
  27   2.0000     -10.324914      -280.9552
  28   2.0000     -10.322908      -280.9006
  29   2.0000     -10.321674      -280.8670
  30   2.0000     -10.321486      -280.8619
  31   2.0000     -10.320837      -280.8443
  32   2.0000     -10.318386      -280.7776
  33   2.0000     -10.317551      -280.7548
  34   2.0000     -10.315584      -280.7013
  35   2.0000     -10.314103      -280.6610
  36   2.0000     -10.312759      -280.6244
  37   2.0000     -10.311007      -280.5768
  38   2.0000     -10.309476      -280.5351
  39   2.0000     -10.309226      -280.5283
  40   2.0000     -10.309066      -280.5239
  41   2.0000     -10.308484      -280.5081
  42   2.0000     -10.307864      -280.4912
  43   2.0000     -10.306411      -280.4517
  44   2.0000     -10.304439      -280.3980
  45   2.0000     -10.302401      -280.3426
  46   2.0000     -10.302330      -280.3407
  47   2.0000     -10.302154      -280.3359
  48   2.0000     -10.301749      -280.3248
  49   2.0000     -10.301333      -280.3135
  50   2.0000     -10.301194      -280.3097
  51   2.0000     -10.297529      -280.2100
  52   2.0000     -10.297288      -280.2035
  53   2.0000     -10.296959      -280.1945
  54   2.0000     -10.296717      -280.1879
  55   2.0000     -10.295964      -280.1674
  56   2.0000     -10.295659      -280.1591
  57   2.0000     -10.294924      -280.1391
  58   2.0000     -10.290156      -280.0094
  59   2.0000     -10.289745      -279.9982
  60   2.0000     -10.289476      -279.9909
  61   2.0000     -10.288919      -279.9757
  62   2.0000     -10.287889      -279.9477
  63   2.0000     -10.287220      -279.9295
  64   2.0000     -10.286541      -279.9110
  65   2.0000     -10.285968      -279.8954
  66   2.0000     -10.285788      -279.8905
  67   2.0000     -10.285359      -279.8789
  68   2.0000     -10.283991      -279.8416
  69   2.0000     -10.280768      -279.7539
  70   2.0000      -8.082458      -219.9349
  71   2.0000      -8.077748      -219.8067
  72   2.0000      -6.051957      -164.6821
  73   2.0000      -6.047578      -164.5630
  74   2.0000      -6.047136      -164.5509
  75   2.0000      -6.044284      -164.4733
  76   2.0000      -6.042854      -164.4344
  77   2.0000      -6.039625      -164.3465
  78   2.0000      -1.332058       -36.2471
  79   2.0000      -1.318836       -35.8873
  80   2.0000      -1.151407       -31.3314
  81   2.0000      -1.137884       -30.9634
  82   2.0000      -1.136488       -30.9254
  83   2.0000      -1.129965       -30.7479
  84   2.0000      -1.106349       -30.1053
  85   2.0000      -1.069965       -29.1152
  86   2.0000      -1.028306       -27.9816
  87   2.0000      -1.018760       -27.7219
  88   2.0000      -1.018350       -27.7107
  89   2.0000      -1.016625       -27.6638
  90   2.0000      -1.002751       -27.2862
  91   2.0000      -0.999050       -27.1855
  92   2.0000      -0.997346       -27.1392
  93   2.0000      -0.994515       -27.0621
  94   2.0000      -0.976419       -26.5697
  95   2.0000      -0.971381       -26.4326
  96   2.0000      -0.937740       -25.5172
  97   2.0000      -0.937164       -25.5015
  98   2.0000      -0.929456       -25.2918
  99   2.0000      -0.928217       -25.2581
 100   2.0000      -0.919509       -25.0211
 101   2.0000      -0.917049       -24.9542
 102   2.0000      -0.900242       -24.4968
 103   2.0000      -0.897032       -24.4095
 104   2.0000      -0.891066       -24.2471
 105   2.0000      -0.885696       -24.1010
 106   2.0000      -0.883680       -24.0462
 107   2.0000      -0.880953       -23.9719
 108   2.0000      -0.876497       -23.8507
 109   2.0000      -0.871015       -23.7015
 110   2.0000      -0.864270       -23.5180
 111   2.0000      -0.852776       -23.2052
 112   2.0000      -0.835329       -22.7305
 113   2.0000      -0.832685       -22.6585
 114   2.0000      -0.828073       -22.5330
 115   2.0000      -0.820244       -22.3200
 116   2.0000      -0.811583       -22.0843
 117   2.0000      -0.793907       -21.6033
 118   2.0000      -0.784104       -21.3366
 119   2.0000      -0.767261       -20.8782
 120   2.0000      -0.761370       -20.7179
 121   2.0000      -0.760580       -20.6964
 122   2.0000      -0.745955       -20.2985
 123   2.0000      -0.722052       -19.6480
 124   2.0000      -0.715572       -19.4717
 125   2.0000      -0.708602       -19.2821
 126   2.0000      -0.708499       -19.2792
 127   2.0000      -0.707725       -19.2582
 128   2.0000      -0.703639       -19.1470
 129   2.0000      -0.702971       -19.1288
 130   2.0000      -0.694654       -18.9025
 131   2.0000      -0.687676       -18.7126
 132   2.0000      -0.682482       -18.5713
 133   2.0000      -0.678876       -18.4732
 134   2.0000      -0.666368       -18.1328
 135   2.0000      -0.665094       -18.0981
 136   2.0000      -0.660120       -17.9628
 137   2.0000      -0.655547       -17.8383
 138   2.0000      -0.651071       -17.7165
 139   2.0000      -0.641766       -17.4633
 140   2.0000      -0.640413       -17.4265
 141   2.0000      -0.638610       -17.3775
 142   2.0000      -0.637191       -17.3388
 143   2.0000      -0.634703       -17.2711
 144   2.0000      -0.630457       -17.1556
 145   2.0000      -0.630279       -17.1508
 146   2.0000      -0.617238       -16.7959
 147   2.0000      -0.613445       -16.6927
 148   2.0000      -0.611785       -16.6475
 149   2.0000      -0.609452       -16.5840
 150   2.0000      -0.606443       -16.5022
 151   2.0000      -0.597162       -16.2496
 152   2.0000      -0.587752       -15.9935
 153   2.0000      -0.586273       -15.9533
 154   2.0000      -0.584435       -15.9033
 155   2.0000      -0.578407       -15.7393
 156   2.0000      -0.575984       -15.6733
 157   2.0000      -0.566884       -15.4257
 158   2.0000      -0.564025       -15.3479
 159   2.0000      -0.556465       -15.1422
 160   2.0000      -0.553069       -15.0498
 161   2.0000      -0.551589       -15.0095
 162   2.0000      -0.550643       -14.9838
 163   2.0000      -0.548708       -14.9311
 164   2.0000      -0.546424       -14.8689
 165   2.0000      -0.542947       -14.7743
 166   2.0000      -0.540514       -14.7081
 167   2.0000      -0.538788       -14.6612
 168   2.0000      -0.536007       -14.5855
 169   2.0000      -0.534930       -14.5562
 170   2.0000      -0.532172       -14.4811
 171   2.0000      -0.525307       -14.2943
 172   2.0000      -0.523877       -14.2554
 173   2.0000      -0.520132       -14.1535
 174   2.0000      -0.517774       -14.0893
 175   2.0000      -0.517293       -14.0763
 176   2.0000      -0.514065       -13.9884
 177   2.0000      -0.513700       -13.9785
 178   2.0000      -0.510387       -13.8883
 179   2.0000      -0.506937       -13.7945
 180   2.0000      -0.505194       -13.7470
 181   2.0000      -0.501909       -13.6576
 182   2.0000      -0.501081       -13.6351
 183   2.0000      -0.499397       -13.5893
 184   2.0000      -0.496723       -13.5165
 185   2.0000      -0.491282       -13.3685
 186   2.0000      -0.489386       -13.3169
 187   2.0000      -0.489012       -13.3067
 188   2.0000      -0.486035       -13.2257
 189   2.0000      -0.484433       -13.1821
 190   2.0000      -0.480485       -13.0747
 191   2.0000      -0.477323       -12.9886
 192   2.0000      -0.470098       -12.7920
 193   2.0000      -0.468222       -12.7410
 194   2.0000      -0.464544       -12.6409
 195   2.0000      -0.460301       -12.5254
 196   2.0000      -0.455181       -12.3861
 197   2.0000      -0.453483       -12.3399
 198   2.0000      -0.452539       -12.3142
 199   2.0000      -0.449344       -12.2273
 200   2.0000      -0.448105       -12.1935
 201   2.0000      -0.447591       -12.1796
 202   2.0000      -0.445463       -12.1217
 203   2.0000      -0.442459       -12.0399
 204   2.0000      -0.439966       -11.9721
 205   2.0000      -0.437794       -11.9130
 206   2.0000      -0.435896       -11.8613
 207   2.0000      -0.434683       -11.8283
 208   2.0000      -0.433126       -11.7860
 209   2.0000      -0.431444       -11.7402
 210   2.0000      -0.431008       -11.7283
 211   2.0000      -0.426308       -11.6004
 212   2.0000      -0.426061       -11.5937
 213   2.0000      -0.420519       -11.4429
 214   2.0000      -0.418766       -11.3952
 215   2.0000      -0.413481       -11.2514
 216   2.0000      -0.408917       -11.1272
 217   2.0000      -0.407498       -11.0886
 218   2.0000      -0.406508       -11.0617
 219   2.0000      -0.395330       -10.7575
 220   2.0000      -0.392266       -10.6741
 221   2.0000      -0.388324       -10.5668
 222   2.0000      -0.385022       -10.4770
 223   2.0000      -0.383415       -10.4332
 224   2.0000      -0.378088       -10.2883
 225   2.0000      -0.376753       -10.2520
 226   2.0000      -0.375001       -10.2043
 227   2.0000      -0.370858       -10.0916
 228   2.0000      -0.367451        -9.9989
 229   2.0000      -0.365212        -9.9379
 230   2.0000      -0.352095        -9.5810
 231   2.0000      -0.343266        -9.3408
 232   2.0000      -0.342156        -9.3105
 233   2.0000      -0.334617        -9.1054
 234   2.0000      -0.324426        -8.8281
 235   2.0000      -0.318861        -8.6766
 236   2.0000      -0.316343        -8.6081
 237   2.0000      -0.306772        -8.3477
 238   2.0000      -0.304089        -8.2747
 239   2.0000      -0.297719        -8.1013
 240   2.0000      -0.294792        -8.0217
 241   2.0000      -0.282438        -7.6855
 242   2.0000      -0.236472        -6.4347
 243   0.0000      -0.110942        -3.0189
 244   0.0000      -0.097385        -2.6500
 245   0.0000      -0.073373        -1.9966
 246   0.0000      -0.064164        -1.7460
 247   0.0000      -0.056876        -1.5477

MULLIKEN ATOMIC CHARGES
-----------------------
   0 C :    0.240582
   1 C :   -0.311056
   2 C :   -0.175774
   3 N :    0.162082
   4 C :   -0.201021
   5 N :    0.170990
   6 C :    0.038982
   7 C :    0.013880
   8 C :   -0.084836
   9 C :    0.097071
  10 C :    0.096809
  11 C :   -0.080385
  12 C :   -0.020249
  13 C :    0.038226
  14 C :    0.037516
  15 C :   -0.017603
  16 C :    0.140940
  17 O :   -0.144007
  18 C :   -0.126340
  19 C :    0.019453
  20 C :   -0.160303
  21 S :    0.208722
  22 C :    0.019138
  23 N :    0.270747
  24 O :   -0.235487
  25 O :   -0.243127
  26 C :   -0.002672
  27 C :    0.196528
  28 C :   -0.039386
  29 C :    0.037453
  30 C :    0.099009
  31 N :   -0.028677
  32 C :    0.118447
  33 C :   -0.141760
  34 C :    0.055135
  35 N :   -0.034535
  36 C :    0.116843
  37 C :   -0.161658
  38 C :    0.040858
  39 C :    0.005380
  40 C :   -0.101608
  41 S :    0.190095
  42 C :   -0.006711
  43 N :    0.276241
  44 O :   -0.244509
  45 O :   -0.261016
  46 C :    0.009669
  47 C :    0.096399
  48 C :   -0.015022
  49 C :   -0.006466
  50 C :   -0.049208
  51 C :   -0.068650
  52 C :    0.325851
  53 C :   -0.352122
  54 C :   -0.181141
  55 N :    0.146537
  56 C :   -0.200062
  57 N :    0.138329
  58 C :    0.044554
  59 C :   -0.004167
  60 C :    0.150304
  61 O :   -0.150249
  62 C :   -0.079517
  63 C :    0.096221
  64 C :    0.094130
  65 C :   -0.081990
  66 C :   -0.017868
  67 C :    0.036771
  68 C :    0.034621
  69 C :   -0.014871
  70 H :   -0.010237
  71 H :   -0.001533
  72 H :   -0.008188
  73 H :   -0.003426
  74 H :   -0.003300
  75 H :   -0.015583
  76 H :    0.032178
  77 H :    0.008584
  78 H :   -0.012889
  79 H :   -0.027493
  80 H :    0.128897
  81 H :   -0.014351
  82 H :    0.128198
  83 H :   -0.026224
  84 H :    0.006498
  85 H :   -0.030136
  86 H :    0.019152
  87 H :    0.023497
  88 H :    0.030560
  89 H :    0.012399
  90 H :   -0.012920
  91 H :   -0.008078
  92 H :   -0.009470
  93 H :   -0.005395
  94 H :   -0.003730
  95 H :   -0.017472
Sum of atomic charges:    0.0000000

LOEWDIN ATOMIC CHARGES
----------------------
   0 C :    0.057563
   1 C :   -0.135114
   2 C :   -0.019263
   3 N :   -0.044578
   4 C :   -0.031622
   5 N :   -0.046874
   6 C :   -0.022742
   7 C :   -0.058438
   8 C :    0.034183
   9 C :   -0.008878
  10 C :   -0.004338
  11 C :    0.017800
  12 C :   -0.005651
  13 C :   -0.010832
  14 C :   -0.011700
  15 C :   -0.008865
  16 C :    0.084440
  17 O :   -0.142910
  18 C :   -0.083452
  19 C :    0.038876
  20 C :   -0.169442
  21 S :    0.504038
  22 C :   -0.173279
  23 N :    0.272933
  24 O :   -0.201355
  25 O :   -0.209675
  26 C :   -0.008332
  27 C :   -0.020406
  28 C :   -0.025963
  29 C :   -0.007018
  30 C :    0.004413
  31 N :    0.077224
  32 C :   -0.019978
  33 C :   -0.060770
  34 C :   -0.008918
  35 N :    0.069239
  36 C :   -0.003794
  37 C :   -0.085070
  38 C :    0.006318
  39 C :   -0.085227
  40 C :   -0.125175
  41 S :    0.478372
  42 C :   -0.201866
  43 N :    0.272819
  44 O :   -0.210594
  45 O :   -0.227063
  46 C :    0.005290
  47 C :   -0.081360
  48 C :    0.031584
  49 C :   -0.036816
  50 C :    0.068017
  51 C :   -0.097760
  52 C :    0.078866
  53 C :   -0.146343
  54 C :   -0.018549
  55 N :   -0.056933
  56 C :   -0.017306
  57 N :   -0.068244
  58 C :   -0.026183
  59 C :   -0.055082
  60 C :    0.084402
  61 O :   -0.146054
  62 C :    0.031880
  63 C :   -0.008136
  64 C :   -0.006856
  65 C :    0.019440
  66 C :   -0.005560
  67 C :   -0.013575
  68 C :   -0.012137
  69 C :   -0.009380
  70 H :    0.039908
  71 H :    0.039926
  72 H :    0.035201
  73 H :    0.033862
  74 H :    0.033520
  75 H :    0.032355
  76 H :    0.049199
  77 H :    0.041872
  78 H :    0.031429
  79 H :    0.029114
  80 H :    0.093647
  81 H :    0.033731
  82 H :    0.089835
  83 H :    0.026935
  84 H :    0.043247
  85 H :    0.021290
  86 H :    0.048852
  87 H :    0.038099
  88 H :    0.034197
  89 H :    0.040887
  90 H :    0.039093
  91 H :    0.038884
  92 H :    0.034589
  93 H :    0.033032
  94 H :    0.033043
  95 H :    0.032011

  Mayer bond orders larger than 0.100000
B(  0-C ,  1-C ) :   1.6676 B(  0-C ,  6-C ) :   1.0028 B(  0-C , 18-C ) :   1.0263
B(  1-C ,  2-C ) :   1.1337 B(  1-C ,  4-C ) :   1.1543 B(  2-C ,  3-N ) :   2.9938
B(  4-C ,  5-N ) :   3.0210 B(  6-C ,  7-C ) :   1.2106 B(  6-C , 11-C ) :   1.4579
B(  7-C ,  8-C ) :   1.4702 B(  7-C , 16-C ) :   0.9235 B(  8-C ,  9-C ) :   1.1852
B(  8-C , 70-H ) :   1.0173 B(  9-C , 10-C ) :   1.2563 B(  9-C , 15-C ) :   1.2438
B( 10-C , 11-C ) :   1.2017 B( 10-C , 12-C ) :   1.2404 B( 11-C , 71-H ) :   0.9957
B( 12-C , 13-C ) :   1.4896 B( 12-C , 72-H ) :   0.9984 B( 13-C , 14-C ) :   1.2607
B( 13-C , 73-H ) :   0.9881 B( 14-C , 15-C ) :   1.4881 B( 14-C , 74-H ) :   0.9889
B( 15-C , 75-H ) :   0.9985 B( 16-C , 17-O ) :   2.2649 B( 16-C , 18-C ) :   0.9308
B( 18-C , 19-C ) :   1.6877 B( 19-C , 20-C ) :   1.1313 B( 19-C , 76-H ) :   0.9364
B( 20-C , 21-S ) :   1.1128 B( 20-C , 27-C ) :   1.3741 B( 21-S , 22-C ) :   1.1363
B( 22-C , 23-N ) :   0.9382 B( 22-C , 26-C ) :   1.5193 B( 23-N , 24-O ) :   1.5442
B( 23-N , 25-O ) :   1.5309 B( 24-O , 25-O ) :   0.2751 B( 26-C , 27-C ) :   1.1960
B( 26-C , 77-H ) :   0.9914 B( 27-C , 28-C ) :   1.1286 B( 28-C , 29-C ) :   1.6609
B( 28-C , 78-H ) :   0.9732 B( 29-C , 30-C ) :   1.1108 B( 29-C , 79-H ) :   0.9619
B( 30-C , 31-N ) :   1.1814 B( 30-C , 37-C ) :   1.3894 B( 31-N , 32-C ) :   1.1688
B( 31-N , 80-H ) :   0.9339 B( 32-C , 33-C ) :   1.2673 B( 32-C , 36-C ) :   1.2914
B( 33-C , 34-C ) :   1.3367 B( 33-C , 81-H ) :   1.0390 B( 34-C , 35-N ) :   1.1827
B( 34-C , 38-C ) :   1.2085 B( 35-N , 36-C ) :   1.1752 B( 35-N , 82-H ) :   0.9317
B( 36-C , 37-C ) :   1.2788 B( 37-C , 83-H ) :   1.0302 B( 38-C , 39-C ) :   1.5742
B( 38-C , 84-H ) :   0.9512 B( 39-C , 40-C ) :   1.1912 B( 39-C , 85-H ) :   0.9467
B( 40-C , 41-S ) :   1.1461 B( 40-C , 47-C ) :   1.3729 B( 41-S , 42-C ) :   1.0986
B( 42-C , 43-N ) :   0.9579 B( 42-C , 46-C ) :   1.4939 B( 43-N , 44-O ) :   1.5395
B( 43-N , 45-O ) :   1.5145 B( 44-O , 45-O ) :   0.2641 B( 46-C , 47-C ) :   1.2288
B( 46-C , 86-H ) :   1.0021 B( 47-C , 48-C ) :   1.0766 B( 48-C , 49-C ) :   1.5928
B( 48-C , 87-H ) :   0.9735 B( 49-C , 50-C ) :   1.1645 B( 49-C , 88-H ) :   0.9798
B( 50-C , 51-C ) :   1.5359 B( 50-C , 89-H ) :   0.9651 B( 51-C , 52-C ) :   1.0631
B( 51-C , 60-C ) :   0.9439 B( 52-C , 53-C ) :   1.6223 B( 52-C , 58-C ) :   0.9916
B( 53-C , 54-C ) :   1.1418 B( 53-C , 56-C ) :   1.1494 B( 54-C , 55-N ) :   2.9685
B( 56-C , 57-N ) :   2.9822 B( 58-C , 59-C ) :   1.2145 B( 58-C , 65-C ) :   1.4496
B( 59-C , 60-C ) :   0.9418 B( 59-C , 62-C ) :   1.4754 B( 60-C , 61-O ) :   2.2067
B( 62-C , 63-C ) :   1.1785 B( 62-C , 90-H ) :   1.0156 B( 63-C , 64-C ) :   1.2568
B( 63-C , 69-C ) :   1.2462 B( 64-C , 65-C ) :   1.2062 B( 64-C , 66-C ) :   1.2398
B( 65-C , 91-H ) :   0.9895 B( 66-C , 67-C ) :   1.4897 B( 66-C , 92-H ) :   0.9969
B( 67-C , 68-C ) :   1.2602 B( 67-C , 93-H ) :   0.9884 B( 68-C , 69-C ) :   1.4874
B( 68-C , 94-H ) :   0.9895 B( 69-C , 95-H ) :   0.9974

-----------------------------------------------------------------------------
         ABSORPTION SPECTRUM VIA TRANSITION ELECTRIC DIPOLE MOMENTS
-----------------------------------------------------------------------------
State   Energy  Wavelength   fosc         T2         TX        TY        TZ
        (cm-1)    (nm)                  (au**2)     (au)      (au)      (au)
-----------------------------------------------------------------------------
   0   13494.8    741.0   1.302199879  31.76771  -1.38068  -3.09876   4.50101
   1   16653.9    600.5   0.132214068   2.61359   0.30488   0.44370  -1.52439
   2   21804.4    458.6   0.959826646  14.49186   2.35510   2.95974  -0.43047
   3   24164.6    413.8   0.038356100   0.52255  -0.04699  -0.49820  -0.52168
   4   24568.9    407.0   0.021165949   0.28361  -0.27650  -0.32427   0.31940
   5   25109.9    398.2   0.379393561   4.97417  -0.97056  -1.44747  -1.39177
   6   25934.4    385.6   0.456184352   5.79081  -1.38702  -0.74605  -1.81945
   7   26648.0    375.3   0.047202227   0.58314  -0.24443  -0.70322   0.16995
   8   26749.3    373.8   0.215462180   2.65176   0.28986  -0.28130   1.57753
   9   27201.4    367.6   0.025182169   0.30477  -0.31036   0.01117   0.45642
  10   27302.1    366.3   0.352748842   4.25349   1.02622   0.08651   1.78686
  11   27866.1    358.9   0.009094404   0.10744   0.12382  -0.01226   0.30325
  12   28149.2    355.2   0.015307412   0.17902   0.13213  -0.24237   0.32066
  13   28464.0    351.3   0.013146479   0.15205   0.00902  -0.33555   0.19844
  14   28882.0    346.2   0.027083325   0.30871   0.36502  -0.04404   0.41657
  15   29324.1    341.0   0.041225159   0.46282   0.22556   0.50584  -0.39505
  16   30090.9    332.3   0.158562016   1.73476  -0.82306  -1.01288   0.17723
  17   30526.9    327.6   0.145701482   1.57129  -0.08548  -0.72532   1.01877
  18   31007.2    322.5   0.001059441   0.01125   0.07157   0.01789   0.07620
  19   31895.7    313.5   0.091054911   0.93983   0.62398   0.31643   0.67109
  20   32558.7    307.1   0.026953867   0.27254  -0.07996   0.34565  -0.38298
  21   32869.7    304.2   0.204798509   2.05120  -0.35161   0.61174  -1.24633
  22   33083.8    302.3   0.685270284   6.81903   1.56072  -1.13366   1.76011
  23   33181.1    301.4   0.241166918   2.39278  -0.79869   0.67311  -1.14096
  24   33349.4    299.9   0.360677988   3.56047   0.32606   0.81602  -1.66981
  25   33695.8    296.8   0.357034161   3.48827  -0.37573   0.80394  -1.64340
  26   34283.9    291.7   0.019643581   0.18863   0.40559   0.13862   0.07006
  27   34574.7    289.2   0.097442743   0.92783  -0.45504   0.31899  -0.78677
  28   34811.8    287.3   0.018383562   0.17385  -0.10123  -0.37254   0.15754
  29   34971.9    285.9   0.081564750   0.76782  -0.85736  -0.03602  -0.17737
  30   35744.6    279.8   0.015335818   0.14124  -0.01782   0.25659  -0.27402
  31   35906.0    278.5   0.028954571   0.26548  -0.24830   0.09418  -0.44153
  32   36272.5    275.7   0.004065956   0.03690   0.00289  -0.19179   0.01045
  33   36895.9    271.0   0.047022350   0.41957   0.45437  -0.08180   0.45434
  34   37339.8    267.8   0.047730183   0.42082   0.34572   0.54760  -0.03779
  35   37668.6    265.5   0.011625764   0.10161   0.21264   0.23648   0.02158
  36   37882.8    264.0   0.052241840   0.45400   0.39318   0.50261   0.21629
  37   38435.6    260.2   0.138152423   1.18332   0.01255  -1.06980   0.19666
  38   38656.7    258.7   0.012634312   0.10760   0.25956   0.13371   0.14948
  39   39012.6    256.3   0.108549458   0.91600  -0.49880  -0.74700   0.33044
  40   39307.0    254.4   0.038333823   0.32106   0.50865   0.00996   0.24948
  41   39405.7    253.8   0.039301148   0.32834  -0.03676  -0.52625  -0.22370
  42   39808.6    251.2   0.323975214   2.67924  -0.97187  -1.23944  -0.44553
  43   39906.6    250.6   0.022946807   0.18930  -0.33605   0.21139   0.17801
  44   40181.8    248.9   0.101150292   0.82873   0.66487  -0.07904  -0.61680

FINAL SINGLE POINT ENERGY     -3754.893721987282

DIPOLE MOMENT
-------------
                                X             Y             Z
Electronic contribution:      7.85395       4.37953     -15.65233
Nuclear contribution   :     -9.27413      -3.45191      15.70322
                        -----------------------------------------
Total Dipole Moment    :     -1.42018       0.92763       0.05089
                        -----------------------------------------
Magnitude (a.u.)       :      1.69705
Magnitude (Debye)      :      4.31356

Rotational constants in cm-1:     0.001521     0.000230     0.000205
Rotational constants in MHz :    45.587224     6.894616     6.157259

                             ****ORCA TERMINATED NORMALLY****
TOTAL RUN TIME: 0 days 0 hours 9 minutes 10 seconds 196 msec
