                         Program Version 4.2.0 -  RELEASE  -
|  1> # ORCA input file
|  2> # SCF done       -209.572499487825          0.000419920635
|  3> ! CAM-B3LYP def2-SVP def2/J RIJCOSX Grid4 TightSCF
|  4> %maxcore 5000
|  5> %tddft
|  6>     Mode sTDDFT
|  7>     Ethresh 5.0
|  8>     maxcore 5000
|  9> end
| 10>
| 11> %pal
| 12>   nprocs 6
| 13>   end
| 14> * xyz 0 1
| 15>    C        0.20937         1.51416         2.29619
| 16>    C       -0.15740         2.47396         3.20033
| 17>    C       -0.80314         2.19891         4.42250
| 18>    N       -1.33018         2.03206         5.42838
| 19>    C        0.13500         3.84114         3.03564
| 20>    N        0.38984         4.95745         2.94517
| 21>    C        0.14772         0.07470         2.51526
| 22>    C        1.03568        -0.56465         1.60013
| 23>    C        1.21035        -1.91889         1.59925
| 24>    C        0.48624        -2.70778         2.52130
| 25>    C       -0.41570        -2.07581         3.42596
| 26>    C       -0.57237        -0.67086         3.40896
| 27>    C       -1.13767        -2.87620         4.33449
| 28>    C       -0.97569        -4.23470         4.35339
| 29>    C       -0.08628        -4.85583         3.46381
| 30>    C        0.62887        -4.10877         2.56766
| 31>    C        1.64905         0.45102         0.72785
| 32>    O        2.49587         0.30100        -0.12332
| 33>    C        0.95926         1.72876         1.07469
| 34>    C        1.04308         2.78309         0.22421
| 35>    C        0.19850         3.92345         0.16255
| 36>    C        0.43760         5.16658        -0.34709
| 37>    C       -0.74892         5.99822        -0.17178
| 38>    N       -1.72906         5.22731         0.36499
| 39>    C       -1.23295         3.94618         0.60296
| 40>    O       -1.90365         3.03720         1.02933
| 41>    C       -3.08198         5.60892         0.66268
| 42>    C       -0.49161         7.24103        -0.65159
| 43>    C        0.93295         7.21807        -1.11279
| 44>    O        1.61224         8.12058        -1.52502
| 45>    N        1.41505         5.91501        -0.90442
| 46>    C        2.76286         5.51279        -1.20290
| 47>    C       -1.26633         8.45569        -0.70206
| 48>    C       -1.25374         9.25392        -1.85874
| 49>    C       -1.90115        10.53651        -1.91460
| 50>    N       -1.84727        11.26074        -3.06041
| 51>    C       -1.23664        10.76141        -4.08086
| 52>    C       -0.65632         9.45932        -4.04455
| 53>    N       -0.67465         8.74541        -2.97302
| 54>    F       -0.11031         8.93559        -5.13804
| 55>    F       -1.17087        11.50249        -5.18484
| 56>    C       -2.63164        11.03417        -0.82454
| 57>    C       -2.64326        10.23851         0.33473
| 58>    C       -1.97919         8.95747         0.39749
| 59>    N       -2.09308         8.40437         1.61106
| 60>    S       -2.92335         9.39624         2.55693
| 61>    N       -3.18821        10.57031         1.50957
| 62>    C       -3.44827        12.22274        -0.85840
| 63>    C       -3.26091        13.50302        -1.27275
| 64>    C       -4.48796        14.25682        -1.02491
| 65>    N       -5.42175        13.42265        -0.51315
| 66>    C       -4.86455        12.14299        -0.38057
| 67>    O       -5.48493        11.18222        -0.00366
| 68>    C       -6.77689        13.74437        -0.15478
| 69>    C       -4.31983        15.54591        -1.42518
| 70>    C       -2.88188        15.64897        -1.84576
| 71>    O       -2.24069        16.63733        -2.08964
| 72>    N       -2.33213        14.36385        -1.75843
| 73>    C       -0.95533        14.08837        -2.06327
| 74>    C       -5.21697        16.65041        -1.38142
| 75>    C       -5.21849        17.63363        -2.31670
| 76>    C       -5.90667        18.91110        -2.28418
| 77>    C       -6.78417        19.34345        -1.32431
| 78>    C       -7.41935        20.60303        -1.33797
| 79>    N       -7.97004        21.60911        -1.29213
| 80>    C       -7.19933        18.57669        -0.21650
| 81>    N       -7.58282        17.99252         0.69518
| 82>    C       -5.49292        19.65618        -3.46653
| 83>    C       -4.66089        18.82389        -4.27188
| 84>    C       -4.52588        17.50551        -3.63132
| 85>    O       -4.07206        16.49006        -4.10888
| 86>    C       -4.13050        19.26240        -5.45031
| 87>    C       -4.40209        20.58072        -5.88104
| 88>    C       -5.23197        21.41905        -5.08138
| 89>    C       -5.77388        20.93583        -3.86919
| 90>    C       -5.49995        22.73104        -5.52312
| 91>    C       -4.97361        23.19508        -6.69763
| 92>    C       -4.15539        22.36961        -7.48350
| 93>    C       -3.87556        21.09081        -7.08388
| 94>    H        1.89198        -2.38456         0.90295
| 95>    H       -1.26977        -0.21636         4.09514
| 96>    H       -1.81919        -2.39295         5.01899
| 97>    H       -1.53194        -4.83875         5.05449
| 98>    H        0.02891        -5.92907         3.49198
| 99>    H        1.31472        -4.58181         1.88011
|100>    H        1.80813         2.70085        -0.54174
|101>    H       -3.57317         5.99452        -0.23218
|102>    H       -3.08770         6.37574         1.43798
|103>    H       -3.60173         4.71881         1.01508
|104>    H        3.31856         6.40948        -1.47526
|105>    H        2.78179         4.81236        -2.04010
|106>    H        3.21950         5.04588        -0.32924
|107>    H       -7.27991        14.23949        -0.98656
|108>    H       -6.80470        14.39651         0.72018
|109>    H       -7.28364        12.80879         0.07901
|110>    H       -0.48282        15.03638        -2.31748
|111>    H       -0.89192        13.40557        -2.90999
|112>    H       -0.45437        13.64297        -1.20213
|113>    H       -5.90034        16.68913        -0.54386
|114>    H       -3.50473        18.61290        -6.04391
|115>    H       -6.39811        21.59404        -3.28566
|116>    H       -6.13053        23.36224        -4.91425
|117>    H       -5.18467        24.20115        -7.02779
|118>    H       -3.74805        22.75228        -8.40735
|119>    H       -3.24638        20.45111        -7.68520
|120> *
|121>
|122>                          ****END OF INPUT****

CARTESIAN COORDINATES (ANGSTROEM)
---------------------------------
  C      0.209370    1.514160    2.296190
  C     -0.157400    2.473960    3.200330
  C     -0.803140    2.198910    4.422500
  N     -1.330180    2.032060    5.428380
  C      0.135000    3.841140    3.035640
  N      0.389840    4.957450    2.945170
  C      0.147720    0.074700    2.515260
  C      1.035680   -0.564650    1.600130
  C      1.210350   -1.918890    1.599250
  C      0.486240   -2.707780    2.521300
  C     -0.415700   -2.075810    3.425960
  C     -0.572370   -0.670860    3.408960
  C     -1.137670   -2.876200    4.334490
  C     -0.975690   -4.234700    4.353390
  C     -0.086280   -4.855830    3.463810
  C      0.628870   -4.108770    2.567660
  C      1.649050    0.451020    0.727850
  O      2.495870    0.301000   -0.123320
  C      0.959260    1.728760    1.074690
  C      1.043080    2.783090    0.224210
  C      0.198500    3.923450    0.162550
  C      0.437600    5.166580   -0.347090
  C     -0.748920    5.998220   -0.171780
  N     -1.729060    5.227310    0.364990
  C     -1.232950    3.946180    0.602960
  O     -1.903650    3.037200    1.029330
  C     -3.081980    5.608920    0.662680
  C     -0.491610    7.241030   -0.651590
  C      0.932950    7.218070   -1.112790
  O      1.612240    8.120580   -1.525020
  N      1.415050    5.915010   -0.904420
  C      2.762860    5.512790   -1.202900
  C     -1.266330    8.455690   -0.702060
  C     -1.253740    9.253920   -1.858740
  C     -1.901150   10.536510   -1.914600
  N     -1.847270   11.260740   -3.060410
  C     -1.236640   10.761410   -4.080860
  C     -0.656320    9.459320   -4.044550
  N     -0.674650    8.745410   -2.973020
  F     -0.110310    8.935590   -5.138040
  F     -1.170870   11.502490   -5.184840
  C     -2.631640   11.034170   -0.824540
  C     -2.643260   10.238510    0.334730
  C     -1.979190    8.957470    0.397490
  N     -2.093080    8.404370    1.611060
  S     -2.923350    9.396240    2.556930
  N     -3.188210   10.570310    1.509570
  C     -3.448270   12.222740   -0.858400
  C     -3.260910   13.503020   -1.272750
  C     -4.487960   14.256820   -1.024910
  N     -5.421750   13.422650   -0.513150
  C     -4.864550   12.142990   -0.380570
  O     -5.484930   11.182220   -0.003660
  C     -6.776890   13.744370   -0.154780
  C     -4.319830   15.545910   -1.425180
  C     -2.881880   15.648970   -1.845760
  O     -2.240690   16.637330   -2.089640
  N     -2.332130   14.363850   -1.758430
  C     -0.955330   14.088370   -2.063270
  C     -5.216970   16.650410   -1.381420
  C     -5.218490   17.633630   -2.316700
  C     -5.906670   18.911100   -2.284180
  C     -6.784170   19.343450   -1.324310
  C     -7.419350   20.603030   -1.337970
  N     -7.970040   21.609110   -1.292130
  C     -7.199330   18.576690   -0.216500
  N     -7.582820   17.992520    0.695180
  C     -5.492920   19.656180   -3.466530
  C     -4.660890   18.823890   -4.271880
  C     -4.525880   17.505510   -3.631320
  O     -4.072060   16.490060   -4.108880
  C     -4.130500   19.262400   -5.450310
  C     -4.402090   20.580720   -5.881040
  C     -5.231970   21.419050   -5.081380
  C     -5.773880   20.935830   -3.869190
  C     -5.499950   22.731040   -5.523120
  C     -4.973610   23.195080   -6.697630
  C     -4.155390   22.369610   -7.483500
  C     -3.875560   21.090810   -7.083880
  H      1.891980   -2.384560    0.902950
  H     -1.269770   -0.216360    4.095140
  H     -1.819190   -2.392950    5.018990
  H     -1.531940   -4.838750    5.054490
  H      0.028910   -5.929070    3.491980
  H      1.314720   -4.581810    1.880110
  H      1.808130    2.700850   -0.541740
  H     -3.573170    5.994520   -0.232180
  H     -3.087700    6.375740    1.437980
  H     -3.601730    4.718810    1.015080
  H      3.318560    6.409480   -1.475260
  H      2.781790    4.812360   -2.040100
  H      3.219500    5.045880   -0.329240
  H     -7.279910   14.239490   -0.986560
  H     -6.804700   14.396510    0.720180
  H     -7.283640   12.808790    0.079010
  H     -0.482820   15.036380   -2.317480
  H     -0.891920   13.405570   -2.909990
  H     -0.454370   13.642970   -1.202130
  H     -5.900340   16.689130   -0.543860
  H     -3.504730   18.612900   -6.043910
  H     -6.398110   21.594040   -3.285660
  H     -6.130530   23.362240   -4.914250
  H     -5.184670   24.201150   -7.027790
  H     -3.748050   22.752280   -8.407350
  H     -3.246380   20.451110   -7.685200

 Total Charge           Charge          ....    0
 Multiplicity           Mult            ....    1
 Number of Electrons    NEL             ....  540
 Basis Dimension        Dim             .... 1240

ORBITAL ENERGIES
----------------

  NO   OCC          E(Eh)            E(eV)
   0   2.0000     -89.042334     -2422.9651
   1   2.0000     -24.817643      -675.3224
   2   2.0000     -24.813416      -675.2074
   3   2.0000     -19.221002      -523.0300
   4   2.0000     -19.216448      -522.9061
   5   2.0000     -19.215776      -522.8879
   6   2.0000     -19.212291      -522.7930
   7   2.0000     -19.211336      -522.7670
   8   2.0000     -19.210758      -522.7513
   9   2.0000     -14.477451      -393.9515
  10   2.0000     -14.474005      -393.8577
  11   2.0000     -14.469455      -393.7339
  12   2.0000     -14.468680      -393.7128
  13   2.0000     -14.455911      -393.3653
  14   2.0000     -14.452068      -393.2608
  15   2.0000     -14.448274      -393.1575
  16   2.0000     -14.447706      -393.1421
  17   2.0000     -14.419375      -392.3711
  18   2.0000     -14.414934      -392.2503
  19   2.0000     -14.412775      -392.1915
  20   2.0000     -14.408785      -392.0830
  21   2.0000     -10.432354      -283.8788
  22   2.0000     -10.429073      -283.7895
  23   2.0000     -10.399879      -282.9951
  24   2.0000     -10.396455      -282.9019
  25   2.0000     -10.396006      -282.8897
  26   2.0000     -10.393114      -282.8110
  27   2.0000     -10.362762      -281.9851
  28   2.0000     -10.361937      -281.9626
  29   2.0000     -10.356335      -281.8102
  30   2.0000     -10.352768      -281.7131
  31   2.0000     -10.350674      -281.6562
  32   2.0000     -10.350166      -281.6423
  33   2.0000     -10.347402      -281.5671
  34   2.0000     -10.345394      -281.5125
  35   2.0000     -10.342632      -281.4373
  36   2.0000     -10.341163      -281.3974
  37   2.0000     -10.339014      -281.3389
  38   2.0000     -10.336642      -281.2743
  39   2.0000     -10.334570      -281.2179
  40   2.0000     -10.333021      -281.1758
  41   2.0000     -10.322276      -280.8834
  42   2.0000     -10.320436      -280.8333
  43   2.0000     -10.319195      -280.7996
  44   2.0000     -10.318212      -280.7728
  45   2.0000     -10.317796      -280.7615
  46   2.0000     -10.317255      -280.7468
  47   2.0000     -10.317149      -280.7439
  48   2.0000     -10.316806      -280.7346
  49   2.0000     -10.314893      -280.6825
  50   2.0000     -10.311593      -280.5927
  51   2.0000     -10.306053      -280.4420
  52   2.0000     -10.304960      -280.4122
  53   2.0000     -10.304788      -280.4075
  54   2.0000     -10.302993      -280.3587
  55   2.0000     -10.302891      -280.3559
  56   2.0000     -10.301744      -280.3247
  57   2.0000     -10.301246      -280.3111
  58   2.0000     -10.297962      -280.2218
  59   2.0000     -10.297524      -280.2099
  60   2.0000     -10.296441      -280.1804
  61   2.0000     -10.296209      -280.1741
  62   2.0000     -10.295890      -280.1654
  63   2.0000     -10.294386      -280.1245
  64   2.0000     -10.293750      -280.1072
  65   2.0000     -10.293473      -280.0996
  66   2.0000     -10.293249      -280.0936
  67   2.0000     -10.292931      -280.0849
  68   2.0000     -10.291000      -280.0324
  69   2.0000     -10.286633      -279.9135
  70   2.0000     -10.285521      -279.8832
  71   2.0000     -10.284863      -279.8653
  72   2.0000     -10.284845      -279.8649
  73   2.0000     -10.284689      -279.8606
  74   2.0000     -10.284244      -279.8485
  75   2.0000     -10.282769      -279.8084
  76   2.0000     -10.282352      -279.7970
  77   2.0000     -10.282094      -279.7900
  78   2.0000     -10.281353      -279.7698
  79   2.0000      -8.133386      -221.3207
  80   2.0000      -6.104260      -166.1054
  81   2.0000      -6.096617      -165.8974
  82   2.0000      -6.096516      -165.8946
  83   2.0000      -1.343992       -36.5719
  84   2.0000      -1.329366       -36.1739
  85   2.0000      -1.162516       -31.6337
  86   2.0000      -1.159071       -31.5399
  87   2.0000      -1.154023       -31.4026
  88   2.0000      -1.150644       -31.3106
  89   2.0000      -1.138108       -30.9695
  90   2.0000      -1.126665       -30.6581
  91   2.0000      -1.126048       -30.6413
  92   2.0000      -1.112501       -30.2727
  93   2.0000      -1.097085       -29.8532
  94   2.0000      -1.093967       -29.7683
  95   2.0000      -1.063702       -28.9448
  96   2.0000      -1.061129       -28.8748
  97   2.0000      -1.038230       -28.2517
  98   2.0000      -1.018798       -27.7229
  99   2.0000      -1.012922       -27.5630
 100   2.0000      -0.998480       -27.1700
 101   2.0000      -0.994778       -27.0693
 102   2.0000      -0.994144       -27.0520
 103   2.0000      -0.991938       -26.9920
 104   2.0000      -0.989108       -26.9150
 105   2.0000      -0.977412       -26.5967
 106   2.0000      -0.970749       -26.4154
 107   2.0000      -0.967142       -26.3173
 108   2.0000      -0.936683       -25.4884
 109   2.0000      -0.936294       -25.4779
 110   2.0000      -0.932414       -25.3723
 111   2.0000      -0.921854       -25.0849
 112   2.0000      -0.918293       -24.9880
 113   2.0000      -0.914788       -24.8927
 114   2.0000      -0.894266       -24.3342
 115   2.0000      -0.890141       -24.2220
 116   2.0000      -0.881932       -23.9986
 117   2.0000      -0.880065       -23.9478
 118   2.0000      -0.877051       -23.8658
 119   2.0000      -0.874947       -23.8085
 120   2.0000      -0.861109       -23.4320
 121   2.0000      -0.854907       -23.2632
 122   2.0000      -0.827107       -22.5067
 123   2.0000      -0.823908       -22.4197
 124   2.0000      -0.823613       -22.4117
 125   2.0000      -0.817809       -22.2537
 126   2.0000      -0.813581       -22.1387
 127   2.0000      -0.807294       -21.9676
 128   2.0000      -0.799776       -21.7630
 129   2.0000      -0.781104       -21.2549
 130   2.0000      -0.780293       -21.2329
 131   2.0000      -0.773629       -21.0515
 132   2.0000      -0.765868       -20.8403
 133   2.0000      -0.760250       -20.6875
 134   2.0000      -0.756250       -20.5786
 135   2.0000      -0.751263       -20.4429
 136   2.0000      -0.746851       -20.3228
 137   2.0000      -0.723839       -19.6967
 138   2.0000      -0.715501       -19.4698
 139   2.0000      -0.712652       -19.3923
 140   2.0000      -0.705193       -19.1893
 141   2.0000      -0.702459       -19.1149
 142   2.0000      -0.698172       -18.9982
 143   2.0000      -0.695463       -18.9245
 144   2.0000      -0.694198       -18.8901
 145   2.0000      -0.687771       -18.7152
 146   2.0000      -0.681979       -18.5576
 147   2.0000      -0.677190       -18.4273
 148   2.0000      -0.674649       -18.3581
 149   2.0000      -0.671559       -18.2740
 150   2.0000      -0.661856       -18.0100
 151   2.0000      -0.660323       -17.9683
 152   2.0000      -0.647436       -17.6176
 153   2.0000      -0.640725       -17.4350
 154   2.0000      -0.636768       -17.3273
 155   2.0000      -0.633566       -17.2402
 156   2.0000      -0.630229       -17.1494
 157   2.0000      -0.627964       -17.0878
 158   2.0000      -0.621497       -16.9118
 159   2.0000      -0.618805       -16.8385
 160   2.0000      -0.614921       -16.7329
 161   2.0000      -0.611609       -16.6427
 162   2.0000      -0.606208       -16.4958
 163   2.0000      -0.605174       -16.4676
 164   2.0000      -0.602869       -16.4049
 165   2.0000      -0.601182       -16.3590
 166   2.0000      -0.597275       -16.2527
 167   2.0000      -0.592692       -16.1280
 168   2.0000      -0.588125       -16.0037
 169   2.0000      -0.586949       -15.9717
 170   2.0000      -0.579201       -15.7609
 171   2.0000      -0.577806       -15.7229
 172   2.0000      -0.571208       -15.5434
 173   2.0000      -0.566316       -15.4102
 174   2.0000      -0.561810       -15.2876
 175   2.0000      -0.560708       -15.2576
 176   2.0000      -0.552768       -15.0416
 177   2.0000      -0.551645       -15.0110
 178   2.0000      -0.549836       -14.9618
 179   2.0000      -0.548830       -14.9344
 180   2.0000      -0.547669       -14.9028
 181   2.0000      -0.546863       -14.8809
 182   2.0000      -0.545032       -14.8311
 183   2.0000      -0.544816       -14.8252
 184   2.0000      -0.541854       -14.7446
 185   2.0000      -0.538345       -14.6491
 186   2.0000      -0.533023       -14.5043
 187   2.0000      -0.532115       -14.4796
 188   2.0000      -0.531106       -14.4521
 189   2.0000      -0.528381       -14.3780
 190   2.0000      -0.524769       -14.2797
 191   2.0000      -0.519613       -14.1394
 192   2.0000      -0.517945       -14.0940
 193   2.0000      -0.516501       -14.0547
 194   2.0000      -0.514879       -14.0106
 195   2.0000      -0.513626       -13.9765
 196   2.0000      -0.513212       -13.9652
 197   2.0000      -0.512119       -13.9355
 198   2.0000      -0.509704       -13.8698
 199   2.0000      -0.508783       -13.8447
 200   2.0000      -0.507937       -13.8217
 201   2.0000      -0.507051       -13.7975
 202   2.0000      -0.505442       -13.7538
 203   2.0000      -0.504154       -13.7187
 204   2.0000      -0.502264       -13.6673
 205   2.0000      -0.497561       -13.5393
 206   2.0000      -0.496468       -13.5096
 207   2.0000      -0.495731       -13.4895
 208   2.0000      -0.494598       -13.4587
 209   2.0000      -0.489545       -13.3212
 210   2.0000      -0.488872       -13.3029
 211   2.0000      -0.487601       -13.2683
 212   2.0000      -0.484139       -13.1741
 213   2.0000      -0.481929       -13.1140
 214   2.0000      -0.479203       -13.0398
 215   2.0000      -0.478433       -13.0188
 216   2.0000      -0.474584       -12.9141
 217   2.0000      -0.469866       -12.7857
 218   2.0000      -0.467901       -12.7322
 219   2.0000      -0.462871       -12.5954
 220   2.0000      -0.460401       -12.5282
 221   2.0000      -0.452871       -12.3232
 222   2.0000      -0.451722       -12.2920
 223   2.0000      -0.448966       -12.2170
 224   2.0000      -0.445911       -12.1339
 225   2.0000      -0.444729       -12.1017
 226   2.0000      -0.442485       -12.0406
 227   2.0000      -0.439621       -11.9627
 228   2.0000      -0.439345       -11.9552
 229   2.0000      -0.435238       -11.8434
 230   2.0000      -0.433859       -11.8059
 231   2.0000      -0.430975       -11.7274
 232   2.0000      -0.430179       -11.7058
 233   2.0000      -0.427140       -11.6231
 234   2.0000      -0.426338       -11.6013
 235   2.0000      -0.426021       -11.5926
 236   2.0000      -0.421421       -11.4674
 237   2.0000      -0.420737       -11.4488
 238   2.0000      -0.420206       -11.4344
 239   2.0000      -0.416227       -11.3261
 240   2.0000      -0.415026       -11.2934
 241   2.0000      -0.413052       -11.2397
 242   2.0000      -0.409588       -11.1455
 243   2.0000      -0.409016       -11.1299
 244   2.0000      -0.407651       -11.0927
 245   2.0000      -0.399927       -10.8826
 246   2.0000      -0.395089       -10.7509
 247   2.0000      -0.393313       -10.7026
 248   2.0000      -0.380892       -10.3646
 249   2.0000      -0.377795       -10.2803
 250   2.0000      -0.374819       -10.1993
 251   2.0000      -0.373695       -10.1687
 252   2.0000      -0.371739       -10.1155
 253   2.0000      -0.368319       -10.0225
 254   2.0000      -0.361067        -9.8251
 255   2.0000      -0.356024        -9.6879
 256   2.0000      -0.353006        -9.6058
 257   2.0000      -0.347241        -9.4489
 258   2.0000      -0.338749        -9.2178
 259   2.0000      -0.336462        -9.1556
 260   2.0000      -0.333184        -9.0664
 261   2.0000      -0.331892        -9.0312
 262   2.0000      -0.315701        -8.5907
 263   2.0000      -0.314486        -8.5576
 264   2.0000      -0.309888        -8.4325
 265   2.0000      -0.296001        -8.0546
 266   2.0000      -0.292979        -7.9724
 267   2.0000      -0.286274        -7.7899
 268   2.0000      -0.284904        -7.7526
 269   2.0000      -0.269560        -7.3351
 270   0.0000      -0.108776        -2.9600
 271   0.0000      -0.095120        -2.5883
 272   0.0000      -0.089594        -2.4380
 273   0.0000      -0.058102        -1.5810
 274   0.0000      -0.055718        -1.5162

MULLIKEN ATOMIC CHARGES
-----------------------
   0 C :    0.316522
   1 C :   -0.309683
   2 C :   -0.183665
   3 N :    0.152177
   4 C :   -0.198659
   5 N :    0.143382
   6 C :    0.033834
   7 C :    0.012676
   8 C :   -0.081114
   9 C :    0.094479
  10 C :    0.092262
  11 C :   -0.078830
  12 C :   -0.017338
  13 C :    0.035225
  14 C :    0.033598
  15 C :   -0.014819
  16 C :    0.133558
  17 O :   -0.147555
  18 C :   -0.128506
  19 C :   -0.021889
  20 C :   -0.153738
  21 C :    0.203260
  22 C :    0.211171
  23 N :   -0.218032
  24 C :    0.153638
  25 O :   -0.162603
  26 C :    0.128910
  27 C :   -0.231472
  28 C :    0.175872
  29 O :   -0.142758
  30 N :   -0.227331
  31 C :    0.117252
  32 C :    0.077924
  33 C :   -0.059764
  34 C :   -0.088831
  35 N :   -0.000973
  36 C :    0.146216
  37 C :    0.139268
  38 N :    0.040155
  39 F :   -0.139723
  40 F :   -0.142801
  41 C :    0.094218
  42 C :   -0.012739
  43 C :   -0.008987
  44 N :   -0.285092
  45 S :    0.552014
  46 N :   -0.253227
  47 C :   -0.249278
  48 C :    0.223087
  49 C :    0.154004
  50 N :   -0.227685
  51 C :    0.166509
  52 O :   -0.148016
  53 C :    0.115101
  54 C :   -0.121378
  55 C :    0.181760
  56 O :   -0.160689
  57 N :   -0.227862
  58 C :    0.130010
  59 C :   -0.061336
  60 C :   -0.079169
  61 C :    0.315574
  62 C :   -0.348219
  63 C :   -0.183084
  64 N :    0.150590
  65 C :   -0.184225
  66 N :    0.142238
  67 C :    0.051397
  68 C :    0.005977
  69 C :    0.151761
  70 O :   -0.145590
  71 C :   -0.080822
  72 C :    0.099878
  73 C :    0.098857
  74 C :   -0.088923
  75 C :   -0.021675
  76 C :    0.037313
  77 C :    0.038090
  78 C :   -0.019135
  79 H :   -0.013592
  80 H :   -0.003923
  81 H :   -0.011101
  82 H :   -0.005861
  83 H :   -0.005326
  84 H :   -0.018557
  85 H :    0.009577
  86 H :    0.033292
  87 H :    0.045895
  88 H :    0.053494
  89 H :    0.060970
  90 H :    0.049591
  91 H :    0.050346
  92 H :    0.044525
  93 H :    0.058250
  94 H :    0.059585
  95 H :    0.054755
  96 H :    0.046287
  97 H :    0.033130
  98 H :    0.021388
  99 H :   -0.011683
 100 H :   -0.007545
 101 H :   -0.008593
 102 H :   -0.005333
 103 H :   -0.005711
 104 H :   -0.016406
Sum of atomic charges:   -0.0000000

LOEWDIN ATOMIC CHARGES
----------------------
   0 C :    0.080127
   1 C :   -0.131397
   2 C :   -0.016151
   3 N :   -0.056126
   4 C :   -0.013279
   5 N :   -0.064025
   6 C :   -0.018393
   7 C :   -0.057225
   8 C :    0.031688
   9 C :   -0.009792
  10 C :   -0.004811
  11 C :    0.017599
  12 C :   -0.006517
  13 C :   -0.013822
  14 C :   -0.015011
  15 C :   -0.009712
  16 C :    0.084616
  17 O :   -0.146957
  18 C :   -0.079762
  19 C :    0.059554
  20 C :   -0.123660
  21 C :    0.090306
  22 C :    0.074466
  23 N :   -0.000738
  24 C :    0.100206
  25 O :   -0.157601
  26 C :    0.031925
  27 C :   -0.097454
  28 C :    0.110399
  29 O :   -0.144138
  30 N :   -0.007656
  31 C :    0.037432
  32 C :   -0.023902
  33 C :   -0.002314
  34 C :   -0.009455
  35 N :   -0.043103
  36 C :    0.060223
  37 C :    0.057004
  38 N :   -0.026827
  39 F :   -0.028647
  40 F :   -0.028603
  41 C :   -0.018535
  42 C :   -0.041024
  43 C :   -0.042117
  44 N :   -0.285267
  45 S :    0.690134
  46 N :   -0.273181
  47 C :   -0.107583
  48 C :    0.073261
  49 C :    0.076471
  50 N :   -0.011210
  51 C :    0.106101
  52 O :   -0.150443
  53 C :    0.037294
  54 C :   -0.114144
  55 C :    0.107492
  56 O :   -0.151337
  57 N :   -0.004440
  58 C :    0.033720
  59 C :    0.064501
  60 C :   -0.075808
  61 C :    0.078967
  62 C :   -0.139043
  63 C :   -0.018066
  64 N :   -0.052232
  65 C :   -0.015281
  66 N :   -0.058547
  67 C :   -0.025642
  68 C :   -0.050486
  69 C :    0.088167
  70 O :   -0.134105
  71 C :    0.032565
  72 C :   -0.006766
  73 C :   -0.006639
  74 C :    0.020409
  75 C :   -0.005249
  76 C :   -0.013981
  77 C :   -0.011599
  78 C :   -0.009774
  79 H :    0.038520
  80 H :    0.039461
  81 H :    0.034189
  82 H :    0.032600
  83 H :    0.032303
  84 H :    0.031289
  85 H :    0.044558
  86 H :    0.028342
  87 H :    0.023883
  88 H :    0.039141
  89 H :    0.043565
  90 H :    0.031567
  91 H :    0.035397
  92 H :    0.033050
  93 H :    0.034539
  94 H :    0.043129
  95 H :    0.040048
  96 H :    0.026930
  97 H :    0.028096
  98 H :    0.043405
  99 H :    0.039618
 100 H :    0.038936
 101 H :    0.034690
 102 H :    0.033032
 103 H :    0.032640
 104 H :    0.032031

  Mayer bond orders larger than 0.100000
B(  0-C ,  1-C ) :   1.6574 B(  0-C ,  6-C ) :   1.0057 B(  0-C , 18-C ) :   1.0210
B(  1-C ,  2-C ) :   1.1417 B(  1-C ,  4-C ) :   1.1638 B(  2-C ,  3-N ) :   2.9877
B(  4-C ,  5-N ) :   2.9913 B(  6-C ,  7-C ) :   1.2115 B(  6-C , 11-C ) :   1.4594
B(  7-C ,  8-C ) :   1.4732 B(  7-C , 16-C ) :   0.9245 B(  8-C ,  9-C ) :   1.1862
B(  8-C , 79-H ) :   1.0155 B(  9-C , 10-C ) :   1.2587 B(  9-C , 15-C ) :   1.2441
B( 10-C , 11-C ) :   1.2043 B( 10-C , 12-C ) :   1.2409 B( 11-C , 80-H ) :   0.9936
B( 12-C , 13-C ) :   1.4916 B( 12-C , 81-H ) :   0.9973 B( 13-C , 14-C ) :   1.2602
B( 13-C , 82-H ) :   0.9883 B( 14-C , 15-C ) :   1.4905 B( 14-C , 83-H ) :   0.9880
B( 15-C , 84-H ) :   0.9973 B( 16-C , 17-O ) :   2.2633 B( 16-C , 18-C ) :   0.9344
B( 18-C , 19-C ) :   1.6943 B( 19-C , 20-C ) :   1.0982 B( 19-C , 85-H ) :   0.9521
B( 20-C , 21-C ) :   1.5098 B( 20-C , 24-C ) :   0.9029 B( 21-C , 22-C ) :   1.0337
B( 21-C , 30-N ) :   1.2144 B( 22-C , 23-N ) :   1.1822 B( 22-C , 27-C ) :   1.6465
B( 23-N , 24-C ) :   1.0460 B( 23-N , 26-C ) :   0.9461 B( 24-C , 25-O ) :   2.1519
B( 26-C , 86-H ) :   0.9734 B( 26-C , 87-H ) :   0.9567 B( 26-C , 88-H ) :   0.9549
B( 27-C , 28-C ) :   0.9340 B( 27-C , 32-C ) :   0.9720 B( 28-C , 29-O ) :   2.2075
B( 28-C , 30-N ) :   0.9980 B( 30-N , 31-C ) :   0.9478 B( 31-C , 89-H ) :   0.9564
B( 31-C , 90-H ) :   0.9741 B( 31-C , 91-H ) :   0.9718 B( 32-C , 33-C ) :   1.3762
B( 32-C , 41-C ) :   0.1467 B( 32-C , 43-C ) :   1.2810 B( 33-C , 34-C ) :   1.0955
B( 33-C , 38-N ) :   1.4047 B( 34-C , 35-N ) :   1.3981 B( 34-C , 41-C ) :   1.3960
B( 35-N , 36-C ) :   1.6805 B( 36-C , 37-C ) :   1.0800 B( 36-C , 40-F ) :   1.1589
B( 37-C , 38-N ) :   1.7108 B( 37-C , 39-F ) :   1.1793 B( 41-C , 42-C ) :   1.2554
B( 41-C , 47-C ) :   0.9701 B( 42-C , 43-C ) :   1.0986 B( 42-C , 46-N ) :   1.4991
B( 43-C , 44-N ) :   1.4693 B( 44-N , 45-S ) :   1.2804 B( 44-N , 46-N ) :   0.1577
B( 45-S , 46-N ) :   1.3135 B( 47-C , 48-C ) :   1.6355 B( 47-C , 51-C ) :   0.9373
B( 48-C , 49-C ) :   1.0301 B( 48-C , 57-N ) :   1.1930 B( 49-C , 50-N ) :   1.1974
B( 49-C , 54-C ) :   1.5429 B( 50-N , 51-C ) :   1.0091 B( 50-N , 53-C ) :   0.9461
B( 51-C , 52-O ) :   2.1989 B( 53-C , 92-H ) :   0.9724 B( 53-C , 93-H ) :   0.9734
B( 53-C , 94-H ) :   0.9564 B( 54-C , 55-C ) :   0.9001 B( 54-C , 59-C ) :   1.1162
B( 55-C , 56-O ) :   2.1784 B( 55-C , 57-N ) :   1.0210 B( 57-N , 58-C ) :   0.9484
B( 58-C , 95-H ) :   0.9545 B( 58-C , 96-H ) :   0.9683 B( 58-C , 97-H ) :   0.9738
B( 59-C , 60-C ) :   1.6695 B( 59-C , 98-H ) :   0.9452 B( 60-C , 61-C ) :   1.0451
B( 60-C , 69-C ) :   0.9326 B( 61-C , 62-C ) :   1.6365 B( 61-C , 67-C ) :   1.0016
B( 62-C , 63-C ) :   1.1421 B( 62-C , 65-C ) :   1.1499 B( 63-C , 64-N ) :   2.9669
B( 65-C , 66-N ) :   2.9618 B( 67-C , 68-C ) :   1.2121 B( 67-C , 74-C ) :   1.4431
B( 68-C , 69-C ) :   0.9387 B( 68-C , 71-C ) :   1.4751 B( 69-C , 70-O ) :   2.2208
B( 71-C , 72-C ) :   1.1803 B( 71-C , 99-H ) :   1.0159 B( 72-C , 73-C ) :   1.2529
B( 72-C , 78-C ) :   1.2450 B( 73-C , 74-C ) :   1.2115 B( 73-C , 75-C ) :   1.2383
B( 74-C ,100-H ) :   0.9893 B( 75-C , 76-C ) :   1.4907 B( 75-C ,101-H ) :   0.9973
B( 76-C , 77-C ) :   1.2581 B( 76-C ,102-H ) :   0.9887 B( 77-C , 78-C ) :   1.4890
B( 77-C ,103-H ) :   0.9891 B( 78-C ,104-H ) :   0.9976

-----------------------------------------------------------------------------
         ABSORPTION SPECTRUM VIA TRANSITION ELECTRIC DIPOLE MOMENTS
-----------------------------------------------------------------------------
State   Energy  Wavelength   fosc         T2         TX        TY        TZ
        (cm-1)    (nm)                  (au**2)     (au)      (au)      (au)
-----------------------------------------------------------------------------
   0   17500.4    571.4   0.596320616  11.21780   0.86094  -3.19093   0.54272
   1   20801.4    480.7   0.069450679   1.09915  -0.09697   0.88315  -0.55660
   2   21566.4    463.7   0.130847077   1.99739  -0.41624   1.27678  -0.44042
   3   23064.9    433.6   0.423228044   6.04087  -0.18964   2.25167  -0.96689
   4   23385.4    427.6   0.257219095   3.62105   0.44665  -1.81382   0.36280
   5   25035.6    399.4   0.061820122   0.81292   0.46775  -0.70329  -0.31546
   6   25619.6    390.3   0.050310940   0.64650  -0.15347   0.44949  -0.64877
   7   25822.2    387.3   0.427946260   5.45596  -0.20428  -2.04907   1.10251
   8   26221.3    381.4   0.026525626   0.33303   0.23906   0.22516  -0.47454
   9   26522.4    377.0   0.035561217   0.44141   0.05561   0.53433  -0.39090
  10   28039.3    356.6   0.110303897   1.29509  -0.46024   1.04007  -0.03914
  11   28077.3    356.2   0.008440373   0.09897   0.11142  -0.29365   0.01796
  12   29041.8    344.3   0.037089745   0.42044  -0.17085  -0.39473   0.48522
  13   29307.6    341.2   0.004586399   0.05152  -0.09861  -0.07240   0.19119
  14   30041.4    332.9   0.006762216   0.07410   0.03956   0.15620   0.21941
  15   30085.2    332.4   0.024877277   0.27222   0.14031  -0.50243   0.00988
  16   30282.9    330.2   0.074224495   0.80691   0.46958   0.14893  -0.75115
  17   30507.0    327.8   0.010724835   0.11574  -0.04017  -0.33762  -0.01165
  18   31079.2    321.8   0.033507120   0.35493   0.04083   0.53947   0.24947
  19   31135.0    321.2   0.218887551   2.31445   0.39782   0.35403  -1.42508
  20   31516.5    317.3   0.032023645   0.33451   0.12849   0.36910  -0.42634
  21   31692.7    315.5   0.065702752   0.68249   0.04562  -0.76901   0.29840
  22   31718.6    315.3   0.056672097   0.58821  -0.03046  -0.76569   0.03158
  23   31948.5    313.0   0.146656813   1.51122  -0.31884  -0.44450   1.10090
  24   32305.4    309.5   0.161529700   1.64609  -0.01937  -1.28283  -0.00799
  25   32818.3    304.7   0.048279372   0.48431   0.18091  -0.63873   0.20880
  26   33110.8    302.0   0.143633334   1.42811   0.19003  -0.99432  -0.63507
  27   33233.8    300.9   0.032525649   0.32220  -0.04867   0.55386  -0.11430
  28   33324.4    300.1   0.318549531   3.14695  -0.64410  -1.16213   1.17539
  29   33403.3    299.4   0.406528973   4.00662  -0.24255  -1.78696   0.86866
  30   33518.2    298.3   0.451500251   4.43458   0.60554   1.14390  -1.66114
  31   33565.9    297.9   0.083964401   0.82352  -0.18100   0.85972   0.22723
  32   33928.8    294.7   0.031320437   0.30390   0.06838  -0.48982   0.24353
  33   34203.5    292.4   0.243359006   2.34236  -0.27970  -1.39661   0.55999
  34   34416.8    290.6   0.274262657   2.62344   0.07522   1.61515   0.09518
  35   34518.0    289.7   0.018964786   0.18087  -0.26684  -0.24286   0.22515
  36   34735.1    287.9   0.008982453   0.08513   0.09003   0.17785  -0.21307
  37   35148.1    284.5   0.086295955   0.80828   0.00993  -0.89684  -0.06216
  38   35492.0    281.8   0.067469992   0.62583  -0.35987  -0.04495   0.70307
  39   35516.8    281.6   0.223151296   2.06843  -0.07410   1.40045  -0.31888
  40   35812.2    279.2   0.044440883   0.40853   0.32403  -0.38180  -0.39720
  41   36093.8    277.1   0.006376433   0.05816  -0.16966   0.00442   0.17134
  42   36460.5    274.3   0.003722094   0.03361  -0.06276   0.05669   0.16265
  43   36557.0    273.5   0.059793408   0.53847   0.32956  -0.17086  -0.63298
  44   36689.8    272.6   0.003030775   0.02719   0.02441  -0.13225  -0.09544
  45   36918.1    270.9   0.049456866   0.44103  -0.13218   0.54320  -0.35845
  46   37293.2    268.1   0.001301844   0.01149  -0.08834  -0.03279   0.05111
  47   37335.1    267.8   0.001682108   0.01483   0.04294   0.04789  -0.10342
  48   37878.9    264.0   0.011871184   0.10317  -0.08669  -0.23356   0.20275
  49   38062.2    262.7   0.025347901   0.21924   0.02126   0.01047   0.46763
  50   38265.1    261.3   0.003888400   0.03345  -0.07920   0.16413   0.01557
  51   38411.7    260.3   0.038853187   0.33300  -0.01772   0.57576   0.03433
  52   38770.5    257.9   0.128852409   1.09412   0.60634  -0.41479  -0.74459
  53   39142.2    255.5   0.052748633   0.44365   0.18413  -0.05275  -0.63794
  54   39224.8    254.9   0.004392931   0.03687   0.17201   0.04940   0.06958
  55   39289.0    254.5   0.031565896   0.26450  -0.10748  -0.41928   0.27776
  56   39507.9    253.1   0.069311014   0.57756  -0.33266   0.28714   0.62004
  57   39833.5    251.0   0.152212691   1.25799  -0.45389   1.02519   0.03104
  58   39905.4    250.6   0.007879405   0.06500  -0.03245   0.08063   0.23969
  59   39947.3    250.3   0.043079309   0.35502  -0.00678   0.59554   0.01759
  60   40187.6    248.8   0.075481192   0.61833  -0.50307   0.57706   0.17958

FINAL SINGLE POINT ENERGY     -3927.586784481899

DIPOLE MOMENT
-------------
                                X             Y             Z
Electronic contribution:      3.05624       7.03979      -3.41684
Nuclear contribution   :     -2.28027      -8.17721       1.44173
                        -----------------------------------------
Total Dipole Moment    :      0.77597      -1.13742      -1.97510
                        -----------------------------------------
Magnitude (a.u.)       :      2.40767
Magnitude (Debye)      :      6.11981

Rotational constants in cm-1:     0.002730     0.000238     0.000224
Rotational constants in MHz :    81.836481     7.140399     6.723343

                             ****ORCA TERMINATED NORMALLY****
TOTAL RUN TIME: 0 days 0 hours 11 minutes 10 seconds 365 msec
