                         Program Version 4.2.0 -  RELEASE  -
|  1> # ORCA input file
|  2> # SCF done       -181.172291560216          0.000790099154
|  3> ! CAM-B3LYP def2-SVP def2/J RIJCOSX Grid4 TightSCF
|  4> %maxcore 5000
|  5> %tddft
|  6>     Mode sTDDFT
|  7>     Ethresh 5.0
|  8>     maxcore 5000
|  9> end
| 10>
| 11> %pal
| 12>   nprocs 6
| 13>   end
| 14> * xyz 0 1
| 15>    C       -2.46904         4.06468        -6.02336
| 16>    C       -2.51358         5.42853        -6.16850
| 17>    C       -1.80761         6.11932        -7.16635
| 18>    N       -1.21079         6.71958        -7.94390
| 19>    C       -3.25841         6.28467        -5.33499
| 20>    N       -3.87220         7.01759        -4.69897
| 21>    C       -1.88682         3.12518        -6.97371
| 22>    C       -2.47066         1.84112        -6.76136
| 23>    C       -2.12261         0.76206        -7.52272
| 24>    C       -1.14861         0.91822        -8.53424
| 25>    C       -0.54613         2.19444        -8.73571
| 26>    C       -0.93453         3.29680        -7.94136
| 27>    C        0.43758         2.33066        -9.73630
| 28>    C        0.80717         1.26071       -10.50495
| 29>    C        0.21065         0.00594       -10.30910
| 30>    C       -0.74652        -0.16148        -9.34548
| 31>    C       -3.41111         1.91225        -5.63078
| 32>    O       -4.14567         1.05493        -5.20259
| 33>    C       -3.21624         3.28240        -5.05921
| 34>    C       -3.59461         3.54061        -3.78332
| 35>    C       -3.14988         4.59774        -2.94519
| 36>    C       -3.89756         5.13366        -1.79708
| 37>    N       -3.28965         6.08584        -1.15845
| 38>    C       -2.09814         6.25843        -1.79611
| 39>    C       -1.97615         5.31598        -2.93145
| 40>    C       -0.67073         5.43933        -3.52585
| 41>    S        0.04708         4.38864        -4.57043
| 42>    C       -0.07475         6.56514        -2.85672
| 43>    C       -0.95822         7.00977        -1.75426
| 44>    N       -0.37339         8.02455        -1.05522
| 45>    C        0.77425         8.22830        -1.62779
| 46>    C        1.03856         7.36246        -2.78670
| 47>    C        2.19351         7.44552        -3.63338
| 48>    C        3.44494         7.79615        -3.14276
| 49>    C        4.57315         7.84798        -3.95160
| 50>    C        4.54280         7.58426        -5.31893
| 51>    C        3.26918         7.26517        -5.86912
| 52>    C        2.10602         7.19080        -5.02457
| 53>    N        0.99946         6.92052        -5.71644
| 54>    S        1.37510         6.75908        -7.26442
| 55>    N        2.95630         7.02044        -7.14055
| 56>    C        5.72580         7.64983        -6.12462
| 57>    C        5.73120         7.53524        -7.59181
| 58>    N        6.90417         7.63725        -8.13859
| 59>    C        7.77451         7.81760        -7.10869
| 60>    C        7.05750         7.83756        -5.80693
| 61>    C        8.01864         8.02335        -4.74783
| 62>    S        7.84074         8.11783        -3.11294
| 63>    C        9.28968         8.10310        -5.42365
| 64>    C        9.11088         7.98765        -6.87979
| 65>    N       10.31439         8.08169        -7.51268
| 66>    C       11.19608         8.27514        -6.57924
| 67>    C       10.62733         8.30331        -5.21678
| 68>    C       11.31496         8.50969        -3.98305
| 69>    C       12.23746         9.48421        -3.80112
| 70>    C       13.00372         9.79834        -2.60632
| 71>    C       13.16388         8.98792        -1.51621
| 72>    C       13.93924         9.32676        -0.38653
| 73>    N       14.55600         9.55063         0.55484
| 74>    C       12.60524         7.69675        -1.39706
| 75>    N       12.19516         6.63475        -1.25341
| 76>    C       13.61574        11.10401        -2.81303
| 77>    C       13.30194        11.55889        -4.12828
| 78>    C       12.45736        10.56534        -4.80320
| 79>    O       11.98435        10.62588        -5.91821
| 80>    C       13.74535        12.76152        -4.60084
| 81>    C       14.53336        13.58167        -3.76382
| 82>    C       14.84566        13.13790        -2.44540
| 83>    C       14.37596        11.88704        -1.98444
| 84>    C       15.62517        13.96973        -1.61608
| 85>    C       16.07564        15.18129        -2.06551
| 86>    C       15.76900        15.61634        -3.36375
| 87>    C       15.01500        14.83340        -4.19537
| 88>    H       -2.57891        -0.20154        -7.35127
| 89>    H       -0.45421         4.24936        -8.10209
| 90>    H        0.89254         3.29901        -9.88510
| 91>    H        1.56185         1.37518       -11.26851
| 92>    H        0.51456        -0.82745       -10.92450
| 93>    H       -1.20789        -1.12554        -9.18929
| 94>    H       -4.26237         2.81434        -3.32972
| 95>    H       -4.87566         4.80180        -1.49534
| 96>    H        1.43409         9.00013        -1.27106
| 97>    H        3.55658         7.99760        -2.08803
| 98>    H        5.51617         8.10441        -3.49549
| 99>    H        4.84689         7.38725        -8.18482
|100>    H       12.24258         8.33557        -6.81441
|101>    H       11.00182         7.88577        -3.15417
|102>    H       13.49485        13.08310        -5.60095
|103>    H       14.62367        11.58102        -0.98024
|104>    H       15.85943        13.63032        -0.61789
|105>    H       16.67103        15.81165        -1.42243
|106>    H       16.13249        16.57522        -3.70133
|107>    H       14.77508        15.16318        -5.19550
|108> *
|109>
|110>                          ****END OF INPUT****

CARTESIAN COORDINATES (ANGSTROEM)
---------------------------------
  C     -2.469040    4.064680   -6.023360
  C     -2.513580    5.428530   -6.168500
  C     -1.807610    6.119320   -7.166350
  N     -1.210790    6.719580   -7.943900
  C     -3.258410    6.284670   -5.334990
  N     -3.872200    7.017590   -4.698970
  C     -1.886820    3.125180   -6.973710
  C     -2.470660    1.841120   -6.761360
  C     -2.122610    0.762060   -7.522720
  C     -1.148610    0.918220   -8.534240
  C     -0.546130    2.194440   -8.735710
  C     -0.934530    3.296800   -7.941360
  C      0.437580    2.330660   -9.736300
  C      0.807170    1.260710  -10.504950
  C      0.210650    0.005940  -10.309100
  C     -0.746520   -0.161480   -9.345480
  C     -3.411110    1.912250   -5.630780
  O     -4.145670    1.054930   -5.202590
  C     -3.216240    3.282400   -5.059210
  C     -3.594610    3.540610   -3.783320
  C     -3.149880    4.597740   -2.945190
  C     -3.897560    5.133660   -1.797080
  N     -3.289650    6.085840   -1.158450
  C     -2.098140    6.258430   -1.796110
  C     -1.976150    5.315980   -2.931450
  C     -0.670730    5.439330   -3.525850
  S      0.047080    4.388640   -4.570430
  C     -0.074750    6.565140   -2.856720
  C     -0.958220    7.009770   -1.754260
  N     -0.373390    8.024550   -1.055220
  C      0.774250    8.228300   -1.627790
  C      1.038560    7.362460   -2.786700
  C      2.193510    7.445520   -3.633380
  C      3.444940    7.796150   -3.142760
  C      4.573150    7.847980   -3.951600
  C      4.542800    7.584260   -5.318930
  C      3.269180    7.265170   -5.869120
  C      2.106020    7.190800   -5.024570
  N      0.999460    6.920520   -5.716440
  S      1.375100    6.759080   -7.264420
  N      2.956300    7.020440   -7.140550
  C      5.725800    7.649830   -6.124620
  C      5.731200    7.535240   -7.591810
  N      6.904170    7.637250   -8.138590
  C      7.774510    7.817600   -7.108690
  C      7.057500    7.837560   -5.806930
  C      8.018640    8.023350   -4.747830
  S      7.840740    8.117830   -3.112940
  C      9.289680    8.103100   -5.423650
  C      9.110880    7.987650   -6.879790
  N     10.314390    8.081690   -7.512680
  C     11.196080    8.275140   -6.579240
  C     10.627330    8.303310   -5.216780
  C     11.314960    8.509690   -3.983050
  C     12.237460    9.484210   -3.801120
  C     13.003720    9.798340   -2.606320
  C     13.163880    8.987920   -1.516210
  C     13.939240    9.326760   -0.386530
  N     14.556000    9.550630    0.554840
  C     12.605240    7.696750   -1.397060
  N     12.195160    6.634750   -1.253410
  C     13.615740   11.104010   -2.813030
  C     13.301940   11.558890   -4.128280
  C     12.457360   10.565340   -4.803200
  O     11.984350   10.625880   -5.918210
  C     13.745350   12.761520   -4.600840
  C     14.533360   13.581670   -3.763820
  C     14.845660   13.137900   -2.445400
  C     14.375960   11.887040   -1.984440
  C     15.625170   13.969730   -1.616080
  C     16.075640   15.181290   -2.065510
  C     15.769000   15.616340   -3.363750
  C     15.015000   14.833400   -4.195370
  H     -2.578910   -0.201540   -7.351270
  H     -0.454210    4.249360   -8.102090
  H      0.892540    3.299010   -9.885100
  H      1.561850    1.375180  -11.268510
  H      0.514560   -0.827450  -10.924500
  H     -1.207890   -1.125540   -9.189290
  H     -4.262370    2.814340   -3.329720
  H     -4.875660    4.801800   -1.495340
  H      1.434090    9.000130   -1.271060
  H      3.556580    7.997600   -2.088030
  H      5.516170    8.104410   -3.495490
  H      4.846890    7.387250   -8.184820
  H     12.242580    8.335570   -6.814410
  H     11.001820    7.885770   -3.154170
  H     13.494850   13.083100   -5.600950
  H     14.623670   11.581020   -0.980240
  H     15.859430   13.630320   -0.617890
  H     16.671030   15.811650   -1.422430
  H     16.132490   16.575220   -3.701330
  H     14.775080   15.163180   -5.195500

 Total Charge           Charge          ....    0
 Multiplicity           Mult            ....    1
 Number of Electrons    NEL             ....  502
 Basis Dimension        Dim             .... 1134

ORBITAL ENERGIES
----------------

  NO   OCC          E(Eh)            E(eV)
   0   2.0000     -89.027932     -2422.5732
   1   2.0000     -88.916320     -2419.5361
   2   2.0000     -88.913100     -2419.4485
   3   2.0000     -19.231486      -523.3153
   4   2.0000     -19.220539      -523.0175
   5   2.0000     -14.442681      -393.0053
   6   2.0000     -14.439280      -392.9128
   7   2.0000     -14.425111      -392.5272
   8   2.0000     -14.423661      -392.4878
   9   2.0000     -14.422946      -392.4683
  10   2.0000     -14.422654      -392.4604
  11   2.0000     -14.421815      -392.4375
  12   2.0000     -14.419419      -392.3723
  13   2.0000     -14.415202      -392.2576
  14   2.0000     -14.413674      -392.2160
  15   2.0000     -10.380062      -282.4558
  16   2.0000     -10.371499      -282.2228
  17   2.0000     -10.354260      -281.7537
  18   2.0000     -10.353180      -281.7243
  19   2.0000     -10.350421      -281.6493
  20   2.0000     -10.349289      -281.6185
  21   2.0000     -10.348255      -281.5903
  22   2.0000     -10.345889      -281.5259
  23   2.0000     -10.343586      -281.4633
  24   2.0000     -10.342060      -281.4218
  25   2.0000     -10.340103      -281.3685
  26   2.0000     -10.340023      -281.3663
  27   2.0000     -10.339343      -281.3478
  28   2.0000     -10.334629      -281.2196
  29   2.0000     -10.334025      -281.2031
  30   2.0000     -10.331268      -281.1281
  31   2.0000     -10.330952      -281.1195
  32   2.0000     -10.328605      -281.0556
  33   2.0000     -10.328434      -281.0510
  34   2.0000     -10.327646      -281.0295
  35   2.0000     -10.325591      -280.9736
  36   2.0000     -10.324325      -280.9392
  37   2.0000     -10.322308      -280.8843
  38   2.0000     -10.321436      -280.8605
  39   2.0000     -10.315174      -280.6901
  40   2.0000     -10.314815      -280.6804
  41   2.0000     -10.314541      -280.6729
  42   2.0000     -10.314263      -280.6654
  43   2.0000     -10.313251      -280.6378
  44   2.0000     -10.313199      -280.6364
  45   2.0000     -10.312387      -280.6143
  46   2.0000     -10.312312      -280.6123
  47   2.0000     -10.310786      -280.5707
  48   2.0000     -10.308353      -280.5045
  49   2.0000     -10.307683      -280.4863
  50   2.0000     -10.307393      -280.4784
  51   2.0000     -10.306586      -280.4565
  52   2.0000     -10.306291      -280.4484
  53   2.0000     -10.306189      -280.4456
  54   2.0000     -10.306064      -280.4423
  55   2.0000     -10.305839      -280.4361
  56   2.0000     -10.305449      -280.4255
  57   2.0000     -10.301208      -280.3101
  58   2.0000     -10.300764      -280.2980
  59   2.0000     -10.300671      -280.2955
  60   2.0000     -10.300364      -280.2871
  61   2.0000     -10.300193      -280.2825
  62   2.0000     -10.298744      -280.2431
  63   2.0000     -10.293876      -280.1106
  64   2.0000     -10.293456      -280.0992
  65   2.0000     -10.293266      -280.0940
  66   2.0000     -10.293215      -280.0926
  67   2.0000     -10.292700      -280.0786
  68   2.0000     -10.291215      -280.0382
  69   2.0000     -10.288966      -279.9770
  70   2.0000     -10.288826      -279.9732
  71   2.0000     -10.288373      -279.9609
  72   2.0000     -10.288230      -279.9570
  73   2.0000      -8.118093      -220.9046
  74   2.0000      -8.011170      -217.9950
  75   2.0000      -8.008521      -217.9229
  76   2.0000      -6.089292      -165.6981
  77   2.0000      -6.081403      -165.4834
  78   2.0000      -6.080691      -165.4640
  79   2.0000      -5.980099      -162.7268
  80   2.0000      -5.979607      -162.7134
  81   2.0000      -5.977268      -162.6497
  82   2.0000      -5.976859      -162.6386
  83   2.0000      -5.970521      -162.4661
  84   2.0000      -5.968091      -162.4000
  85   2.0000      -1.146679       -31.2027
  86   2.0000      -1.135986       -30.9117
  87   2.0000      -1.128864       -30.7180
  88   2.0000      -1.092178       -29.7197
  89   2.0000      -1.086509       -29.5654
  90   2.0000      -1.072820       -29.1929
  91   2.0000      -1.066387       -29.0179
  92   2.0000      -1.026341       -27.9282
  93   2.0000      -1.025746       -27.9120
  94   2.0000      -1.006883       -27.3987
  95   2.0000      -1.005098       -27.3501
  96   2.0000      -1.001415       -27.2499
  97   2.0000      -1.000902       -27.2359
  98   2.0000      -0.985435       -26.8151
  99   2.0000      -0.980270       -26.6745
 100   2.0000      -0.977341       -26.5948
 101   2.0000      -0.975836       -26.5538
 102   2.0000      -0.971517       -26.4363
 103   2.0000      -0.969632       -26.3850
 104   2.0000      -0.936157       -25.4741
 105   2.0000      -0.931887       -25.3579
 106   2.0000      -0.921719       -25.0813
 107   2.0000      -0.918419       -24.9914
 108   2.0000      -0.912867       -24.8404
 109   2.0000      -0.894388       -24.3375
 110   2.0000      -0.891610       -24.2620
 111   2.0000      -0.888887       -24.1878
 112   2.0000      -0.884670       -24.0731
 113   2.0000      -0.880109       -23.9490
 114   2.0000      -0.867237       -23.5987
 115   2.0000      -0.864967       -23.5370
 116   2.0000      -0.862518       -23.4703
 117   2.0000      -0.847891       -23.0723
 118   2.0000      -0.845370       -23.0037
 119   2.0000      -0.836778       -22.7699
 120   2.0000      -0.831867       -22.6362
 121   2.0000      -0.827028       -22.5046
 122   2.0000      -0.802315       -21.8321
 123   2.0000      -0.799947       -21.7677
 124   2.0000      -0.783616       -21.3233
 125   2.0000      -0.774734       -21.0816
 126   2.0000      -0.770830       -20.9754
 127   2.0000      -0.765993       -20.8437
 128   2.0000      -0.756057       -20.5733
 129   2.0000      -0.745919       -20.2975
 130   2.0000      -0.743157       -20.2223
 131   2.0000      -0.725617       -19.7450
 132   2.0000      -0.719924       -19.5901
 133   2.0000      -0.718176       -19.5426
 134   2.0000      -0.712900       -19.3990
 135   2.0000      -0.708817       -19.2879
 136   2.0000      -0.706121       -19.2145
 137   2.0000      -0.705838       -19.2068
 138   2.0000      -0.702291       -19.1103
 139   2.0000      -0.698308       -19.0019
 140   2.0000      -0.693261       -18.8646
 141   2.0000      -0.684862       -18.6361
 142   2.0000      -0.681867       -18.5545
 143   2.0000      -0.661439       -17.9987
 144   2.0000      -0.654551       -17.8112
 145   2.0000      -0.651857       -17.7379
 146   2.0000      -0.645267       -17.5586
 147   2.0000      -0.639171       -17.3927
 148   2.0000      -0.635278       -17.2868
 149   2.0000      -0.633787       -17.2462
 150   2.0000      -0.618677       -16.8350
 151   2.0000      -0.616126       -16.7656
 152   2.0000      -0.614376       -16.7180
 153   2.0000      -0.610989       -16.6259
 154   2.0000      -0.608515       -16.5585
 155   2.0000      -0.599413       -16.3109
 156   2.0000      -0.594364       -16.1735
 157   2.0000      -0.584191       -15.8966
 158   2.0000      -0.582323       -15.8458
 159   2.0000      -0.579792       -15.7769
 160   2.0000      -0.576147       -15.6778
 161   2.0000      -0.570737       -15.5305
 162   2.0000      -0.563375       -15.3302
 163   2.0000      -0.561628       -15.2827
 164   2.0000      -0.557617       -15.1735
 165   2.0000      -0.555702       -15.1214
 166   2.0000      -0.554859       -15.0985
 167   2.0000      -0.553338       -15.0571
 168   2.0000      -0.550072       -14.9682
 169   2.0000      -0.548378       -14.9221
 170   2.0000      -0.546966       -14.8837
 171   2.0000      -0.544476       -14.8160
 172   2.0000      -0.542881       -14.7726
 173   2.0000      -0.540204       -14.6997
 174   2.0000      -0.538132       -14.6433
 175   2.0000      -0.535200       -14.5635
 176   2.0000      -0.530056       -14.4235
 177   2.0000      -0.525548       -14.3009
 178   2.0000      -0.523940       -14.2571
 179   2.0000      -0.521277       -14.1847
 180   2.0000      -0.516266       -14.0483
 181   2.0000      -0.515545       -14.0287
 182   2.0000      -0.514202       -13.9921
 183   2.0000      -0.512854       -13.9555
 184   2.0000      -0.508984       -13.8502
 185   2.0000      -0.506710       -13.7883
 186   2.0000      -0.504664       -13.7326
 187   2.0000      -0.500617       -13.6225
 188   2.0000      -0.500173       -13.6104
 189   2.0000      -0.497097       -13.5267
 190   2.0000      -0.496697       -13.5158
 191   2.0000      -0.493954       -13.4412
 192   2.0000      -0.489984       -13.3331
 193   2.0000      -0.488275       -13.2866
 194   2.0000      -0.487906       -13.2766
 195   2.0000      -0.485935       -13.2230
 196   2.0000      -0.484265       -13.1775
 197   2.0000      -0.476569       -12.9681
 198   2.0000      -0.473730       -12.8909
 199   2.0000      -0.469049       -12.7635
 200   2.0000      -0.463332       -12.6079
 201   2.0000      -0.457023       -12.4362
 202   2.0000      -0.455850       -12.4043
 203   2.0000      -0.453870       -12.3504
 204   2.0000      -0.451403       -12.2833
 205   2.0000      -0.451129       -12.2759
 206   2.0000      -0.449557       -12.2331
 207   2.0000      -0.447028       -12.1643
 208   2.0000      -0.445931       -12.1344
 209   2.0000      -0.442820       -12.0498
 210   2.0000      -0.441611       -12.0168
 211   2.0000      -0.441091       -12.0027
 212   2.0000      -0.438593       -11.9347
 213   2.0000      -0.435466       -11.8496
 214   2.0000      -0.434655       -11.8276
 215   2.0000      -0.433599       -11.7988
 216   2.0000      -0.430847       -11.7239
 217   2.0000      -0.429799       -11.6954
 218   2.0000      -0.428356       -11.6562
 219   2.0000      -0.427226       -11.6254
 220   2.0000      -0.424975       -11.5642
 221   2.0000      -0.420688       -11.4475
 222   2.0000      -0.417494       -11.3606
 223   2.0000      -0.412974       -11.2376
 224   2.0000      -0.408745       -11.1225
 225   2.0000      -0.401699       -10.9308
 226   2.0000      -0.387255       -10.5377
 227   2.0000      -0.382674       -10.4131
 228   2.0000      -0.375759       -10.2249
 229   2.0000      -0.369266       -10.0482
 230   2.0000      -0.368733       -10.0337
 231   2.0000      -0.367323        -9.9954
 232   2.0000      -0.362293        -9.8585
 233   2.0000      -0.360725        -9.8158
 234   2.0000      -0.359244        -9.7755
 235   2.0000      -0.353366        -9.6156
 236   2.0000      -0.346126        -9.4186
 237   2.0000      -0.340946        -9.2776
 238   2.0000      -0.339715        -9.2441
 239   2.0000      -0.337963        -9.1965
 240   2.0000      -0.326501        -8.8846
 241   2.0000      -0.326182        -8.8759
 242   2.0000      -0.318950        -8.6791
 243   2.0000      -0.312674        -8.5083
 244   2.0000      -0.312146        -8.4939
 245   2.0000      -0.309198        -8.4137
 246   2.0000      -0.299973        -8.1627
 247   2.0000      -0.297961        -8.1079
 248   2.0000      -0.297024        -8.0824
 249   2.0000      -0.293183        -7.9779
 250   2.0000      -0.278229        -7.5710
 251   0.0000      -0.124928        -3.3995
 252   0.0000      -0.117905        -3.2084
 253   0.0000      -0.110309        -3.0017
 254   0.0000      -0.093634        -2.5479
 255   0.0000      -0.076853        -2.0913

MULLIKEN ATOMIC CHARGES
-----------------------
   0 C :    0.251800
   1 C :   -0.330556
   2 C :   -0.119243
   3 N :    0.106612
   4 C :   -0.189764
   5 N :    0.175406
   6 C :    0.061557
   7 C :    0.014875
   8 C :   -0.078394
   9 C :    0.091509
  10 C :    0.097424
  11 C :   -0.074431
  12 C :   -0.016769
  13 C :    0.035097
  14 C :    0.035486
  15 C :   -0.011016
  16 C :    0.138146
  17 O :   -0.136240
  18 C :   -0.103893
  19 C :    0.020391
  20 C :   -0.014290
  21 C :    0.082309
  22 N :   -0.017328
  23 C :    0.034989
  24 C :   -0.006344
  25 C :   -0.004365
  26 S :   -0.099059
  27 C :    0.013239
  28 C :    0.007154
  29 N :   -0.022079
  30 C :    0.065381
  31 C :   -0.027233
  32 C :    0.079725
  33 C :   -0.035160
  34 C :   -0.020741
  35 C :    0.104277
  36 C :   -0.003042
  37 C :    0.023585
  38 N :   -0.259358
  39 S :    0.528056
  40 N :   -0.277316
  41 C :   -0.040541
  42 C :    0.069421
  43 N :   -0.012118
  44 C :   -0.023915
  45 C :   -0.013786
  46 C :   -0.005502
  47 S :   -0.102241
  48 C :    0.023118
  49 C :    0.039065
  50 N :   -0.031272
  51 C :    0.125883
  52 C :   -0.039269
  53 C :   -0.025928
  54 C :   -0.102685
  55 C :    0.313894
  56 C :   -0.331986
  57 C :   -0.180265
  58 N :    0.153510
  59 C :   -0.198607
  60 N :    0.172505
  61 C :    0.051583
  62 C :   -0.011612
  63 C :    0.155003
  64 O :   -0.143438
  65 C :   -0.070975
  66 C :    0.094304
  67 C :    0.097979
  68 C :   -0.081720
  69 C :   -0.017505
  70 C :    0.036123
  71 C :    0.038301
  72 C :   -0.012952
  73 H :   -0.010722
  74 H :   -0.027686
  75 H :   -0.015265
  76 H :   -0.001687
  77 H :   -0.003397
  78 H :   -0.016437
  79 H :    0.023106
  80 H :    0.012966
  81 H :    0.012539
  82 H :   -0.014293
  83 H :   -0.043289
  84 H :    0.022329
  85 H :    0.010848
  86 H :    0.047563
  87 H :   -0.009676
  88 H :   -0.006602
  89 H :   -0.007453
  90 H :   -0.000397
  91 H :   -0.002373
  92 H :   -0.014844
Sum of atomic charges:   -0.0000000

LOEWDIN ATOMIC CHARGES
----------------------
   0 C :    0.066031
   1 C :   -0.142560
   2 C :    0.001883
   3 N :   -0.085986
   4 C :   -0.017368
   5 N :   -0.046046
   6 C :   -0.019520
   7 C :   -0.056187
   8 C :    0.034724
   9 C :   -0.008590
  10 C :   -0.004076
  11 C :    0.012528
  12 C :   -0.007350
  13 C :   -0.010902
  14 C :   -0.012063
  15 C :   -0.007819
  16 C :    0.086508
  17 O :   -0.135219
  18 C :   -0.059489
  19 C :    0.053440
  20 C :   -0.055246
  21 C :    0.101791
  22 N :   -0.070109
  23 C :    0.045687
  24 C :   -0.002364
  25 C :   -0.142260
  26 S :    0.117198
  27 C :   -0.018382
  28 C :    0.047062
  29 N :   -0.075054
  30 C :    0.094027
  31 C :   -0.028560
  32 C :   -0.020428
  33 C :   -0.003021
  34 C :    0.009286
  35 C :   -0.028965
  36 C :   -0.039080
  37 C :   -0.045003
  38 N :   -0.274890
  39 S :    0.692609
  40 N :   -0.292343
  41 C :   -0.022417
  42 C :    0.092988
  43 N :   -0.075539
  44 C :    0.037967
  45 C :   -0.034442
  46 C :   -0.135998
  47 S :    0.081330
  48 C :   -0.009023
  49 C :    0.040485
  50 N :   -0.086866
  51 C :    0.113988
  52 C :   -0.047618
  53 C :    0.076427
  54 C :   -0.077034
  55 C :    0.072578
  56 C :   -0.125510
  57 C :   -0.016921
  58 N :   -0.045085
  59 C :   -0.022343
  60 N :   -0.038894
  61 C :   -0.024993
  62 C :   -0.058713
  63 C :    0.089551
  64 O :   -0.124448
  65 C :    0.037828
  66 C :   -0.008027
  67 C :   -0.004295
  68 C :    0.021776
  69 C :   -0.004342
  70 C :   -0.009828
  71 C :   -0.009348
  72 C :   -0.007486
  73 H :    0.040020
  74 H :    0.029719
  75 H :    0.032672
  76 H :    0.034166
  77 H :    0.033539
  78 H :    0.032386
  79 H :    0.049428
  80 H :    0.029597
  81 H :    0.027569
  82 H :    0.035386
  83 H :    0.007442
  84 H :    0.023441
  85 H :    0.026802
  86 H :    0.050014
  87 H :    0.040804
  88 H :    0.039847
  89 H :    0.035620
  90 H :    0.034749
  91 H :    0.034124
  92 H :    0.033034

  Mayer bond orders larger than 0.100000
B(  0-C ,  1-C ) :   1.6440 B(  0-C ,  6-C ) :   1.0023 B(  0-C , 18-C ) :   1.0231
B(  1-C ,  2-C ) :   1.1554 B(  1-C ,  4-C ) :   1.1611 B(  2-C ,  3-N ) :   2.8940
B(  4-C ,  5-N ) :   3.0092 B(  6-C ,  7-C ) :   1.2184 B(  6-C , 11-C ) :   1.4528
B(  7-C ,  8-C ) :   1.4665 B(  7-C , 16-C ) :   0.9203 B(  8-C ,  9-C ) :   1.1886
B(  8-C , 73-H ) :   1.0155 B(  9-C , 10-C ) :   1.2535 B(  9-C , 15-C ) :   1.2442
B( 10-C , 11-C ) :   1.2064 B( 10-C , 12-C ) :   1.2388 B( 11-C , 74-H ) :   0.9951
B( 12-C , 13-C ) :   1.4916 B( 12-C , 75-H ) :   0.9971 B( 13-C , 14-C ) :   1.2595
B( 13-C , 76-H ) :   0.9892 B( 14-C , 15-C ) :   1.4899 B( 14-C , 77-H ) :   0.9887
B( 15-C , 78-H ) :   0.9975 B( 16-C , 17-O ) :   2.2806 B( 16-C , 18-C ) :   0.9255
B( 18-C , 19-C ) :   1.7109 B( 19-C , 20-C ) :   1.0663 B( 19-C , 79-H ) :   0.9437
B( 20-C , 21-C ) :   1.0141 B( 20-C , 24-C ) :   1.5103 B( 21-C , 22-N ) :   1.7248
B( 21-C , 80-H ) :   0.9932 B( 22-N , 23-C ) :   1.2719 B( 23-C , 24-C ) :   1.0610
B( 23-C , 28-C ) :   1.5230 B( 24-C , 25-C ) :   1.0446 B( 25-C , 26-S ) :   1.6603
B( 25-C , 27-C ) :   1.0274 B( 27-C , 28-C ) :   1.0604 B( 27-C , 31-C ) :   1.5801
B( 28-C , 29-N ) :   1.2638 B( 29-N , 30-C ) :   1.7250 B( 30-C , 31-C ) :   1.0361
B( 30-C , 81-H ) :   0.9888 B( 31-C , 32-C ) :   1.0004 B( 32-C , 33-C ) :   1.4396
B( 32-C , 35-C ) :   0.1124 B( 32-C , 37-C ) :   1.2173 B( 33-C , 34-C ) :   1.2432
B( 33-C , 82-H ) :   0.9985 B( 34-C , 35-C ) :   1.4371 B( 34-C , 83-H ) :   0.9671
B( 35-C , 36-C ) :   1.1699 B( 35-C , 41-C ) :   1.0682 B( 36-C , 37-C ) :   1.1561
B( 36-C , 40-N ) :   1.5284 B( 37-C , 38-N ) :   1.5230 B( 38-N , 39-S ) :   1.2748
B( 38-N , 40-N ) :   0.1396 B( 39-S , 40-N ) :   1.2594 B( 41-C , 42-C ) :   1.0522
B( 41-C , 45-C ) :   1.5035 B( 42-C , 43-N ) :   1.6923 B( 42-C , 84-H ) :   0.9660
B( 43-N , 44-C ) :   1.2867 B( 44-C , 45-C ) :   1.0684 B( 44-C , 49-C ) :   1.5044
B( 45-C , 46-C ) :   1.0428 B( 46-C , 47-S ) :   1.6711 B( 46-C , 48-C ) :   1.0205
B( 47-S , 83-H ) :   0.1242 B( 48-C , 49-C ) :   1.0584 B( 48-C , 52-C ) :   1.5771
B( 49-C , 50-N ) :   1.2787 B( 50-N , 51-C ) :   1.7157 B( 51-C , 52-C ) :   1.0013
B( 51-C , 85-H ) :   0.9881 B( 52-C , 53-C ) :   1.0535 B( 53-C , 54-C ) :   1.6932
B( 53-C , 86-H ) :   0.9387 B( 54-C , 55-C ) :   1.0192 B( 54-C , 63-C ) :   0.9377
B( 55-C , 56-C ) :   1.6704 B( 55-C , 61-C ) :   1.0027 B( 56-C , 57-C ) :   1.1394
B( 56-C , 59-C ) :   1.1428 B( 57-C , 58-N ) :   2.9683 B( 59-C , 60-N ) :   2.9891
B( 61-C , 62-C ) :   1.2097 B( 61-C , 68-C ) :   1.4461 B( 62-C , 63-C ) :   0.9511
B( 62-C , 65-C ) :   1.4665 B( 63-C , 64-O ) :   2.1937 B( 65-C , 66-C ) :   1.1820
B( 65-C , 87-H ) :   1.0171 B( 66-C , 67-C ) :   1.2546 B( 66-C , 72-C ) :   1.2432
B( 67-C , 68-C ) :   1.2092 B( 67-C , 69-C ) :   1.2379 B( 68-C , 88-H ) :   0.9907
B( 69-C , 70-C ) :   1.4900 B( 69-C , 89-H ) :   0.9978 B( 70-C , 71-C ) :   1.2595
B( 70-C , 90-H ) :   0.9884 B( 71-C , 72-C ) :   1.4888 B( 71-C , 91-H ) :   0.9890
B( 72-C , 92-H ) :   0.9980

-----------------------------------------------------------------------------
         ABSORPTION SPECTRUM VIA TRANSITION ELECTRIC DIPOLE MOMENTS
-----------------------------------------------------------------------------
State   Energy  Wavelength   fosc         T2         TX        TY        TZ
        (cm-1)    (nm)                  (au**2)     (au)      (au)      (au)
-----------------------------------------------------------------------------
   0   14176.4    705.4   0.004080638   0.09476   0.01774  -0.10646   0.28830
   1   16171.6    618.4   0.134635347   2.74083   1.56357   0.54296   0.03575
   2   17617.0    567.6   0.212297416   3.96724   1.88026   0.65682  -0.02116
   3   17626.8    567.3   0.013866753   0.25899   0.47111   0.19069  -0.02597
   4   18043.6    554.2   0.000746332   0.01362   0.08867   0.05125   0.05593
   5   18235.1    548.4   0.096894832   1.74932   1.28486   0.30847   0.05731
   6   19914.0    502.2   0.013617125   0.22511   0.46829  -0.02565  -0.07183
   7   20650.6    484.2   0.738419106  11.77190  -3.24593  -1.09443   0.19510
   8   21164.5    472.5   0.022376866   0.34807  -0.31689  -0.13789  -0.47816
   9   22454.3    445.3   0.008091222   0.11863   0.10623   0.03029  -0.32623
  10   23033.1    434.2   0.021680414   0.30988  -0.27304  -0.42990   0.22475
  11   23637.7    423.1   0.030825884   0.42933   0.51832   0.25342   0.31056
  12   23994.5    416.8   0.156663743   2.14947  -0.70289  -0.74655  -1.04789
  13   24521.4    407.8   0.209462462   2.81214   1.61017   0.15221   0.44308
  14   24852.1    402.4   0.030410185   0.40284  -0.23161  -0.01129  -0.59082
  15   24928.9    401.1   0.022392695   0.29572  -0.08708   0.32491  -0.42728
  16   25095.0    398.5   0.006825577   0.08954   0.06665   0.12062   0.26561
  17   25333.2    394.7   0.140537758   1.82633  -1.31606  -0.30709   0.00245
  18   25689.2    389.3   0.055555855   0.71196   0.57024   0.54276   0.30362
  19   25774.1    388.0   0.155620934   1.98774  -1.07553  -0.76120  -0.50154
  20   25920.1    385.8   0.008395785   0.10664  -0.24596  -0.14549   0.15802
  21   26230.3    381.2   0.017452023   0.21904   0.33185   0.32977  -0.01299
  22   26655.4    375.2   0.021887091   0.27032   0.51304  -0.03361   0.07731
  23   26779.4    373.4   0.233626604   2.87208  -0.23625  -0.63875  -1.55186
  24   27075.7    369.3   0.001735153   0.02110  -0.12351   0.02263   0.07302
  25   27543.7    363.1   0.009315847   0.11135   0.23788  -0.11672   0.20282
  26   28011.4    357.0   0.030648006   0.36020   0.46318  -0.36646  -0.10665
  27   28377.1    352.4   0.011544166   0.13393  -0.18067  -0.29984   0.10668
  28   28553.2    350.2   0.062673661   0.72261   0.74506   0.26763   0.30964
  29   28892.7    346.1   0.095118762   1.08381   0.97768   0.35650  -0.02923
  30   29172.2    342.8   0.008211601   0.09267   0.05303  -0.20707  -0.21675
  31   29393.0    340.2   0.010228192   0.11456  -0.33208   0.06541  -0.00181
  32   29501.3    339.0   0.048263129   0.53858   0.15428   0.33531   0.63430
  33   29650.2    337.3   0.026777186   0.29731  -0.49827   0.13389  -0.17640
  34   29822.1    335.3   0.008748111   0.09657   0.27353  -0.13469   0.06012
  35   30023.6    333.1   0.032888324   0.36062   0.40767   0.27412   0.34537
  36   30145.3    331.7   0.006906237   0.07542   0.21301  -0.09626  -0.14417
  37   30189.7    331.2   0.046968775   0.51218   0.38434  -0.51093  -0.32158
  38   30629.2    326.5   0.011805885   0.12689   0.24345   0.23242   0.11665
  39   30718.2    325.5   0.034633474   0.37117   0.37460   0.32182   0.35676
  40   31082.8    321.7   0.040579341   0.42979  -0.27630   0.47452  -0.35817
  41   31244.8    320.1   0.058404209   0.61538  -0.59225  -0.39378  -0.33098
  42   31313.1    319.4   0.035220423   0.37029  -0.44290  -0.31373  -0.27514
  43   31476.3    317.7   0.146550850   1.53278  -0.54709  -1.02044   0.43838
  44   31674.7    315.7   0.111944694   1.16350   0.16904   0.32527  -1.01446
  45   31854.4    313.9   0.131699394   1.36110  -0.66059  -0.96136   0.02259
  46   31873.5    313.7   0.144356581   1.49102  -0.39114   0.91598   0.70641
  47   32079.1    311.7   0.097569423   1.00131   0.64916   0.58040  -0.49298
  48   32129.0    311.2   0.098933636   1.01373  -0.40361  -0.83586  -0.39009
  49   32234.6    310.2   0.155308876   1.58617  -0.52018  -1.13303   0.17839
  50   32373.7    308.9   0.026387313   0.26834   0.45274   0.16603   0.18921
  51   32461.3    308.1   0.097400785   0.98781  -0.72930   0.46518   0.48942
  52   32503.0    307.7   0.015422782   0.15621  -0.16163  -0.35642   0.05524
  53   32741.8    305.4   0.009275026   0.09326   0.22758   0.18102   0.09324
  54   32820.6    304.7   0.003766812   0.03778  -0.18513   0.01191   0.05805
  55   33030.8    302.7   0.148948801   1.48454  -1.01186  -0.65273   0.18606
  56   33074.8    302.3   0.009798581   0.09753  -0.16807  -0.26225  -0.02250
  57   33176.6    301.4   0.012422716   0.12327   0.15827   0.24212   0.19900
  58   33644.9    297.2   0.103801796   1.01569  -0.50348  -0.82663  -0.28086
  59   33719.0    296.6   0.067155260   0.65566  -0.03066  -0.73455  -0.33936
  60   33785.9    296.0   0.010691557   0.10418  -0.19998  -0.23204   0.10173
  61   33898.8    295.0   0.067617407   0.65667   0.64630   0.48772   0.03325
  62   34100.6    293.2   0.040132995   0.38745   0.34967  -0.40670  -0.31588
  63   34284.6    291.7   0.143149412   1.37457  -0.24688  -1.14539  -0.04133
  64   34357.6    291.1   0.014236142   0.13641  -0.10421  -0.31883  -0.15460
  65   34504.7    289.8   0.070896412   0.67643   0.51992   0.58524   0.25221
  66   34607.0    289.0   0.050776572   0.48303   0.00602  -0.64484   0.25920
  67   34768.0    287.6   0.002905896   0.02752   0.06068  -0.03417  -0.15055
  68   34906.9    286.5   0.030217535   0.28499   0.44316   0.07804   0.28724
  69   34968.0    286.0   0.083312299   0.78436  -0.18156   0.66552  -0.55541
  70   35366.3    282.8   0.070444763   0.65574   0.65049   0.36403   0.31637
  71   35388.0    282.6   0.091155316   0.84801   0.77035   0.08495   0.49734
  72   35682.7    280.2   0.054976400   0.50722  -0.36769  -0.50845   0.33690
  73   35716.1    280.0   0.007566452   0.06974  -0.05309  -0.00560  -0.25864
  74   35828.2    279.1   0.008085368   0.07429  -0.15002  -0.21467   0.07553
  75   35950.9    278.2   0.006605703   0.06049   0.10557  -0.13023   0.17996
  76   36108.3    276.9   0.053627358   0.48894   0.08699   0.24794   0.64799
  77   36407.7    274.7   0.035897133   0.32460  -0.27490   0.45125   0.21308
  78   36457.1    274.3   0.005138133   0.04640  -0.08331  -0.17707  -0.09002
  79   36616.4    273.1   0.060956905   0.54805  -0.25231  -0.51195  -0.47148
  80   36725.6    272.3   0.216139789   1.93750  -0.39845   1.06512   0.80265
  81   36922.4    270.8   0.049331067   0.43985  -0.30863   0.58091   0.08455
  82   36952.0    270.6   0.200213168   1.78374  -0.12571  -0.26684  -1.30259
  83   37082.0    269.7   0.420479590   3.73299  -0.22600   1.74326   0.80184
  84   37151.9    269.2   0.010332692   0.09156   0.05942  -0.18234  -0.23406
  85   37633.4    265.7   0.040527644   0.35453   0.06585  -0.02694   0.59116
  86   37851.7    264.2   0.142607443   1.24032  -0.13396  -0.99812   0.47553
  87   37967.5    263.4   0.149752380   1.29848   0.43482  -0.55908  -0.89266
  88   38084.7    262.6   0.029942460   0.25883  -0.02429  -0.09209   0.49976
  89   38171.9    262.0   0.181108920   1.56197   0.72788   0.28498  -0.97516
  90   38435.3    260.2   0.072269633   0.61902  -0.03341   0.69074   0.37521
  91   38438.5    260.2   0.058753481   0.50320   0.26413  -0.65526   0.06376
  92   38575.8    259.2   0.008734465   0.07454  -0.03112  -0.27110  -0.00896
  93   38843.7    257.4   0.036243304   0.30717  -0.17564  -0.44912   0.27315
  94   38938.8    256.8   0.096812490   0.81851  -0.21642   0.09937   0.87281
  95   39041.6    256.1   0.015526573   0.13093  -0.06766  -0.30373  -0.18466
  96   39241.9    254.8   0.114666131   0.96197  -0.91415   0.35089  -0.05625
  97   39271.9    254.6   0.023006931   0.19286  -0.20890  -0.29859   0.24509
  98   39412.9    253.7   0.199061061   1.66274   0.58888   0.83155   0.79024
  99   39588.5    252.6   0.189448546   1.57542   0.97399   0.26798  -0.74496
 100   39960.7    250.2   0.039907494   0.32877   0.52841   0.07922   0.20804
 101   39998.9    250.0   0.025484877   0.20975  -0.38702  -0.14573  -0.19682
 102   40151.2    249.1   0.126030860   1.03337   0.31510   0.74991   0.60968

FINAL SINGLE POINT ENERGY     -4110.438533854464

DIPOLE MOMENT
-------------
                                X             Y             Z
Electronic contribution:    -23.49241      -5.96507       6.27569
Nuclear contribution   :     25.13008       6.56672      -7.41694
                        -----------------------------------------
Total Dipole Moment    :      1.63768       0.60166      -1.14124
                        -----------------------------------------
Magnitude (a.u.)       :      2.08480
Magnitude (Debye)      :      5.29915

Rotational constants in cm-1:     0.001992     0.000309     0.000288
Rotational constants in MHz :    59.712032     9.251312     8.641269

                             ****ORCA TERMINATED NORMALLY****
TOTAL RUN TIME: 0 days 0 hours 10 minutes 42 seconds 909 msec
