                         Program Version 4.2.0 -  RELEASE  -
|  1> # ORCA input file
|  2> # SCF done       -216.054753636881          0.000377355470
|  3> ! CAM-B3LYP def2-SVP def2/J RIJCOSX Grid4 TightSCF
|  4> %maxcore 5000
|  5> %tddft
|  6>     Mode sTDDFT
|  7>     Ethresh 5.0
|  8>     maxcore 5000
|  9> end
| 10>
| 11> %pal
| 12>   nprocs 6
| 13>   end
| 14> * xyz 0 1
| 15>    C        1.70677         5.14911         2.60833
| 16>    C        1.01376         4.47312         3.57140
| 17>    C        1.33346         4.51210         4.94898
| 18>    N        1.50245         4.57035         6.08152
| 19>    C       -0.09268         3.63684         3.31951
| 20>    N       -0.93981         2.87410         3.17733
| 21>    C        2.96415         5.85482         2.78941
| 22>    C        3.36519         6.41882         1.54182
| 23>    C        4.52924         7.12428         1.41094
| 24>    C        5.36032         7.29689         2.53852
| 25>    C        4.97248         6.72423         3.78616
| 26>    C        3.76419         5.99998         3.89344
| 27>    C        5.81653         6.89575         4.90254
| 28>    C        6.98453         7.60067         4.79505
| 29>    C        7.36358         8.16603         3.56772
| 30>    C        6.56950         8.01675         2.46328
| 31>    C        2.37275         6.10206         0.51252
| 32>    O        2.39555         6.42192        -0.65801
| 33>    C        1.30506         5.31867         1.21299
| 34>    C        0.11104         5.01743         0.67204
| 35>    C       -0.26132         5.38174        -0.68677
| 36>    C        0.46474         5.01415        -1.81878
| 37>    C        1.66456         4.14494        -1.93568
| 38>    O        2.22263         3.49722        -1.09240
| 39>    N        2.02523         4.18909        -3.28908
| 40>    C        1.14390         4.95487        -4.05351
| 41>    O        1.20432         5.14190        -5.23828
| 42>    C        0.12767         5.46329        -3.09393
| 43>    C       -0.97502         6.26613        -3.33163
| 44>    C       -1.73043         6.60755        -2.21716
| 45>    C       -1.37885         6.19222        -0.93249
| 46>    C       -2.23419         6.72904         0.14007
| 47>    O       -2.09700         6.58704         1.31954
| 48>    S       -3.55490         7.69321        -0.59698
| 49>    C       -2.93819         7.45609        -2.27427
| 50>    O       -3.45564         7.92882        -3.23757
| 51>    C        3.11554         3.45672        -3.75709
| 52>    C        3.66313         3.59099        -4.97129
| 53>    C        4.76534         2.81499        -5.47834
| 54>    O        5.59460         3.40568        -6.36678
| 55>    C        6.56091         2.53544        -6.67463
| 56>    C        6.38402         1.35252        -6.02491
| 57>    C        5.20098         1.51267        -5.25780
| 58>    N        4.56655         0.61884        -4.41725
| 59>    C        4.61251        -0.71651        -4.29778
| 60>    C        4.09584        -1.26662        -3.10151
| 61>    C        3.37124        -0.54774        -2.05156
| 62>    O        3.07670         0.62983        -2.04933
| 63>    N        3.07497        -1.48453        -1.06878
| 64>    C        3.55931        -2.76651        -1.41380
| 65>    O        3.46814        -3.73892        -0.72269
| 66>    C        4.19387        -2.60575        -2.75062
| 67>    C        4.81095        -3.52344        -3.58418
| 68>    C        5.22166        -3.03021        -4.81858
| 69>    C        5.09323        -1.69430        -5.21069
| 70>    C        5.31901        -1.47778        -6.64020
| 71>    O        5.03887        -0.52329        -7.30412
| 72>    S        6.01415        -2.98485        -7.36282
| 73>    C        5.79490        -3.91903        -5.85542
| 74>    O        6.07148        -5.07445        -5.74125
| 75>    C        2.38489        -1.26028         0.11184
| 76>    C        1.99339        -0.04853         0.54133
| 77>    C        1.31504         0.20029         1.77215
| 78>    C        0.44519        -0.60060         2.44173
| 79>    C       -0.15192        -0.28221         3.73010
| 80>    C        0.36415         0.58116         4.65883
| 81>    C       -0.21947         0.82517         5.92035
| 82>    N       -0.64992         1.05598         6.95850
| 83>    C        1.54891         1.32244         4.48562
| 84>    N        2.49879         1.96515         4.40657
| 85>    C       -1.32576        -1.12336         3.89847
| 86>    C       -1.39924        -2.02123         2.79484
| 87>    C       -0.27179        -1.77987         1.87860
| 88>    O       -0.02854        -2.38684         0.85831
| 89>    C       -2.39883        -2.94467         2.68296
| 90>    C       -3.39005        -3.01109         3.68736
| 91>    C       -3.33127        -2.10613         4.78706
| 92>    C       -2.28403        -1.16107         4.87684
| 93>    C       -4.33162        -2.17713         5.77804
| 94>    C       -5.33892        -3.09918         5.69158
| 95>    C       -5.39369        -3.99169         4.61046
| 96>    C       -4.44013        -3.94846         3.62977
| 97>    H        4.81201         7.54156         0.45571
| 98>    H        3.50015         5.57025         4.84650
| 99>    H        5.52064         6.45900         5.84470
|100>    H        7.62394         7.72711         5.65560
|101>    H        8.28813         8.71965         3.50189
|102>    H        6.85648         8.44865         1.51571
|103>    H       -0.66958         4.56708         1.27171
|104>    H       -1.23322         6.61385        -4.31912
|105>    H        3.48029         2.78660        -2.99117
|106>    H        3.30583         4.35577        -5.64545
|107>    H        7.31737         2.85928        -7.36093
|108>    H        7.02818         0.50037        -6.06409
|109>    H        3.97503         1.05692        -3.71313
|110>    H        4.93097        -4.56294        -3.32853
|111>    H        2.22967        -2.16870         0.67558
|112>    H        2.25318         0.83427        -0.02636
|113>    H        1.49377         1.18881         2.17798
|114>    H       -2.43169        -3.61783         1.83903
|115>    H       -2.26939        -0.48124         5.71392
|116>    H       -4.28407        -1.48906         6.60918
|117>    H       -6.09950        -3.14656         6.45643
|118>    H       -6.19550        -4.71298         4.55819
|119>    H       -4.47763        -4.63254         2.79454
|120> *
|121>
|122>                          ****END OF INPUT****

CARTESIAN COORDINATES (ANGSTROEM)
---------------------------------
  C      1.706770    5.149110    2.608330
  C      1.013760    4.473120    3.571400
  C      1.333460    4.512100    4.948980
  N      1.502450    4.570350    6.081520
  C     -0.092680    3.636840    3.319510
  N     -0.939810    2.874100    3.177330
  C      2.964150    5.854820    2.789410
  C      3.365190    6.418820    1.541820
  C      4.529240    7.124280    1.410940
  C      5.360320    7.296890    2.538520
  C      4.972480    6.724230    3.786160
  C      3.764190    5.999980    3.893440
  C      5.816530    6.895750    4.902540
  C      6.984530    7.600670    4.795050
  C      7.363580    8.166030    3.567720
  C      6.569500    8.016750    2.463280
  C      2.372750    6.102060    0.512520
  O      2.395550    6.421920   -0.658010
  C      1.305060    5.318670    1.212990
  C      0.111040    5.017430    0.672040
  C     -0.261320    5.381740   -0.686770
  C      0.464740    5.014150   -1.818780
  C      1.664560    4.144940   -1.935680
  O      2.222630    3.497220   -1.092400
  N      2.025230    4.189090   -3.289080
  C      1.143900    4.954870   -4.053510
  O      1.204320    5.141900   -5.238280
  C      0.127670    5.463290   -3.093930
  C     -0.975020    6.266130   -3.331630
  C     -1.730430    6.607550   -2.217160
  C     -1.378850    6.192220   -0.932490
  C     -2.234190    6.729040    0.140070
  O     -2.097000    6.587040    1.319540
  S     -3.554900    7.693210   -0.596980
  C     -2.938190    7.456090   -2.274270
  O     -3.455640    7.928820   -3.237570
  C      3.115540    3.456720   -3.757090
  C      3.663130    3.590990   -4.971290
  C      4.765340    2.814990   -5.478340
  O      5.594600    3.405680   -6.366780
  C      6.560910    2.535440   -6.674630
  C      6.384020    1.352520   -6.024910
  C      5.200980    1.512670   -5.257800
  N      4.566550    0.618840   -4.417250
  C      4.612510   -0.716510   -4.297780
  C      4.095840   -1.266620   -3.101510
  C      3.371240   -0.547740   -2.051560
  O      3.076700    0.629830   -2.049330
  N      3.074970   -1.484530   -1.068780
  C      3.559310   -2.766510   -1.413800
  O      3.468140   -3.738920   -0.722690
  C      4.193870   -2.605750   -2.750620
  C      4.810950   -3.523440   -3.584180
  C      5.221660   -3.030210   -4.818580
  C      5.093230   -1.694300   -5.210690
  C      5.319010   -1.477780   -6.640200
  O      5.038870   -0.523290   -7.304120
  S      6.014150   -2.984850   -7.362820
  C      5.794900   -3.919030   -5.855420
  O      6.071480   -5.074450   -5.741250
  C      2.384890   -1.260280    0.111840
  C      1.993390   -0.048530    0.541330
  C      1.315040    0.200290    1.772150
  C      0.445190   -0.600600    2.441730
  C     -0.151920   -0.282210    3.730100
  C      0.364150    0.581160    4.658830
  C     -0.219470    0.825170    5.920350
  N     -0.649920    1.055980    6.958500
  C      1.548910    1.322440    4.485620
  N      2.498790    1.965150    4.406570
  C     -1.325760   -1.123360    3.898470
  C     -1.399240   -2.021230    2.794840
  C     -0.271790   -1.779870    1.878600
  O     -0.028540   -2.386840    0.858310
  C     -2.398830   -2.944670    2.682960
  C     -3.390050   -3.011090    3.687360
  C     -3.331270   -2.106130    4.787060
  C     -2.284030   -1.161070    4.876840
  C     -4.331620   -2.177130    5.778040
  C     -5.338920   -3.099180    5.691580
  C     -5.393690   -3.991690    4.610460
  C     -4.440130   -3.948460    3.629770
  H      4.812010    7.541560    0.455710
  H      3.500150    5.570250    4.846500
  H      5.520640    6.459000    5.844700
  H      7.623940    7.727110    5.655600
  H      8.288130    8.719650    3.501890
  H      6.856480    8.448650    1.515710
  H     -0.669580    4.567080    1.271710
  H     -1.233220    6.613850   -4.319120
  H      3.480290    2.786600   -2.991170
  H      3.305830    4.355770   -5.645450
  H      7.317370    2.859280   -7.360930
  H      7.028180    0.500370   -6.064090
  H      3.975030    1.056920   -3.713130
  H      4.930970   -4.562940   -3.328530
  H      2.229670   -2.168700    0.675580
  H      2.253180    0.834270   -0.026360
  H      1.493770    1.188810    2.177980
  H     -2.431690   -3.617830    1.839030
  H     -2.269390   -0.481240    5.713920
  H     -4.284070   -1.489060    6.609180
  H     -6.099500   -3.146560    6.456430
  H     -6.195500   -4.712980    4.558190
  H     -4.477630   -4.632540    2.794540

 Total Charge           Charge          ....    0
 Multiplicity           Mult            ....    1
 Number of Electrons    NEL             ....  564
 Basis Dimension        Dim             .... 1271

ORBITAL ENERGIES
----------------

  NO   OCC          E(Eh)            E(eV)
   0   2.0000     -88.958468     -2420.6830
   1   2.0000     -88.951985     -2420.5066
   2   2.0000     -19.292042      -524.9631
   3   2.0000     -19.253178      -523.9056
   4   2.0000     -19.252595      -523.8898
   5   2.0000     -19.250736      -523.8391
   6   2.0000     -19.248250      -523.7715
   7   2.0000     -19.244549      -523.6708
   8   2.0000     -19.242940      -523.6270
   9   2.0000     -19.238318      -523.5012
  10   2.0000     -19.237553      -523.4804
  11   2.0000     -19.231000      -523.3021
  12   2.0000     -19.212289      -522.7930
  13   2.0000     -14.498656      -394.5285
  14   2.0000     -14.488889      -394.2627
  15   2.0000     -14.477401      -393.9501
  16   2.0000     -14.426349      -392.5609
  17   2.0000     -14.413382      -392.2081
  18   2.0000     -14.412937      -392.1960
  19   2.0000     -14.405093      -391.9825
  20   2.0000     -10.429136      -283.7912
  21   2.0000     -10.426141      -283.7097
  22   2.0000     -10.419047      -283.5167
  23   2.0000     -10.417635      -283.4783
  24   2.0000     -10.414107      -283.3823
  25   2.0000     -10.412131      -283.3285
  26   2.0000     -10.406364      -283.1716
  27   2.0000     -10.406196      -283.1670
  28   2.0000     -10.381349      -282.4909
  29   2.0000     -10.381144      -282.4853
  30   2.0000     -10.363829      -282.0141
  31   2.0000     -10.349366      -281.6206
  32   2.0000     -10.344424      -281.4861
  33   2.0000     -10.343632      -281.4645
  34   2.0000     -10.339589      -281.3545
  35   2.0000     -10.334228      -281.2086
  36   2.0000     -10.332848      -281.1711
  37   2.0000     -10.332774      -281.1691
  38   2.0000     -10.332481      -281.1611
  39   2.0000     -10.332352      -281.1576
  40   2.0000     -10.331986      -281.1476
  41   2.0000     -10.331558      -281.1360
  42   2.0000     -10.330945      -281.1193
  43   2.0000     -10.330062      -281.0953
  44   2.0000     -10.329686      -281.0850
  45   2.0000     -10.328259      -281.0462
  46   2.0000     -10.327632      -281.0292
  47   2.0000     -10.326674      -281.0031
  48   2.0000     -10.326372      -280.9949
  49   2.0000     -10.326102      -280.9875
  50   2.0000     -10.323646      -280.9207
  51   2.0000     -10.321400      -280.8596
  52   2.0000     -10.317806      -280.7618
  53   2.0000     -10.316970      -280.7390
  54   2.0000     -10.315257      -280.6924
  55   2.0000     -10.315223      -280.6915
  56   2.0000     -10.311651      -280.5943
  57   2.0000     -10.307931      -280.4931
  58   2.0000     -10.307618      -280.4846
  59   2.0000     -10.304149      -280.3901
  60   2.0000     -10.302895      -280.3560
  61   2.0000     -10.302467      -280.3444
  62   2.0000     -10.300468      -280.2900
  63   2.0000     -10.295806      -280.1631
  64   2.0000     -10.295517      -280.1553
  65   2.0000     -10.292380      -280.0699
  66   2.0000     -10.291959      -280.0584
  67   2.0000     -10.291251      -280.0392
  68   2.0000     -10.291199      -280.0378
  69   2.0000     -10.291044      -280.0336
  70   2.0000     -10.290511      -280.0190
  71   2.0000     -10.290202      -280.0106
  72   2.0000     -10.289869      -280.0016
  73   2.0000     -10.289663      -279.9960
  74   2.0000     -10.288972      -279.9772
  75   2.0000     -10.283089      -279.8171
  76   2.0000     -10.281896      -279.7846
  77   2.0000     -10.281665      -279.7783
  78   2.0000     -10.281351      -279.7698
  79   2.0000     -10.280907      -279.7577
  80   2.0000     -10.280265      -279.7402
  81   2.0000     -10.277642      -279.6689
  82   2.0000      -8.057557      -219.2573
  83   2.0000      -8.051082      -219.0811
  84   2.0000      -6.026438      -163.9877
  85   2.0000      -6.023160      -163.8985
  86   2.0000      -6.019942      -163.8109
  87   2.0000      -6.018600      -163.7744
  88   2.0000      -6.016761      -163.7244
  89   2.0000      -6.012101      -163.5976
  90   2.0000      -1.213826       -33.0299
  91   2.0000      -1.195829       -32.5402
  92   2.0000      -1.185391       -32.2561
  93   2.0000      -1.176747       -32.0209
  94   2.0000      -1.173031       -31.9198
  95   2.0000      -1.172410       -31.9029
  96   2.0000      -1.169172       -31.8148
  97   2.0000      -1.165075       -31.7033
  98   2.0000      -1.162168       -31.6242
  99   2.0000      -1.145412       -31.1682
 100   2.0000      -1.127716       -30.6867
 101   2.0000      -1.089218       -29.6391
 102   2.0000      -1.085758       -29.5450
 103   2.0000      -1.078447       -29.3460
 104   2.0000      -1.025736       -27.9117
 105   2.0000      -1.020938       -27.7811
 106   2.0000      -1.011883       -27.5347
 107   2.0000      -1.007235       -27.4083
 108   2.0000      -1.005490       -27.3608
 109   2.0000      -0.995972       -27.1018
 110   2.0000      -0.992933       -27.0191
 111   2.0000      -0.986331       -26.8394
 112   2.0000      -0.977254       -26.5924
 113   2.0000      -0.966136       -26.2899
 114   2.0000      -0.961364       -26.1600
 115   2.0000      -0.960602       -26.1393
 116   2.0000      -0.938643       -25.5418
 117   2.0000      -0.924312       -25.1518
 118   2.0000      -0.923560       -25.1313
 119   2.0000      -0.917214       -24.9587
 120   2.0000      -0.910469       -24.7751
 121   2.0000      -0.905945       -24.6520
 122   2.0000      -0.896084       -24.3837
 123   2.0000      -0.891738       -24.2654
 124   2.0000      -0.885794       -24.1037
 125   2.0000      -0.881350       -23.9828
 126   2.0000      -0.876641       -23.8546
 127   2.0000      -0.872997       -23.7555
 128   2.0000      -0.867614       -23.6090
 129   2.0000      -0.860230       -23.4080
 130   2.0000      -0.838743       -22.8233
 131   2.0000      -0.833467       -22.6798
 132   2.0000      -0.830856       -22.6087
 133   2.0000      -0.822736       -22.3878
 134   2.0000      -0.804850       -21.9011
 135   2.0000      -0.803068       -21.8526
 136   2.0000      -0.802180       -21.8284
 137   2.0000      -0.800103       -21.7719
 138   2.0000      -0.780393       -21.2356
 139   2.0000      -0.769206       -20.9312
 140   2.0000      -0.768461       -20.9109
 141   2.0000      -0.759807       -20.6754
 142   2.0000      -0.754968       -20.5437
 143   2.0000      -0.754462       -20.5300
 144   2.0000      -0.741597       -20.1799
 145   2.0000      -0.730490       -19.8776
 146   2.0000      -0.716950       -19.5092
 147   2.0000      -0.710286       -19.3279
 148   2.0000      -0.709737       -19.3129
 149   2.0000      -0.707487       -19.2517
 150   2.0000      -0.702908       -19.1271
 151   2.0000      -0.698283       -19.0012
 152   2.0000      -0.693273       -18.8649
 153   2.0000      -0.691446       -18.8152
 154   2.0000      -0.685146       -18.6438
 155   2.0000      -0.681606       -18.5474
 156   2.0000      -0.676906       -18.4195
 157   2.0000      -0.671719       -18.2784
 158   2.0000      -0.670211       -18.2374
 159   2.0000      -0.662906       -18.0386
 160   2.0000      -0.646130       -17.5821
 161   2.0000      -0.643364       -17.5068
 162   2.0000      -0.639352       -17.3977
 163   2.0000      -0.636793       -17.3280
 164   2.0000      -0.630694       -17.1620
 165   2.0000      -0.626323       -17.0431
 166   2.0000      -0.624338       -16.9891
 167   2.0000      -0.616908       -16.7869
 168   2.0000      -0.616418       -16.7736
 169   2.0000      -0.615629       -16.7521
 170   2.0000      -0.611595       -16.6423
 171   2.0000      -0.604207       -16.4413
 172   2.0000      -0.602725       -16.4010
 173   2.0000      -0.601131       -16.3576
 174   2.0000      -0.598567       -16.2878
 175   2.0000      -0.595476       -16.2037
 176   2.0000      -0.590802       -16.0765
 177   2.0000      -0.585502       -15.9323
 178   2.0000      -0.584098       -15.8941
 179   2.0000      -0.577111       -15.7040
 180   2.0000      -0.574373       -15.6295
 181   2.0000      -0.571815       -15.5599
 182   2.0000      -0.566900       -15.4261
 183   2.0000      -0.562698       -15.3118
 184   2.0000      -0.561591       -15.2817
 185   2.0000      -0.559856       -15.2345
 186   2.0000      -0.558068       -15.1858
 187   2.0000      -0.556026       -15.1302
 188   2.0000      -0.553621       -15.0648
 189   2.0000      -0.552148       -15.0247
 190   2.0000      -0.550726       -14.9860
 191   2.0000      -0.549644       -14.9566
 192   2.0000      -0.547279       -14.8922
 193   2.0000      -0.545429       -14.8419
 194   2.0000      -0.544009       -14.8032
 195   2.0000      -0.541232       -14.7277
 196   2.0000      -0.540861       -14.7176
 197   2.0000      -0.540668       -14.7123
 198   2.0000      -0.540165       -14.6986
 199   2.0000      -0.538000       -14.6397
 200   2.0000      -0.531227       -14.4554
 201   2.0000      -0.530104       -14.4249
 202   2.0000      -0.529283       -14.4025
 203   2.0000      -0.528285       -14.3754
 204   2.0000      -0.525515       -14.3000
 205   2.0000      -0.522907       -14.2290
 206   2.0000      -0.520946       -14.1757
 207   2.0000      -0.518134       -14.0991
 208   2.0000      -0.517068       -14.0701
 209   2.0000      -0.515680       -14.0324
 210   2.0000      -0.514908       -14.0114
 211   2.0000      -0.514188       -13.9918
 212   2.0000      -0.512397       -13.9430
 213   2.0000      -0.510308       -13.8862
 214   2.0000      -0.508250       -13.8302
 215   2.0000      -0.507326       -13.8050
 216   2.0000      -0.506192       -13.7742
 217   2.0000      -0.503399       -13.6982
 218   2.0000      -0.502929       -13.6854
 219   2.0000      -0.498192       -13.5565
 220   2.0000      -0.496094       -13.4994
 221   2.0000      -0.490770       -13.3545
 222   2.0000      -0.489243       -13.3130
 223   2.0000      -0.484723       -13.1900
 224   2.0000      -0.481907       -13.1134
 225   2.0000      -0.480725       -13.0812
 226   2.0000      -0.478649       -13.0247
 227   2.0000      -0.476804       -12.9745
 228   2.0000      -0.475042       -12.9265
 229   2.0000      -0.472367       -12.8537
 230   2.0000      -0.469852       -12.7853
 231   2.0000      -0.462779       -12.5928
 232   2.0000      -0.459524       -12.5043
 233   2.0000      -0.456408       -12.4195
 234   2.0000      -0.450061       -12.2468
 235   2.0000      -0.448739       -12.2108
 236   2.0000      -0.446695       -12.1552
 237   2.0000      -0.442675       -12.0458
 238   2.0000      -0.440657       -11.9909
 239   2.0000      -0.439656       -11.9636
 240   2.0000      -0.438505       -11.9323
 241   2.0000      -0.436961       -11.8903
 242   2.0000      -0.433354       -11.7922
 243   2.0000      -0.430911       -11.7257
 244   2.0000      -0.429769       -11.6946
 245   2.0000      -0.428493       -11.6599
 246   2.0000      -0.424875       -11.5614
 247   2.0000      -0.424084       -11.5399
 248   2.0000      -0.418904       -11.3990
 249   2.0000      -0.415414       -11.3040
 250   2.0000      -0.413799       -11.2600
 251   2.0000      -0.409433       -11.1412
 252   2.0000      -0.403634       -10.9834
 253   2.0000      -0.398204       -10.8357
 254   2.0000      -0.394690       -10.7401
 255   2.0000      -0.388928       -10.5833
 256   2.0000      -0.386099       -10.5063
 257   2.0000      -0.383027       -10.4227
 258   2.0000      -0.381925       -10.3927
 259   2.0000      -0.379325       -10.3220
 260   2.0000      -0.376842       -10.2544
 261   2.0000      -0.375169       -10.2089
 262   2.0000      -0.374478       -10.1901
 263   2.0000      -0.372440       -10.1346
 264   2.0000      -0.369717       -10.0605
 265   2.0000      -0.366217        -9.9653
 266   2.0000      -0.360222        -9.8021
 267   2.0000      -0.358963        -9.7679
 268   2.0000      -0.356493        -9.7007
 269   2.0000      -0.351941        -9.5768
 270   2.0000      -0.348628        -9.4866
 271   2.0000      -0.343897        -9.3579
 272   2.0000      -0.340871        -9.2756
 273   2.0000      -0.335958        -9.1419
 274   2.0000      -0.330945        -9.0055
 275   2.0000      -0.320707        -8.7269
 276   2.0000      -0.314226        -8.5505
 277   2.0000      -0.311326        -8.4716
 278   2.0000      -0.296956        -8.0806
 279   2.0000      -0.295197        -8.0327
 280   2.0000      -0.281597        -7.6626
 281   2.0000      -0.261950        -7.1280
 282   0.0000      -0.100764        -2.7419
 283   0.0000      -0.099951        -2.7198
 284   0.0000      -0.096547        -2.6272
 285   0.0000      -0.083676        -2.2769
 286   0.0000      -0.067959        -1.8493

MULLIKEN ATOMIC CHARGES
-----------------------
   0 C :    0.302756
   1 C :   -0.314219
   2 C :   -0.188342
   3 N :    0.168194
   4 C :   -0.169476
   5 N :    0.136691
   6 C :    0.054537
   7 C :   -0.011520
   8 C :   -0.073818
   9 C :    0.098544
  10 C :    0.096610
  11 C :   -0.069916
  12 C :   -0.015296
  13 C :    0.037383
  14 C :    0.038543
  15 C :   -0.015680
  16 C :    0.172069
  17 O :   -0.164383
  18 C :   -0.026791
  19 C :   -0.067630
  20 C :    0.008437
  21 C :    0.026769
  22 C :    0.202780
  23 O :   -0.141466
  24 N :   -0.237300
  25 C :    0.210619
  26 O :   -0.136012
  27 C :    0.003277
  28 C :   -0.064249
  29 C :    0.053384
  30 C :    0.054268
  31 C :    0.044042
  32 O :   -0.128629
  33 S :    0.018860
  34 C :    0.045210
  35 O :   -0.111355
  36 C :    0.033160
  37 C :   -0.004533
  38 C :    0.094332
  39 O :   -0.181755
  40 C :    0.140061
  41 C :   -0.043831
  42 C :    0.059617
  43 N :    0.030893
  44 C :    0.061382
  45 C :   -0.069752
  46 C :    0.227992
  47 O :   -0.198637
  48 N :   -0.237547
  49 C :    0.200740
  50 O :   -0.108278
  51 C :    0.035568
  52 C :   -0.097370
  53 C :    0.063137
  54 C :   -0.036591
  55 C :    0.002092
  56 O :   -0.118334
  57 S :    0.008615
  58 C :    0.047533
  59 O :   -0.119744
  60 C :    0.152060
  61 C :   -0.033324
  62 C :    0.001952
  63 C :   -0.089491
  64 C :    0.322207
  65 C :   -0.357323
  66 C :   -0.180800
  67 N :    0.162555
  68 C :   -0.178251
  69 N :    0.129125
  70 C :    0.051338
  71 C :   -0.008252
  72 C :    0.146224
  73 O :   -0.154189
  74 C :   -0.080991
  75 C :    0.097875
  76 C :    0.094501
  77 C :   -0.078833
  78 C :   -0.017868
  79 C :    0.034448
  80 C :    0.033497
  81 C :   -0.017525
  82 H :   -0.013435
  83 H :    0.000647
  84 H :   -0.004673
  85 H :   -0.001220
  86 H :   -0.003053
  87 H :   -0.017238
  88 H :    0.051397
  89 H :    0.020249
  90 H :    0.046906
  91 H :    0.041258
  92 H :    0.013724
  93 H :   -0.013250
  94 H :    0.145244
  95 H :    0.015453
  96 H :    0.050812
  97 H :    0.042460
  98 H :    0.025588
  99 H :   -0.014437
 100 H :   -0.004362
 101 H :   -0.008048
 102 H :   -0.004823
 103 H :   -0.005769
 104 H :   -0.018008
Sum of atomic charges:   -0.0000000

LOEWDIN ATOMIC CHARGES
----------------------
   0 C :    0.074452
   1 C :   -0.114115
   2 C :   -0.019494
   3 N :   -0.036483
   4 C :   -0.011933
   5 N :   -0.053130
   6 C :   -0.021478
   7 C :   -0.058150
   8 C :    0.038012
   9 C :   -0.007880
  10 C :   -0.002402
  11 C :    0.030556
  12 C :   -0.001810
  13 C :   -0.009757
  14 C :   -0.010227
  15 C :   -0.008524
  16 C :    0.096369
  17 O :   -0.143649
  18 C :   -0.052453
  19 C :    0.067579
  20 C :    0.023191
  21 C :   -0.010383
  22 C :    0.104466
  23 O :   -0.135105
  24 N :   -0.006729
  25 C :    0.101546
  26 O :   -0.126327
  27 C :   -0.028269
  28 C :    0.049781
  29 C :   -0.057711
  30 C :   -0.050630
  31 C :   -0.044697
  32 O :   -0.109083
  33 S :    0.304734
  34 C :   -0.042640
  35 O :   -0.104750
  36 C :    0.015835
  37 C :   -0.046403
  38 C :   -0.001822
  39 O :    0.027852
  40 C :    0.044752
  41 C :   -0.077952
  42 C :   -0.023286
  43 N :    0.064210
  44 C :    0.080441
  45 C :   -0.077752
  46 C :    0.112244
  47 O :   -0.146939
  48 N :   -0.008392
  49 C :    0.109696
  50 O :   -0.105414
  51 C :   -0.020690
  52 C :    0.007594
  53 C :   -0.035100
  54 C :   -0.107625
  55 C :   -0.050056
  56 O :   -0.105602
  57 S :    0.293066
  58 C :   -0.049738
  59 O :   -0.111862
  60 C :    0.096537
  61 C :   -0.071185
  62 C :    0.074690
  63 C :   -0.092287
  64 C :    0.084896
  65 C :   -0.137059
  66 C :   -0.016794
  67 N :   -0.049937
  68 C :   -0.009339
  69 N :   -0.063817
  70 C :   -0.022370
  71 C :   -0.054596
  72 C :    0.084646
  73 O :   -0.143827
  74 C :    0.030593
  75 C :   -0.008693
  76 C :   -0.005930
  77 C :    0.023063
  78 C :   -0.004942
  79 C :   -0.014618
  80 C :   -0.013958
  81 C :   -0.010647
  82 H :    0.039179
  83 H :    0.043193
  84 H :    0.036974
  85 H :    0.034583
  86 H :    0.033707
  87 H :    0.032053
  88 H :    0.049935
  89 H :    0.053003
  90 H :    0.028175
  91 H :    0.045134
  92 H :    0.025388
  93 H :    0.028148
  94 H :    0.081914
  95 H :    0.049701
  96 H :    0.040042
  97 H :    0.040344
  98 H :    0.044562
  99 H :    0.037986
 100 H :    0.040210
 101 H :    0.035062
 102 H :    0.032825
 103 H :    0.032218
 104 H :    0.031305

  Mayer bond orders larger than 0.100000
B(  0-C ,  1-C ) :   1.6805 B(  0-C ,  6-C ) :   1.0129 B(  0-C , 18-C ) :   1.0298
B(  1-C ,  2-C ) :   1.1269 B(  1-C ,  4-C ) :   1.1475 B(  2-C ,  3-N ) :   2.9657
B(  4-C ,  5-N ) :   2.9192 B(  6-C ,  7-C ) :   1.2043 B(  6-C , 11-C ) :   1.4464
B(  7-C ,  8-C ) :   1.4568 B(  7-C , 16-C ) :   0.9665 B(  8-C ,  9-C ) :   1.1879
B(  8-C , 82-H ) :   1.0168 B(  9-C , 10-C ) :   1.2500 B(  9-C , 15-C ) :   1.2399
B( 10-C , 11-C ) :   1.2119 B( 10-C , 12-C ) :   1.2389 B( 11-C , 83-H ) :   0.9890
B( 12-C , 13-C ) :   1.4915 B( 12-C , 84-H ) :   0.9975 B( 13-C , 14-C ) :   1.2562
B( 13-C , 85-H ) :   0.9883 B( 14-C , 15-C ) :   1.4925 B( 14-C , 86-H ) :   0.9883
B( 15-C , 87-H ) :   0.9976 B( 16-C , 17-O ) :   2.1763 B( 16-C , 18-C ) :   0.9136
B( 18-C , 19-C ) :   1.7728 B( 19-C , 20-C ) :   1.0174 B( 19-C , 88-H ) :   0.9128
B( 20-C , 21-C ) :   1.3901 B( 20-C , 30-C ) :   1.4179 B( 21-C , 22-C ) :   0.8748
B( 21-C , 27-C ) :   1.4047 B( 22-C , 23-O ) :   2.1620 B( 22-C , 24-N ) :   1.0448
B( 24-N , 25-C ) :   1.0335 B( 24-N , 36-C ) :   1.0131 B( 25-C , 26-O ) :   2.2186
B( 25-C , 27-C ) :   0.8740 B( 27-C , 28-C ) :   1.3238 B( 28-C , 29-C ) :   1.3383
B( 28-C , 89-H ) :   1.0281 B( 29-C , 30-C ) :   1.3285 B( 29-C , 34-C ) :   0.8374
B( 30-C , 31-C ) :   0.8539 B( 31-C , 32-O ) :   2.1561 B( 31-C , 33-S ) :   1.0362
B( 32-O , 33-S ) :   0.1081 B( 33-S , 34-C ) :   1.0161 B( 33-S , 35-O ) :   0.1070
B( 34-C , 35-O ) :   2.2342 B( 36-C , 37-C ) :   1.7386 B( 36-C , 90-H ) :   0.9574
B( 37-C , 38-C ) :   1.0830 B( 37-C , 91-H ) :   0.9407 B( 38-C , 39-O ) :   1.1441
B( 38-C , 42-C ) :   1.4873 B( 39-O , 40-C ) :   1.1530 B( 40-C , 41-C ) :   1.5290
B( 40-C , 92-H ) :   1.0053 B( 41-C , 42-C ) :   1.2169 B( 41-C , 93-H ) :   1.0112
B( 42-C , 43-N ) :   1.0797 B( 43-N , 44-C ) :   1.3766 B( 43-N , 94-H ) :   0.8419
B( 44-C , 45-C ) :   1.2758 B( 44-C , 54-C ) :   1.2687 B( 45-C , 46-C ) :   0.9360
B( 45-C , 51-C ) :   1.4257 B( 46-C , 47-O ) :   2.0119 B( 46-C , 48-N ) :   1.0690
B( 48-N , 49-C ) :   0.9906 B( 48-N , 60-C ) :   1.0442 B( 49-C , 50-O ) :   2.2658
B( 49-C , 51-C ) :   0.8722 B( 51-C , 52-C ) :   1.3034 B( 52-C , 53-C ) :   1.3449
B( 52-C , 95-H ) :   1.0297 B( 53-C , 54-C ) :   1.3532 B( 53-C , 58-C ) :   0.8416
B( 54-C , 55-C ) :   0.8636 B( 55-C , 56-O ) :   2.1914 B( 55-C , 57-S ) :   1.0090
B( 56-O , 57-S ) :   0.1023 B( 57-S , 58-C ) :   1.0361 B( 57-S , 59-O ) :   0.1112
B( 58-C , 59-O ) :   2.2168 B( 60-C , 61-C ) :   1.6916 B( 60-C , 96-H ) :   0.9586
B( 61-C , 62-C ) :   1.1586 B( 61-C , 97-H ) :   0.9397 B( 62-C , 63-C ) :   1.6322
B( 62-C , 98-H ) :   0.9475 B( 63-C , 64-C ) :   1.0501 B( 63-C , 72-C ) :   0.9379
B( 64-C , 65-C ) :   1.6449 B( 64-C , 70-C ) :   0.9987 B( 65-C , 66-C ) :   1.1420
B( 65-C , 68-C ) :   1.1658 B( 66-C , 67-N ) :   2.9779 B( 68-C , 69-N ) :   2.8914
B( 70-C , 71-C ) :   1.2097 B( 70-C , 77-C ) :   1.4540 B( 71-C , 72-C ) :   0.9484
B( 71-C , 74-C ) :   1.4720 B( 72-C , 73-O ) :   2.2105 B( 74-C , 75-C ) :   1.1830
B( 74-C , 99-H ) :   1.0154 B( 75-C , 76-C ) :   1.2553 B( 75-C , 81-C ) :   1.2446
B( 76-C , 77-C ) :   1.2048 B( 76-C , 78-C ) :   1.2411 B( 77-C ,100-H ) :   0.9914
B( 78-C , 79-C ) :   1.4904 B( 78-C ,101-H ) :   0.9969 B( 79-C , 80-C ) :   1.2598
B( 79-C ,102-H ) :   0.9882 B( 80-C , 81-C ) :   1.4902 B( 80-C ,103-H ) :   0.9885
B( 81-C ,104-H ) :   0.9971

-----------------------------------------------------------------------------
         ABSORPTION SPECTRUM VIA TRANSITION ELECTRIC DIPOLE MOMENTS
-----------------------------------------------------------------------------
State   Energy  Wavelength   fosc         T2         TX        TY        TZ
        (cm-1)    (nm)                  (au**2)     (au)      (au)      (au)
-----------------------------------------------------------------------------
   0   16649.5    600.6   0.056252355   1.11229  -0.47322   0.22053   0.91636
   1   20180.8    495.5   0.010042234   0.16382  -0.11617   0.11181   0.37125
   2   22060.1    453.3   0.089027256   1.32859   0.55296  -0.82476  -0.58531
   3   23648.2    422.9   0.078954186   1.09914  -0.28264   0.23838   0.98103
   4   23993.5    416.8   0.034186109   0.46906   0.08107   0.57815   0.35810
   5   24889.5    401.8   0.279228835   3.69334  -0.94113  -0.58064   1.57178
   6   26012.3    384.4   0.053274721   0.67425   0.31815  -0.65193  -0.38473
   7   26062.3    383.7   0.110301656   1.39330  -0.10631   1.13725   0.29774
   8   26978.4    370.7   0.006398813   0.07808   0.08266   0.25519   0.07830
   9   27087.6    369.2   0.077915242   0.94695  -0.34408   0.64343   0.64386
  10   27242.9    367.1   0.035049015   0.42354   0.46816  -0.09918   0.44105
  11   27736.3    360.5   0.135509794   1.60842  -1.09491  -0.32264   0.55271
  12   28239.9    354.1   0.017046009   0.19872   0.21295  -0.12816  -0.37006
  13   28392.8    352.2   0.004730948   0.05485  -0.15839  -0.08278  -0.15138
  14   28497.9    350.9   0.001750981   0.02023   0.10174  -0.07512   0.06507
  15   29053.3    344.2   0.109438918   1.24009  -0.24943   0.67111   0.85293
  16   29374.8    340.4   0.027633626   0.30970   0.36901  -0.27207  -0.31546
  17   29747.1    336.2   0.012278712   0.13589  -0.33448   0.15495   0.00072
  18   29882.4    334.6   0.086984152   0.95830   0.09395   0.71272   0.66445
  19   30206.2    331.1   0.123957755   1.35099  -0.09745  -1.13088  -0.25022
  20   30252.1    330.6   0.183141614   1.99300  -0.71643   1.15129   0.39277
  21   30833.5    324.3   0.036817446   0.39310  -0.61880  -0.03155   0.09586
  22   30858.8    324.1   0.002664787   0.02843  -0.09062   0.08274   0.11563
  23   31854.0    313.9   0.398148294   4.11487  -0.70616  -1.18111   1.49037
  24   32195.4    310.6   0.256890433   2.62682  -1.38617  -0.76441  -0.34790
  25   32281.2    309.8   0.056473628   0.57593   0.35508   0.10621   0.66225
  26   32507.2    307.6   0.031205660   0.31603  -0.02751  -0.55623  -0.07669
  27   32623.4    306.5   0.159527853   1.60984   1.23528  -0.00216   0.28969
  28   32812.6    304.8   0.042025811   0.42165   0.27574   0.13756   0.57157
  29   32855.3    304.4   0.000631256   0.00633  -0.00076   0.05040   0.06152
  30   33016.9    302.9   0.225471239   2.24817   1.40623   0.44051  -0.27683
  31   33122.4    301.9   0.213076064   2.11782  -0.94525  -0.39325   1.03425
  32   33178.1    301.4   0.351021330   3.48303  -1.57142  -0.40212   0.92302
  33   33364.2    299.7   0.161026124   1.58888  -1.22514  -0.13211  -0.26545
  34   33443.7    299.0   0.442815380   4.35897  -1.91257  -0.82779  -0.12569
  35   33525.6    298.3   0.044797432   0.43990  -0.66307  -0.01029  -0.01117
  36   33872.1    295.2   0.043981787   0.42747  -0.18300  -0.51938  -0.35246
  37   33957.0    294.5   0.213056374   2.06558   1.26453   0.45323   0.51100
  38   34301.3    291.5   0.051479980   0.49409   0.56557   0.40324   0.10777
  39   34345.7    291.2   0.112045515   1.07398   1.00704   0.22700  -0.09127
  40   34526.2    289.6   0.226417472   2.15892  -1.12722  -0.89976  -0.28055
  41   34592.3    289.1   0.227954893   2.16943  -1.19636  -0.85525   0.08193
  42   34646.1    288.6   0.108679645   1.03269  -0.77163  -0.07745  -0.65672
  43   35081.0    285.1   0.024480875   0.22974  -0.25086  -0.34616  -0.21674
  44   35114.2    284.8   0.002537054   0.02379   0.10910   0.00340   0.10896
  45   35142.8    284.6   0.035435536   0.33195   0.41011   0.40260  -0.04098
  46   35534.0    281.4   0.005241662   0.04856   0.15393   0.03632  -0.15345
  47   36011.9    277.7   0.004195912   0.03836  -0.03673   0.05567   0.18415
  48   36112.7    276.9   0.000409376   0.00373  -0.04267  -0.01310   0.04171
  49   36326.2    275.3   0.060680631   0.54993  -0.41335  -0.13710   0.60023
  50   36523.7    273.8   0.000650258   0.00586   0.01777  -0.00832   0.07400
  51   36866.3    271.3   0.011216897   0.10017   0.03710  -0.29106   0.11862
  52   37012.0    270.2   0.114155153   1.01538   0.66218  -0.01326   0.75942
  53   37150.9    269.2   0.033628444   0.29800  -0.00699  -0.54285  -0.05710
  54   37341.1    267.8   0.018143790   0.15996  -0.02145   0.36270   0.16718
  55   37529.7    266.5   0.008008704   0.07025   0.20222  -0.15734  -0.06785
  56   37694.0    265.3   0.011483091   0.10029   0.30176  -0.01036   0.09552
  57   37794.3    264.6   0.103736685   0.90361  -0.01096  -0.33401   0.88990
  58   38063.2    262.7   0.013576703   0.11743  -0.17990  -0.16891   0.23777
  59   38129.9    262.3   0.003390731   0.02928   0.15792   0.06569   0.00472
  60   38260.5    261.4   0.049219601   0.42351  -0.19316  -0.31749  -0.53423
  61   38315.0    261.0   0.037138335   0.31910  -0.36190  -0.03634  -0.43221
  62   38691.4    258.5   0.033936353   0.28875   0.26328  -0.46759  -0.02813
  63   38879.5    257.2   0.119797494   1.01439  -0.05718  -0.33483   0.94816
  64   39011.7    256.3   0.232832613   1.96483  -0.18416   0.80364   1.13361
  65   39206.8    255.1   0.026002526   0.21834  -0.16002   0.15906   0.40918
  66   39607.6    252.5   0.025736532   0.21392   0.27076  -0.22491  -0.30004
  67   39723.1    251.7   0.012987754   0.10764  -0.09640  -0.01788  -0.31309
  68   39774.9    251.4   0.072919982   0.60355   0.64202  -0.40301   0.17011
  69   39880.5    250.7   0.287576754   2.37394   0.31016   0.04588  -1.50852
  70   40173.4    248.9   0.000027762   0.00023  -0.00038  -0.01337   0.00697

FINAL SINGLE POINT ENERGY     -4378.920358000945

DIPOLE MOMENT
-------------
                                X             Y             Z
Electronic contribution:     -3.88789       3.66120     -24.92264
Nuclear contribution   :      5.11328      -3.15238      24.13711
                        -----------------------------------------
Total Dipole Moment    :      1.22538       0.50882      -0.78553
                        -----------------------------------------
Magnitude (a.u.)       :      1.54192
Magnitude (Debye)      :      3.91925

Rotational constants in cm-1:     0.000710     0.000562     0.000429
Rotational constants in MHz :    21.288499    16.838118    12.866815

                             ****ORCA TERMINATED NORMALLY****
TOTAL RUN TIME: 0 days 0 hours 13 minutes 7 seconds 721 msec
