                         Program Version 4.2.0 -  RELEASE  -
|  1> # ORCA input file
|  2> # SCF done       -191.567760291951          0.000604664311
|  3> ! CAM-B3LYP def2-SVP def2/J RIJCOSX Grid4 TightSCF
|  4> %maxcore 5000
|  5> %tddft
|  6>     Mode sTDDFT
|  7>     Ethresh 5.0
|  8>     maxcore 5000
|  9> end
| 10>
| 11> %pal
| 12>   nprocs 6
| 13>   end
| 14> * xyz 0 1
| 15>    C        3.06363        16.22922        -3.75252
| 16>    C        1.93992        16.37275        -4.52122
| 17>    C        1.70098        17.47332        -5.37128
| 18>    N        1.45620        18.34114        -6.08134
| 19>    C        0.85406        15.47061        -4.53196
| 20>    N       -0.07678        14.79982        -4.56350
| 21>    C        4.15129        17.19016        -3.63001
| 22>    C        5.04266        16.74528        -2.61044
| 23>    C        6.15744        17.45587        -2.26761
| 24>    C        6.43713        18.66586        -2.94076
| 25>    C        5.55399        19.11425        -3.96583
| 26>    C        4.40824        18.35727        -4.30019
| 27>    C        5.84539        20.32133        -4.63337
| 28>    C        6.95416        21.05267        -4.30461
| 29>    C        7.82263        20.61073        -3.29513
| 30>    C        7.56974        19.44301        -2.62763
| 31>    C        4.56562        15.46696        -2.05950
| 32>    O        5.09036        14.79585        -1.19856
| 33>    C        3.33898        15.13357        -2.83867
| 34>    C        2.72566        13.92283        -2.80786
| 35>    C        2.94138        12.89213        -1.85358
| 36>    C        3.20292        13.00121        -0.40826
| 37>    N        3.25500        11.85543         0.20635
| 38>    C        3.05071        10.90595        -0.74814
| 39>    C        2.85510        11.53495        -2.06136
| 40>    C        2.60891        10.53557        -3.07172
| 41>    S        2.30382        10.80412        -4.66371
| 42>    C        2.62953         9.29755        -2.34191
| 43>    C        2.89347         9.55095        -0.91722
| 44>    N        2.86068         8.38747        -0.20564
| 45>    C        2.57817         7.45555        -1.06676
| 46>    C        2.41155         7.93626        -2.43976
| 47>    C        2.11802         7.14700        -3.56666
| 48>    S        1.64127         5.42688        -3.38538
| 49>    C        1.49888         5.36588        -5.08752
| 50>    C        1.82460         6.61495        -5.65619
| 51>    N        2.15214         7.56466        -4.80269
| 52>    C        1.72206         6.56638        -7.14492
| 53>    C        1.29629         5.14485        -7.35885
| 54>    C        1.16826         4.47870        -6.12702
| 55>    S        0.65430         2.85637        -6.31099
| 56>    C        0.61986         3.05166        -8.05617
| 57>    C        0.99594         4.33747        -8.44009
| 58>    C        0.21704         1.95866        -8.85435
| 59>    C        0.25912         1.93537       -10.21471
| 60>    C       -0.18566         0.85678       -11.01027
| 61>    C       -0.90718        -0.35353       -10.58308
| 62>    N       -1.22786        -1.15934       -11.54868
| 63>    C       -0.74868        -0.57627       -12.69063
| 64>    C       -0.08529         0.69657       -12.37856
| 65>    C        0.42607         1.29617       -13.57668
| 66>    S        1.13792         2.76931       -13.73415
| 67>    C        0.10233         0.34349       -14.61583
| 68>    C       -0.67335        -0.77451       -14.04355
| 69>    N       -1.05761        -1.64144       -15.02247
| 70>    C       -0.59544        -1.14602       -16.13106
| 71>    C        0.18379         0.08900       -15.96224
| 72>    C        0.82289         0.78861       -17.02761
| 73>    C        2.04513         1.37333       -16.95687
| 74>    C        2.69294         2.16437       -17.99256
| 75>    C        2.08780         2.70123       -19.09696
| 76>    C        2.75498         3.48967       -20.05891
| 77>    N        3.24290         4.12583       -20.88018
| 78>    C        0.72088         2.56178       -19.41907
| 79>    N       -0.38032         2.49670       -19.73720
| 80>    C        4.08417         2.35121       -17.60516
| 81>    C        4.29054         1.74095       -16.33505
| 82>    C        3.03845         1.12564       -15.86831
| 83>    O        2.88103         0.48753       -14.85156
| 84>    C        5.50662         1.75782       -15.71463
| 85>    C        6.59460         2.39666       -16.34928
| 86>    C        6.39894         3.00398       -17.62377
| 87>    C        5.12775         2.97246       -18.24057
| 88>    C        7.49483         3.62989       -18.25262
| 89>    C        8.72457         3.65571       -17.65333
| 90>    C        8.91558         3.05857       -16.39809
| 91>    C        7.87307         2.44381       -15.75936
| 92>    H        6.81749        17.09858        -1.49111
| 93>    H        3.76273        18.71807        -5.08531
| 94>    H        5.17315        20.65781        -5.40892
| 95>    H        7.16822        21.97640        -4.82084
| 96>    H        8.69313        21.20016        -3.04927
| 97>    H        8.23500        19.09777        -1.84985
| 98>    H        2.03059        13.66164        -3.59921
| 99>    H        3.30524        13.91934         0.13886
|100>    H        2.50044         6.42593        -0.76219
|101>    H        2.67656         6.79537        -7.62227
|102>    H        0.98852         7.28199        -7.52109
|103>    H        1.02881         4.65327        -9.46639
|104>    H       -0.13371         1.08727        -8.31831
|105>    H        0.66246         2.77939       -10.75705
|106>    H       -1.18492        -0.59157        -9.57110
|107>    H       -0.76236        -1.64178       -17.07154
|108>    H        0.27981         0.79579       -17.96564
|109>    H        5.63503         1.28858       -14.75046
|110>    H        5.01349         3.43566       -19.20780
|111>    H        7.34279         4.08941       -19.21818
|112>    H        9.55778         4.13661       -18.14337
|113>    H        9.89306         3.08753       -15.94036
|114>    H        8.01384         1.98192       -14.79308
|115> *
|116>
|117>                          ****END OF INPUT****

CARTESIAN COORDINATES (ANGSTROEM)
---------------------------------
  C      3.063630   16.229220   -3.752520
  C      1.939920   16.372750   -4.521220
  C      1.700980   17.473320   -5.371280
  N      1.456200   18.341140   -6.081340
  C      0.854060   15.470610   -4.531960
  N     -0.076780   14.799820   -4.563500
  C      4.151290   17.190160   -3.630010
  C      5.042660   16.745280   -2.610440
  C      6.157440   17.455870   -2.267610
  C      6.437130   18.665860   -2.940760
  C      5.553990   19.114250   -3.965830
  C      4.408240   18.357270   -4.300190
  C      5.845390   20.321330   -4.633370
  C      6.954160   21.052670   -4.304610
  C      7.822630   20.610730   -3.295130
  C      7.569740   19.443010   -2.627630
  C      4.565620   15.466960   -2.059500
  O      5.090360   14.795850   -1.198560
  C      3.338980   15.133570   -2.838670
  C      2.725660   13.922830   -2.807860
  C      2.941380   12.892130   -1.853580
  C      3.202920   13.001210   -0.408260
  N      3.255000   11.855430    0.206350
  C      3.050710   10.905950   -0.748140
  C      2.855100   11.534950   -2.061360
  C      2.608910   10.535570   -3.071720
  S      2.303820   10.804120   -4.663710
  C      2.629530    9.297550   -2.341910
  C      2.893470    9.550950   -0.917220
  N      2.860680    8.387470   -0.205640
  C      2.578170    7.455550   -1.066760
  C      2.411550    7.936260   -2.439760
  C      2.118020    7.147000   -3.566660
  S      1.641270    5.426880   -3.385380
  C      1.498880    5.365880   -5.087520
  C      1.824600    6.614950   -5.656190
  N      2.152140    7.564660   -4.802690
  C      1.722060    6.566380   -7.144920
  C      1.296290    5.144850   -7.358850
  C      1.168260    4.478700   -6.127020
  S      0.654300    2.856370   -6.310990
  C      0.619860    3.051660   -8.056170
  C      0.995940    4.337470   -8.440090
  C      0.217040    1.958660   -8.854350
  C      0.259120    1.935370  -10.214710
  C     -0.185660    0.856780  -11.010270
  C     -0.907180   -0.353530  -10.583080
  N     -1.227860   -1.159340  -11.548680
  C     -0.748680   -0.576270  -12.690630
  C     -0.085290    0.696570  -12.378560
  C      0.426070    1.296170  -13.576680
  S      1.137920    2.769310  -13.734150
  C      0.102330    0.343490  -14.615830
  C     -0.673350   -0.774510  -14.043550
  N     -1.057610   -1.641440  -15.022470
  C     -0.595440   -1.146020  -16.131060
  C      0.183790    0.089000  -15.962240
  C      0.822890    0.788610  -17.027610
  C      2.045130    1.373330  -16.956870
  C      2.692940    2.164370  -17.992560
  C      2.087800    2.701230  -19.096960
  C      2.754980    3.489670  -20.058910
  N      3.242900    4.125830  -20.880180
  C      0.720880    2.561780  -19.419070
  N     -0.380320    2.496700  -19.737200
  C      4.084170    2.351210  -17.605160
  C      4.290540    1.740950  -16.335050
  C      3.038450    1.125640  -15.868310
  O      2.881030    0.487530  -14.851560
  C      5.506620    1.757820  -15.714630
  C      6.594600    2.396660  -16.349280
  C      6.398940    3.003980  -17.623770
  C      5.127750    2.972460  -18.240570
  C      7.494830    3.629890  -18.252620
  C      8.724570    3.655710  -17.653330
  C      8.915580    3.058570  -16.398090
  C      7.873070    2.443810  -15.759360
  H      6.817490   17.098580   -1.491110
  H      3.762730   18.718070   -5.085310
  H      5.173150   20.657810   -5.408920
  H      7.168220   21.976400   -4.820840
  H      8.693130   21.200160   -3.049270
  H      8.235000   19.097770   -1.849850
  H      2.030590   13.661640   -3.599210
  H      3.305240   13.919340    0.138860
  H      2.500440    6.425930   -0.762190
  H      2.676560    6.795370   -7.622270
  H      0.988520    7.281990   -7.521090
  H      1.028810    4.653270   -9.466390
  H     -0.133710    1.087270   -8.318310
  H      0.662460    2.779390  -10.757050
  H     -1.184920   -0.591570   -9.571100
  H     -0.762360   -1.641780  -17.071540
  H      0.279810    0.795790  -17.965640
  H      5.635030    1.288580  -14.750460
  H      5.013490    3.435660  -19.207800
  H      7.342790    4.089410  -19.218180
  H      9.557780    4.136610  -18.143370
  H      9.893060    3.087530  -15.940360
  H      8.013840    1.981920  -14.793080

 Total Charge           Charge          ....    0
 Multiplicity           Mult            ....    1
 Number of Electrons    NEL             ....  538
 Basis Dimension        Dim             .... 1209

ORBITAL ENERGIES
----------------

  NO   OCC          E(Eh)            E(eV)
   0   2.0000     -88.985870     -2421.4286
   1   2.0000     -88.980251     -2421.2757
   2   2.0000     -88.904197     -2419.2062
   3   2.0000     -88.903534     -2419.1882
   4   2.0000     -19.226409      -523.1772
   5   2.0000     -19.217399      -522.9320
   6   2.0000     -14.426360      -392.5612
   7   2.0000     -14.423462      -392.4824
   8   2.0000     -14.421883      -392.4394
   9   2.0000     -14.419809      -392.3829
  10   2.0000     -14.418787      -392.3551
  11   2.0000     -14.418181      -392.3387
  12   2.0000     -14.417999      -392.3337
  13   2.0000     -14.414775      -392.2460
  14   2.0000     -14.414180      -392.2298
  15   2.0000     -10.376018      -282.3458
  16   2.0000     -10.368017      -282.1281
  17   2.0000     -10.353304      -281.7277
  18   2.0000     -10.348668      -281.6016
  19   2.0000     -10.346802      -281.5508
  20   2.0000     -10.344885      -281.4986
  21   2.0000     -10.344701      -281.4936
  22   2.0000     -10.344240      -281.4811
  23   2.0000     -10.343244      -281.4540
  24   2.0000     -10.342591      -281.4362
  25   2.0000     -10.341813      -281.4150
  26   2.0000     -10.338023      -281.3119
  27   2.0000     -10.337827      -281.3066
  28   2.0000     -10.336930      -281.2822
  29   2.0000     -10.336501      -281.2705
  30   2.0000     -10.334498      -281.2160
  31   2.0000     -10.330604      -281.1100
  32   2.0000     -10.325563      -280.9729
  33   2.0000     -10.324301      -280.9385
  34   2.0000     -10.323849      -280.9262
  35   2.0000     -10.322068      -280.8778
  36   2.0000     -10.321941      -280.8743
  37   2.0000     -10.321623      -280.8656
  38   2.0000     -10.321063      -280.8504
  39   2.0000     -10.320940      -280.8470
  40   2.0000     -10.320493      -280.8349
  41   2.0000     -10.319848      -280.8173
  42   2.0000     -10.315252      -280.6923
  43   2.0000     -10.311284      -280.5843
  44   2.0000     -10.308982      -280.5217
  45   2.0000     -10.308453      -280.5073
  46   2.0000     -10.308263      -280.5021
  47   2.0000     -10.308052      -280.4964
  48   2.0000     -10.307975      -280.4943
  49   2.0000     -10.306423      -280.4520
  50   2.0000     -10.306233      -280.4469
  51   2.0000     -10.305670      -280.4315
  52   2.0000     -10.305032      -280.4142
  53   2.0000     -10.303241      -280.3654
  54   2.0000     -10.302986      -280.3585
  55   2.0000     -10.302854      -280.3549
  56   2.0000     -10.302592      -280.3478
  57   2.0000     -10.301790      -280.3260
  58   2.0000     -10.300461      -280.2898
  59   2.0000     -10.299957      -280.2761
  60   2.0000     -10.299712      -280.2694
  61   2.0000     -10.299043      -280.2512
  62   2.0000     -10.299025      -280.2507
  63   2.0000     -10.298200      -280.2283
  64   2.0000     -10.295592      -280.1573
  65   2.0000     -10.294896      -280.1384
  66   2.0000     -10.293652      -280.1045
  67   2.0000     -10.292888      -280.0837
  68   2.0000     -10.291165      -280.0368
  69   2.0000     -10.290699      -280.0242
  70   2.0000     -10.290463      -280.0177
  71   2.0000     -10.290139      -280.0089
  72   2.0000     -10.289910      -280.0027
  73   2.0000     -10.288790      -279.9722
  74   2.0000     -10.288177      -279.9555
  75   2.0000     -10.287959      -279.9496
  76   2.0000     -10.287462      -279.9361
  77   2.0000      -8.080752      -219.8884
  78   2.0000      -8.075383      -219.7423
  79   2.0000      -7.999599      -217.6801
  80   2.0000      -7.998951      -217.6625
  81   2.0000      -6.049865      -164.6252
  82   2.0000      -6.046034      -164.5210
  83   2.0000      -6.044701      -164.4847
  84   2.0000      -6.043020      -164.4389
  85   2.0000      -6.040597      -164.3730
  86   2.0000      -6.037502      -164.2888
  87   2.0000      -5.968818      -162.4198
  88   2.0000      -5.968214      -162.4034
  89   2.0000      -5.967670      -162.3886
  90   2.0000      -5.967598      -162.3866
  91   2.0000      -5.958388      -162.1360
  92   2.0000      -5.958271      -162.1328
  93   2.0000      -1.141535       -31.0627
  94   2.0000      -1.132631       -30.8205
  95   2.0000      -1.091595       -29.7038
  96   2.0000      -1.086725       -29.5713
  97   2.0000      -1.083206       -29.4755
  98   2.0000      -1.069305       -29.0973
  99   2.0000      -1.067349       -29.0440
 100   2.0000      -1.022342       -27.8193
 101   2.0000      -1.020878       -27.7795
 102   2.0000      -1.013557       -27.5803
 103   2.0000      -1.003032       -27.2939
 104   2.0000      -1.000652       -27.2291
 105   2.0000      -0.997118       -27.1330
 106   2.0000      -0.996754       -27.1231
 107   2.0000      -0.976718       -26.5778
 108   2.0000      -0.973978       -26.5033
 109   2.0000      -0.969334       -26.3769
 110   2.0000      -0.965702       -26.2781
 111   2.0000      -0.948922       -25.8215
 112   2.0000      -0.932550       -25.3760
 113   2.0000      -0.929745       -25.2997
 114   2.0000      -0.918019       -24.9806
 115   2.0000      -0.917597       -24.9691
 116   2.0000      -0.915667       -24.9166
 117   2.0000      -0.915088       -24.9008
 118   2.0000      -0.891942       -24.2710
 119   2.0000      -0.891313       -24.2539
 120   2.0000      -0.887977       -24.1631
 121   2.0000      -0.885463       -24.0947
 122   2.0000      -0.882580       -24.0162
 123   2.0000      -0.866490       -23.5784
 124   2.0000      -0.859847       -23.3976
 125   2.0000      -0.855784       -23.2871
 126   2.0000      -0.848151       -23.0794
 127   2.0000      -0.842906       -22.9366
 128   2.0000      -0.839130       -22.8339
 129   2.0000      -0.833337       -22.6763
 130   2.0000      -0.830283       -22.5931
 131   2.0000      -0.803281       -21.8584
 132   2.0000      -0.802276       -21.8310
 133   2.0000      -0.794929       -21.6311
 134   2.0000      -0.791618       -21.5410
 135   2.0000      -0.777236       -21.1497
 136   2.0000      -0.770375       -20.9630
 137   2.0000      -0.766870       -20.8676
 138   2.0000      -0.763618       -20.7791
 139   2.0000      -0.756124       -20.5752
 140   2.0000      -0.742233       -20.1972
 141   2.0000      -0.729215       -19.8430
 142   2.0000      -0.717499       -19.5241
 143   2.0000      -0.716259       -19.4904
 144   2.0000      -0.711416       -19.3586
 145   2.0000      -0.707974       -19.2650
 146   2.0000      -0.707015       -19.2389
 147   2.0000      -0.704150       -19.1609
 148   2.0000      -0.699374       -19.0309
 149   2.0000      -0.694762       -18.9054
 150   2.0000      -0.689042       -18.7498
 151   2.0000      -0.680920       -18.5288
 152   2.0000      -0.678898       -18.4738
 153   2.0000      -0.669928       -18.2297
 154   2.0000      -0.656119       -17.8539
 155   2.0000      -0.654826       -17.8187
 156   2.0000      -0.649119       -17.6634
 157   2.0000      -0.642011       -17.4700
 158   2.0000      -0.640207       -17.4209
 159   2.0000      -0.634955       -17.2780
 160   2.0000      -0.633124       -17.2282
 161   2.0000      -0.630518       -17.1573
 162   2.0000      -0.613353       -16.6902
 163   2.0000      -0.613254       -16.6875
 164   2.0000      -0.611928       -16.6514
 165   2.0000      -0.609623       -16.5887
 166   2.0000      -0.608585       -16.5604
 167   2.0000      -0.592786       -16.1305
 168   2.0000      -0.592156       -16.1134
 169   2.0000      -0.583126       -15.8677
 170   2.0000      -0.578944       -15.7539
 171   2.0000      -0.578133       -15.7318
 172   2.0000      -0.573470       -15.6049
 173   2.0000      -0.569370       -15.4933
 174   2.0000      -0.566345       -15.4110
 175   2.0000      -0.562659       -15.3107
 176   2.0000      -0.556785       -15.1509
 177   2.0000      -0.554058       -15.0767
 178   2.0000      -0.551761       -15.0142
 179   2.0000      -0.550119       -14.9695
 180   2.0000      -0.548304       -14.9201
 181   2.0000      -0.548011       -14.9121
 182   2.0000      -0.544653       -14.8208
 183   2.0000      -0.543262       -14.7829
 184   2.0000      -0.541872       -14.7451
 185   2.0000      -0.539108       -14.6699
 186   2.0000      -0.537434       -14.6243
 187   2.0000      -0.535278       -14.5657
 188   2.0000      -0.529222       -14.4009
 189   2.0000      -0.526065       -14.3149
 190   2.0000      -0.522413       -14.2156
 191   2.0000      -0.520926       -14.1751
 192   2.0000      -0.517404       -14.0793
 193   2.0000      -0.516268       -14.0484
 194   2.0000      -0.513551       -13.9744
 195   2.0000      -0.512395       -13.9430
 196   2.0000      -0.510755       -13.8984
 197   2.0000      -0.507254       -13.8031
 198   2.0000      -0.505902       -13.7663
 199   2.0000      -0.502654       -13.6779
 200   2.0000      -0.501171       -13.6376
 201   2.0000      -0.499865       -13.6020
 202   2.0000      -0.498832       -13.5739
 203   2.0000      -0.493922       -13.4403
 204   2.0000      -0.492039       -13.3891
 205   2.0000      -0.490829       -13.3561
 206   2.0000      -0.489429       -13.3180
 207   2.0000      -0.487702       -13.2710
 208   2.0000      -0.487229       -13.2582
 209   2.0000      -0.485391       -13.2082
 210   2.0000      -0.483532       -13.1576
 211   2.0000      -0.481491       -13.1020
 212   2.0000      -0.479427       -13.0459
 213   2.0000      -0.471628       -12.8336
 214   2.0000      -0.470134       -12.7930
 215   2.0000      -0.466264       -12.6877
 216   2.0000      -0.457984       -12.4624
 217   2.0000      -0.452206       -12.3052
 218   2.0000      -0.451513       -12.2863
 219   2.0000      -0.447917       -12.1884
 220   2.0000      -0.446960       -12.1624
 221   2.0000      -0.446924       -12.1614
 222   2.0000      -0.444399       -12.0927
 223   2.0000      -0.443857       -12.0780
 224   2.0000      -0.442208       -12.0331
 225   2.0000      -0.442072       -12.0294
 226   2.0000      -0.438036       -11.9196
 227   2.0000      -0.437625       -11.9084
 228   2.0000      -0.437429       -11.9031
 229   2.0000      -0.436700       -11.8832
 230   2.0000      -0.435789       -11.8584
 231   2.0000      -0.432228       -11.7615
 232   2.0000      -0.430068       -11.7028
 233   2.0000      -0.429885       -11.6978
 234   2.0000      -0.426539       -11.6067
 235   2.0000      -0.423496       -11.5239
 236   2.0000      -0.422528       -11.4976
 237   2.0000      -0.419662       -11.4196
 238   2.0000      -0.414735       -11.2855
 239   2.0000      -0.411633       -11.2011
 240   2.0000      -0.409304       -11.1377
 241   2.0000      -0.407547       -11.0899
 242   2.0000      -0.390314       -10.6210
 243   2.0000      -0.384781       -10.4704
 244   2.0000      -0.380732       -10.3602
 245   2.0000      -0.369632       -10.0582
 246   2.0000      -0.368807       -10.0357
 247   2.0000      -0.365927        -9.9574
 248   2.0000      -0.365703        -9.9513
 249   2.0000      -0.360289        -9.8040
 250   2.0000      -0.358687        -9.7604
 251   2.0000      -0.355989        -9.6870
 252   2.0000      -0.354915        -9.6577
 253   2.0000      -0.348447        -9.4817
 254   2.0000      -0.344214        -9.3665
 255   2.0000      -0.339948        -9.2505
 256   2.0000      -0.338021        -9.1980
 257   2.0000      -0.324206        -8.8221
 258   2.0000      -0.323163        -8.7937
 259   2.0000      -0.318751        -8.6737
 260   2.0000      -0.315183        -8.5766
 261   2.0000      -0.308619        -8.3979
 262   2.0000      -0.305417        -8.3108
 263   2.0000      -0.298438        -8.1209
 264   2.0000      -0.294451        -8.0124
 265   2.0000      -0.293496        -7.9864
 266   2.0000      -0.288818        -7.8591
 267   2.0000      -0.282466        -7.6863
 268   2.0000      -0.246553        -6.7090
 269   0.0000      -0.125373        -3.4116
 270   0.0000      -0.118778        -3.2321
 271   0.0000      -0.103779        -2.8240
 272   0.0000      -0.093545        -2.5455
 273   0.0000      -0.074300        -2.0218

MULLIKEN ATOMIC CHARGES
-----------------------
   0 C :    0.308536
   1 C :   -0.332567
   2 C :   -0.182075
   3 N :    0.151768
   4 C :   -0.199240
   5 N :    0.171844
   6 C :    0.056099
   7 C :   -0.012861
   8 C :   -0.075142
   9 C :    0.097421
  10 C :    0.096677
  11 C :   -0.084966
  12 C :   -0.019477
  13 C :    0.038537
  14 C :    0.038062
  15 C :   -0.016143
  16 C :    0.147453
  17 O :   -0.146392
  18 C :   -0.088936
  19 C :   -0.045689
  20 C :   -0.011698
  21 C :    0.113713
  22 N :   -0.035990
  23 C :    0.028656
  24 C :    0.010893
  25 C :   -0.024067
  26 S :   -0.073322
  27 C :   -0.008192
  28 C :   -0.003979
  29 N :   -0.023586
  30 C :    0.058886
  31 C :    0.060811
  32 C :   -0.169524
  33 S :    0.125354
  34 C :   -0.041565
  35 C :   -0.226288
  36 N :    0.044477
  37 C :    0.394886
  38 C :   -0.155686
  39 C :   -0.101354
  40 S :    0.165439
  41 C :   -0.081697
  42 C :   -0.011374
  43 C :    0.054673
  44 C :   -0.028827
  45 C :    0.004945
  46 C :    0.062393
  47 N :   -0.022422
  48 C :    0.047002
  49 C :   -0.014360
  50 C :    0.021519
  51 S :   -0.129311
  52 C :    0.050581
  53 C :   -0.025704
  54 N :   -0.033474
  55 C :    0.064358
  56 C :   -0.013692
  57 C :   -0.051095
  58 C :   -0.054810
  59 C :    0.307187
  60 C :   -0.339525
  61 C :   -0.182090
  62 N :    0.153238
  63 C :   -0.197823
  64 N :    0.165403
  65 C :    0.054347
  66 C :   -0.017574
  67 C :    0.160196
  68 O :   -0.136574
  69 C :   -0.075338
  70 C :    0.097714
  71 C :    0.095915
  72 C :   -0.082005
  73 C :   -0.017634
  74 C :    0.037289
  75 C :    0.035783
  76 C :   -0.014000
  77 H :   -0.010553
  78 H :   -0.006613
  79 H :   -0.007839
  80 H :   -0.003317
  81 H :   -0.003376
  82 H :   -0.015371
  83 H :    0.041575
  84 H :    0.015698
  85 H :    0.012753
  86 H :    0.044360
  87 H :    0.048593
  88 H :   -0.005412
  89 H :   -0.013758
  90 H :   -0.003087
  91 H :    0.011583
  92 H :    0.009099
  93 H :    0.031568
  94 H :   -0.014304
  95 H :   -0.009032
  96 H :   -0.009508
  97 H :   -0.004326
  98 H :   -0.004815
  99 H :   -0.017908
Sum of atomic charges:   -0.0000000

LOEWDIN ATOMIC CHARGES
----------------------
   0 C :    0.072488
   1 C :   -0.127232
   2 C :   -0.016574
   3 N :   -0.047769
   4 C :   -0.024286
   5 N :   -0.039876
   6 C :   -0.025027
   7 C :   -0.057991
   8 C :    0.035472
   9 C :   -0.008142
  10 C :   -0.004719
  11 C :    0.020475
  12 C :   -0.004915
  13 C :   -0.010794
  14 C :   -0.010621
  15 C :   -0.008460
  16 C :    0.086014
  17 O :   -0.132077
  18 C :   -0.079416
  19 C :    0.075388
  20 C :   -0.050921
  21 C :    0.114907
  22 N :   -0.089043
  23 C :    0.041489
  24 C :    0.001799
  25 C :   -0.152296
  26 S :    0.098407
  27 C :   -0.024289
  28 C :    0.037515
  29 N :   -0.074661
  30 C :    0.081661
  31 C :   -0.069136
  32 C :   -0.127181
  33 S :    0.415399
  34 C :   -0.206793
  35 C :   -0.029092
  36 N :   -0.053433
  37 C :   -0.009942
  38 C :   -0.039137
  39 C :   -0.196650
  40 S :    0.448469
  41 C :   -0.166533
  42 C :   -0.035675
  43 C :   -0.020987
  44 C :   -0.019388
  45 C :   -0.034042
  46 C :    0.095618
  47 N :   -0.076150
  48 C :    0.052243
  49 C :   -0.045013
  50 C :   -0.135095
  51 S :    0.061272
  52 C :    0.012868
  53 C :    0.029536
  54 N :   -0.081994
  55 C :    0.087054
  56 C :   -0.057116
  57 C :    0.061972
  58 C :   -0.064953
  59 C :    0.075483
  60 C :   -0.130404
  61 C :   -0.016704
  62 N :   -0.048628
  63 C :   -0.022043
  64 N :   -0.045848
  65 C :   -0.025804
  66 C :   -0.053462
  67 C :    0.081579
  68 O :   -0.130923
  69 C :    0.033498
  70 C :   -0.007470
  71 C :   -0.005897
  72 C :    0.020460
  73 C :   -0.004834
  74 C :   -0.012815
  75 C :   -0.011615
  76 C :   -0.009419
  77 H :    0.040052
  78 H :    0.039578
  79 H :    0.035329
  80 H :    0.033977
  81 H :    0.033571
  82 H :    0.032619
  83 H :    0.047668
  84 H :    0.027633
  85 H :    0.023087
  86 H :    0.060331
  87 H :    0.062367
  88 H :    0.037766
  89 H :    0.027835
  90 H :    0.030061
  91 H :    0.024539
  92 H :    0.026895
  93 H :    0.047850
  94 H :    0.038993
  95 H :    0.038944
  96 H :    0.034854
  97 H :    0.033437
  98 H :    0.032967
  99 H :    0.031868

  Mayer bond orders larger than 0.100000
B(  0-C ,  1-C ) :   1.6653 B(  0-C ,  6-C ) :   0.9978 B(  0-C , 18-C ) :   1.0281
B(  1-C ,  2-C ) :   1.1419 B(  1-C ,  4-C ) :   1.1384 B(  2-C ,  3-N ) :   2.9682
B(  4-C ,  5-N ) :   2.9941 B(  6-C ,  7-C ) :   1.2092 B(  6-C , 11-C ) :   1.4473
B(  7-C ,  8-C ) :   1.4684 B(  7-C , 16-C ) :   0.9473 B(  8-C ,  9-C ) :   1.1830
B(  8-C , 77-H ) :   1.0165 B(  9-C , 10-C ) :   1.2543 B(  9-C , 15-C ) :   1.2415
B( 10-C , 11-C ) :   1.2077 B( 10-C , 12-C ) :   1.2394 B( 11-C , 78-H ) :   0.9912
B( 12-C , 13-C ) :   1.4898 B( 12-C , 79-H ) :   0.9978 B( 13-C , 14-C ) :   1.2591
B( 13-C , 80-H ) :   0.9887 B( 14-C , 15-C ) :   1.4888 B( 14-C , 81-H ) :   0.9893
B( 15-C , 82-H ) :   0.9986 B( 16-C , 17-O ) :   2.2138 B( 16-C , 18-C ) :   0.9355
B( 18-C , 19-C ) :   1.6503 B( 19-C , 20-C ) :   1.0958 B( 19-C , 83-H ) :   0.9370
B( 20-C , 21-C ) :   1.0035 B( 20-C , 24-C ) :   1.5445 B( 21-C , 22-N ) :   1.7150
B( 21-C , 84-H ) :   0.9887 B( 22-N , 23-C ) :   1.2774 B( 23-C , 24-C ) :   1.0603
B( 23-C , 28-C ) :   1.4921 B( 24-C , 25-C ) :   1.0025 B( 25-C , 26-S ) :   1.7284
B( 25-C , 27-C ) :   1.0418 B( 27-C , 28-C ) :   1.0701 B( 27-C , 31-C ) :   1.5191
B( 28-C , 29-N ) :   1.2642 B( 29-N , 30-C ) :   1.7322 B( 30-C , 31-C ) :   1.0364
B( 30-C , 85-H ) :   0.9856 B( 31-C , 32-C ) :   1.0859 B( 32-C , 33-S ) :   1.0555
B( 32-C , 36-N ) :   1.6941 B( 33-S , 34-C ) :   1.1055 B( 33-S , 36-N ) :   0.1021
B( 34-C , 35-C ) :   1.4327 B( 34-C , 39-C ) :   1.2089 B( 35-C , 36-N ) :   1.4670
B( 35-C , 37-C ) :   1.0401 B( 37-C , 38-C ) :   0.9780 B( 37-C , 86-H ) :   0.8618
B( 37-C , 87-H ) :   0.8594 B( 38-C , 39-C ) :   1.4818 B( 38-C , 42-C ) :   1.3394
B( 39-C , 40-S ) :   1.0963 B( 40-S , 41-C ) :   1.1004 B( 41-C , 42-C ) :   1.4327
B( 41-C , 43-C ) :   1.1456 B( 42-C , 88-H ) :   0.9992 B( 43-C , 44-C ) :   1.6226
B( 43-C , 89-H ) :   0.9597 B( 44-C , 45-C ) :   1.1527 B( 44-C , 90-H ) :   0.9666
B( 45-C , 46-C ) :   0.9973 B( 45-C , 49-C ) :   1.4788 B( 46-C , 47-N ) :   1.7451
B( 46-C , 91-H ) :   0.9872 B( 47-N , 48-C ) :   1.2486 B( 48-C , 49-C ) :   1.0665
B( 48-C , 53-C ) :   1.5134 B( 49-C , 50-C ) :   1.0491 B( 50-C , 51-S ) :   1.6825
B( 50-C , 52-C ) :   1.0194 B( 52-C , 53-C ) :   1.0828 B( 52-C , 56-C ) :   1.5440
B( 53-C , 54-N ) :   1.2671 B( 54-N , 55-C ) :   1.7197 B( 55-C , 56-C ) :   1.0230
B( 55-C , 92-H ) :   0.9944 B( 56-C , 57-C ) :   1.0780 B( 57-C , 58-C ) :   1.6891
B( 57-C , 93-H ) :   0.9357 B( 58-C , 59-C ) :   1.0432 B( 58-C , 67-C ) :   0.9218
B( 59-C , 60-C ) :   1.6548 B( 59-C , 65-C ) :   0.9965 B( 60-C , 61-C ) :   1.1413
B( 60-C , 63-C ) :   1.1416 B( 61-C , 62-N ) :   2.9682 B( 63-C , 64-N ) :   2.9865
B( 65-C , 66-C ) :   1.2133 B( 65-C , 72-C ) :   1.4415 B( 66-C , 67-C ) :   0.9459
B( 66-C , 69-C ) :   1.4741 B( 67-C , 68-O ) :   2.2267 B( 69-C , 70-C ) :   1.1800
B( 69-C , 94-H ) :   1.0152 B( 70-C , 71-C ) :   1.2550 B( 70-C , 76-C ) :   1.2433
B( 71-C , 72-C ) :   1.2103 B( 71-C , 73-C ) :   1.2377 B( 72-C , 95-H ) :   0.9891
B( 73-C , 74-C ) :   1.4918 B( 73-C , 96-H ) :   0.9968 B( 74-C , 75-C ) :   1.2583
B( 74-C , 97-H ) :   0.9886 B( 75-C , 76-C ) :   1.4894 B( 75-C , 98-H ) :   0.9888
B( 76-C , 99-H ) :   0.9973

-----------------------------------------------------------------------------
         ABSORPTION SPECTRUM VIA TRANSITION ELECTRIC DIPOLE MOMENTS
-----------------------------------------------------------------------------
State   Energy  Wavelength   fosc         T2         TX        TY        TZ
        (cm-1)    (nm)                  (au**2)     (au)      (au)      (au)
-----------------------------------------------------------------------------
   0   12380.4    807.7   0.678182711  18.03381  -0.49713  -2.93825  -3.02545
   1   13030.8    767.4   0.000278284   0.00703  -0.00608  -0.04367   0.07132
   2   13233.0    755.7   0.032404271   0.80616   0.26568   0.67420  -0.53012
   3   15203.5    657.7   0.023762776   0.51455   0.14345   0.46741   0.52488
   4   15460.0    646.8   0.000471688   0.01004  -0.01211   0.05830  -0.08062
   5   16952.2    589.9   1.064281659  20.66831  -0.62002  -2.96928  -3.38634
   6   17886.8    559.1   0.016540945   0.30444  -0.11300  -0.40450  -0.35784
   7   19457.0    514.0   0.084960887   1.43753  -0.11850  -0.63397   1.01073
   8   19949.5    501.3   0.047654711   0.78641   0.50139   0.56273  -0.46727
   9   20212.1    494.8   0.006332193   0.10314  -0.11919  -0.04524  -0.29476
  10   21998.2    454.6   0.139452871   2.08697   0.22454  -0.23477  -1.40763
  11   22756.2    439.4   0.157144864   2.27341  -0.00143  -1.50546   0.08356
  12   23543.5    424.7   0.029199019   0.40829  -0.43910  -0.43997  -0.14801
  13   23913.7    418.2   0.034015386   0.46828   0.06554  -0.48399   0.47931
  14   24004.9    416.6   0.026090502   0.35782   0.22047  -0.54747  -0.09738
  15   24246.6    412.4   0.031434089   0.42680   0.30572   0.25423   0.51837
  16   24910.9    401.4   0.203848033   2.69397   0.62878   1.45083  -0.44011
  17   25138.5    397.8   0.138227060   1.81021  -0.29112   1.27471   0.31711
  18   25350.9    394.5   0.003338363   0.04335   0.02711  -0.15164  -0.14008
  19   25374.8    394.1   0.255655761   3.31687  -0.41065  -1.58767   0.79216
  20   26029.0    384.2   0.002799597   0.03541  -0.08700   0.15672   0.05725
  21   26137.9    382.6   0.002609133   0.03286   0.08144   0.00964  -0.16167
  22   26820.2    372.9   0.108655137   1.33372   0.16223   0.20109   1.12559
  23   26956.3    371.0   0.109323242   1.33514   0.10297   0.53632  -1.01828
  24   27222.0    367.4   0.000200156   0.00242  -0.04075  -0.01980  -0.01918
  25   27299.3    366.3   0.004645679   0.05602  -0.19524   0.05267   0.12301
  26   27645.8    361.7   0.012617993   0.15026   0.23990  -0.21849   0.21206
  27   27711.2    360.9   0.007977192   0.09477  -0.21955  -0.12320   0.17717
  28   27968.4    357.5   0.009342777   0.10997   0.06876   0.22557  -0.23315
  29   28292.6    353.4   0.212845554   2.47667   0.61794  -0.44758  -1.37641
  30   28514.5    350.7   0.344441968   3.97673   0.64060   1.72084  -0.77787
  31   28668.5    348.8   0.061799206   0.70966   0.09414  -0.79712  -0.25574
  32   28924.1    345.7   0.175407139   1.99647  -0.99684  -0.39575   0.91988
  33   29164.1    342.9   0.106233801   1.19919   0.00981   0.51505  -0.96634
  34   29381.2    340.4   0.070814310   0.79346  -0.36522  -0.80565  -0.10488
  35   29929.7    334.1   0.016662501   0.18328   0.22725   0.32406  -0.16317
  36   30065.8    332.6   0.059767466   0.65444   0.21579   0.74316   0.23578
  37   30372.9    329.2   0.288615585   3.12831   1.57595   0.78579   0.16494
  38   30722.6    325.5   0.053296040   0.57110  -0.50623  -0.41515   0.37747
  39   30912.3    323.5   0.002270053   0.02418  -0.04784  -0.14269   0.03907
  40   30937.9    323.2   0.004835801   0.05146   0.17762  -0.10001  -0.09954
  41   30962.4    323.0   0.019904235   0.21163  -0.14933   0.37539  -0.22004
  42   31097.1    321.6   0.019996553   0.21169  -0.45524  -0.00453   0.06655
  43   31316.6    319.3   0.097095423   1.02070   0.92270   0.41144   0.00647
  44   31699.8    315.5   0.037147460   0.38579  -0.32340   0.44484   0.28864
  45   31778.8    314.7   0.284672536   2.94906  -1.26068  -1.11618  -0.33750
  46   31961.3    312.9   0.090894220   0.93624   0.55652   0.52953   0.58832
  47   32236.2    310.2   0.097730871   0.99808   0.63099  -0.77063  -0.07784
  48   32426.2    308.4   0.095919059   0.97383  -0.94390   0.28518   0.03955
  49   32622.6    306.5   0.005833945   0.05887  -0.01660   0.23231  -0.06804
  50   32709.2    305.7   0.000408902   0.00412   0.05258  -0.03353  -0.01503
  51   32824.0    304.7   0.083348348   0.83595  -0.61738   0.20163  -0.64354
  52   32843.6    304.5   0.031280657   0.31355   0.18142  -0.16935   0.50195
  53   32927.0    303.7   0.006475499   0.06474   0.23804  -0.08661   0.02409
  54   33038.0    302.7   0.027924266   0.27826   0.21965   0.19411   0.43856
  55   33281.9    300.5   0.318406286   3.14955   1.16322   1.22765   0.53791
  56   33443.4    299.0   0.023312651   0.22949  -0.24146  -0.12689  -0.39381
  57   33684.0    296.9   0.022948421   0.22429  -0.31152  -0.09382  -0.34415
  58   33770.5    296.1   0.074338930   0.72469  -0.20392  -0.77395   0.29001
  59   34003.0    294.1   0.057163189   0.55345  -0.60680  -0.38809  -0.18608
  60   34304.2    291.5   0.287503189   2.75913   1.34423   0.95165   0.21568
  61   34611.0    288.9   0.013116397   0.12476  -0.25495  -0.20251   0.13694
  62   34731.6    287.9   0.019417418   0.18405   0.28678   0.20321   0.24600
  63   34986.4    285.8   0.326799138   3.07508  -1.55232  -0.80651   0.12220
  64   35158.0    284.4   0.027109449   0.25385   0.15644   0.46040  -0.13194
  65   35389.5    282.6   0.012483867   0.11613  -0.32453   0.05226  -0.08989
  66   35409.4    282.4   0.004335987   0.04031  -0.16606  -0.06836  -0.08981
  67   35450.4    282.1   0.016159730   0.15007  -0.08444  -0.37695  -0.02913
  68   35574.8    281.1   0.031871441   0.29494   0.02720  -0.42014   0.34305
  69   35641.3    280.6   0.080681685   0.74524   0.03147   0.60047  -0.61942
  70   35655.3    280.5   0.047319136   0.43691  -0.08367  -0.45010   0.47678
  71   35845.5    279.0   0.048070693   0.44149   0.41032   0.19922   0.48316
  72   35955.4    278.1   0.027157725   0.24866  -0.33515   0.24616  -0.27521
  73   36167.3    276.5   0.000526482   0.00479   0.06885  -0.00712  -0.00078
  74   36386.9    274.8   0.006173782   0.05586   0.22175   0.06684   0.04709
  75   36583.8    273.3   0.039371917   0.35430   0.40221   0.42837  -0.09501
  76   36672.2    272.7   0.005629764   0.05054   0.13611  -0.15988   0.08032
  77   36758.1    272.0   0.146165556   1.30909   0.85801   0.37153   0.65944
  78   37094.1    269.6   0.089347557   0.79296  -0.21226  -0.50591   0.70140
  79   37163.9    269.1   0.140199486   1.24194   0.53645  -0.39185   0.89477
  80   37314.9    268.0   0.024105300   0.21267  -0.22464   0.00780  -0.40267
  81   37732.5    265.0   0.027720929   0.24186   0.20277   0.03168   0.44692
  82   37826.8    264.4   0.024030609   0.20914  -0.33968   0.23890   0.19154
  83   37946.0    263.5   0.019867405   0.17237  -0.24161   0.05360  -0.33334
  84   38041.3    262.9   0.207842333   1.79868   0.99204  -0.32881   0.84049
  85   38210.6    261.7   0.028193866   0.24291   0.21242  -0.41173   0.16814
  86   38349.9    260.8   0.063129137   0.54193  -0.70720   0.18810  -0.08008
  87   38396.8    260.4   0.241482293   2.07045  -1.07619   0.06448  -0.95295
  88   38418.8    260.3   0.028437934   0.24369   0.42980  -0.01163   0.24253
  89   38617.2    259.0   0.059902832   0.51067   0.55214   0.33332   0.30775
  90   38673.4    258.6   0.029225275   0.24878   0.47424   0.14636  -0.04955
  91   38827.4    257.5   0.015483444   0.13128   0.29485   0.16011  -0.13677
  92   39037.8    256.2   0.009543490   0.08048   0.24271   0.04694  -0.13918
  93   39100.0    255.8   0.000820367   0.00691   0.03730  -0.00101  -0.07427
  94   39324.7    254.3   0.038927714   0.32589   0.23572   0.48480   0.18786
  95   39518.9    253.0   0.080400809   0.66978  -0.34889  -0.56591  -0.47728
  96   39675.2    252.0   0.087151974   0.72316   0.56030   0.21681   0.60185
  97   40089.6    249.4   0.205047411   1.68383  -0.25466  -0.81952   0.97332
  98   40128.9    249.2   0.031390868   0.25753   0.46948   0.14952   0.12149

FINAL SINGLE POINT ENERGY     -4607.853943667723

DIPOLE MOMENT
-------------
                                X             Y             Z
Electronic contribution:    -28.59712     -19.96443      14.55670
Nuclear contribution   :     32.39003      20.30592     -12.78715
                        -----------------------------------------
Total Dipole Moment    :      3.79292       0.34149       1.76955
                        -----------------------------------------
Magnitude (a.u.)       :      4.19930
Magnitude (Debye)      :     10.67378

Rotational constants in cm-1:     0.000941     0.000209     0.000184
Rotational constants in MHz :    28.204573     6.279047     5.529737

                             ****ORCA TERMINATED NORMALLY****
TOTAL RUN TIME: 0 days 0 hours 15 minutes 16 seconds 62 msec
