                         Program Version 4.2.0 -  RELEASE  -
|  1> # ORCA input file
|  2> # SCF done       -188.056845946236          0.000875350446
|  3> ! CAM-B3LYP def2-SVP def2/J RIJCOSX Grid4 TightSCF
|  4> %maxcore 5000
|  5> %tddft
|  6>     Mode sTDDFT
|  7>     Ethresh 5.0
|  8>     maxcore 5000
|  9> end
| 10>
| 11> %pal
| 12>   nprocs 6
| 13>   end
| 14> * xyz 0 1
| 15>    C        3.29406         2.50919         2.05329
| 16>    C        3.26131         2.53007         3.42143
| 17>    C        4.22836         1.91515         4.24673
| 18>    N        4.96858         1.42936         4.97675
| 19>    C        2.26033         3.13737         4.20927
| 20>    N        1.48468         3.60182         4.91710
| 21>    C        4.32397         1.87819         1.23859
| 22>    C        3.98731         2.03918        -0.13595
| 23>    C        4.77537         1.54627        -1.13622
| 24>    C        5.96201         0.85771        -0.80233
| 25>    C        6.30577         0.68893         0.57065
| 26>    C        5.47033         1.21010         1.58418
| 27>    C        7.48884        -0.00730         0.89333
| 28>    C        8.29432        -0.51220        -0.09069
| 29>    C        7.95587        -0.34348        -1.44199
| 30>    C        6.81523         0.32756        -1.79021
| 31>    C        2.72012         2.77386        -0.25218
| 32>    O        2.09068         2.98207        -1.26570
| 33>    C        2.32821         3.12000         1.14859
| 34>    C        1.21224         3.80893         1.48721
| 35>    C        0.34356         4.47844         0.57216
| 36>    C       -1.12428         4.46246         0.67594
| 37>    N       -1.73294         5.08299        -0.28846
| 38>    C       -0.74582         5.59151        -1.07888
| 39>    C        0.58283         5.26242        -0.52690
| 40>    C        1.61890         5.84798        -1.34874
| 41>    S        3.23666         5.86515        -1.05822
| 42>    C        0.90398         6.42291        -2.45409
| 43>    C       -0.54656         6.25209        -2.25898
| 44>    N       -1.23814         6.73638        -3.33329
| 45>    C       -0.34106         7.13684        -4.17802
| 46>    C        1.04791         6.96604        -3.71512
| 47>    C        2.20735         7.31781        -4.44277
| 48>    S        3.74882         7.49852        -3.66149
| 49>    C        4.52122         7.89752        -5.15379
| 50>    C        3.61477         7.86155        -6.22668
| 51>    C        2.29860         7.55371        -5.82452
| 52>    O        1.19769         7.44547        -6.58248
| 53>    C        1.29455         7.63265        -7.97923
| 54>    C        4.06914         8.12958        -7.52834
| 55>    N        4.50357         8.35312        -8.56749
| 56>    C        5.89348         8.22023        -5.25369
| 57>    C        6.71346         8.38552        -4.18255
| 58>    C        8.07985         8.73894        -4.27245
| 59>    C        8.92709         8.77302        -5.47245
| 60>    N       10.15283         9.14698        -5.25505
| 61>    C       10.23027         9.40480        -3.91651
| 62>    C        8.93759         9.14053        -3.26624
| 63>    C        9.00835         9.46300        -1.86830
| 64>    S        7.82590         9.35619        -0.73046
| 65>    C       10.36730         9.91715        -1.68283
| 66>    C       11.09904         9.87172        -2.96382
| 67>    N       12.37316        10.31919        -2.79870
| 68>    C       12.47037        10.67540        -1.55257
| 69>    C       11.23182        10.46961        -0.77484
| 70>    C       11.00599        10.80551         0.59245
| 71>    C       11.42858        11.96897         1.14671
| 72>    C       11.29531        12.42392         2.52078
| 73>    C       10.95122        11.65077         3.59586
| 74>    C       10.85253        12.13554         4.91760
| 75>    N       10.75822        12.47763         6.00868
| 76>    C       10.68788        10.26541         3.52781
| 77>    N       10.48427         9.13632         3.53894
| 78>    C       11.66120        13.83422         2.55209
| 79>    C       12.06591        14.23496         1.24436
| 80>    C       11.95205        13.09633         0.32482
| 81>    O       12.17921        13.08177        -0.86694
| 82>    C       12.47522        15.50991         0.97332
| 83>    C       12.49850        16.46148         2.01640
| 84>    C       12.08857        16.07186         3.32512
| 85>    C       11.66988        14.74513         3.57582
| 86>    C       12.11069        17.03226         4.35693
| 87>    C       12.51912        18.31494         4.11036
| 88>    C       12.92381        18.69673         2.82228
| 89>    C       12.91404        17.78978         1.79737
| 90>    H        4.49563         1.68369        -2.17023
| 91>    H        5.76034         1.06586         2.61272
| 92>    H        7.74576        -0.13410         1.93469
| 93>    H        9.19768        -1.04459         0.16640
| 94>    H        8.60347        -0.74828        -2.20531
| 95>    H        6.54912         0.46026        -2.82874
| 96>    H        0.90036         3.85139         2.52407
| 97>    H       -1.67752         3.97183         1.45770
| 98>    H       -0.62369         7.57710        -5.11633
| 99>    H        0.28624         7.48330        -8.36165
|100>    H        1.96890         6.90312        -8.43445
|101>    H        1.63338         8.64230        -8.22485
|102>    H        6.26966         8.37572        -6.25648
|103>    H        6.30902         8.27601        -3.18325
|104>    H        8.61295         8.50786        -6.46667
|105>    H       13.41013        11.00239        -1.14750
|106>    H       10.40793        10.10702         1.16518
|107>    H       12.77816        15.78719        -0.02549
|108>    H       11.36115        14.48257         4.57531
|109>    H       11.79932        16.73400         5.34714
|110>    H       12.53267        19.04307         4.90730
|111>    H       13.24288        19.71295         2.64612
|112>    H       13.22396        18.07764         0.80354
|113> *
|114>
|115>                          ****END OF INPUT****

CARTESIAN COORDINATES (ANGSTROEM)
---------------------------------
  C      3.294060    2.509190    2.053290
  C      3.261310    2.530070    3.421430
  C      4.228360    1.915150    4.246730
  N      4.968580    1.429360    4.976750
  C      2.260330    3.137370    4.209270
  N      1.484680    3.601820    4.917100
  C      4.323970    1.878190    1.238590
  C      3.987310    2.039180   -0.135950
  C      4.775370    1.546270   -1.136220
  C      5.962010    0.857710   -0.802330
  C      6.305770    0.688930    0.570650
  C      5.470330    1.210100    1.584180
  C      7.488840   -0.007300    0.893330
  C      8.294320   -0.512200   -0.090690
  C      7.955870   -0.343480   -1.441990
  C      6.815230    0.327560   -1.790210
  C      2.720120    2.773860   -0.252180
  O      2.090680    2.982070   -1.265700
  C      2.328210    3.120000    1.148590
  C      1.212240    3.808930    1.487210
  C      0.343560    4.478440    0.572160
  C     -1.124280    4.462460    0.675940
  N     -1.732940    5.082990   -0.288460
  C     -0.745820    5.591510   -1.078880
  C      0.582830    5.262420   -0.526900
  C      1.618900    5.847980   -1.348740
  S      3.236660    5.865150   -1.058220
  C      0.903980    6.422910   -2.454090
  C     -0.546560    6.252090   -2.258980
  N     -1.238140    6.736380   -3.333290
  C     -0.341060    7.136840   -4.178020
  C      1.047910    6.966040   -3.715120
  C      2.207350    7.317810   -4.442770
  S      3.748820    7.498520   -3.661490
  C      4.521220    7.897520   -5.153790
  C      3.614770    7.861550   -6.226680
  C      2.298600    7.553710   -5.824520
  O      1.197690    7.445470   -6.582480
  C      1.294550    7.632650   -7.979230
  C      4.069140    8.129580   -7.528340
  N      4.503570    8.353120   -8.567490
  C      5.893480    8.220230   -5.253690
  C      6.713460    8.385520   -4.182550
  C      8.079850    8.738940   -4.272450
  C      8.927090    8.773020   -5.472450
  N     10.152830    9.146980   -5.255050
  C     10.230270    9.404800   -3.916510
  C      8.937590    9.140530   -3.266240
  C      9.008350    9.463000   -1.868300
  S      7.825900    9.356190   -0.730460
  C     10.367300    9.917150   -1.682830
  C     11.099040    9.871720   -2.963820
  N     12.373160   10.319190   -2.798700
  C     12.470370   10.675400   -1.552570
  C     11.231820   10.469610   -0.774840
  C     11.005990   10.805510    0.592450
  C     11.428580   11.968970    1.146710
  C     11.295310   12.423920    2.520780
  C     10.951220   11.650770    3.595860
  C     10.852530   12.135540    4.917600
  N     10.758220   12.477630    6.008680
  C     10.687880   10.265410    3.527810
  N     10.484270    9.136320    3.538940
  C     11.661200   13.834220    2.552090
  C     12.065910   14.234960    1.244360
  C     11.952050   13.096330    0.324820
  O     12.179210   13.081770   -0.866940
  C     12.475220   15.509910    0.973320
  C     12.498500   16.461480    2.016400
  C     12.088570   16.071860    3.325120
  C     11.669880   14.745130    3.575820
  C     12.110690   17.032260    4.356930
  C     12.519120   18.314940    4.110360
  C     12.923810   18.696730    2.822280
  C     12.914040   17.789780    1.797370
  H      4.495630    1.683690   -2.170230
  H      5.760340    1.065860    2.612720
  H      7.745760   -0.134100    1.934690
  H      9.197680   -1.044590    0.166400
  H      8.603470   -0.748280   -2.205310
  H      6.549120    0.460260   -2.828740
  H      0.900360    3.851390    2.524070
  H     -1.677520    3.971830    1.457700
  H     -0.623690    7.577100   -5.116330
  H      0.286240    7.483300   -8.361650
  H      1.968900    6.903120   -8.434450
  H      1.633380    8.642300   -8.224850
  H      6.269660    8.375720   -6.256480
  H      6.309020    8.276010   -3.183250
  H      8.612950    8.507860   -6.466670
  H     13.410130   11.002390   -1.147500
  H     10.407930   10.107020    1.165180
  H     12.778160   15.787190   -0.025490
  H     11.361150   14.482570    4.575310
  H     11.799320   16.734000    5.347140
  H     12.532670   19.043070    4.907300
  H     13.242880   19.712950    2.646120
  H     13.223960   18.077640    0.803540

 Total Charge           Charge          ....    0
 Multiplicity           Mult            ....    1
 Number of Electrons    NEL             ....  518
 Basis Dimension        Dim             .... 1177

ORBITAL ENERGIES
----------------

  NO   OCC          E(Eh)            E(eV)
   0   2.0000     -88.983330     -2421.3595
   1   2.0000     -88.913052     -2419.4471
   2   2.0000     -88.905867     -2419.2516
   3   2.0000     -19.282385      -524.7004
   4   2.0000     -19.234284      -523.3915
   5   2.0000     -19.216365      -522.9039
   6   2.0000     -14.424448      -392.5092
   7   2.0000     -14.423545      -392.4846
   8   2.0000     -14.423078      -392.4719
   9   2.0000     -14.420908      -392.4129
  10   2.0000     -14.419969      -392.3873
  11   2.0000     -14.419756      -392.3815
  12   2.0000     -14.417074      -392.3085
  13   2.0000     -14.416142      -392.2832
  14   2.0000     -14.415712      -392.2715
  15   2.0000     -10.382423      -282.5201
  16   2.0000     -10.376683      -282.3639
  17   2.0000     -10.367655      -282.1182
  18   2.0000     -10.354639      -281.7641
  19   2.0000     -10.351876      -281.6889
  20   2.0000     -10.350646      -281.6554
  21   2.0000     -10.346566      -281.5444
  22   2.0000     -10.346543      -281.5437
  23   2.0000     -10.344398      -281.4854
  24   2.0000     -10.343411      -281.4585
  25   2.0000     -10.341861      -281.4163
  26   2.0000     -10.341103      -281.3957
  27   2.0000     -10.340137      -281.3694
  28   2.0000     -10.340065      -281.3675
  29   2.0000     -10.340041      -281.3668
  30   2.0000     -10.337593      -281.3002
  31   2.0000     -10.336586      -281.2728
  32   2.0000     -10.335237      -281.2361
  33   2.0000     -10.331320      -281.1295
  34   2.0000     -10.330801      -281.1154
  35   2.0000     -10.329419      -281.0778
  36   2.0000     -10.326226      -280.9909
  37   2.0000     -10.325887      -280.9817
  38   2.0000     -10.324942      -280.9560
  39   2.0000     -10.323451      -280.9154
  40   2.0000     -10.321959      -280.8748
  41   2.0000     -10.320891      -280.8457
  42   2.0000     -10.320821      -280.8438
  43   2.0000     -10.319406      -280.8053
  44   2.0000     -10.316742      -280.7328
  45   2.0000     -10.315217      -280.6913
  46   2.0000     -10.313508      -280.6448
  47   2.0000     -10.312991      -280.6308
  48   2.0000     -10.312013      -280.6041
  49   2.0000     -10.310967      -280.5757
  50   2.0000     -10.307861      -280.4912
  51   2.0000     -10.307565      -280.4831
  52   2.0000     -10.307126      -280.4712
  53   2.0000     -10.307060      -280.4694
  54   2.0000     -10.306793      -280.4621
  55   2.0000     -10.306475      -280.4534
  56   2.0000     -10.306376      -280.4507
  57   2.0000     -10.306019      -280.4410
  58   2.0000     -10.304303      -280.3943
  59   2.0000     -10.303799      -280.3806
  60   2.0000     -10.299977      -280.2766
  61   2.0000     -10.299254      -280.2569
  62   2.0000     -10.298890      -280.2471
  63   2.0000     -10.298625      -280.2398
  64   2.0000     -10.297932      -280.2210
  65   2.0000     -10.297485      -280.2088
  66   2.0000     -10.294731      -280.1339
  67   2.0000     -10.294271      -280.1214
  68   2.0000     -10.293981      -280.1135
  69   2.0000     -10.293451      -280.0990
  70   2.0000     -10.289116      -279.9811
  71   2.0000     -10.287607      -279.9400
  72   2.0000     -10.287017      -279.9240
  73   2.0000     -10.286670      -279.9145
  74   2.0000     -10.286169      -279.9009
  75   2.0000      -8.077510      -219.8002
  76   2.0000      -8.008278      -217.9163
  77   2.0000      -8.001522      -217.7325
  78   2.0000      -6.046631      -164.5372
  79   2.0000      -6.042626      -164.4282
  80   2.0000      -6.039719      -164.3491
  81   2.0000      -5.977020      -162.6430
  82   2.0000      -5.976919      -162.6402
  83   2.0000      -5.970242      -162.4585
  84   2.0000      -5.970068      -162.4538
  85   2.0000      -5.967638      -162.3877
  86   2.0000      -5.960836      -162.2026
  87   2.0000      -1.189002       -32.3544
  88   2.0000      -1.149366       -31.2758
  89   2.0000      -1.131705       -30.7953
  90   2.0000      -1.090468       -29.6732
  91   2.0000      -1.088189       -29.6111
  92   2.0000      -1.070805       -29.1381
  93   2.0000      -1.068479       -29.0748
  94   2.0000      -1.027437       -27.9580
  95   2.0000      -1.021445       -27.7949
  96   2.0000      -1.020661       -27.7736
  97   2.0000      -1.007938       -27.4274
  98   2.0000      -1.002225       -27.2719
  99   2.0000      -1.000334       -27.2205
 100   2.0000      -0.999339       -27.1934
 101   2.0000      -0.996328       -27.1115
 102   2.0000      -0.981407       -26.7054
 103   2.0000      -0.973061       -26.4783
 104   2.0000      -0.972624       -26.4664
 105   2.0000      -0.967784       -26.3348
 106   2.0000      -0.937843       -25.5200
 107   2.0000      -0.936493       -25.4833
 108   2.0000      -0.929047       -25.2806
 109   2.0000      -0.923630       -25.1332
 110   2.0000      -0.915168       -24.9030
 111   2.0000      -0.909510       -24.7490
 112   2.0000      -0.895913       -24.3790
 113   2.0000      -0.889920       -24.2159
 114   2.0000      -0.887390       -24.1471
 115   2.0000      -0.881720       -23.9928
 116   2.0000      -0.880570       -23.9615
 117   2.0000      -0.866771       -23.5860
 118   2.0000      -0.863598       -23.4997
 119   2.0000      -0.857616       -23.3369
 120   2.0000      -0.850227       -23.1358
 121   2.0000      -0.843215       -22.9451
 122   2.0000      -0.839052       -22.8318
 123   2.0000      -0.837672       -22.7942
 124   2.0000      -0.829336       -22.5674
 125   2.0000      -0.804781       -21.8992
 126   2.0000      -0.799333       -21.7510
 127   2.0000      -0.793219       -21.5846
 128   2.0000      -0.780376       -21.2351
 129   2.0000      -0.772466       -21.0199
 130   2.0000      -0.770984       -20.9795
 131   2.0000      -0.763411       -20.7735
 132   2.0000      -0.754756       -20.5380
 133   2.0000      -0.746614       -20.3164
 134   2.0000      -0.733084       -19.9482
 135   2.0000      -0.721206       -19.6250
 136   2.0000      -0.716602       -19.4997
 137   2.0000      -0.714537       -19.4435
 138   2.0000      -0.711791       -19.3688
 139   2.0000      -0.709452       -19.3052
 140   2.0000      -0.707068       -19.2403
 141   2.0000      -0.704004       -19.1569
 142   2.0000      -0.702996       -19.1295
 143   2.0000      -0.694185       -18.8897
 144   2.0000      -0.686062       -18.6687
 145   2.0000      -0.678375       -18.4595
 146   2.0000      -0.678075       -18.4514
 147   2.0000      -0.662106       -18.0168
 148   2.0000      -0.655976       -17.8500
 149   2.0000      -0.653494       -17.7825
 150   2.0000      -0.645194       -17.5566
 151   2.0000      -0.639209       -17.3938
 152   2.0000      -0.636783       -17.3277
 153   2.0000      -0.630316       -17.1518
 154   2.0000      -0.626697       -17.0533
 155   2.0000      -0.617898       -16.8138
 156   2.0000      -0.615813       -16.7571
 157   2.0000      -0.612636       -16.6707
 158   2.0000      -0.610690       -16.6177
 159   2.0000      -0.607629       -16.5344
 160   2.0000      -0.590560       -16.0700
 161   2.0000      -0.587524       -15.9873
 162   2.0000      -0.585324       -15.9275
 163   2.0000      -0.580709       -15.8019
 164   2.0000      -0.577184       -15.7060
 165   2.0000      -0.574900       -15.6438
 166   2.0000      -0.570260       -15.5176
 167   2.0000      -0.566265       -15.4088
 168   2.0000      -0.563134       -15.3236
 169   2.0000      -0.555999       -15.1295
 170   2.0000      -0.554948       -15.1009
 171   2.0000      -0.550584       -14.9822
 172   2.0000      -0.549846       -14.9621
 173   2.0000      -0.547280       -14.8922
 174   2.0000      -0.546373       -14.8676
 175   2.0000      -0.545493       -14.8436
 176   2.0000      -0.542788       -14.7700
 177   2.0000      -0.538650       -14.6574
 178   2.0000      -0.536690       -14.6041
 179   2.0000      -0.535594       -14.5743
 180   2.0000      -0.532290       -14.4844
 181   2.0000      -0.529342       -14.4041
 182   2.0000      -0.526093       -14.3157
 183   2.0000      -0.525168       -14.2906
 184   2.0000      -0.520314       -14.1585
 185   2.0000      -0.517404       -14.0793
 186   2.0000      -0.517109       -14.0712
 187   2.0000      -0.515543       -14.0286
 188   2.0000      -0.510842       -13.9007
 189   2.0000      -0.510521       -13.8920
 190   2.0000      -0.507322       -13.8049
 191   2.0000      -0.505962       -13.7679
 192   2.0000      -0.504834       -13.7372
 193   2.0000      -0.499790       -13.6000
 194   2.0000      -0.498645       -13.5688
 195   2.0000      -0.497430       -13.5358
 196   2.0000      -0.494767       -13.4633
 197   2.0000      -0.494253       -13.4493
 198   2.0000      -0.492392       -13.3987
 199   2.0000      -0.487999       -13.2791
 200   2.0000      -0.486159       -13.2290
 201   2.0000      -0.484102       -13.1731
 202   2.0000      -0.483684       -13.1617
 203   2.0000      -0.477658       -12.9977
 204   2.0000      -0.474414       -12.9095
 205   2.0000      -0.466028       -12.6813
 206   2.0000      -0.460618       -12.5340
 207   2.0000      -0.458583       -12.4787
 208   2.0000      -0.456584       -12.4243
 209   2.0000      -0.454517       -12.3680
 210   2.0000      -0.451794       -12.2939
 211   2.0000      -0.451511       -12.2862
 212   2.0000      -0.450872       -12.2688
 213   2.0000      -0.448983       -12.2174
 214   2.0000      -0.447529       -12.1779
 215   2.0000      -0.446457       -12.1487
 216   2.0000      -0.443197       -12.0600
 217   2.0000      -0.442638       -12.0448
 218   2.0000      -0.442098       -12.0301
 219   2.0000      -0.441997       -12.0274
 220   2.0000      -0.438619       -11.9354
 221   2.0000      -0.436694       -11.8830
 222   2.0000      -0.435283       -11.8447
 223   2.0000      -0.435055       -11.8384
 224   2.0000      -0.434277       -11.8173
 225   2.0000      -0.430098       -11.7036
 226   2.0000      -0.428170       -11.6511
 227   2.0000      -0.424103       -11.5404
 228   2.0000      -0.421423       -11.4675
 229   2.0000      -0.418606       -11.3909
 230   2.0000      -0.414970       -11.2919
 231   2.0000      -0.410945       -11.1824
 232   2.0000      -0.409588       -11.1454
 233   2.0000      -0.409007       -11.1296
 234   2.0000      -0.408672       -11.1205
 235   2.0000      -0.388702       -10.5771
 236   2.0000      -0.380006       -10.3405
 237   2.0000      -0.375102       -10.2071
 238   2.0000      -0.371183       -10.1004
 239   2.0000      -0.366188        -9.9645
 240   2.0000      -0.363467        -9.8904
 241   2.0000      -0.359986        -9.7957
 242   2.0000      -0.359849        -9.7920
 243   2.0000      -0.354774        -9.6539
 244   2.0000      -0.349231        -9.5031
 245   2.0000      -0.337946        -9.1960
 246   2.0000      -0.331176        -9.0117
 247   2.0000      -0.328067        -8.9272
 248   2.0000      -0.324746        -8.8368
 249   2.0000      -0.321714        -8.7543
 250   2.0000      -0.319725        -8.7002
 251   2.0000      -0.315615        -8.5883
 252   2.0000      -0.310119        -8.4388
 253   2.0000      -0.304765        -8.2931
 254   2.0000      -0.300476        -8.1764
 255   2.0000      -0.298653        -8.1268
 256   2.0000      -0.293438        -7.9849
 257   2.0000      -0.287056        -7.8112
 258   2.0000      -0.262555        -7.1445
 259   0.0000      -0.125212        -3.4072
 260   0.0000      -0.118377        -3.2212
 261   0.0000      -0.106965        -2.9107
 262   0.0000      -0.092561        -2.5187
 263   0.0000      -0.078391        -2.1331

MULLIKEN ATOMIC CHARGES
-----------------------
   0 C :    0.317758
   1 C :   -0.346030
   2 C :   -0.180925
   3 N :    0.153828
   4 C :   -0.183208
   5 N :    0.155370
   6 C :    0.057362
   7 C :   -0.007359
   8 C :   -0.080711
   9 C :    0.102010
  10 C :    0.099902
  11 C :   -0.088446
  12 C :   -0.020494
  13 C :    0.038504
  14 C :    0.038291
  15 C :   -0.018686
  16 C :    0.153122
  17 O :   -0.139385
  18 C :   -0.042841
  19 C :   -0.062963
  20 C :   -0.017247
  21 C :    0.069317
  22 N :   -0.030360
  23 C :   -0.001020
  24 C :    0.049793
  25 C :    0.011543
  26 S :   -0.124250
  27 C :   -0.045399
  28 C :    0.022987
  29 N :   -0.022098
  30 C :    0.076925
  31 C :    0.012302
  32 C :   -0.186224
  33 S :    0.223671
  34 C :   -0.039885
  35 C :   -0.082073
  36 C :    0.233354
  37 O :   -0.303645
  38 C :    0.177742
  39 C :   -0.262172
  40 N :    0.132204
  41 C :   -0.009179
  42 C :   -0.022431
  43 C :   -0.000557
  44 C :    0.057417
  45 N :   -0.022764
  46 C :    0.010350
  47 C :    0.006947
  48 C :   -0.013056
  49 S :   -0.101446
  50 C :    0.027000
  51 C :    0.016705
  52 N :   -0.036400
  53 C :    0.130711
  54 C :   -0.042974
  55 C :   -0.021360
  56 C :   -0.101552
  57 C :    0.310742
  58 C :   -0.327960
  59 C :   -0.180860
  60 N :    0.156860
  61 C :   -0.197456
  62 N :    0.172402
  63 C :    0.052655
  64 C :   -0.011048
  65 C :    0.154444
  66 O :   -0.144325
  67 C :   -0.072112
  68 C :    0.097259
  69 C :    0.097107
  70 C :   -0.082839
  71 C :   -0.017795
  72 C :    0.036834
  73 C :    0.038527
  74 C :   -0.014625
  75 H :   -0.014066
  76 H :   -0.007412
  77 H :   -0.007478
  78 H :   -0.003939
  79 H :   -0.004068
  80 H :   -0.017450
  81 H :    0.028430
  82 H :    0.012580
  83 H :    0.016444
  84 H :    0.043529
  85 H :    0.049791
  86 H :    0.049389
  87 H :    0.015418
  88 H :    0.012723
  89 H :    0.017857
  90 H :    0.012700
  91 H :    0.046953
  92 H :   -0.009213
  93 H :   -0.005672
  94 H :   -0.006555
  95 H :    0.000239
  96 H :   -0.001564
  97 H :   -0.014424
Sum of atomic charges:   -0.0000000

LOEWDIN ATOMIC CHARGES
----------------------
   0 C :    0.076205
   1 C :   -0.129454
   2 C :   -0.016528
   3 N :   -0.046770
   4 C :   -0.019356
   5 N :   -0.046160
   6 C :   -0.025072
   7 C :   -0.053716
   8 C :    0.033757
   9 C :   -0.006977
  10 C :   -0.005113
  11 C :    0.021383
  12 C :   -0.004029
  13 C :   -0.012286
  14 C :   -0.010888
  15 C :   -0.009869
  16 C :    0.080386
  17 O :   -0.134878
  18 C :   -0.062633
  19 C :    0.060270
  20 C :   -0.051840
  21 C :    0.089206
  22 N :   -0.080199
  23 C :    0.031403
  24 C :    0.005966
  25 C :   -0.136480
  26 S :    0.066049
  27 C :   -0.051485
  28 C :    0.051599
  29 N :   -0.075426
  30 C :    0.099585
  31 C :   -0.044418
  32 C :   -0.207317
  33 S :    0.523702
  34 C :   -0.134836
  35 C :   -0.142072
  36 C :    0.051697
  37 O :   -0.080790
  38 C :    0.085210
  39 C :   -0.038849
  40 N :   -0.064729
  41 C :   -0.028710
  42 C :    0.000772
  43 C :   -0.042692
  44 C :    0.087465
  45 N :   -0.073080
  46 C :    0.031700
  47 C :   -0.032029
  48 C :   -0.146719
  49 S :    0.067455
  50 C :   -0.005441
  51 C :    0.046545
  52 N :   -0.089087
  53 C :    0.118079
  54 C :   -0.047235
  55 C :    0.076516
  56 C :   -0.075301
  57 C :    0.071322
  58 C :   -0.123313
  59 C :   -0.016814
  60 N :   -0.042967
  61 C :   -0.022732
  62 N :   -0.036494
  63 C :   -0.024954
  64 C :   -0.059115
  65 C :    0.090272
  66 O :   -0.123070
  67 C :    0.038261
  68 C :   -0.008091
  69 C :   -0.003931
  70 C :    0.022009
  71 C :   -0.004207
  72 C :   -0.009132
  73 C :   -0.009221
  74 C :   -0.007433
  75 H :    0.038813
  76 H :    0.039377
  77 H :    0.035416
  78 H :    0.033692
  79 H :    0.033243
  80 H :    0.031815
  81 H :    0.048003
  82 H :    0.028085
  83 H :    0.025362
  84 H :    0.033384
  85 H :    0.027361
  86 H :    0.026828
  87 H :    0.040461
  88 H :    0.029974
  89 H :    0.027218
  90 H :    0.027133
  91 H :    0.051663
  92 H :    0.040886
  93 H :    0.040058
  94 H :    0.035841
  95 H :    0.035030
  96 H :    0.034367
  97 H :    0.033113

  Mayer bond orders larger than 0.100000
B(  0-C ,  1-C ) :   1.6501 B(  0-C ,  6-C ) :   0.9980 B(  0-C , 18-C ) :   1.0468
B(  1-C ,  2-C ) :   1.1422 B(  1-C ,  4-C ) :   1.1416 B(  2-C ,  3-N ) :   2.9651
B(  4-C ,  5-N ) :   2.9637 B(  6-C ,  7-C ) :   1.2138 B(  6-C , 11-C ) :   1.4360
B(  7-C ,  8-C ) :   1.4672 B(  7-C , 16-C ) :   0.9442 B(  8-C ,  9-C ) :   1.1813
B(  8-C , 75-H ) :   1.0167 B(  9-C , 10-C ) :   1.2537 B(  9-C , 15-C ) :   1.2401
B( 10-C , 11-C ) :   1.2108 B( 10-C , 12-C ) :   1.2373 B( 11-C , 76-H ) :   0.9906
B( 12-C , 13-C ) :   1.4918 B( 12-C , 77-H ) :   0.9979 B( 13-C , 14-C ) :   1.2571
B( 13-C , 78-H ) :   0.9881 B( 14-C , 15-C ) :   1.4900 B( 14-C , 79-H ) :   0.9890
B( 15-C , 80-H ) :   0.9987 B( 16-C , 17-O ) :   2.2347 B( 16-C , 18-C ) :   0.9126
B( 18-C , 19-C ) :   1.7128 B( 19-C , 20-C ) :   1.0565 B( 19-C , 81-H ) :   0.9290
B( 20-C , 21-C ) :   1.0250 B( 20-C , 24-C ) :   1.5645 B( 21-C , 22-N ) :   1.7203
B( 21-C , 82-H ) :   0.9938 B( 22-N , 23-C ) :   1.2691 B( 23-C , 24-C ) :   1.0725
B( 23-C , 28-C ) :   1.5151 B( 24-C , 25-C ) :   1.0202 B( 25-C , 26-S ) :   1.6843
B( 25-C , 27-C ) :   1.0474 B( 27-C , 28-C ) :   1.0565 B( 27-C , 31-C ) :   1.5124
B( 28-C , 29-N ) :   1.2647 B( 29-N , 30-C ) :   1.7281 B( 30-C , 31-C ) :   1.0268
B( 30-C , 83-H ) :   0.9854 B( 31-C , 32-C ) :   1.1325 B( 32-C , 33-S ) :   1.1246
B( 32-C , 34-C ) :   0.1013 B( 32-C , 36-C ) :   1.4016 B( 33-S , 34-C ) :   1.1494
B( 34-C , 35-C ) :   1.3956 B( 34-C , 41-C ) :   1.1985 B( 35-C , 36-C ) :   1.2515
B( 35-C , 39-C ) :   1.0983 B( 36-C , 37-O ) :   1.2163 B( 37-O , 38-C ) :   0.9203
B( 38-C , 84-H ) :   0.9736 B( 38-C , 85-H ) :   0.9685 B( 38-C , 86-H ) :   0.9687
B( 39-C , 40-N ) :   2.9686 B( 41-C , 42-C ) :   1.5976 B( 41-C , 87-H ) :   0.9633
B( 42-C , 43-C ) :   1.1272 B( 42-C , 88-H ) :   0.9735 B( 43-C , 44-C ) :   1.0200
B( 43-C , 47-C ) :   1.4860 B( 44-C , 45-N ) :   1.7270 B( 44-C , 89-H ) :   0.9884
B( 45-N , 46-C ) :   1.2669 B( 46-C , 47-C ) :   1.0719 B( 46-C , 51-C ) :   1.5006
B( 47-C , 48-C ) :   1.0391 B( 48-C , 49-S ) :   1.6972 B( 48-C , 50-C ) :   1.0072
B( 50-C , 51-C ) :   1.0613 B( 50-C , 54-C ) :   1.5786 B( 51-C , 52-N ) :   1.2816
B( 52-N , 53-C ) :   1.7131 B( 53-C , 54-C ) :   0.9986 B( 53-C , 90-H ) :   0.9866
B( 54-C , 55-C ) :   1.0590 B( 55-C , 56-C ) :   1.6816 B( 55-C , 91-H ) :   0.9424
B( 56-C , 57-C ) :   1.0216 B( 56-C , 65-C ) :   0.9401 B( 57-C , 58-C ) :   1.6715
B( 57-C , 63-C ) :   0.9999 B( 58-C , 59-C ) :   1.1406 B( 58-C , 61-C ) :   1.1405
B( 59-C , 60-N ) :   2.9675 B( 61-C , 62-N ) :   2.9872 B( 63-C , 64-C ) :   1.2091
B( 63-C , 70-C ) :   1.4489 B( 64-C , 65-C ) :   0.9549 B( 64-C , 67-C ) :   1.4648
B( 65-C , 66-O ) :   2.1853 B( 67-C , 68-C ) :   1.1839 B( 67-C , 92-H ) :   1.0172
B( 68-C , 69-C ) :   1.2516 B( 68-C , 74-C ) :   1.2424 B( 69-C , 70-C ) :   1.2078
B( 69-C , 71-C ) :   1.2410 B( 70-C , 93-H ) :   0.9903 B( 71-C , 72-C ) :   1.4891
B( 71-C , 94-H ) :   0.9974 B( 72-C , 73-C ) :   1.2585 B( 72-C , 95-H ) :   0.9894
B( 73-C , 74-C ) :   1.4900 B( 73-C , 96-H ) :   0.9887 B( 74-C , 97-H ) :   0.9980

-----------------------------------------------------------------------------
         ABSORPTION SPECTRUM VIA TRANSITION ELECTRIC DIPOLE MOMENTS
-----------------------------------------------------------------------------
State   Energy  Wavelength   fosc         T2         TX        TY        TZ
        (cm-1)    (nm)                  (au**2)     (au)      (au)      (au)
-----------------------------------------------------------------------------
   0   14012.7    713.6   0.260954863   6.13085   1.85219   1.52631  -0.60879
   1   14985.7    667.3   0.015342116   0.33704  -0.50066  -0.27819  -0.09480
   2   15536.1    643.7   0.119261316   2.52716   1.14508   0.57991   0.93790
   3   16695.6    599.0   0.021204867   0.41813  -0.51548  -0.29953  -0.25038
   4   17041.3    586.8   0.001325290   0.02560   0.15192   0.04867  -0.01245
   5   17737.0    563.8   0.006265558   0.11629   0.27871   0.19526   0.02201
   6   18388.9    543.8   0.404808536   7.24719  -2.26092  -1.44000   0.24863
   7   20259.9    493.6   0.070943410   1.15279   0.77880  -0.25938   0.69208
   8   21342.0    468.6   0.101424327   1.56453  -0.29822  -0.09934  -1.21067
   9   21653.7    461.8   0.036442530   0.55405   0.59950  -0.08460   0.43301
  10   22919.7    436.3   0.098141700   1.40968   0.06070  -0.95652   0.70077
  11   23255.6    430.0   0.044646213   0.63202   0.30071   0.47293  -0.56386
  12   23768.5    420.7   0.157136926   2.17646  -0.59400  -0.34555  -1.30546
  13   23803.5    420.1   0.109945257   1.52059   0.58652   0.46177   0.98151
  14   24042.6    415.9   0.026606178   0.36432   0.17898   0.28332  -0.50201
  15   24622.4    406.1   0.017660183   0.23612  -0.01520   0.01928  -0.48531
  16   24861.6    402.2   0.109830170   1.45435   0.75859   0.59894   0.72123
  17   25217.4    396.6   0.053938315   0.70416   0.77331  -0.09057   0.31298
  18   25384.1    393.9   0.262020509   3.39820   0.43247   1.18270   1.34625
  19   25906.6    386.0   0.010484818   0.13324   0.14327   0.23871  -0.23607
  20   26220.4    381.4   0.013744355   0.17257   0.14040   0.22058   0.32280
  21   26282.3    380.5   0.025926900   0.32476  -0.28542  -0.12285  -0.47770
  22   26409.4    378.7   0.023502805   0.29298  -0.16120  -0.17365  -0.48666
  23   26660.5    375.1   0.068379478   0.84437   0.14552  -0.45843   0.78296
  24   26800.7    373.1   0.036983455   0.45429  -0.04434  -0.02092   0.67223
  25   27003.7    370.3   0.031785711   0.38751   0.20960  -0.29185   0.50833
  26   27541.0    363.1   0.029439260   0.35190  -0.25402   0.02577  -0.53546
  27   27648.9    361.7   0.001959186   0.02333  -0.08386   0.05154  -0.11678
  28   27808.6    359.6   0.076005018   0.89978   0.69299   0.32821   0.55842
  29   27926.2    358.1   0.134344947   1.58375  -0.78644   0.07940  -0.97926
  30   28291.7    353.5   0.021535846   0.25060   0.03387   0.17929   0.46616
  31   28379.3    352.4   0.015760964   0.18283   0.10484  -0.32196  -0.26112
  32   28636.5    349.2   0.046978538   0.54008   0.07220   0.03323   0.73059
  33   28778.7    347.5   0.300077371   3.43272  -0.74078   1.45428  -0.87694
  34   29247.8    341.9   0.249914514   2.81302  -0.90820  -0.46335  -1.33173
  35   29531.5    338.6   0.098107351   1.09368  -0.51047  -0.08256  -0.90900
  36   29675.7    337.0   0.036473162   0.40462  -0.15935  -0.33656  -0.51570
  37   29777.6    335.8   0.078029346   0.86267  -0.50142   0.30698  -0.71903
  38   30019.1    333.1   0.009200889   0.10090   0.01038   0.16021  -0.27409
  39   30260.3    330.5   0.070567057   0.76772  -0.74700   0.23009  -0.39595
  40   30440.6    328.5   0.075398838   0.81543  -0.30945   0.78093   0.33139
  41   30654.7    326.2   0.140019495   1.50372  -0.37530  -0.38691  -1.10144
  42   30838.3    324.3   0.075671606   0.80783   0.56760   0.42573  -0.55174
  43   31022.4    322.3   0.108363786   1.14996  -0.39466  -0.65049  -0.75569
  44   31063.6    321.9   0.031199441   0.33065  -0.08925   0.51745   0.23438
  45   31170.9    320.8   0.242396037   2.56007  -1.41608  -0.51628  -0.53690
  46   31384.3    318.6   0.037886404   0.39742   0.49564  -0.38611   0.05176
  47   31503.1    317.4   0.174514241   1.82370  -0.59481  -1.18264  -0.26697
  48   31548.3    317.0   0.095689523   0.99854  -0.30674   0.74383  -0.59259
  49   31673.9    315.7   0.186993034   1.94356   0.43651   1.32344  -0.03899
  50   31987.0    312.6   0.096305656   0.99118   0.38771  -0.67206  -0.62386
  51   32087.3    311.7   0.045893196   0.47086  -0.48484   0.26104   0.40945
  52   32119.3    311.3   0.037583256   0.38522  -0.03719   0.44580   0.43023
  53   32369.9    308.9   0.133421592   1.35694   1.13319  -0.09200  -0.25370
  54   32620.7    306.6   0.080666098   0.81409   0.63967  -0.33579  -0.54052
  55   32657.2    306.2   0.045224696   0.45590  -0.42491  -0.50937   0.12608
  56   32979.0    303.2   0.243721230   2.43294  -0.60254  -1.39351  -0.35780
  57   33068.8    302.4   0.012478626   0.12423  -0.02715  -0.12761  -0.32743
  58   33317.0    300.1   0.048449591   0.47874   0.56677  -0.17895   0.35424
  59   33621.3    297.4   0.082556711   0.80838  -0.35484   0.64276   0.51896
  60   33663.8    297.1   0.045106780   0.44112  -0.41474   0.43554   0.28181
  61   33769.7    296.1   0.103855899   1.01246   0.76643   0.64138  -0.11695
  62   33832.1    295.6   0.014312634   0.13927  -0.18183  -0.31629   0.07857
  63   34017.2    294.0   0.037302349   0.36100   0.20927  -0.55442   0.09912
  64   34209.3    292.3   0.026413151   0.25419   0.26743  -0.34496   0.25233
  65   34480.6    290.0   0.134232017   1.28161  -0.40083  -0.82347   0.66546
  66   34538.5    289.5   0.085496679   0.81493   0.52617  -0.73348   0.00964
  67   34642.8    288.7   0.054526061   0.51816   0.39619   0.49005   0.34791
  68   34675.4    288.4   0.030584541   0.29037   0.26257  -0.23242  -0.40916
  69   34809.3    287.3   0.007096243   0.06711   0.09468   0.17639   0.16443
  70   34884.8    286.7   0.061436628   0.57978  -0.63288   0.33549   0.25825
  71   35386.6    282.6   0.022625122   0.21049  -0.27477   0.36449   0.04619
  72   35451.8    282.1   0.010390229   0.09649   0.19705  -0.23040   0.06764
  73   35595.0    280.9   0.012536871   0.11595  -0.33306   0.07083  -0.00214
  74   35719.2    280.0   0.078136614   0.72016  -0.06970   0.11319   0.83815
  75   35791.4    279.4   0.114828742   1.05620  -0.38090  -0.00241   0.95452
  76   35893.5    278.6   0.019368077   0.17764   0.01928  -0.16983   0.38526
  77   36395.8    274.8   0.051696494   0.46761  -0.28001   0.52205  -0.34158
  78   36589.9    273.3   0.006345882   0.05710   0.22219  -0.01278  -0.08697
  79   36869.6    271.2   0.378800566   3.38234  -0.75264   0.33483   1.64431
  80   36945.6    270.7   0.103357267   0.92099  -0.47755   0.02994   0.83189
  81   37126.8    269.3   0.025104201   0.22260   0.23264   0.36940  -0.17897
  82   37184.6    268.9   0.003247421   0.02875  -0.11548  -0.02108   0.12235
  83   37230.3    268.6   0.003897320   0.03446   0.07033  -0.09588   0.14256
  84   37312.9    268.0   0.154539493   1.36350   0.75171  -0.32828  -0.83106
  85   37416.1    267.3   0.054908569   0.48312  -0.13850   0.67319  -0.10373
  86   37710.5    265.2   0.075354525   0.65784  -0.06531  -0.02985   0.80789
  87   37870.4    264.1   0.176197341   1.53171  -0.26151  -1.13313   0.42347
  88   38002.8    263.1   0.221903109   1.92231   0.29024   0.04382  -1.35505
  89   38070.0    262.7   0.034737335   0.30039   0.00261  -0.02721  -0.54740
  90   38747.4    258.1   0.001905709   0.01619  -0.00850  -0.12696  -0.00040
  91   38857.8    257.3   0.020485717   0.17356   0.14567   0.03124  -0.38905
  92   38899.9    257.1   0.018005672   0.15238   0.21938   0.02634   0.32181
  93   39211.6    255.0   0.142372951   1.19533   0.81810  -0.25942  -0.67731
  94   39270.1    254.6   0.128442475   1.07677   0.99401   0.28245   0.09454
  95   39485.6    253.3   0.020669106   0.17233  -0.28188  -0.20213  -0.22807
  96   39724.0    251.7   0.014148641   0.11726  -0.31235  -0.00701   0.14015
  97   39736.8    251.7   0.025000307   0.20712   0.40398  -0.03582  -0.20649
  98   39892.9    250.7   0.007180781   0.05926  -0.00107  -0.01020  -0.24321
  99   39983.0    250.1   0.111268589   0.91616   0.77821   0.26720  -0.48903
 100   40158.3    249.0   0.043156180   0.35379  -0.19208   0.51583  -0.22542

FINAL SINGLE POINT ENERGY     -4208.784580775869

DIPOLE MOMENT
-------------
                                X             Y             Z
Electronic contribution:    -15.36495      -7.71547       7.78494
Nuclear contribution   :     16.93336       9.51108      -9.96513
                        -----------------------------------------
Total Dipole Moment    :      1.56841       1.79561      -2.18019
                        -----------------------------------------
Magnitude (a.u.)       :      3.23069
Magnitude (Debye)      :      8.21175

Rotational constants in cm-1:     0.000948     0.000393     0.000346
Rotational constants in MHz :    28.430003    11.787384    10.360083

                             ****ORCA TERMINATED NORMALLY****
TOTAL RUN TIME: 0 days 0 hours 9 minutes 45 seconds 686 msec
