                         Program Version 4.2.0 -  RELEASE  -
|  1> # ORCA input file
|  2> # SCF done       -185.385642349921          0.000831817530
|  3> ! CAM-B3LYP def2-SVP def2/J RIJCOSX Grid4 TightSCF
|  4> %maxcore 5000
|  5> %tddft
|  6>     Mode sTDDFT
|  7>     Ethresh 5.0
|  8>     maxcore 5000
|  9> end
| 10>
| 11> %pal
| 12>   nprocs 6
| 13>   end
| 14> * xyz 0 1
| 15>    C       -3.23154         3.34798        -3.31340
| 16>    C       -3.83086         2.63962        -2.30959
| 17>    C       -4.22309         1.28817        -2.42516
| 18>    N       -4.56384         0.19348        -2.46371
| 19>    C       -4.17407         3.17824        -1.05082
| 20>    N       -4.47873         3.57051        -0.01601
| 21>    C       -2.90486         2.85453        -4.64438
| 22>    C       -2.48995         3.95145        -5.45617
| 23>    C       -2.10119         3.78259        -6.75480
| 24>    C       -2.09911         2.48422        -7.30836
| 25>    C       -2.51666         1.38201        -6.50510
| 26>    C       -2.92019         1.58734        -5.16655
| 27>    C       -2.51379         0.09077        -7.07150
| 28>    C       -2.11498        -0.10461        -8.36583
| 29>    C       -1.69968         0.98016        -9.15345
| 30>    C       -1.69191         2.24707        -8.63631
| 31>    C       -2.55409         5.18956        -4.66973
| 32>    O       -2.50588         6.32977        -5.07192
| 33>    C       -2.80831         4.74185        -3.26072
| 34>    C       -2.59246         5.50357        -2.16535
| 35>    C       -1.93241         6.77242        -2.19485
| 36>    C       -2.26639         7.93583        -1.35614
| 37>    N       -1.52145         8.97693        -1.56985
| 38>    C       -0.63108         8.60292        -2.53457
| 39>    C       -0.85208         7.19829        -2.92204
| 40>    C        0.13858         6.79402        -3.88793
| 41>    S        0.41843         5.24685        -4.40200
| 42>    C        0.87371         7.99051        -4.18348
| 43>    C        0.39028         9.08131        -3.30274
| 44>    N        1.09152        10.23072        -3.52329
| 45>    C        1.94496         9.94283        -4.45140
| 46>    C        1.88233         8.55059        -4.94326
| 47>    C        2.74855         8.12597        -5.98111
| 48>    S        4.11934         9.13847        -6.34937
| 49>    C        4.61303         8.12692        -7.65273
| 50>    C        3.74436         7.05406        -7.82528
| 51>    C        2.69399         7.04730        -6.87056
| 52>    O        1.73300         6.11784        -6.91528
| 53>    C        3.86074         6.11806        -8.97968
| 54>    O        4.70081         6.25390        -9.83134
| 55>    O        2.97665         5.12741        -9.03257
| 56>    C        5.80125         8.49738        -8.34774
| 57>    C        6.85544         7.63383        -8.91195
| 58>    N        7.87464         8.28799        -9.37914
| 59>    C        7.60372         9.60868        -9.18577
| 60>    C        6.29478         9.76782        -8.51729
| 61>    C        6.00465        11.16706        -8.33658
| 62>    S        4.57769        11.86979        -7.90964
| 63>    C        7.19862        11.83388        -8.77257
| 64>    C        8.14709        10.85543        -9.34735
| 65>    N        9.24986        11.49635        -9.82410
| 66>    C        9.05430        12.76252        -9.59526
| 67>    C        7.79171        13.06402        -8.91066
| 68>    C        7.29134        14.35213        -8.54568
| 69>    C        6.52665        14.56697        -7.44971
| 70>    C        5.70343        15.72977        -7.14475
| 71>    C        5.80298        16.97172        -7.70791
| 72>    C        4.96939        18.05922        -7.36792
| 73>    N        4.32450        18.97796        -7.12961
| 74>    C        6.77671        17.33681        -8.66194
| 75>    N        7.55068        17.68526        -9.43440
| 76>    C        4.74984        15.31807        -6.12332
| 77>    C        5.11524        14.02635        -5.64185
| 78>    C        6.32031        13.56920        -6.34774
| 79>    O        7.05716        12.65625        -6.05048
| 80>    C        4.38523        13.38019        -4.68465
| 81>    C        3.21866        13.99211        -4.17640
| 82>    C        2.84456        15.28267        -4.65654
| 83>    C        3.63158        15.93824        -5.62989
| 84>    C        1.67372        15.88176        -4.14854
| 85>    C        0.90160        15.23494        -3.22185
| 86>    C        1.26704        13.96315        -2.75543
| 87>    C        2.40406        13.35780        -3.21733
| 88>    H       -1.78885         4.62892        -7.34849
| 89>    H       -3.22211         0.73310        -4.58113
| 90>    H       -2.83330        -0.74145        -6.46180
| 91>    H       -2.11591        -1.09726        -8.79007
| 92>    H       -1.38558         0.80692       -10.17157
| 93>    H       -1.37336         3.08563        -9.23774
| 94>    H       -2.89368         5.15364        -1.18547
| 95>    H       -3.06360         7.96109        -0.63396
| 96>    H        2.62211        10.68739        -4.83412
| 97>    H        1.26450         5.98073        -6.04856
| 98>    H        2.32773         5.17029        -8.30451
| 99>    H        6.83759         6.56053        -8.92356
|100>    H        9.79319        13.49389        -9.87353
|101>    H        7.50614        15.15933        -9.23492
|102>    H        4.68933        12.40537        -4.33177
|103>    H        3.32067        16.91172        -5.97560
|104>    H        1.39666        16.86109        -4.51029
|105>    H        0.00360        15.70059        -2.84451
|106>    H        0.64507        13.45979        -2.03166
|107>    H        2.68235        12.38003        -2.85528
|108> *
|109>
|110>                          ****END OF INPUT****

CARTESIAN COORDINATES (ANGSTROEM)
---------------------------------
  C     -3.231540    3.347980   -3.313400
  C     -3.830860    2.639620   -2.309590
  C     -4.223090    1.288170   -2.425160
  N     -4.563840    0.193480   -2.463710
  C     -4.174070    3.178240   -1.050820
  N     -4.478730    3.570510   -0.016010
  C     -2.904860    2.854530   -4.644380
  C     -2.489950    3.951450   -5.456170
  C     -2.101190    3.782590   -6.754800
  C     -2.099110    2.484220   -7.308360
  C     -2.516660    1.382010   -6.505100
  C     -2.920190    1.587340   -5.166550
  C     -2.513790    0.090770   -7.071500
  C     -2.114980   -0.104610   -8.365830
  C     -1.699680    0.980160   -9.153450
  C     -1.691910    2.247070   -8.636310
  C     -2.554090    5.189560   -4.669730
  O     -2.505880    6.329770   -5.071920
  C     -2.808310    4.741850   -3.260720
  C     -2.592460    5.503570   -2.165350
  C     -1.932410    6.772420   -2.194850
  C     -2.266390    7.935830   -1.356140
  N     -1.521450    8.976930   -1.569850
  C     -0.631080    8.602920   -2.534570
  C     -0.852080    7.198290   -2.922040
  C      0.138580    6.794020   -3.887930
  S      0.418430    5.246850   -4.402000
  C      0.873710    7.990510   -4.183480
  C      0.390280    9.081310   -3.302740
  N      1.091520   10.230720   -3.523290
  C      1.944960    9.942830   -4.451400
  C      1.882330    8.550590   -4.943260
  C      2.748550    8.125970   -5.981110
  S      4.119340    9.138470   -6.349370
  C      4.613030    8.126920   -7.652730
  C      3.744360    7.054060   -7.825280
  C      2.693990    7.047300   -6.870560
  O      1.733000    6.117840   -6.915280
  C      3.860740    6.118060   -8.979680
  O      4.700810    6.253900   -9.831340
  O      2.976650    5.127410   -9.032570
  C      5.801250    8.497380   -8.347740
  C      6.855440    7.633830   -8.911950
  N      7.874640    8.287990   -9.379140
  C      7.603720    9.608680   -9.185770
  C      6.294780    9.767820   -8.517290
  C      6.004650   11.167060   -8.336580
  S      4.577690   11.869790   -7.909640
  C      7.198620   11.833880   -8.772570
  C      8.147090   10.855430   -9.347350
  N      9.249860   11.496350   -9.824100
  C      9.054300   12.762520   -9.595260
  C      7.791710   13.064020   -8.910660
  C      7.291340   14.352130   -8.545680
  C      6.526650   14.566970   -7.449710
  C      5.703430   15.729770   -7.144750
  C      5.802980   16.971720   -7.707910
  C      4.969390   18.059220   -7.367920
  N      4.324500   18.977960   -7.129610
  C      6.776710   17.336810   -8.661940
  N      7.550680   17.685260   -9.434400
  C      4.749840   15.318070   -6.123320
  C      5.115240   14.026350   -5.641850
  C      6.320310   13.569200   -6.347740
  O      7.057160   12.656250   -6.050480
  C      4.385230   13.380190   -4.684650
  C      3.218660   13.992110   -4.176400
  C      2.844560   15.282670   -4.656540
  C      3.631580   15.938240   -5.629890
  C      1.673720   15.881760   -4.148540
  C      0.901600   15.234940   -3.221850
  C      1.267040   13.963150   -2.755430
  C      2.404060   13.357800   -3.217330
  H     -1.788850    4.628920   -7.348490
  H     -3.222110    0.733100   -4.581130
  H     -2.833300   -0.741450   -6.461800
  H     -2.115910   -1.097260   -8.790070
  H     -1.385580    0.806920  -10.171570
  H     -1.373360    3.085630   -9.237740
  H     -2.893680    5.153640   -1.185470
  H     -3.063600    7.961090   -0.633960
  H      2.622110   10.687390   -4.834120
  H      1.264500    5.980730   -6.048560
  H      2.327730    5.170290   -8.304510
  H      6.837590    6.560530   -8.923560
  H      9.793190   13.493890   -9.873530
  H      7.506140   15.159330   -9.234920
  H      4.689330   12.405370   -4.331770
  H      3.320670   16.911720   -5.975600
  H      1.396660   16.861090   -4.510290
  H      0.003600   15.700590   -2.844510
  H      0.645070   13.459790   -2.031660
  H      2.682350   12.380030   -2.855280

 Total Charge           Charge          ....    0
 Multiplicity           Mult            ....    1
 Number of Electrons    NEL             ....  506
 Basis Dimension        Dim             .... 1134

ORBITAL ENERGIES
----------------

  NO   OCC          E(Eh)            E(eV)
   0   2.0000     -88.994760     -2421.6705
   1   2.0000     -88.938224     -2420.1321
   2   2.0000     -88.922538     -2419.7053
   3   2.0000     -19.285198      -524.7769
   4   2.0000     -19.258732      -524.0567
   5   2.0000     -19.231192      -523.3073
   6   2.0000     -19.220572      -523.0184
   7   2.0000     -19.207168      -522.6536
   8   2.0000     -14.450350      -393.2140
   9   2.0000     -14.437829      -392.8733
  10   2.0000     -14.432179      -392.7196
  11   2.0000     -14.429573      -392.6486
  12   2.0000     -14.425957      -392.5503
  13   2.0000     -14.424481      -392.5101
  14   2.0000     -14.422927      -392.4678
  15   2.0000     -14.420902      -392.4127
  16   2.0000     -10.417252      -283.4678
  17   2.0000     -10.386742      -282.6376
  18   2.0000     -10.384777      -282.5841
  19   2.0000     -10.378344      -282.4091
  20   2.0000     -10.375284      -282.3258
  21   2.0000     -10.366823      -282.0956
  22   2.0000     -10.361407      -281.9482
  23   2.0000     -10.361353      -281.9467
  24   2.0000     -10.360522      -281.9241
  25   2.0000     -10.357786      -281.8497
  26   2.0000     -10.355497      -281.7874
  27   2.0000     -10.355128      -281.7774
  28   2.0000     -10.352477      -281.7052
  29   2.0000     -10.350416      -281.6491
  30   2.0000     -10.349275      -281.6181
  31   2.0000     -10.348505      -281.5971
  32   2.0000     -10.348467      -281.5961
  33   2.0000     -10.348068      -281.5852
  34   2.0000     -10.346226      -281.5351
  35   2.0000     -10.344923      -281.4997
  36   2.0000     -10.339138      -281.3422
  37   2.0000     -10.335900      -281.2541
  38   2.0000     -10.333976      -281.2018
  39   2.0000     -10.331384      -281.1312
  40   2.0000     -10.331352      -281.1304
  41   2.0000     -10.329451      -281.0787
  42   2.0000     -10.324958      -280.9564
  43   2.0000     -10.324729      -280.9502
  44   2.0000     -10.324584      -280.9462
  45   2.0000     -10.324546      -280.9452
  46   2.0000     -10.324256      -280.9373
  47   2.0000     -10.323119      -280.9064
  48   2.0000     -10.317900      -280.7643
  49   2.0000     -10.317700      -280.7589
  50   2.0000     -10.317633      -280.7571
  51   2.0000     -10.316848      -280.7357
  52   2.0000     -10.314852      -280.6814
  53   2.0000     -10.313015      -280.6314
  54   2.0000     -10.310811      -280.5714
  55   2.0000     -10.310669      -280.5676
  56   2.0000     -10.310389      -280.5599
  57   2.0000     -10.310199      -280.5548
  58   2.0000     -10.309120      -280.5254
  59   2.0000     -10.303938      -280.3844
  60   2.0000     -10.303498      -280.3724
  61   2.0000     -10.302787      -280.3531
  62   2.0000     -10.302705      -280.3509
  63   2.0000     -10.302089      -280.3341
  64   2.0000     -10.297142      -280.1995
  65   2.0000     -10.296740      -280.1885
  66   2.0000     -10.296699      -280.1874
  67   2.0000     -10.296520      -280.1825
  68   2.0000     -10.296142      -280.1723
  69   2.0000     -10.288629      -279.9678
  70   2.0000     -10.288010      -279.9510
  71   2.0000     -10.287310      -279.9319
  72   2.0000     -10.286817      -279.9185
  73   2.0000      -8.089820      -220.1352
  74   2.0000      -8.034131      -218.6198
  75   2.0000      -8.017761      -218.1744
  76   2.0000      -6.059061      -164.8754
  77   2.0000      -6.054873      -164.7615
  78   2.0000      -6.051912      -164.6809
  79   2.0000      -6.002873      -163.3465
  80   2.0000      -6.001359      -163.3053
  81   2.0000      -5.994663      -163.1231
  82   2.0000      -5.986476      -162.9003
  83   2.0000      -5.986033      -162.8882
  84   2.0000      -5.977414      -162.6537
  85   2.0000      -1.196509       -32.5587
  86   2.0000      -1.177688       -32.0465
  87   2.0000      -1.148054       -31.2401
  88   2.0000      -1.137763       -30.9601
  89   2.0000      -1.112904       -30.2837
  90   2.0000      -1.104526       -30.0557
  91   2.0000      -1.097000       -29.8509
  92   2.0000      -1.091595       -29.7038
  93   2.0000      -1.077104       -29.3095
  94   2.0000      -1.033624       -28.1263
  95   2.0000      -1.024450       -27.8767
  96   2.0000      -1.021921       -27.8079
  97   2.0000      -1.013310       -27.5736
  98   2.0000      -1.008820       -27.4514
  99   2.0000      -1.004520       -27.3344
 100   2.0000      -1.000049       -27.2127
 101   2.0000      -0.993852       -27.0441
 102   2.0000      -0.985406       -26.8143
 103   2.0000      -0.981142       -26.6982
 104   2.0000      -0.976231       -26.5646
 105   2.0000      -0.943679       -25.6788
 106   2.0000      -0.934962       -25.4416
 107   2.0000      -0.933561       -25.4035
 108   2.0000      -0.931468       -25.3465
 109   2.0000      -0.921595       -25.0779
 110   2.0000      -0.903017       -24.5723
 111   2.0000      -0.901339       -24.5267
 112   2.0000      -0.893987       -24.3266
 113   2.0000      -0.891641       -24.2628
 114   2.0000      -0.887460       -24.1490
 115   2.0000      -0.885926       -24.1073
 116   2.0000      -0.873069       -23.7574
 117   2.0000      -0.871506       -23.7149
 118   2.0000      -0.858832       -23.3700
 119   2.0000      -0.847625       -23.0651
 120   2.0000      -0.840999       -22.8848
 121   2.0000      -0.832947       -22.6656
 122   2.0000      -0.831383       -22.6231
 123   2.0000      -0.815457       -22.1897
 124   2.0000      -0.803468       -21.8635
 125   2.0000      -0.796624       -21.6772
 126   2.0000      -0.784953       -21.3597
 127   2.0000      -0.776496       -21.1295
 128   2.0000      -0.774181       -21.0665
 129   2.0000      -0.767344       -20.8805
 130   2.0000      -0.757498       -20.6126
 131   2.0000      -0.741143       -20.1675
 132   2.0000      -0.732444       -19.9308
 133   2.0000      -0.728323       -19.8187
 134   2.0000      -0.722454       -19.6590
 135   2.0000      -0.720389       -19.6028
 136   2.0000      -0.716151       -19.4875
 137   2.0000      -0.714599       -19.4452
 138   2.0000      -0.709230       -19.2991
 139   2.0000      -0.707336       -19.2476
 140   2.0000      -0.704740       -19.1769
 141   2.0000      -0.701435       -19.0870
 142   2.0000      -0.699048       -19.0221
 143   2.0000      -0.691538       -18.8177
 144   2.0000      -0.682268       -18.5655
 145   2.0000      -0.674691       -18.3593
 146   2.0000      -0.664699       -18.0874
 147   2.0000      -0.655618       -17.8403
 148   2.0000      -0.645961       -17.5775
 149   2.0000      -0.645586       -17.5673
 150   2.0000      -0.635887       -17.3034
 151   2.0000      -0.629913       -17.1408
 152   2.0000      -0.627782       -17.0828
 153   2.0000      -0.619661       -16.8618
 154   2.0000      -0.618846       -16.8397
 155   2.0000      -0.611652       -16.6439
 156   2.0000      -0.610574       -16.6146
 157   2.0000      -0.603010       -16.4087
 158   2.0000      -0.597234       -16.2516
 159   2.0000      -0.591555       -16.0970
 160   2.0000      -0.590565       -16.0701
 161   2.0000      -0.586268       -15.9532
 162   2.0000      -0.577050       -15.7023
 163   2.0000      -0.576052       -15.6752
 164   2.0000      -0.573217       -15.5980
 165   2.0000      -0.565950       -15.4003
 166   2.0000      -0.563088       -15.3224
 167   2.0000      -0.559897       -15.2356
 168   2.0000      -0.559199       -15.2166
 169   2.0000      -0.557022       -15.1573
 170   2.0000      -0.554405       -15.0861
 171   2.0000      -0.552308       -15.0291
 172   2.0000      -0.551217       -14.9994
 173   2.0000      -0.547338       -14.8938
 174   2.0000      -0.543350       -14.7853
 175   2.0000      -0.540903       -14.7187
 176   2.0000      -0.537227       -14.6187
 177   2.0000      -0.534638       -14.5482
 178   2.0000      -0.533832       -14.5263
 179   2.0000      -0.532250       -14.4833
 180   2.0000      -0.529541       -14.4095
 181   2.0000      -0.525497       -14.2995
 182   2.0000      -0.524790       -14.2803
 183   2.0000      -0.523923       -14.2567
 184   2.0000      -0.522289       -14.2122
 185   2.0000      -0.519663       -14.1408
 186   2.0000      -0.518337       -14.1047
 187   2.0000      -0.514749       -14.0070
 188   2.0000      -0.513543       -13.9742
 189   2.0000      -0.511368       -13.9150
 190   2.0000      -0.509710       -13.8699
 191   2.0000      -0.507296       -13.8042
 192   2.0000      -0.506439       -13.7809
 193   2.0000      -0.504969       -13.7409
 194   2.0000      -0.501672       -13.6512
 195   2.0000      -0.500488       -13.6190
 196   2.0000      -0.497623       -13.5410
 197   2.0000      -0.494446       -13.4546
 198   2.0000      -0.491406       -13.3718
 199   2.0000      -0.488025       -13.2798
 200   2.0000      -0.478477       -13.0200
 201   2.0000      -0.473085       -12.8733
 202   2.0000      -0.470019       -12.7899
 203   2.0000      -0.468861       -12.7583
 204   2.0000      -0.463283       -12.6066
 205   2.0000      -0.461014       -12.5448
 206   2.0000      -0.459536       -12.5046
 207   2.0000      -0.458408       -12.4739
 208   2.0000      -0.455325       -12.3900
 209   2.0000      -0.454284       -12.3617
 210   2.0000      -0.451850       -12.2955
 211   2.0000      -0.449977       -12.2445
 212   2.0000      -0.446737       -12.1563
 213   2.0000      -0.446311       -12.1447
 214   2.0000      -0.446029       -12.1371
 215   2.0000      -0.443021       -12.0552
 216   2.0000      -0.441865       -12.0238
 217   2.0000      -0.439197       -11.9512
 218   2.0000      -0.437928       -11.9166
 219   2.0000      -0.434173       -11.8145
 220   2.0000      -0.433936       -11.8080
 221   2.0000      -0.427067       -11.6211
 222   2.0000      -0.425598       -11.5811
 223   2.0000      -0.424887       -11.5618
 224   2.0000      -0.420729       -11.4486
 225   2.0000      -0.415350       -11.3022
 226   2.0000      -0.411109       -11.1868
 227   2.0000      -0.408793       -11.1238
 228   2.0000      -0.396986       -10.8026
 229   2.0000      -0.395080       -10.7507
 230   2.0000      -0.388606       -10.5745
 231   2.0000      -0.386367       -10.5136
 232   2.0000      -0.381809       -10.3896
 233   2.0000      -0.374353       -10.1867
 234   2.0000      -0.371914       -10.1203
 235   2.0000      -0.368504       -10.0275
 236   2.0000      -0.362398        -9.8614
 237   2.0000      -0.361603        -9.8397
 238   2.0000      -0.353439        -9.6176
 239   2.0000      -0.350000        -9.5240
 240   2.0000      -0.347398        -9.4532
 241   2.0000      -0.346700        -9.4342
 242   2.0000      -0.341427        -9.2907
 243   2.0000      -0.336530        -9.1574
 244   2.0000      -0.331371        -9.0171
 245   2.0000      -0.329364        -8.9625
 246   2.0000      -0.323711        -8.8086
 247   2.0000      -0.318055        -8.6547
 248   2.0000      -0.309946        -8.4341
 249   2.0000      -0.306197        -8.3321
 250   2.0000      -0.297602        -8.0982
 251   2.0000      -0.296335        -8.0637
 252   2.0000      -0.288896        -7.8613
 253   0.0000      -0.139751        -3.8028
 254   0.0000      -0.128752        -3.5035
 255   0.0000      -0.120433        -3.2772
 256   0.0000      -0.105402        -2.8681
 257   0.0000      -0.091601        -2.4926

MULLIKEN ATOMIC CHARGES
-----------------------
   0 C :    0.298483
   1 C :   -0.340235
   2 C :   -0.181175
   3 N :    0.159877
   4 C :   -0.182976
   5 N :    0.161050
   6 C :    0.056674
   7 C :    0.025934
   8 C :   -0.082187
   9 C :    0.096011
  10 C :    0.096198
  11 C :   -0.082617
  12 C :   -0.016157
  13 C :    0.037617
  14 C :    0.040711
  15 C :   -0.015869
  16 C :    0.113552
  17 O :   -0.141526
  18 C :   -0.038025
  19 C :   -0.048392
  20 C :   -0.002862
  21 C :    0.072157
  22 N :   -0.023116
  23 C :    0.019828
  24 C :    0.027319
  25 C :    0.002936
  26 S :   -0.142075
  27 C :   -0.050862
  28 C :    0.008208
  29 N :   -0.020386
  30 C :    0.045880
  31 C :    0.055046
  32 C :   -0.173132
  33 S :    0.201665
  34 C :   -0.137235
  35 C :   -0.039852
  36 C :    0.160898
  37 O :   -0.239606
  38 C :    0.156566
  39 O :   -0.191212
  40 O :   -0.147247
  41 C :    0.006915
  42 C :    0.120743
  43 N :   -0.025267
  44 C :    0.030074
  45 C :   -0.036720
  46 C :    0.001502
  47 S :   -0.108671
  48 C :    0.032276
  49 C :    0.006050
  50 N :   -0.027326
  51 C :    0.076021
  52 C :   -0.000989
  53 C :   -0.032441
  54 C :   -0.043745
  55 C :    0.295986
  56 C :   -0.334121
  57 C :   -0.181325
  58 N :    0.154682
  59 C :   -0.183665
  60 N :    0.152573
  61 C :    0.055058
  62 C :    0.033881
  63 C :    0.096487
  64 O :   -0.143445
  65 C :   -0.084202
  66 C :    0.096428
  67 C :    0.094138
  68 C :   -0.081858
  69 C :   -0.017753
  70 C :    0.037904
  71 C :    0.038595
  72 C :   -0.012958
  73 H :   -0.013262
  74 H :   -0.005100
  75 H :   -0.006568
  76 H :    0.000151
  77 H :    0.001471
  78 H :   -0.012946
  79 H :    0.033156
  80 H :    0.021903
  81 H :    0.023720
  82 H :    0.193801
  83 H :    0.186135
  84 H :    0.027159
  85 H :    0.018606
  86 H :    0.029630
  87 H :   -0.020188
  88 H :   -0.005650
  89 H :   -0.009390
  90 H :   -0.002643
  91 H :    0.004025
  92 H :   -0.018703
Sum of atomic charges:   -0.0000000

LOEWDIN ATOMIC CHARGES
----------------------
   0 C :    0.075529
   1 C :   -0.127137
   2 C :   -0.018262
   3 N :   -0.041192
   4 C :   -0.019398
   5 N :   -0.043595
   6 C :   -0.024330
   7 C :   -0.056146
   8 C :    0.031979
   9 C :   -0.006576
  10 C :   -0.003917
  11 C :    0.022623
  12 C :   -0.004228
  13 C :   -0.008129
  14 C :   -0.006394
  15 C :   -0.007915
  16 C :    0.072327
  17 O :   -0.138879
  18 C :   -0.049616
  19 C :    0.048554
  20 C :   -0.033783
  21 C :    0.093792
  22 N :   -0.073169
  23 C :    0.033804
  24 C :   -0.010740
  25 C :   -0.110669
  26 S :    0.118519
  27 C :   -0.066079
  28 C :    0.052087
  29 N :   -0.061440
  30 C :    0.085315
  31 C :   -0.033814
  32 C :   -0.227088
  33 S :    0.513982
  34 C :   -0.117742
  35 C :   -0.134948
  36 C :    0.052645
  37 O :   -0.040797
  38 C :    0.082447
  39 O :   -0.163195
  40 O :   -0.021695
  41 C :   -0.057713
  42 C :    0.123233
  43 N :   -0.079220
  44 C :    0.054854
  45 C :   -0.026452
  46 C :   -0.136471
  47 S :    0.092763
  48 C :   -0.001927
  49 C :    0.042019
  50 N :   -0.076452
  51 C :    0.098783
  52 C :   -0.046829
  53 C :    0.050142
  54 C :   -0.053939
  55 C :    0.077645
  56 C :   -0.131148
  57 C :   -0.018188
  58 N :   -0.046292
  59 C :   -0.019052
  60 N :   -0.046907
  61 C :   -0.024681
  62 C :   -0.053960
  63 C :    0.068448
  64 O :   -0.143393
  65 C :    0.020105
  66 C :   -0.009308
  67 C :   -0.005893
  68 C :    0.022767
  69 C :   -0.006007
  70 C :   -0.010272
  71 C :   -0.001777
  72 C :   -0.008648
  73 H :    0.038497
  74 H :    0.040020
  75 H :    0.035863
  76 H :    0.035354
  77 H :    0.035704
  78 H :    0.033737
  79 H :    0.049162
  80 H :    0.031994
  81 H :    0.020469
  82 H :    0.013706
  83 H :    0.068320
  84 H :    0.031934
  85 H :    0.031433
  86 H :    0.047709
  87 H :    0.032731
  88 H :    0.039621
  89 H :    0.034685
  90 H :    0.034155
  91 H :    0.037161
  92 H :    0.028786

  Mayer bond orders larger than 0.100000
B(  0-C ,  1-C ) :   1.6651 B(  0-C ,  6-C ) :   1.0038 B(  0-C , 18-C ) :   1.0333
B(  1-C ,  2-C ) :   1.1383 B(  1-C ,  4-C ) :   1.1399 B(  2-C ,  3-N ) :   2.9759
B(  4-C ,  5-N ) :   2.9821 B(  6-C ,  7-C ) :   1.2108 B(  6-C , 11-C ) :   1.4416
B(  7-C ,  8-C ) :   1.4553 B(  7-C , 16-C ) :   0.9309 B(  8-C ,  9-C ) :   1.1916
B(  8-C , 73-H ) :   1.0164 B(  9-C , 10-C ) :   1.2494 B(  9-C , 15-C ) :   1.2397
B( 10-C , 11-C ) :   1.2152 B( 10-C , 12-C ) :   1.2381 B( 11-C , 74-H ) :   0.9907
B( 12-C , 13-C ) :   1.4912 B( 12-C , 75-H ) :   0.9975 B( 13-C , 14-C ) :   1.2576
B( 13-C , 76-H ) :   0.9888 B( 14-C , 15-C ) :   1.4932 B( 14-C , 77-H ) :   0.9883
B( 15-C , 78-H ) :   0.9984 B( 16-C , 17-O ) :   2.2468 B( 16-C , 18-C ) :   0.8980
B( 18-C , 19-C ) :   1.7428 B( 19-C , 20-C ) :   1.0460 B( 19-C , 79-H ) :   0.9325
B( 20-C , 21-C ) :   1.0219 B( 20-C , 24-C ) :   1.5616 B( 21-C , 22-N ) :   1.7178
B( 21-C , 80-H ) :   0.9950 B( 22-N , 23-C ) :   1.2684 B( 23-C , 24-C ) :   1.0694
B( 23-C , 28-C ) :   1.5314 B( 24-C , 25-C ) :   1.0356 B( 25-C , 26-S ) :   1.5956
B( 25-C , 27-C ) :   1.0809 B( 26-S , 82-H ) :   0.2099 B( 27-C , 28-C ) :   1.0591
B( 27-C , 31-C ) :   1.5013 B( 28-C , 29-N ) :   1.2647 B( 29-N , 30-C ) :   1.7175
B( 30-C , 31-C ) :   1.0262 B( 30-C , 81-H ) :   0.9728 B( 31-C , 32-C ) :   1.1316
B( 32-C , 33-S ) :   1.0970 B( 32-C , 34-C ) :   0.1144 B( 32-C , 36-C ) :   1.4171
B( 33-S , 34-C ) :   1.2157 B( 34-C , 35-C ) :   1.4744 B( 34-C , 41-C ) :   1.0699
B( 35-C , 36-C ) :   1.2076 B( 35-C , 38-C ) :   0.8862 B( 36-C , 37-O ) :   1.2425
B( 37-O , 82-H ) :   0.8308 B( 37-O , 83-H ) :   0.1043 B( 38-C , 39-O ) :   2.1109
B( 38-C , 40-O ) :   1.3214 B( 40-O , 83-H ) :   0.9106 B( 41-C , 42-C ) :   1.0218
B( 41-C , 45-C ) :   1.5689 B( 42-C , 43-N ) :   1.7072 B( 42-C , 84-H ) :   0.9862
B( 43-N , 44-C ) :   1.2838 B( 44-C , 45-C ) :   1.0572 B( 44-C , 49-C ) :   1.4991
B( 45-C , 46-C ) :   1.0169 B( 46-C , 47-S ) :   1.6668 B( 46-C , 48-C ) :   1.0404
B( 48-C , 49-C ) :   1.0689 B( 48-C , 52-C ) :   1.5417 B( 49-C , 50-N ) :   1.2824
B( 50-N , 51-C ) :   1.6969 B( 51-C , 52-C ) :   1.0343 B( 51-C , 85-H ) :   0.9947
B( 52-C , 53-C ) :   1.0568 B( 53-C , 54-C ) :   1.7225 B( 53-C , 86-H ) :   0.9340
B( 54-C , 55-C ) :   1.0439 B( 54-C , 63-C ) :   0.8954 B( 55-C , 56-C ) :   1.6581
B( 55-C , 61-C ) :   1.0019 B( 56-C , 57-C ) :   1.1365 B( 56-C , 59-C ) :   1.1376
B( 57-C , 58-N ) :   2.9754 B( 59-C , 60-N ) :   2.9805 B( 61-C , 62-C ) :   1.2117
B( 61-C , 68-C ) :   1.4419 B( 62-C , 63-C ) :   0.9227 B( 62-C , 65-C ) :   1.4633
B( 63-C , 64-O ) :   2.2455 B( 65-C , 66-C ) :   1.1861 B( 65-C , 87-H ) :   1.0081
B( 66-C , 67-C ) :   1.2500 B( 66-C , 72-C ) :   1.2302 B( 67-C , 68-C ) :   1.2146
B( 67-C , 69-C ) :   1.2407 B( 68-C , 88-H ) :   0.9903 B( 69-C , 70-C ) :   1.4874
B( 69-C , 89-H ) :   0.9971 B( 70-C , 71-C ) :   1.2536 B( 70-C , 90-H ) :   0.9898
B( 71-C , 72-C ) :   1.5032 B( 71-C , 91-H ) :   0.9890 B( 72-C , 92-H ) :   0.9917

-----------------------------------------------------------------------------
         ABSORPTION SPECTRUM VIA TRANSITION ELECTRIC DIPOLE MOMENTS
-----------------------------------------------------------------------------
State   Energy  Wavelength   fosc         T2         TX        TY        TZ
        (cm-1)    (nm)                  (au**2)     (au)      (au)      (au)
-----------------------------------------------------------------------------
   0   14592.2    685.3   0.080931024   1.82587  -1.01340  -0.43173   0.78262
   1   15420.7    648.5   0.003893472   0.08312  -0.07895   0.16291   0.22438
   2   15739.2    635.4   0.004948040   0.10350  -0.28231  -0.07611   0.13418
   3   17699.2    565.0   0.355908537   6.62004  -1.66259  -1.66146   1.04660
   4   19080.3    524.1   0.196756010   3.39483   1.35016   0.82779  -0.94162
   5   19105.7    523.4   0.024224642   0.41742   0.44040   0.17052  -0.44090
   6   20115.5    497.1   0.006139283   0.10048   0.24236  -0.14737  -0.14150
   7   20199.8    495.1   0.001452763   0.02368   0.14798   0.03769  -0.01896
   8   20616.9    485.0   0.022803203   0.36412   0.39690   0.44542  -0.09050
   9   21050.5    475.0   0.092121375   1.44070  -0.78740  -0.69591   0.58002
  10   21360.0    468.2   0.064322805   0.99138  -0.65182  -0.66236   0.35748
  11   21635.9    462.2   0.051022803   0.77636  -0.53682  -0.69555   0.06630
  12   21707.5    460.7   0.017436071   0.26443   0.41235   0.11454  -0.28510
  13   22447.1    445.5   0.123782534   1.81541  -0.03253  -1.32065  -0.26503
  14   22655.1    441.4   0.001587579   0.02307  -0.07338   0.12469  -0.04624
  15   23208.6    430.9   0.015630792   0.22172  -0.28866  -0.03725   0.37015
  16   23787.8    420.4   0.027684423   0.38314   0.32385   0.52104  -0.08235
  17   24118.8    414.6   0.006372487   0.08698  -0.27839   0.08644   0.04483
  18   24162.0    413.9   0.082881253   1.12927  -0.50928  -0.92299   0.13415
  19   24416.4    409.6   0.027526457   0.37115   0.04563  -0.56135  -0.23226
  20   24886.5    401.8   0.001663528   0.02201   0.10438  -0.01411   0.10446
  21   25111.9    398.2   0.030860487   0.40458  -0.46133  -0.30694   0.31231
  22   25409.5    393.6   0.005968387   0.07733  -0.06768   0.23339   0.13520
  23   25627.3    390.2   0.003161120   0.04061  -0.19513  -0.04646   0.01930
  24   25856.8    386.7   0.019174505   0.24413   0.15325  -0.26625  -0.38698
  25   26118.0    382.9   0.223837280   2.82143   0.90714   1.31586  -0.51675
  26   26362.9    379.3   0.016669190   0.20816  -0.24732   0.26592   0.27618
  27   26726.1    374.2   0.025374252   0.31256   0.02655  -0.25988  -0.49428
  28   27034.0    369.9   0.091979912   1.12010   0.15207  -0.76886  -0.71122
  29   27169.0    368.1   0.246873249   2.99141   1.30269   1.13731  -0.03038
  30   27475.6    364.0   0.009142159   0.10954  -0.21285  -0.20919   0.14310
  31   28033.5    356.7   0.051556975   0.60546   0.58189  -0.30601  -0.41620
  32   28079.1    356.1   0.027192418   0.31882   0.24605   0.50347  -0.06924
  33   28264.0    353.8   0.112344611   1.30856   0.31830  -0.96759  -0.52058
  34   28350.4    352.7   0.024237772   0.28146   0.15997   0.50512   0.02674
  35   28458.3    351.4   0.063597243   0.73571  -0.74471  -0.41377   0.09956
  36   28491.0    351.0   0.004804134   0.05551  -0.19794  -0.09795   0.08207
  37   28678.9    348.7   0.017708520   0.20328  -0.33769   0.27685   0.11225
  38   29313.1    341.1   0.042209374   0.47405   0.50197   0.41923  -0.21523
  39   29464.2    339.4   0.120552356   1.34696   1.00229  -0.38925  -0.43688
  40   29738.0    336.3   0.203872513   2.25696  -0.24780   0.79585   1.24987
  41   29925.1    334.2   0.017198194   0.18920  -0.05204   0.39867   0.16599
  42   29991.8    333.4   0.186295973   2.04492   1.03718  -0.21563  -0.96056
  43   30176.2    331.4   0.233878888   2.55154   0.99080  -0.02296  -1.25273
  44   30307.5    330.0   0.016304982   0.17711  -0.14129   0.36206   0.16145
  45   30423.1    328.7   0.041690916   0.45114  -0.30434  -0.58969  -0.10383
  46   30632.0    326.5   0.170664943   1.83419   0.05096  -1.06650  -0.83316
  47   30841.1    324.2   0.159079960   1.69809  -0.17311   1.29139   0.02067
  48   31106.3    321.5   0.014104860   0.14928   0.11515  -0.35970   0.08148
  49   31482.2    317.6   0.008528116   0.08918   0.07496   0.28461   0.05056
  50   31682.2    315.6   0.035291045   0.36671  -0.07070   0.23460   0.55378
  51   31763.9    314.8   0.056597789   0.58660  -0.65457  -0.08136   0.38925
  52   31923.3    313.3   0.016614589   0.17134   0.20773   0.29828  -0.19804
  53   32128.6    311.2   0.041050291   0.42063  -0.23020   0.59575   0.11276
  54   32179.9    310.8   0.176728658   1.80800   0.49387   1.24431  -0.12562
  55   32463.6    308.0   0.017239856   0.17483   0.17392  -0.17241  -0.33890
  56   32653.4    306.2   0.048368635   0.48765  -0.28607  -0.00527   0.63702
  57   32793.0    304.9   0.044239914   0.44413  -0.36814  -0.50752   0.22588
  58   32890.1    304.0   0.014383866   0.14397  -0.11945   0.32033   0.16461
  59   33015.8    302.9   0.007432472   0.07411   0.26352  -0.01800  -0.06591
  60   33109.6    302.0   0.028224195   0.28064  -0.42753  -0.14402   0.27770
  61   33193.1    301.3   0.014496710   0.14378  -0.10468   0.12301  -0.34306
  62   33521.9    298.3   0.006079134   0.05970   0.22332  -0.01417  -0.09812
  63   33605.1    297.6   0.003617184   0.03544   0.04908  -0.01281  -0.18128
  64   33686.2    296.9   0.059551998   0.58200  -0.18286   0.46599   0.57568
  65   33728.9    296.5   0.038163535   0.37250   0.05973   0.56824  -0.21455
  66   34039.4    293.8   0.134852390   1.30422   0.27698  -0.80017  -0.76631
  67   34381.5    290.9   0.043284997   0.41447  -0.50868  -0.13503   0.37078
  68   34469.8    290.1   0.012909009   0.12329   0.21836   0.19484  -0.19403
  69   34513.7    289.7   0.034410399   0.32823  -0.08377   0.55489  -0.11535
  70   34643.2    288.7   0.026943257   0.25604   0.10761  -0.07041   0.48939
  71   34795.8    287.4   0.114978452   1.08784   0.12651   0.95062  -0.41007
  72   34895.5    286.6   0.043692596   0.41221   0.46978  -0.17215  -0.40234
  73   35050.5    285.3   0.036720527   0.34490  -0.40556   0.28514   0.31482
  74   35140.0    284.6   0.070145695   0.65717   0.34308   0.69448  -0.23907
  75   35170.0    284.3   0.024981273   0.23384   0.34881   0.20216  -0.26703
  76   35364.5    282.8   0.010768317   0.10024  -0.21533  -0.20335   0.11192
  77   35530.5    281.4   0.013423905   0.12438  -0.20367  -0.12953   0.25714
  78   35819.1    279.2   0.127879188   1.17533   0.02610   0.97633  -0.47057
  79   36042.2    277.5   0.012499382   0.11417   0.06577   0.32725   0.05243
  80   36101.7    277.0   0.022769679   0.20764  -0.22304   0.19154   0.34815
  81   36289.2    275.6   0.141600643   1.28459  -0.45149  -0.93861   0.44693
  82   36374.6    274.9   0.547044911   4.95108   1.00125   0.50654  -1.92146
  83   36621.4    273.1   0.205785916   1.84993  -0.44577   0.04333   1.28427
  84   36860.5    271.3   0.026686757   0.23835   0.27217  -0.15810  -0.37319
  85   36959.0    270.6   0.090452353   0.80570   0.55855   0.56409  -0.41897
  86   37073.0    269.7   0.036276062   0.32214  -0.18151  -0.53761  -0.01286
  87   37243.6    268.5   0.141402328   1.24991  -0.13824  -0.99815  -0.48425
  88   37411.8    267.3   0.030697786   0.27013  -0.27335  -0.03467   0.44069
  89   37497.6    266.7   0.018223511   0.15999   0.27001   0.14185  -0.25878
  90   37557.1    266.3   0.095858013   0.84026  -0.70358  -0.14296   0.56991
  91   37786.4    264.6   0.122945276   1.07115   0.65267  -0.06792  -0.80035
  92   37946.0    263.5   0.008244793   0.07153  -0.09005   0.06362   0.24367
  93   38242.4    261.5   0.003119857   0.02686  -0.08552   0.09805   0.09965
  94   38384.2    260.5   0.186688225   1.60118  -0.88471  -0.63379   0.64559
  95   38496.9    259.8   0.102081415   0.87297   0.39641   0.82123   0.20348
  96   38648.1    258.7   0.059159927   0.50394  -0.14046  -0.69563  -0.01735
  97   38903.4    257.0   0.029575973   0.25028  -0.00317  -0.24582  -0.43571
  98   38912.3    257.0   0.012821622   0.10848   0.01970  -0.18894  -0.26905
  99   39147.3    255.4   0.035958814   0.30240  -0.47568  -0.27541   0.01668
 100   39262.2    254.7   0.011216010   0.09405  -0.05648  -0.26229  -0.14852
 101   39268.5    254.7   0.025181471   0.21111  -0.25634  -0.32283  -0.20294
 102   39540.2    252.9   0.257892804   2.14722   1.06924  -0.33786  -0.94329
 103   39715.9    251.8   0.032715452   0.27118  -0.26833  -0.04183   0.44433
 104   39852.5    250.9   0.011190579   0.09244  -0.14383  -0.13651   0.23047
 105   40045.7    249.7   0.036296481   0.29839  -0.12485   0.46097   0.26517
 106   40320.8    248.0   0.107578588   0.87836   0.58110  -0.36072  -0.64075

FINAL SINGLE POINT ENERGY     -4188.471823324051

DIPOLE MOMENT
-------------
                                X             Y             Z
Electronic contribution:     15.70205       9.29854      -0.06176
Nuclear contribution   :    -17.24432     -11.06310       0.76953
                        -----------------------------------------
Total Dipole Moment    :     -1.54227      -1.76456       0.70777
                        -----------------------------------------
Magnitude (a.u.)       :      2.44810
Magnitude (Debye)      :      6.22258

Rotational constants in cm-1:     0.001659     0.000461     0.000379
Rotational constants in MHz :    49.729858    13.831001    11.349347

                             ****ORCA TERMINATED NORMALLY****
TOTAL RUN TIME: 0 days 0 hours 11 minutes 44 seconds 838 msec
