                         Program Version 4.2.0 -  RELEASE  -
|  1> # ORCA input file
|  2> # SCF done       -203.758151938261          0.000991164453
|  3> ! CAM-B3LYP def2-SVP def2/J RIJCOSX Grid4 TightSCF
|  4> %maxcore 5000
|  5> %tddft
|  6>     Mode sTDDFT
|  7>     Ethresh 5.0
|  8>     maxcore 5000
|  9> end
| 10>
| 11> %pal
| 12>   nprocs 6
| 13>   end
| 14> * xyz 0 1
| 15>    C       -5.76831         7.16271        -6.12546
| 16>    C       -4.63902         7.85437        -5.76672
| 17>    C       -4.30405         9.13100        -6.26374
| 18>    N       -3.98038        10.16953        -6.62898
| 19>    C       -3.63287         7.32959        -4.93650
| 20>    N       -2.79346         6.92390        -4.26521
| 21>    C       -6.67965         7.55368        -7.19728
| 22>    C       -7.41797         6.40476        -7.60664
| 23>    C       -8.31679         6.45765        -8.63267
| 24>    C       -8.52755         7.68473        -9.30147
| 25>    C       -7.80749         8.84097        -8.88339
| 26>    C       -6.87959         8.75582        -7.81927
| 27>    C       -8.03100        10.05968        -9.55509
| 28>    C       -8.91888        10.13403       -10.59380
| 29>    C       -9.62636         8.99502       -11.00571
| 30>    C       -9.43523         7.79659       -10.37297
| 31>    C       -7.04604         5.26055        -6.75787
| 32>    O       -7.42708         4.11476        -6.83269
| 33>    C       -6.12706         5.82232        -5.72363
| 34>    C       -5.87043         5.08000        -4.60980
| 35>    C       -5.36657         5.50103        -3.36445
| 36>    S       -4.77180         4.34033        -2.18398
| 37>    C       -4.36431         5.54329        -0.98164
| 38>    C       -4.72272         6.77023        -1.49422
| 39>    C       -5.26398         6.74968        -2.78691
| 40>    O       -5.58718         8.02470        -3.12981
| 41>    C       -5.22936         8.80355        -2.07820
| 42>    S       -5.42478        10.40251        -2.03674
| 43>    O       -4.70477         8.07059        -1.07501
| 44>    C       -3.72448         5.23013         0.25927
| 45>    C       -3.36469         6.24847         1.11637
| 46>    C       -2.67170         5.95005         2.30342
| 47>    C       -2.15515         6.77202         3.29662
| 48>    C       -2.23904         8.25481         3.41763
| 49>    C       -1.48293         8.95473         2.26879
| 50>    N       -1.06833        10.27157         2.70916
| 51>    C       -3.70228         8.72867         3.50275
| 52>    N       -3.75977        10.13381         3.87295
| 53>    C       -1.45764         5.90931         4.22244
| 54>    C       -0.71434         6.19282         5.30822
| 55>    C        0.01307         5.12930         6.05026
| 56>    C       -0.27999         3.72902         5.59056
| 57>    C       -1.03818         3.46510         4.51250
| 58>    C       -1.61870         4.52055         3.76770
| 59>    C       -2.35189         4.55636         2.60181
| 60>    C       -2.77204         3.53392         1.71632
| 61>    C       -3.43455         3.86331         0.58195
| 62>    C       -0.13941         5.19238         7.54160
| 63>    C       -1.06761         5.89573         8.19843
| 64>    C       -1.15993         5.88344         9.62706
| 65>    S       -2.29414         6.88139        10.50414
| 66>    C       -1.75388         6.35124        12.09191
| 67>    C       -0.76153         5.41568        11.89619
| 68>    C       -0.43585         5.16836        10.54994
| 69>    O        0.52868         4.20591        10.52767
| 70>    C        0.75273         3.86548        11.82023
| 71>    S        1.80696         2.73993        12.28471
| 72>    O       -0.03018         4.57386        12.66207
| 73>    C       -2.35109         6.83939        13.27924
| 74>    C       -1.72357         6.89652        14.48693
| 75>    C       -2.32786         7.19428        15.77384
| 76>    C       -3.66932         7.27482        16.04130
| 77>    C       -4.20620         7.54081        17.31891
| 78>    N       -4.70368         7.75921        18.32986
| 79>    C       -4.69544         7.08734        15.09185
| 80>    N       -5.57830         6.93325        14.37393
| 81>    C       -1.25404         7.30835        16.75234
| 82>    C       -0.01012         7.08077        16.09592
| 83>    C       -0.24444         6.84233        14.66492
| 84>    O        0.59331         6.74882        13.79389
| 85>    C        1.17818         7.11081        16.76735
| 86>    C        1.17762         7.36968        18.15602
| 87>    C       -0.06093         7.60930        18.81934
| 88>    C       -1.27526         7.57561        18.09637
| 89>    C       -0.04860         7.87707        20.20349
| 90>    C        1.12863         7.90319        20.90077
| 91>    C        2.34668         7.66288        20.24736
| 92>    C        2.37076         7.40135        18.90411
| 93>    H       -8.85831         5.57323        -8.93395
| 94>    H       -6.35607         9.64879        -7.51552
| 95>    H       -7.48175        10.93323        -9.23606
| 96>    H       -9.08011        11.07153       -11.10459
| 97>    H      -10.32346         9.07157       -11.82675
| 98>    H       -9.97737         6.91604       -10.68551
| 99>    H       -6.15508         4.03468        -4.67378
|100>    H       -3.58719         7.27086         0.85935
|101>    H       -1.73896         8.56261         4.34139
|102>    H       -2.12132         8.96928         1.37199
|103>    H       -0.58270         8.37784         2.02865
|104>    H       -1.89734        10.80130         2.96738
|105>    H       -0.59317        10.76255         1.95986
|106>    H       -4.24020         8.07176         4.20925
|107>    H       -4.18211         8.62731         2.52727
|108>    H       -3.42923        10.26271         4.82397
|109>    H       -4.71336        10.47489         3.82447
|110>    H       -0.56058         7.20814         5.64767
|111>    H        1.08554         5.30853         5.84788
|112>    H        0.17122         2.93761         6.16824
|113>    H       -1.20908         2.44589         4.19854
|114>    H       -2.54773         2.50389         1.94881
|115>    H       -3.75434         3.10491        -0.11740
|116>    H        0.55363         4.57688         8.09834
|117>    H       -1.78638         6.51301         7.68026
|118>    H       -3.36788         7.19523        13.17772
|119>    H        2.10646         6.93106        16.24572
|120>    H       -2.19466         7.76678        18.62674
|121>    H       -0.98886         8.05923        20.70280
|122>    H        1.12760         8.10796        21.96074
|123>    H        3.26577         7.68601        20.81347
|124>    H        3.30533         7.21537        18.39553
|125> *
|126>
|127>                          ****END OF INPUT****

CARTESIAN COORDINATES (ANGSTROEM)
---------------------------------
  C     -5.768310    7.162710   -6.125460
  C     -4.639020    7.854370   -5.766720
  C     -4.304050    9.131000   -6.263740
  N     -3.980380   10.169530   -6.628980
  C     -3.632870    7.329590   -4.936500
  N     -2.793460    6.923900   -4.265210
  C     -6.679650    7.553680   -7.197280
  C     -7.417970    6.404760   -7.606640
  C     -8.316790    6.457650   -8.632670
  C     -8.527550    7.684730   -9.301470
  C     -7.807490    8.840970   -8.883390
  C     -6.879590    8.755820   -7.819270
  C     -8.031000   10.059680   -9.555090
  C     -8.918880   10.134030  -10.593800
  C     -9.626360    8.995020  -11.005710
  C     -9.435230    7.796590  -10.372970
  C     -7.046040    5.260550   -6.757870
  O     -7.427080    4.114760   -6.832690
  C     -6.127060    5.822320   -5.723630
  C     -5.870430    5.080000   -4.609800
  C     -5.366570    5.501030   -3.364450
  S     -4.771800    4.340330   -2.183980
  C     -4.364310    5.543290   -0.981640
  C     -4.722720    6.770230   -1.494220
  C     -5.263980    6.749680   -2.786910
  O     -5.587180    8.024700   -3.129810
  C     -5.229360    8.803550   -2.078200
  S     -5.424780   10.402510   -2.036740
  O     -4.704770    8.070590   -1.075010
  C     -3.724480    5.230130    0.259270
  C     -3.364690    6.248470    1.116370
  C     -2.671700    5.950050    2.303420
  C     -2.155150    6.772020    3.296620
  C     -2.239040    8.254810    3.417630
  C     -1.482930    8.954730    2.268790
  N     -1.068330   10.271570    2.709160
  C     -3.702280    8.728670    3.502750
  N     -3.759770   10.133810    3.872950
  C     -1.457640    5.909310    4.222440
  C     -0.714340    6.192820    5.308220
  C      0.013070    5.129300    6.050260
  C     -0.279990    3.729020    5.590560
  C     -1.038180    3.465100    4.512500
  C     -1.618700    4.520550    3.767700
  C     -2.351890    4.556360    2.601810
  C     -2.772040    3.533920    1.716320
  C     -3.434550    3.863310    0.581950
  C     -0.139410    5.192380    7.541600
  C     -1.067610    5.895730    8.198430
  C     -1.159930    5.883440    9.627060
  S     -2.294140    6.881390   10.504140
  C     -1.753880    6.351240   12.091910
  C     -0.761530    5.415680   11.896190
  C     -0.435850    5.168360   10.549940
  O      0.528680    4.205910   10.527670
  C      0.752730    3.865480   11.820230
  S      1.806960    2.739930   12.284710
  O     -0.030180    4.573860   12.662070
  C     -2.351090    6.839390   13.279240
  C     -1.723570    6.896520   14.486930
  C     -2.327860    7.194280   15.773840
  C     -3.669320    7.274820   16.041300
  C     -4.206200    7.540810   17.318910
  N     -4.703680    7.759210   18.329860
  C     -4.695440    7.087340   15.091850
  N     -5.578300    6.933250   14.373930
  C     -1.254040    7.308350   16.752340
  C     -0.010120    7.080770   16.095920
  C     -0.244440    6.842330   14.664920
  O      0.593310    6.748820   13.793890
  C      1.178180    7.110810   16.767350
  C      1.177620    7.369680   18.156020
  C     -0.060930    7.609300   18.819340
  C     -1.275260    7.575610   18.096370
  C     -0.048600    7.877070   20.203490
  C      1.128630    7.903190   20.900770
  C      2.346680    7.662880   20.247360
  C      2.370760    7.401350   18.904110
  H     -8.858310    5.573230   -8.933950
  H     -6.356070    9.648790   -7.515520
  H     -7.481750   10.933230   -9.236060
  H     -9.080110   11.071530  -11.104590
  H    -10.323460    9.071570  -11.826750
  H     -9.977370    6.916040  -10.685510
  H     -6.155080    4.034680   -4.673780
  H     -3.587190    7.270860    0.859350
  H     -1.738960    8.562610    4.341390
  H     -2.121320    8.969280    1.371990
  H     -0.582700    8.377840    2.028650
  H     -1.897340   10.801300    2.967380
  H     -0.593170   10.762550    1.959860
  H     -4.240200    8.071760    4.209250
  H     -4.182110    8.627310    2.527270
  H     -3.429230   10.262710    4.823970
  H     -4.713360   10.474890    3.824470
  H     -0.560580    7.208140    5.647670
  H      1.085540    5.308530    5.847880
  H      0.171220    2.937610    6.168240
  H     -1.209080    2.445890    4.198540
  H     -2.547730    2.503890    1.948810
  H     -3.754340    3.104910   -0.117400
  H      0.553630    4.576880    8.098340
  H     -1.786380    6.513010    7.680260
  H     -3.367880    7.195230   13.177720
  H      2.106460    6.931060   16.245720
  H     -2.194660    7.766780   18.626740
  H     -0.988860    8.059230   20.702800
  H      1.127600    8.107960   21.960740
  H      3.265770    7.686010   20.813470
  H      3.305330    7.215370   18.395530

 Total Charge           Charge          ....    0
 Multiplicity           Mult            ....    1
 Number of Electrons    NEL             ....  558
 Basis Dimension        Dim             .... 1268

ORBITAL ENERGIES
----------------

  NO   OCC          E(Eh)            E(eV)
   0   2.0000     -88.989119     -2421.5170
   1   2.0000     -88.981893     -2421.3204
   2   2.0000     -88.896496     -2418.9966
   3   2.0000     -88.895801     -2418.9777
   4   2.0000     -19.328809      -525.9636
   5   2.0000     -19.327470      -525.9272
   6   2.0000     -19.327304      -525.9227
   7   2.0000     -19.325262      -525.8671
   8   2.0000     -19.219540      -522.9903
   9   2.0000     -19.212392      -522.7958
  10   2.0000     -14.420474      -392.4011
  11   2.0000     -14.418049      -392.3351
  12   2.0000     -14.414883      -392.2489
  13   2.0000     -14.410363      -392.1259
  14   2.0000     -14.391390      -391.6096
  15   2.0000     -14.355404      -390.6304
  16   2.0000     -10.449230      -284.3380
  17   2.0000     -10.448266      -284.3118
  18   2.0000     -10.375620      -282.3350
  19   2.0000     -10.371227      -282.2154
  20   2.0000     -10.370021      -282.1826
  21   2.0000     -10.365533      -282.0605
  22   2.0000     -10.363355      -282.0012
  23   2.0000     -10.359743      -281.9029
  24   2.0000     -10.346491      -281.5423
  25   2.0000     -10.346022      -281.5296
  26   2.0000     -10.344833      -281.4972
  27   2.0000     -10.339527      -281.3528
  28   2.0000     -10.338791      -281.3328
  29   2.0000     -10.337527      -281.2984
  30   2.0000     -10.336419      -281.2682
  31   2.0000     -10.332978      -281.1746
  32   2.0000     -10.332538      -281.1626
  33   2.0000     -10.324773      -280.9514
  34   2.0000     -10.323042      -280.9042
  35   2.0000     -10.320658      -280.8394
  36   2.0000     -10.316323      -280.7214
  37   2.0000     -10.312815      -280.6260
  38   2.0000     -10.312703      -280.6229
  39   2.0000     -10.310517      -280.5634
  40   2.0000     -10.309132      -280.5258
  41   2.0000     -10.307935      -280.4932
  42   2.0000     -10.307327      -280.4766
  43   2.0000     -10.305406      -280.4244
  44   2.0000     -10.299798      -280.2717
  45   2.0000     -10.299653      -280.2678
  46   2.0000     -10.299449      -280.2622
  47   2.0000     -10.299194      -280.2553
  48   2.0000     -10.299127      -280.2535
  49   2.0000     -10.298705      -280.2420
  50   2.0000     -10.298328      -280.2318
  51   2.0000     -10.293936      -280.1122
  52   2.0000     -10.293843      -280.1097
  53   2.0000     -10.293499      -280.1003
  54   2.0000     -10.291775      -280.0534
  55   2.0000     -10.290822      -280.0275
  56   2.0000     -10.289416      -279.9892
  57   2.0000     -10.288293      -279.9587
  58   2.0000     -10.287694      -279.9424
  59   2.0000     -10.287527      -279.9379
  60   2.0000     -10.287110      -279.9265
  61   2.0000     -10.285595      -279.8853
  62   2.0000     -10.285564      -279.8844
  63   2.0000     -10.284972      -279.8683
  64   2.0000     -10.283118      -279.8179
  65   2.0000     -10.282635      -279.8047
  66   2.0000     -10.282511      -279.8013
  67   2.0000     -10.282265      -279.7947
  68   2.0000     -10.281853      -279.7835
  69   2.0000     -10.281528      -279.7746
  70   2.0000     -10.281317      -279.7689
  71   2.0000     -10.280922      -279.7581
  72   2.0000     -10.274919      -279.5948
  73   2.0000     -10.273633      -279.5598
  74   2.0000     -10.272660      -279.5333
  75   2.0000     -10.272121      -279.5186
  76   2.0000     -10.272033      -279.5162
  77   2.0000     -10.268041      -279.4076
  78   2.0000      -8.084062      -219.9785
  79   2.0000      -8.076586      -219.7751
  80   2.0000      -7.994664      -217.5459
  81   2.0000      -7.993792      -217.5221
  82   2.0000      -6.053652      -164.7282
  83   2.0000      -6.049667      -164.6198
  84   2.0000      -6.046195      -164.5253
  85   2.0000      -6.045444      -164.5049
  86   2.0000      -6.042198      -164.4166
  87   2.0000      -6.037931      -164.3005
  88   2.0000      -5.964536      -162.3033
  89   2.0000      -5.963647      -162.2791
  90   2.0000      -5.961034      -162.2080
  91   2.0000      -5.960166      -162.1844
  92   2.0000      -5.954508      -162.0304
  93   2.0000      -5.953696      -162.0083
  94   2.0000      -1.297245       -35.2998
  95   2.0000      -1.294970       -35.2379
  96   2.0000      -1.188383       -32.3375
  97   2.0000      -1.186384       -32.2832
  98   2.0000      -1.134739       -30.8778
  99   2.0000      -1.127526       -30.6815
 100   2.0000      -1.024051       -27.8659
 101   2.0000      -1.020875       -27.7794
 102   2.0000      -1.020409       -27.7667
 103   2.0000      -1.012340       -27.5472
 104   2.0000      -1.001495       -27.2521
 105   2.0000      -0.997504       -27.1435
 106   2.0000      -0.995792       -27.0969
 107   2.0000      -0.993340       -27.0301
 108   2.0000      -0.990173       -26.9440
 109   2.0000      -0.974609       -26.5205
 110   2.0000      -0.974192       -26.5091
 111   2.0000      -0.968388       -26.3512
 112   2.0000      -0.959509       -26.1096
 113   2.0000      -0.939127       -25.5550
 114   2.0000      -0.936500       -25.4835
 115   2.0000      -0.929333       -25.2884
 116   2.0000      -0.922695       -25.1078
 117   2.0000      -0.917870       -24.9765
 118   2.0000      -0.912908       -24.8415
 119   2.0000      -0.911615       -24.8063
 120   2.0000      -0.901569       -24.5329
 121   2.0000      -0.896048       -24.3827
 122   2.0000      -0.885161       -24.0864
 123   2.0000      -0.883561       -24.0429
 124   2.0000      -0.880740       -23.9662
 125   2.0000      -0.877368       -23.8744
 126   2.0000      -0.869897       -23.6711
 127   2.0000      -0.852518       -23.1982
 128   2.0000      -0.846136       -23.0245
 129   2.0000      -0.837654       -22.7937
 130   2.0000      -0.830539       -22.6001
 131   2.0000      -0.829725       -22.5780
 132   2.0000      -0.826212       -22.4824
 133   2.0000      -0.824706       -22.4414
 134   2.0000      -0.822273       -22.3752
 135   2.0000      -0.811493       -22.0818
 136   2.0000      -0.794216       -21.6117
 137   2.0000      -0.789539       -21.4844
 138   2.0000      -0.768153       -20.9025
 139   2.0000      -0.764692       -20.8083
 140   2.0000      -0.763498       -20.7758
 141   2.0000      -0.757571       -20.6145
 142   2.0000      -0.746205       -20.3053
 143   2.0000      -0.739770       -20.1302
 144   2.0000      -0.739269       -20.1165
 145   2.0000      -0.731155       -19.8957
 146   2.0000      -0.722706       -19.6658
 147   2.0000      -0.717685       -19.5292
 148   2.0000      -0.708373       -19.2758
 149   2.0000      -0.706020       -19.2118
 150   2.0000      -0.705858       -19.2074
 151   2.0000      -0.699033       -19.0217
 152   2.0000      -0.698177       -18.9984
 153   2.0000      -0.695605       -18.9284
 154   2.0000      -0.688335       -18.7306
 155   2.0000      -0.681557       -18.5461
 156   2.0000      -0.679531       -18.4910
 157   2.0000      -0.677418       -18.4335
 158   2.0000      -0.675336       -18.3768
 159   2.0000      -0.671994       -18.2859
 160   2.0000      -0.662771       -18.0349
 161   2.0000      -0.648050       -17.6343
 162   2.0000      -0.645329       -17.5603
 163   2.0000      -0.635933       -17.3046
 164   2.0000      -0.632131       -17.2011
 165   2.0000      -0.627428       -17.0732
 166   2.0000      -0.626783       -17.0556
 167   2.0000      -0.624594       -16.9961
 168   2.0000      -0.615349       -16.7445
 169   2.0000      -0.612404       -16.6644
 170   2.0000      -0.608760       -16.5652
 171   2.0000      -0.606222       -16.4961
 172   2.0000      -0.603500       -16.4221
 173   2.0000      -0.600497       -16.3404
 174   2.0000      -0.594632       -16.1807
 175   2.0000      -0.586231       -15.9522
 176   2.0000      -0.580908       -15.8073
 177   2.0000      -0.568982       -15.4828
 178   2.0000      -0.565036       -15.3754
 179   2.0000      -0.564495       -15.3607
 180   2.0000      -0.562217       -15.2987
 181   2.0000      -0.557612       -15.1734
 182   2.0000      -0.549503       -14.9527
 183   2.0000      -0.548445       -14.9240
 184   2.0000      -0.547187       -14.8897
 185   2.0000      -0.542940       -14.7741
 186   2.0000      -0.542098       -14.7512
 187   2.0000      -0.539832       -14.6896
 188   2.0000      -0.538857       -14.6630
 189   2.0000      -0.535039       -14.5591
 190   2.0000      -0.532610       -14.4931
 191   2.0000      -0.531022       -14.4498
 192   2.0000      -0.527673       -14.3587
 193   2.0000      -0.525870       -14.3096
 194   2.0000      -0.523767       -14.2524
 195   2.0000      -0.523525       -14.2458
 196   2.0000      -0.519406       -14.1337
 197   2.0000      -0.518090       -14.0980
 198   2.0000      -0.516895       -14.0654
 199   2.0000      -0.515049       -14.0152
 200   2.0000      -0.514667       -14.0048
 201   2.0000      -0.512467       -13.9449
 202   2.0000      -0.511633       -13.9223
 203   2.0000      -0.510273       -13.8852
 204   2.0000      -0.508254       -13.8303
 205   2.0000      -0.507748       -13.8165
 206   2.0000      -0.505986       -13.7686
 207   2.0000      -0.505583       -13.7576
 208   2.0000      -0.502803       -13.6820
 209   2.0000      -0.501648       -13.6505
 210   2.0000      -0.498275       -13.5587
 211   2.0000      -0.495712       -13.4890
 212   2.0000      -0.494437       -13.4543
 213   2.0000      -0.491324       -13.3696
 214   2.0000      -0.487812       -13.2740
 215   2.0000      -0.487118       -13.2551
 216   2.0000      -0.485879       -13.2214
 217   2.0000      -0.484363       -13.1802
 218   2.0000      -0.482820       -13.1382
 219   2.0000      -0.479266       -13.0415
 220   2.0000      -0.477878       -13.0037
 221   2.0000      -0.471878       -12.8405
 222   2.0000      -0.471763       -12.8373
 223   2.0000      -0.468287       -12.7427
 224   2.0000      -0.466721       -12.7001
 225   2.0000      -0.463000       -12.5989
 226   2.0000      -0.461485       -12.5577
 227   2.0000      -0.452800       -12.3213
 228   2.0000      -0.452154       -12.3037
 229   2.0000      -0.449482       -12.2310
 230   2.0000      -0.447892       -12.1878
 231   2.0000      -0.447713       -12.1829
 232   2.0000      -0.445627       -12.1261
 233   2.0000      -0.442833       -12.0501
 234   2.0000      -0.442235       -12.0338
 235   2.0000      -0.437636       -11.9087
 236   2.0000      -0.436609       -11.8807
 237   2.0000      -0.436337       -11.8733
 238   2.0000      -0.435504       -11.8507
 239   2.0000      -0.434335       -11.8189
 240   2.0000      -0.430255       -11.7078
 241   2.0000      -0.428963       -11.6727
 242   2.0000      -0.427365       -11.6292
 243   2.0000      -0.423740       -11.5306
 244   2.0000      -0.422838       -11.5060
 245   2.0000      -0.420375       -11.4390
 246   2.0000      -0.416332       -11.3290
 247   2.0000      -0.415694       -11.3116
 248   2.0000      -0.413813       -11.2604
 249   2.0000      -0.411173       -11.1886
 250   2.0000      -0.406399       -11.0587
 251   2.0000      -0.404735       -11.0134
 252   2.0000      -0.399787       -10.8788
 253   2.0000      -0.395971       -10.7749
 254   2.0000      -0.393259       -10.7011
 255   2.0000      -0.379390       -10.3237
 256   2.0000      -0.377684       -10.2773
 257   2.0000      -0.375867       -10.2279
 258   2.0000      -0.374323       -10.1858
 259   2.0000      -0.369653       -10.0588
 260   2.0000      -0.362715        -9.8700
 261   2.0000      -0.350224        -9.5301
 262   2.0000      -0.343331        -9.3425
 263   2.0000      -0.342085        -9.3086
 264   2.0000      -0.335126        -9.1192
 265   2.0000      -0.325960        -8.8698
 266   2.0000      -0.319255        -8.6874
 267   2.0000      -0.312913        -8.5148
 268   2.0000      -0.312593        -8.5061
 269   2.0000      -0.308493        -8.3945
 270   2.0000      -0.307054        -8.3554
 271   2.0000      -0.304269        -8.2796
 272   2.0000      -0.301829        -8.2132
 273   2.0000      -0.298068        -8.1108
 274   2.0000      -0.291539        -7.9332
 275   2.0000      -0.285637        -7.7726
 276   2.0000      -0.284718        -7.7476
 277   2.0000      -0.280190        -7.6244
 278   2.0000      -0.231165        -6.2903
 279   0.0000      -0.102142        -2.7794
 280   0.0000      -0.096958        -2.6384
 281   0.0000      -0.074228        -2.0198
 282   0.0000      -0.062285        -1.6949
 283   0.0000      -0.053633        -1.4594

MULLIKEN ATOMIC CHARGES
-----------------------
   0 C :    0.282439
   1 C :   -0.317785
   2 C :   -0.171719
   3 N :    0.158348
   4 C :   -0.215180
   5 N :    0.162169
   6 C :    0.033412
   7 C :    0.010242
   8 C :   -0.077675
   9 C :    0.092431
  10 C :    0.091304
  11 C :   -0.078138
  12 C :   -0.015396
  13 C :    0.035926
  14 C :    0.032987
  15 C :   -0.014423
  16 C :    0.136829
  17 O :   -0.143583
  18 C :   -0.137721
  19 C :    0.101077
  20 C :   -0.193026
  21 S :    0.161001
  22 C :   -0.158354
  23 C :    0.174996
  24 C :    0.187719
  25 O :   -0.175984
  26 C :    0.245356
  27 S :   -0.141179
  28 O :   -0.182596
  29 C :    0.168161
  30 C :   -0.115967
  31 C :    0.051161
  32 C :   -0.019683
  33 C :   -0.055220
  34 C :    0.151658
  35 N :   -0.227626
  36 C :    0.140850
  37 N :   -0.216736
  38 C :    0.096813
  39 C :   -0.149743
  40 C :    0.176468
  41 C :   -0.046276
  42 C :    0.023210
  43 C :    0.018065
  44 C :    0.025760
  45 C :    0.003854
  46 C :   -0.046881
  47 C :   -0.105970
  48 C :    0.097652
  49 C :   -0.164373
  50 S :    0.170039
  51 C :   -0.215838
  52 C :    0.234251
  53 C :    0.157453
  54 O :   -0.183913
  55 C :    0.241079
  56 S :   -0.149597
  57 O :   -0.147731
  58 C :    0.049554
  59 C :   -0.092187
  60 C :    0.312922
  61 C :   -0.343087
  62 C :   -0.181599
  63 N :    0.151288
  64 C :   -0.199198
  65 N :    0.158475
  66 C :    0.050844
  67 C :   -0.007342
  68 C :    0.146739
  69 O :   -0.149340
  70 C :   -0.073457
  71 C :    0.096331
  72 C :    0.096531
  73 C :   -0.083183
  74 C :   -0.017881
  75 C :    0.035419
  76 C :    0.036881
  77 C :   -0.014878
  78 H :   -0.013590
  79 H :   -0.003543
  80 H :   -0.010152
  81 H :   -0.005785
  82 H :   -0.005290
  83 H :   -0.019022
  84 H :    0.020159
  85 H :   -0.011431
  86 H :   -0.039303
  87 H :   -0.013194
  88 H :   -0.002910
  89 H :    0.083829
  90 H :    0.084759
  91 H :   -0.006495
  92 H :   -0.004514
  93 H :    0.099259
  94 H :    0.100916
  95 H :    0.008056
  96 H :    0.060550
  97 H :   -0.004360
  98 H :   -0.030951
  99 H :   -0.030716
 100 H :   -0.014504
 101 H :    0.030098
 102 H :   -0.009687
 103 H :    0.022920
 104 H :   -0.011350
 105 H :   -0.008104
 106 H :   -0.009588
 107 H :   -0.002954
 108 H :   -0.004032
 109 H :   -0.016301
Sum of atomic charges:   -0.0000000

LOEWDIN ATOMIC CHARGES
----------------------
   0 C :    0.064650
   1 C :   -0.133614
   2 C :   -0.017247
   3 N :   -0.048751
   4 C :   -0.019644
   5 N :   -0.054868
   6 C :   -0.020778
   7 C :   -0.058747
   8 C :    0.032938
   9 C :   -0.010401
  10 C :   -0.004934
  11 C :    0.015967
  12 C :   -0.006095
  13 C :   -0.013418
  14 C :   -0.014579
  15 C :   -0.009498
  16 C :    0.083902
  17 O :   -0.144664
  18 C :   -0.086925
  19 C :    0.042876
  20 C :   -0.204190
  21 S :    0.469988
  22 C :   -0.147782
  23 C :   -0.007887
  24 C :    0.018329
  25 O :   -0.000008
  26 C :   -0.063155
  27 S :    0.021196
  28 O :   -0.010488
  29 C :   -0.048459
  30 C :    0.007597
  31 C :   -0.021420
  32 C :   -0.017813
  33 C :   -0.042253
  34 C :    0.033174
  35 N :   -0.131146
  36 C :    0.027878
  37 N :   -0.099498
  38 C :   -0.013145
  39 C :    0.063848
  40 C :   -0.031838
  41 C :   -0.027550
  42 C :   -0.014447
  43 C :   -0.035097
  44 C :   -0.028211
  45 C :    0.000921
  46 C :   -0.036324
  47 C :    0.024188
  48 C :   -0.055237
  49 C :   -0.166735
  50 S :    0.462488
  51 C :   -0.204162
  52 C :    0.028974
  53 C :   -0.012803
  54 O :   -0.016894
  55 C :   -0.060548
  56 S :    0.016102
  57 O :    0.013190
  58 C :    0.047293
  59 C :   -0.084686
  60 C :    0.075009
  61 C :   -0.136236
  62 C :   -0.017428
  63 N :   -0.050302
  64 C :   -0.022013
  65 N :   -0.050544
  66 C :   -0.026701
  67 C :   -0.054172
  68 C :    0.080478
  69 O :   -0.138206
  70 C :    0.034337
  71 C :   -0.007343
  72 C :   -0.006198
  73 C :    0.020731
  74 C :   -0.004865
  75 C :   -0.012827
  76 C :   -0.010886
  77 C :   -0.008823
  78 H :    0.038795
  79 H :    0.039581
  80 H :    0.034603
  81 H :    0.032776
  82 H :    0.032355
  83 H :    0.031321
  84 H :    0.048050
  85 H :    0.025285
  86 H :    0.019758
  87 H :    0.001061
  88 H :    0.016611
  89 H :    0.035895
  90 H :    0.051283
  91 H :    0.002037
  92 H :    0.018416
  93 H :    0.055478
  94 H :    0.059493
  95 H :    0.033481
  96 H :    0.074481
  97 H :    0.027203
  98 H :    0.031888
  99 H :    0.030431
 100 H :    0.020574
 101 H :    0.033826
 102 H :    0.031944
 103 H :    0.046579
 104 H :    0.040038
 105 H :    0.039048
 106 H :    0.034757
 107 H :    0.033727
 108 H :    0.033240
 109 H :    0.032412

  Mayer bond orders larger than 0.100000
B(  0-C ,  1-C ) :   1.6387 B(  0-C ,  6-C ) :   0.9991 B(  0-C , 18-C ) :   1.0525
B(  1-C ,  2-C ) :   1.1363 B(  1-C ,  4-C ) :   1.1741 B(  2-C ,  3-N ) :   2.9866
B(  4-C ,  5-N ) :   2.9885 B(  6-C ,  7-C ) :   1.2138 B(  6-C , 11-C ) :   1.4626
B(  7-C ,  8-C ) :   1.4735 B(  7-C , 16-C ) :   0.9240 B(  8-C ,  9-C ) :   1.1845
B(  8-C , 78-H ) :   1.0156 B(  9-C , 10-C ) :   1.2588 B(  9-C , 15-C ) :   1.2433
B( 10-C , 11-C ) :   1.2004 B( 10-C , 12-C ) :   1.2440 B( 11-C , 79-H ) :   0.9929
B( 12-C , 13-C ) :   1.4876 B( 12-C , 80-H ) :   0.9975 B( 13-C , 14-C ) :   1.2607
B( 13-C , 81-H ) :   0.9888 B( 14-C , 15-C ) :   1.4889 B( 14-C , 82-H ) :   0.9894
B( 15-C , 83-H ) :   0.9976 B( 16-C , 17-O ) :   2.2689 B( 16-C , 18-C ) :   0.9376
B( 18-C , 19-C ) :   1.6436 B( 19-C , 20-C ) :   1.1646 B( 19-C , 84-H ) :   0.9285
B( 20-C , 21-S ) :   1.0725 B( 20-C , 24-C ) :   1.4586 B( 21-S , 22-C ) :   1.1140
B( 22-C , 23-C ) :   1.5040 B( 22-C , 29-C ) :   1.0942 B( 23-C , 24-C ) :   1.2686
B( 23-C , 28-O ) :   1.0499 B( 24-C , 25-O ) :   1.0827 B( 25-O , 26-C ) :   1.0690
B( 26-C , 27-S ) :   1.8102 B( 26-C , 28-O ) :   1.0997 B( 29-C , 30-C ) :   1.5242
B( 29-C , 46-C ) :   1.0846 B( 30-C , 31-C ) :   1.1357 B( 30-C , 85-H ) :   0.9819
B( 31-C , 32-C ) :   1.4665 B( 31-C , 44-C ) :   1.1131 B( 32-C , 33-C ) :   1.0267
B( 32-C , 38-C ) :   1.1131 B( 33-C , 34-C ) :   1.0241 B( 33-C , 36-C ) :   1.0398
B( 33-C , 86-H ) :   0.8769 B( 34-C , 35-N ) :   1.1104 B( 34-C , 87-H ) :   0.9270
B( 34-C , 88-H ) :   0.9460 B( 35-N , 89-H ) :   0.9419 B( 35-N , 90-H ) :   0.9664
B( 36-C , 37-N ) :   1.0855 B( 36-C , 91-H ) :   0.9469 B( 36-C , 92-H ) :   0.9324
B( 37-N , 93-H ) :   0.9642 B( 37-N , 94-H ) :   0.9664 B( 38-C , 39-C ) :   1.6577
B( 38-C , 43-C ) :   1.0503 B( 39-C , 40-C ) :   0.9758 B( 39-C , 95-H ) :   0.9676
B( 40-C , 41-C ) :   0.9806 B( 40-C , 47-C ) :   0.9561 B( 40-C , 96-H ) :   0.8306
B( 41-C , 42-C ) :   1.7416 B( 41-C , 97-H ) :   0.9683 B( 42-C , 43-C ) :   1.1264
B( 42-C , 98-H ) :   0.9888 B( 43-C , 44-C ) :   1.4522 B( 44-C , 45-C ) :   1.1381
B( 45-C , 46-C ) :   1.6278 B( 45-C , 99-H ) :   0.9914 B( 46-C ,100-H ) :   0.9842
B( 47-C , 48-C ) :   1.8355 B( 47-C ,101-H ) :   0.9644 B( 48-C , 49-C ) :   1.0846
B( 48-C ,102-H ) :   0.9477 B( 49-C , 50-S ) :   1.1170 B( 49-C , 53-C ) :   1.5047
B( 50-S , 51-C ) :   1.0730 B( 51-C , 52-C ) :   1.4733 B( 51-C , 58-C ) :   1.1615
B( 52-C , 53-C ) :   1.2609 B( 52-C , 57-O ) :   1.0989 B( 53-C , 54-O ) :   1.0615
B( 54-O , 55-C ) :   1.0858 B( 55-C , 56-S ) :   1.8047 B( 55-C , 57-O ) :   1.0958
B( 58-C , 59-C ) :   1.6230 B( 58-C ,103-H ) :   0.9324 B( 59-C , 60-C ) :   1.0651
B( 59-C , 68-C ) :   0.9427 B( 60-C , 61-C ) :   1.6426 B( 60-C , 66-C ) :   0.9958
B( 61-C , 62-C ) :   1.1432 B( 61-C , 64-C ) :   1.1427 B( 62-C , 63-N ) :   2.9655
B( 64-C , 65-N ) :   2.9808 B( 66-C , 67-C ) :   1.2147 B( 66-C , 73-C ) :   1.4453
B( 67-C , 68-C ) :   0.9435 B( 67-C , 70-C ) :   1.4738 B( 68-C , 69-O ) :   2.2130
B( 70-C , 71-C ) :   1.1787 B( 70-C ,104-H ) :   1.0170 B( 71-C , 72-C ) :   1.2557
B( 71-C , 77-C ) :   1.2443 B( 72-C , 73-C ) :   1.2080 B( 72-C , 74-C ) :   1.2386
B( 73-C ,105-H ) :   0.9900 B( 74-C , 75-C ) :   1.4893 B( 74-C ,106-H ) :   0.9977
B( 75-C , 76-C ) :   1.2597 B( 75-C ,107-H ) :   0.9886 B( 76-C , 77-C ) :   1.4875
B( 76-C ,108-H ) :   0.9894 B( 77-C ,109-H ) :   0.9984

-----------------------------------------------------------------------------
         ABSORPTION SPECTRUM VIA TRANSITION ELECTRIC DIPOLE MOMENTS
-----------------------------------------------------------------------------
State   Energy  Wavelength   fosc         T2         TX        TY        TZ
        (cm-1)    (nm)                  (au**2)     (au)      (au)      (au)
-----------------------------------------------------------------------------
   0   13458.9    743.0   0.082594606   2.02031  -0.35151  -0.68297  -1.19595
   1   17402.3    574.6   0.169724090   3.21080  -0.31238   0.14976  -1.75806
   2   17987.8    555.9   0.566065763  10.36013  -1.07450   0.97644  -2.87265
   3   22881.2    437.0   1.220374689  17.55859  -0.30834   0.66710   4.12535
   4   23491.8    425.7   0.260379218   3.64893  -1.09725   0.77755  -1.35661
   5   24736.0    404.3   0.023615589   0.31430  -0.04500  -0.38908   0.40112
   6   25716.8    388.9   0.106182171   1.35929   0.56635   0.10112   1.01406
   7   25788.6    387.8   0.009692516   0.12373   0.06247  -0.32765   0.11171
   8   26417.0    378.5   0.172444329   2.14903  -0.60437   0.49379  -1.24094
   9   26700.1    374.5   0.175213800   2.16039   0.40984   0.49651   1.32132
  10   27083.5    369.2   0.332880033   4.04630  -1.26404   0.43103  -1.50423
  11   27495.4    363.7   0.011190307   0.13399   0.07303  -0.33598  -0.12557
  12   27705.8    360.9   0.000317810   0.00378   0.03030  -0.04781  -0.02393
  13   27729.1    360.6   0.001016632   0.01207   0.00043   0.09157   0.06071
  14   28121.9    355.6   0.141575535   1.65737  -0.16250   0.46093   1.19101
  15   28536.7    350.4   0.052691344   0.60787  -0.59605  -0.23994  -0.44161
  16   28710.5    348.3   0.105782725   1.21297   0.14891   0.75942   0.78363
  17   28801.1    347.2   0.089711354   1.02545  -1.00045  -0.12940   0.08838
  18   29564.7    338.2   0.005689968   0.06336  -0.20178  -0.04075  -0.14486
  19   29837.9    335.1   0.008753526   0.09658  -0.26883  -0.01329  -0.15536
  20   29957.0    333.8   0.000724653   0.00796  -0.08403  -0.01395   0.02662
  21   30572.8    327.1   0.022732548   0.24479   0.26882   0.05603   0.41157
  22   30681.4    325.9   0.002607630   0.02798   0.11894   0.09710   0.06637
  23   30923.9    323.4   0.400160747   4.26006   1.27112  -0.11884   1.62179
  24   31079.6    321.8   0.133736257   1.41661  -0.54670  -0.59187  -0.87602
  25   31467.2    317.8   0.125431908   1.31228   0.62883   0.16110   0.94387
  26   31735.0    315.1   0.001046644   0.01086  -0.06038  -0.01928  -0.08271
  27   33106.6    302.1   0.196992351   1.95889  -1.09620   0.31733  -0.81028
  28   33202.4    301.2   0.582123209   5.77192   1.98369   0.14686   1.34734
  29   33352.3    299.8   0.573580558   5.66166   1.61053   0.05049   1.75080
  30   34178.4    292.6   0.018802474   0.18111   0.16477  -0.34496   0.18698
  31   34324.0    291.3   0.209792031   2.01218   0.70934  -0.72157   0.99416
  32   34655.4    288.6   0.005408281   0.05138   0.14055  -0.05182   0.17011
  33   34729.1    287.9   0.004324374   0.04099   0.09463   0.05332  -0.17086
  34   35246.5    283.7   0.006994668   0.06533   0.04532   0.08089   0.23819
  35   35339.6    283.0   0.045502079   0.42388   0.22563   0.25396   0.55540
  36   35730.7    279.9   0.000140102   0.00129   0.01495   0.00488   0.03230
  37   35774.4    279.5   0.000431979   0.00398  -0.02492  -0.01111  -0.05684
  38   35844.1    279.0   0.032334240   0.29698   0.38873  -0.37941   0.04375
  39   36187.9    276.3   0.003120740   0.02839  -0.12725   0.10727   0.02627
  40   36267.7    275.7   0.008503991   0.07719  -0.12168   0.19869   0.15136
  41   36324.4    275.3   0.002448026   0.02219   0.00562  -0.14872  -0.00606
  42   36436.3    274.5   0.000703375   0.00636   0.06585  -0.04213  -0.01563
  43   36926.8    270.8   0.034755190   0.30985   0.38814  -0.00803   0.39892
  44   37033.8    270.0   0.003705809   0.03294   0.10724  -0.05402   0.13611
  45   37103.4    269.5   0.001739101   0.01543  -0.08159   0.01341  -0.09271
  46   37292.9    268.1   0.057164195   0.50463  -0.40625   0.02708  -0.58212
  47   37436.7    267.1   0.040152935   0.35310  -0.22713  -0.17790  -0.51948
  48   37644.3    265.6   0.089952312   0.78666   0.47957  -0.25605   0.70079
  49   37660.7    265.5   0.009036090   0.07899  -0.15511   0.08490  -0.21845
  50   37934.2    263.6   0.000566109   0.00491  -0.02399  -0.02049   0.06259
  51   37989.1    263.2   0.004890317   0.04238   0.13852  -0.05144   0.14334
  52   38140.4    262.2   0.000029868   0.00026  -0.01358  -0.00403   0.00755
  53   38587.6    259.2   0.031432036   0.26816   0.50435   0.10367   0.05521
  54   38659.0    258.7   0.133315887   1.13529   0.37510  -0.03248  -0.99676
  55   38929.5    256.9   0.002264317   0.01915   0.12133  -0.06234  -0.02324
  56   39067.6    256.0   0.054342307   0.45793   0.22806   0.61226   0.17621
  57   39089.5    255.8   0.131317733   1.10596  -0.81921  -0.60910  -0.25268
  58   39381.4    253.9   0.253848697   2.12207   0.99476  -0.16080  -1.05198
  59   39672.7    252.1   0.041799770   0.34686   0.48803  -0.00593  -0.32963
  60   39827.6    251.1   0.001272903   0.01052  -0.10110   0.01592   0.00683
  61   40035.4    249.8   0.057614391   0.47376   0.57326  -0.11416  -0.36346
  62   40121.8    249.2   0.054333908   0.44583   0.22401   0.61904  -0.11150
  63   40189.8    248.8   0.005954624   0.04878   0.07684   0.20125  -0.04868
  64   40268.1    248.3   0.000599114   0.00490  -0.04283  -0.05514  -0.00482

FINAL SINGLE POINT ENERGY     -4749.850905592334

DIPOLE MOMENT
-------------
                                X             Y             Z
Electronic contribution:     -7.84737     -19.68877       7.72864
Nuclear contribution   :      8.10843      19.56566      -7.06989
                        -----------------------------------------
Total Dipole Moment    :      0.26106      -0.12311       0.65875
                        -----------------------------------------
Magnitude (a.u.)       :      0.71920
Magnitude (Debye)      :      1.82807

Rotational constants in cm-1:     0.002369     0.000164     0.000161
Rotational constants in MHz :    71.028222     4.928722     4.814768

                             ****ORCA TERMINATED NORMALLY****
TOTAL RUN TIME: 0 days 0 hours 21 minutes 15 seconds 417 msec
