                         Program Version 4.2.0 -  RELEASE  -
|  1> # ORCA input file
|  2> # SCF done       -202.107637412563          0.000587316234
|  3> ! CAM-B3LYP def2-SVP def2/J RIJCOSX Grid4 TightSCF
|  4> %maxcore 5000
|  5> %tddft
|  6>     Mode sTDDFT
|  7>     Ethresh 5.0
|  8>     maxcore 5000
|  9> end
| 10>
| 11> %pal
| 12>   nprocs 6
| 13>   end
| 14> * xyz 0 1
| 15>    C       -7.46155         6.95719        -5.21112
| 16>    C       -8.37558         6.49394        -4.29570
| 17>    C       -9.60394         5.89809        -4.64576
| 18>    N      -10.61257         5.40135        -4.87573
| 19>    C       -8.22680         6.66885        -2.90678
| 20>    N       -8.12821         6.80830        -1.77131
| 21>    C       -7.68005         7.05034        -6.65091
| 22>    C       -6.75265         7.99076        -7.18786
| 23>    C       -6.74143         8.30767        -8.51522
| 24>    C       -7.66256         7.67629        -9.38207
| 25>    C       -8.57913         6.72194        -8.85370
| 26>    C       -8.57532         6.42103        -7.47134
| 27>    C       -9.48455         6.09249        -9.73117
| 28>    C       -9.48864         6.39184       -11.06668
| 29>    C       -8.58729         7.33273       -11.58576
| 30>    C       -7.69397         7.96153       -10.76118
| 31>    C       -5.87745         8.48028        -6.10831
| 32>    O       -5.01216         9.32324        -6.16745
| 33>    C       -6.24191         7.66381        -4.91245
| 34>    C       -5.38985         7.64163        -3.84748
| 35>    C       -5.26041         6.68433        -2.82422
| 36>    S       -4.31315         7.06325        -1.39865
| 37>    C       -4.49068         5.47375        -0.70568
| 38>    C       -5.24370         4.70289        -1.57089
| 39>    C       -5.67386         5.36626        -2.73740
| 40>    S       -6.51288         4.25385        -3.77407
| 41>    C       -6.26548         2.96043        -2.56362
| 42>    S       -6.77980         1.43674        -2.72923
| 43>    O       -5.59881         3.39676        -1.49815
| 44>    C       -3.88524         5.12173         0.54676
| 45>    C       -3.08216         6.02964         1.20077
| 46>    C       -2.44266         5.66465         2.39844
| 47>    C       -1.56408         6.37016         3.20968
| 48>    C       -1.09500         7.76722         2.98895
| 49>    C       -1.28055         8.65786         4.23229
| 50>    N       -1.57313        10.01322         3.80837
| 51>    C        0.36482         7.77627         2.49622
| 52>    N        0.42315         7.20136         1.16648
| 53>    C       -1.16012         5.46794         4.26393
| 54>    C       -0.27788         5.60123         5.27188
| 55>    C        0.03392         4.47694         6.19927
| 56>    C       -0.78358         3.23864         5.97688
| 57>    C       -1.66915         3.12301         4.97106
| 58>    C       -1.87148         4.19195         4.06670
| 59>    C       -2.64460         4.32372         2.93313
| 60>    C       -3.50601         3.42813         2.25504
| 61>    C       -4.10321         3.81383         1.10104
| 62>    C       -0.12883         4.89679         7.63291
| 63>    C        0.78101         4.64217         8.57897
| 64>    C        0.63456         4.95051         9.96497
| 65>    S       -0.73390         5.79305        10.64304
| 66>    C       -0.09749         5.73727        12.27632
| 67>    C        1.10417         5.05296        12.25879
| 68>    C        1.51086         4.62996        10.97700
| 69>    S        3.01569         3.76361        11.09677
| 70>    C        2.97419         3.97823        12.86815
| 71>    S        4.08686         3.41011        13.89419
| 72>    O        1.89712         4.65499        13.26720
| 73>    C       -0.83263         6.26780        13.36304
| 74>    C       -0.29060         6.69560        14.53836
| 75>    C       -1.00495         7.01963        15.76062
| 76>    C       -2.34162         6.83159        15.99859
| 77>    C       -2.97923         7.14014        17.21902
| 78>    N       -3.56050         7.37458        18.18068
| 79>    C       -3.26480         6.29946        15.07460
| 80>    N       -4.06768         5.86517        14.37753
| 81>    C       -0.02957         7.51033        16.72635
| 82>    C        1.25716         7.51956        16.11469
| 83>    C        1.14231         7.05660        14.72457
| 84>    O        2.00547         7.07826        13.87292
| 85>    C        2.37533         7.91799        16.78876
| 86>    C        2.25791         8.32569        18.13642
| 87>    C        0.97371         8.32689        18.75434
| 88>    C       -0.16725         7.91555        18.02821
| 89>    C        0.86703         8.74036        20.09799
| 90>    C        1.97481         9.13093        20.80003
| 91>    C        3.23885         9.12679        20.19145
| 92>    C        3.37756         8.73259        18.88800
| 93>    H       -6.03693         9.02898        -8.90201
| 94>    H       -9.27311         5.68819        -7.09707
| 95>    H      -10.17835         5.37042        -9.32637
| 96>    H      -10.18728         5.90490       -11.73045
| 97>    H       -8.60353         7.55665       -12.64198
| 98>    H       -6.99697         8.68667       -11.15531
| 99>    H       -4.65053         8.43651        -3.83531
|100>    H       -2.92249         7.01142         0.77945
|101>    H       -1.70142         8.20995         2.19470
|102>    H       -0.39084         8.58629         4.88153
|103>    H       -2.14270         8.30174         4.80327
|104>    H       -0.79005        10.40947         3.30053
|105>    H       -1.76772        10.60931         4.60423
|106>    H        0.99893         7.25062         3.23206
|107>    H        0.71652         8.80926         2.42111
|108>    H        0.11056         6.23619         1.18617
|109>    H        1.36892         7.22212         0.80330
|110>    H        0.25833         6.52202         5.45123
|111>    H        1.09353         4.21484         6.04811
|112>    H       -0.61319         2.43411         6.67518
|113>    H       -2.22756         2.20875         4.83343
|114>    H       -3.67448         2.44133         2.65912
|115>    H       -4.75579         3.13610         0.57658
|116>    H       -1.06591         5.37214         7.88733
|117>    H        1.71362         4.15041         8.32933
|118>    H       -1.90239         6.32586        13.21097
|119>    H        3.33949         7.91244        16.30244
|120>    H       -1.12486         7.93146        18.52385
|121>    H       -0.10804         8.74005        20.56265
|122>    H        1.88308         9.44452        21.82910
|123>    H        4.10224         9.43732        20.76056
|124>    H        4.34835         8.72674        18.41450
|125> *
|126>
|127>                          ****END OF INPUT****

CARTESIAN COORDINATES (ANGSTROEM)
---------------------------------
  C     -7.461550    6.957190   -5.211120
  C     -8.375580    6.493940   -4.295700
  C     -9.603940    5.898090   -4.645760
  N    -10.612570    5.401350   -4.875730
  C     -8.226800    6.668850   -2.906780
  N     -8.128210    6.808300   -1.771310
  C     -7.680050    7.050340   -6.650910
  C     -6.752650    7.990760   -7.187860
  C     -6.741430    8.307670   -8.515220
  C     -7.662560    7.676290   -9.382070
  C     -8.579130    6.721940   -8.853700
  C     -8.575320    6.421030   -7.471340
  C     -9.484550    6.092490   -9.731170
  C     -9.488640    6.391840  -11.066680
  C     -8.587290    7.332730  -11.585760
  C     -7.693970    7.961530  -10.761180
  C     -5.877450    8.480280   -6.108310
  O     -5.012160    9.323240   -6.167450
  C     -6.241910    7.663810   -4.912450
  C     -5.389850    7.641630   -3.847480
  C     -5.260410    6.684330   -2.824220
  S     -4.313150    7.063250   -1.398650
  C     -4.490680    5.473750   -0.705680
  C     -5.243700    4.702890   -1.570890
  C     -5.673860    5.366260   -2.737400
  S     -6.512880    4.253850   -3.774070
  C     -6.265480    2.960430   -2.563620
  S     -6.779800    1.436740   -2.729230
  O     -5.598810    3.396760   -1.498150
  C     -3.885240    5.121730    0.546760
  C     -3.082160    6.029640    1.200770
  C     -2.442660    5.664650    2.398440
  C     -1.564080    6.370160    3.209680
  C     -1.095000    7.767220    2.988950
  C     -1.280550    8.657860    4.232290
  N     -1.573130   10.013220    3.808370
  C      0.364820    7.776270    2.496220
  N      0.423150    7.201360    1.166480
  C     -1.160120    5.467940    4.263930
  C     -0.277880    5.601230    5.271880
  C      0.033920    4.476940    6.199270
  C     -0.783580    3.238640    5.976880
  C     -1.669150    3.123010    4.971060
  C     -1.871480    4.191950    4.066700
  C     -2.644600    4.323720    2.933130
  C     -3.506010    3.428130    2.255040
  C     -4.103210    3.813830    1.101040
  C     -0.128830    4.896790    7.632910
  C      0.781010    4.642170    8.578970
  C      0.634560    4.950510    9.964970
  S     -0.733900    5.793050   10.643040
  C     -0.097490    5.737270   12.276320
  C      1.104170    5.052960   12.258790
  C      1.510860    4.629960   10.977000
  S      3.015690    3.763610   11.096770
  C      2.974190    3.978230   12.868150
  S      4.086860    3.410110   13.894190
  O      1.897120    4.654990   13.267200
  C     -0.832630    6.267800   13.363040
  C     -0.290600    6.695600   14.538360
  C     -1.004950    7.019630   15.760620
  C     -2.341620    6.831590   15.998590
  C     -2.979230    7.140140   17.219020
  N     -3.560500    7.374580   18.180680
  C     -3.264800    6.299460   15.074600
  N     -4.067680    5.865170   14.377530
  C     -0.029570    7.510330   16.726350
  C      1.257160    7.519560   16.114690
  C      1.142310    7.056600   14.724570
  O      2.005470    7.078260   13.872920
  C      2.375330    7.917990   16.788760
  C      2.257910    8.325690   18.136420
  C      0.973710    8.326890   18.754340
  C     -0.167250    7.915550   18.028210
  C      0.867030    8.740360   20.097990
  C      1.974810    9.130930   20.800030
  C      3.238850    9.126790   20.191450
  C      3.377560    8.732590   18.888000
  H     -6.036930    9.028980   -8.902010
  H     -9.273110    5.688190   -7.097070
  H    -10.178350    5.370420   -9.326370
  H    -10.187280    5.904900  -11.730450
  H     -8.603530    7.556650  -12.641980
  H     -6.996970    8.686670  -11.155310
  H     -4.650530    8.436510   -3.835310
  H     -2.922490    7.011420    0.779450
  H     -1.701420    8.209950    2.194700
  H     -0.390840    8.586290    4.881530
  H     -2.142700    8.301740    4.803270
  H     -0.790050   10.409470    3.300530
  H     -1.767720   10.609310    4.604230
  H      0.998930    7.250620    3.232060
  H      0.716520    8.809260    2.421110
  H      0.110560    6.236190    1.186170
  H      1.368920    7.222120    0.803300
  H      0.258330    6.522020    5.451230
  H      1.093530    4.214840    6.048110
  H     -0.613190    2.434110    6.675180
  H     -2.227560    2.208750    4.833430
  H     -3.674480    2.441330    2.659120
  H     -4.755790    3.136100    0.576580
  H     -1.065910    5.372140    7.887330
  H      1.713620    4.150410    8.329330
  H     -1.902390    6.325860   13.210970
  H      3.339490    7.912440   16.302440
  H     -1.124860    7.931460   18.523850
  H     -0.108040    8.740050   20.562650
  H      1.883080    9.444520   21.829100
  H      4.102240    9.437320   20.760560
  H      4.348350    8.726740   18.414500

 Total Charge           Charge          ....    0
 Multiplicity           Mult            ....    1
 Number of Electrons    NEL             ....  574
 Basis Dimension        Dim             .... 1276

ORBITAL ENERGIES
----------------

  NO   OCC          E(Eh)            E(eV)
   0   2.0000     -88.986769     -2421.4531
   1   2.0000     -88.984958     -2421.4038
   2   2.0000     -88.983948     -2421.3763
   3   2.0000     -88.975404     -2421.1438
   4   2.0000     -88.899723     -2419.0845
   5   2.0000     -88.896784     -2419.0045
   6   2.0000     -19.323396      -525.8163
   7   2.0000     -19.319051      -525.6981
   8   2.0000     -19.215818      -522.8890
   9   2.0000     -19.213104      -522.8151
  10   2.0000     -14.418630      -392.3509
  11   2.0000     -14.415886      -392.2762
  12   2.0000     -14.412628      -392.1875
  13   2.0000     -14.412542      -392.1852
  14   2.0000     -14.382514      -391.3681
  15   2.0000     -14.381596      -391.3431
  16   2.0000     -10.418253      -283.4951
  17   2.0000     -10.413704      -283.3713
  18   2.0000     -10.377010      -282.3728
  19   2.0000     -10.366484      -282.0864
  20   2.0000     -10.364054      -282.0202
  21   2.0000     -10.362939      -281.9899
  22   2.0000     -10.344056      -281.4761
  23   2.0000     -10.342782      -281.4414
  24   2.0000     -10.342659      -281.4380
  25   2.0000     -10.342488      -281.4334
  26   2.0000     -10.337292      -281.2920
  27   2.0000     -10.335592      -281.2458
  28   2.0000     -10.333708      -281.1945
  29   2.0000     -10.333142      -281.1791
  30   2.0000     -10.332038      -281.1490
  31   2.0000     -10.329990      -281.0933
  32   2.0000     -10.329496      -281.0799
  33   2.0000     -10.322330      -280.8849
  34   2.0000     -10.321205      -280.8543
  35   2.0000     -10.318565      -280.7824
  36   2.0000     -10.315053      -280.6869
  37   2.0000     -10.314053      -280.6597
  38   2.0000     -10.313502      -280.6447
  39   2.0000     -10.310595      -280.5655
  40   2.0000     -10.310439      -280.5613
  41   2.0000     -10.309410      -280.5333
  42   2.0000     -10.304456      -280.3985
  43   2.0000     -10.303084      -280.3612
  44   2.0000     -10.300315      -280.2858
  45   2.0000     -10.298692      -280.2417
  46   2.0000     -10.298295      -280.2309
  47   2.0000     -10.297590      -280.2117
  48   2.0000     -10.297350      -280.2051
  49   2.0000     -10.296959      -280.1945
  50   2.0000     -10.295935      -280.1666
  51   2.0000     -10.294839      -280.1368
  52   2.0000     -10.294749      -280.1344
  53   2.0000     -10.294297      -280.1221
  54   2.0000     -10.293146      -280.0907
  55   2.0000     -10.290864      -280.0286
  56   2.0000     -10.289302      -279.9862
  57   2.0000     -10.288354      -279.9604
  58   2.0000     -10.287486      -279.9367
  59   2.0000     -10.286528      -279.9107
  60   2.0000     -10.286378      -279.9066
  61   2.0000     -10.285884      -279.8931
  62   2.0000     -10.285719      -279.8886
  63   2.0000     -10.285281      -279.8767
  64   2.0000     -10.283772      -279.8357
  65   2.0000     -10.283507      -279.8284
  66   2.0000     -10.283344      -279.8240
  67   2.0000     -10.283170      -279.8193
  68   2.0000     -10.283063      -279.8164
  69   2.0000     -10.282425      -279.7990
  70   2.0000     -10.281620      -279.7771
  71   2.0000     -10.276982      -279.6509
  72   2.0000     -10.275407      -279.6080
  73   2.0000     -10.274659      -279.5877
  74   2.0000     -10.273301      -279.5507
  75   2.0000     -10.272403      -279.5263
  76   2.0000     -10.272215      -279.5212
  77   2.0000     -10.268307      -279.4148
  78   2.0000      -8.081369      -219.9052
  79   2.0000      -8.080173      -219.8727
  80   2.0000      -8.080030      -219.8688
  81   2.0000      -8.070356      -219.6055
  82   2.0000      -7.997543      -217.6242
  83   2.0000      -7.994535      -217.5423
  84   2.0000      -6.051253      -164.6630
  85   2.0000      -6.050006      -164.6290
  86   2.0000      -6.049657      -164.6195
  87   2.0000      -6.046974      -164.5465
  88   2.0000      -6.045837      -164.5156
  89   2.0000      -6.045700      -164.5119
  90   2.0000      -6.042237      -164.4176
  91   2.0000      -6.041659      -164.4019
  92   2.0000      -6.040386      -164.3673
  93   2.0000      -6.039860      -164.3529
  94   2.0000      -6.035865      -164.2442
  95   2.0000      -6.031861      -164.1353
  96   2.0000      -5.967102      -162.3731
  97   2.0000      -5.964226      -162.2948
  98   2.0000      -5.964081      -162.2909
  99   2.0000      -5.961251      -162.2139
 100   2.0000      -5.957486      -162.1114
 101   2.0000      -5.954478      -162.0296
 102   2.0000      -1.250084       -34.0165
 103   2.0000      -1.242905       -33.8212
 104   2.0000      -1.130696       -30.7678
 105   2.0000      -1.128131       -30.6980
 106   2.0000      -1.022827       -27.8326
 107   2.0000      -1.021176       -27.7876
 108   2.0000      -1.018790       -27.7227
 109   2.0000      -1.011196       -27.5161
 110   2.0000      -0.999336       -27.1933
 111   2.0000      -0.995597       -27.0916
 112   2.0000      -0.995353       -27.0849
 113   2.0000      -0.994728       -27.0679
 114   2.0000      -0.990736       -26.9593
 115   2.0000      -0.972657       -26.4673
 116   2.0000      -0.972107       -26.4524
 117   2.0000      -0.969370       -26.3779
 118   2.0000      -0.960954       -26.1489
 119   2.0000      -0.956647       -26.0317
 120   2.0000      -0.952608       -25.9218
 121   2.0000      -0.946897       -25.7664
 122   2.0000      -0.928188       -25.2573
 123   2.0000      -0.924661       -25.1613
 124   2.0000      -0.922389       -25.0995
 125   2.0000      -0.911808       -24.8115
 126   2.0000      -0.907646       -24.6983
 127   2.0000      -0.903802       -24.5937
 128   2.0000      -0.892624       -24.2895
 129   2.0000      -0.891415       -24.2566
 130   2.0000      -0.882730       -24.0203
 131   2.0000      -0.881166       -23.9777
 132   2.0000      -0.878539       -23.9063
 133   2.0000      -0.876532       -23.8517
 134   2.0000      -0.867221       -23.5983
 135   2.0000      -0.848750       -23.0957
 136   2.0000      -0.843720       -22.9588
 137   2.0000      -0.838101       -22.8059
 138   2.0000      -0.828401       -22.5419
 139   2.0000      -0.827662       -22.5218
 140   2.0000      -0.825566       -22.4648
 141   2.0000      -0.810906       -22.0659
 142   2.0000      -0.810079       -22.0434
 143   2.0000      -0.801782       -21.8176
 144   2.0000      -0.791638       -21.5416
 145   2.0000      -0.779375       -21.2079
 146   2.0000      -0.766700       -20.8630
 147   2.0000      -0.762378       -20.7454
 148   2.0000      -0.758834       -20.6489
 149   2.0000      -0.750685       -20.4272
 150   2.0000      -0.736100       -20.0303
 151   2.0000      -0.735839       -20.0232
 152   2.0000      -0.728814       -19.8320
 153   2.0000      -0.726567       -19.7709
 154   2.0000      -0.709874       -19.3166
 155   2.0000      -0.704275       -19.1643
 156   2.0000      -0.700825       -19.0704
 157   2.0000      -0.699811       -19.0428
 158   2.0000      -0.696707       -18.9584
 159   2.0000      -0.694545       -18.8995
 160   2.0000      -0.689357       -18.7584
 161   2.0000      -0.683331       -18.5944
 162   2.0000      -0.679633       -18.4938
 163   2.0000      -0.675194       -18.3730
 164   2.0000      -0.672337       -18.2952
 165   2.0000      -0.662588       -18.0299
 166   2.0000      -0.659061       -17.9340
 167   2.0000      -0.654991       -17.8232
 168   2.0000      -0.649167       -17.6647
 169   2.0000      -0.642359       -17.4795
 170   2.0000      -0.637445       -17.3458
 171   2.0000      -0.629879       -17.1399
 172   2.0000      -0.626435       -17.0462
 173   2.0000      -0.613034       -16.6815
 174   2.0000      -0.606958       -16.5162
 175   2.0000      -0.605397       -16.4737
 176   2.0000      -0.604599       -16.4520
 177   2.0000      -0.603097       -16.4111
 178   2.0000      -0.602184       -16.3863
 179   2.0000      -0.595705       -16.2099
 180   2.0000      -0.592768       -16.1300
 181   2.0000      -0.590103       -16.0575
 182   2.0000      -0.587402       -15.9840
 183   2.0000      -0.581174       -15.8146
 184   2.0000      -0.578682       -15.7467
 185   2.0000      -0.572956       -15.5909
 186   2.0000      -0.566021       -15.4022
 187   2.0000      -0.562682       -15.3114
 188   2.0000      -0.560302       -15.2466
 189   2.0000      -0.555930       -15.1276
 190   2.0000      -0.555080       -15.1045
 191   2.0000      -0.549599       -14.9553
 192   2.0000      -0.546246       -14.8641
 193   2.0000      -0.543711       -14.7951
 194   2.0000      -0.540515       -14.7082
 195   2.0000      -0.539495       -14.6804
 196   2.0000      -0.536251       -14.5921
 197   2.0000      -0.534268       -14.5382
 198   2.0000      -0.533043       -14.5048
 199   2.0000      -0.530888       -14.4462
 200   2.0000      -0.526180       -14.3181
 201   2.0000      -0.521475       -14.1901
 202   2.0000      -0.519650       -14.1404
 203   2.0000      -0.517689       -14.0870
 204   2.0000      -0.516955       -14.0671
 205   2.0000      -0.515841       -14.0368
 206   2.0000      -0.514525       -14.0009
 207   2.0000      -0.510591       -13.8939
 208   2.0000      -0.509779       -13.8718
 209   2.0000      -0.508435       -13.8352
 210   2.0000      -0.507508       -13.8100
 211   2.0000      -0.505580       -13.7575
 212   2.0000      -0.504134       -13.7182
 213   2.0000      -0.503509       -13.7012
 214   2.0000      -0.501802       -13.6547
 215   2.0000      -0.498945       -13.5770
 216   2.0000      -0.496426       -13.5084
 217   2.0000      -0.495575       -13.4853
 218   2.0000      -0.493725       -13.4349
 219   2.0000      -0.491952       -13.3867
 220   2.0000      -0.488509       -13.2930
 221   2.0000      -0.482973       -13.1424
 222   2.0000      -0.482260       -13.1230
 223   2.0000      -0.481873       -13.1124
 224   2.0000      -0.477783       -13.0011
 225   2.0000      -0.476453       -12.9649
 226   2.0000      -0.473276       -12.8785
 227   2.0000      -0.470525       -12.8036
 228   2.0000      -0.464764       -12.6469
 229   2.0000      -0.462382       -12.5821
 230   2.0000      -0.456532       -12.4229
 231   2.0000      -0.450836       -12.2679
 232   2.0000      -0.450214       -12.2509
 233   2.0000      -0.448684       -12.2093
 234   2.0000      -0.447251       -12.1703
 235   2.0000      -0.446463       -12.1489
 236   2.0000      -0.445670       -12.1273
 237   2.0000      -0.445296       -12.1171
 238   2.0000      -0.443409       -12.0658
 239   2.0000      -0.442006       -12.0276
 240   2.0000      -0.439654       -11.9636
 241   2.0000      -0.437764       -11.9122
 242   2.0000      -0.437137       -11.8951
 243   2.0000      -0.435692       -11.8558
 244   2.0000      -0.434559       -11.8250
 245   2.0000      -0.432361       -11.7652
 246   2.0000      -0.431078       -11.7302
 247   2.0000      -0.430779       -11.7221
 248   2.0000      -0.427663       -11.6373
 249   2.0000      -0.426302       -11.6003
 250   2.0000      -0.424461       -11.5502
 251   2.0000      -0.421709       -11.4753
 252   2.0000      -0.420803       -11.4506
 253   2.0000      -0.416427       -11.3315
 254   2.0000      -0.414891       -11.2898
 255   2.0000      -0.409053       -11.1309
 256   2.0000      -0.408120       -11.1055
 257   2.0000      -0.405730       -11.0405
 258   2.0000      -0.405606       -11.0371
 259   2.0000      -0.400634       -10.9018
 260   2.0000      -0.399542       -10.8721
 261   2.0000      -0.396312       -10.7842
 262   2.0000      -0.391358       -10.6494
 263   2.0000      -0.378137       -10.2896
 264   2.0000      -0.376439       -10.2434
 265   2.0000      -0.375933       -10.2296
 266   2.0000      -0.372536       -10.1372
 267   2.0000      -0.367157        -9.9909
 268   2.0000      -0.361480        -9.8364
 269   2.0000      -0.348145        -9.4735
 270   2.0000      -0.340187        -9.2570
 271   2.0000      -0.338612        -9.2141
 272   2.0000      -0.335144        -9.1197
 273   2.0000      -0.326437        -8.8828
 274   2.0000      -0.316849        -8.6219
 275   2.0000      -0.314158        -8.5487
 276   2.0000      -0.309890        -8.4325
 277   2.0000      -0.305789        -8.3209
 278   2.0000      -0.302955        -8.2438
 279   2.0000      -0.302302        -8.2261
 280   2.0000      -0.297960        -8.1079
 281   2.0000      -0.294898        -8.0246
 282   2.0000      -0.293184        -7.9779
 283   2.0000      -0.288509        -7.8507
 284   2.0000      -0.281638        -7.6637
 285   2.0000      -0.278048        -7.5661
 286   2.0000      -0.231640        -6.3032
 287   0.0000      -0.102167        -2.7801
 288   0.0000      -0.098332        -2.6758
 289   0.0000      -0.073972        -2.0129
 290   0.0000      -0.060524        -1.6469
 291   0.0000      -0.054801        -1.4912

MULLIKEN ATOMIC CHARGES
-----------------------
   0 C :    0.257550
   1 C :   -0.349750
   2 C :   -0.170006
   3 N :    0.163498
   4 C :   -0.199647
   5 N :    0.168747
   6 C :    0.039562
   7 C :    0.016971
   8 C :   -0.082686
   9 C :    0.093745
  10 C :    0.093542
  11 C :   -0.086174
  12 C :   -0.018003
  13 C :    0.035850
  14 C :    0.035404
  15 C :   -0.015978
  16 C :    0.138133
  17 O :   -0.141262
  18 C :   -0.142698
  19 C :    0.082127
  20 C :   -0.194820
  21 S :    0.165390
  22 C :   -0.128272
  23 C :    0.199147
  24 C :   -0.010085
  25 S :    0.178574
  26 C :    0.061039
  27 S :   -0.119531
  28 O :   -0.154161
  29 C :    0.138124
  30 C :   -0.122659
  31 C :    0.052633
  32 C :   -0.076149
  33 C :   -0.030186
  34 C :    0.129274
  35 N :   -0.210031
  36 C :    0.161369
  37 N :   -0.228466
  38 C :    0.102118
  39 C :   -0.140963
  40 C :    0.136215
  41 C :   -0.037850
  42 C :    0.029470
  43 C :    0.006059
  44 C :    0.041361
  45 C :    0.003276
  46 C :   -0.023954
  47 C :   -0.054254
  48 C :    0.024691
  49 C :   -0.151577
  50 S :    0.164948
  51 C :   -0.191506
  52 C :    0.272848
  53 C :   -0.033680
  54 S :    0.153239
  55 C :    0.055571
  56 S :   -0.121657
  57 O :   -0.130462
  58 C :    0.027069
  59 C :   -0.086693
  60 C :    0.317095
  61 C :   -0.348797
  62 C :   -0.178421
  63 N :    0.148614
  64 C :   -0.193962
  65 N :    0.154831
  66 C :    0.051726
  67 C :   -0.001339
  68 C :    0.144592
  69 O :   -0.148548
  70 C :   -0.078451
  71 C :    0.099434
  72 C :    0.098469
  73 C :   -0.089089
  74 C :   -0.021640
  75 C :    0.039413
  76 C :    0.038260
  77 C :   -0.017205
  78 H :   -0.012780
  79 H :   -0.005705
  80 H :   -0.010853
  81 H :   -0.004976
  82 H :   -0.005626
  83 H :   -0.018071
  84 H :    0.024741
  85 H :   -0.008235
  86 H :   -0.006985
  87 H :   -0.020111
  88 H :    0.003620
  89 H :    0.088132
  90 H :    0.092689
  91 H :   -0.028809
  92 H :   -0.016428
  93 H :    0.099933
  94 H :    0.092812
  95 H :   -0.004560
  96 H :    0.039548
  97 H :   -0.008493
  98 H :   -0.028340
  99 H :   -0.031291
 100 H :   -0.002355
 101 H :    0.022107
 102 H :   -0.006207
 103 H :    0.024388
 104 H :   -0.012039
 105 H :   -0.008450
 106 H :   -0.009609
 107 H :   -0.004831
 108 H :   -0.005368
 109 H :   -0.017215
Sum of atomic charges:   -0.0000000

LOEWDIN ATOMIC CHARGES
----------------------
   0 C :    0.046852
   1 C :   -0.151468
   2 C :   -0.020531
   3 N :   -0.048679
   4 C :   -0.028037
   5 N :   -0.047049
   6 C :   -0.022077
   7 C :   -0.058506
   8 C :    0.033208
   9 C :   -0.010568
  10 C :   -0.005029
  11 C :    0.013679
  12 C :   -0.006761
  13 C :   -0.013074
  14 C :   -0.014597
  15 C :   -0.009336
  16 C :    0.084496
  17 O :   -0.142419
  18 C :   -0.091264
  19 C :    0.038436
  20 C :   -0.194737
  21 S :    0.477469
  22 C :   -0.147671
  23 C :   -0.009445
  24 C :   -0.185379
  25 S :    0.434939
  26 C :   -0.237522
  27 S :    0.013789
  28 O :   -0.001914
  29 C :   -0.044250
  30 C :   -0.001828
  31 C :   -0.020062
  32 C :   -0.031117
  33 C :   -0.039559
  34 C :    0.026363
  35 N :   -0.113734
  36 C :    0.027556
  37 N :   -0.118494
  38 C :   -0.013764
  39 C :    0.057623
  40 C :   -0.029250
  41 C :   -0.034369
  42 C :   -0.010648
  43 C :   -0.035596
  44 C :   -0.027978
  45 C :   -0.004051
  46 C :   -0.022128
  47 C :    0.014419
  48 C :   -0.055152
  49 C :   -0.166937
  50 S :    0.459027
  51 C :   -0.199017
  52 C :    0.026263
  53 C :   -0.217621
  54 S :    0.382399
  55 C :   -0.231090
  56 S :    0.012614
  57 O :    0.017357
  58 C :    0.045616
  59 C :   -0.083965
  60 C :    0.075638
  61 C :   -0.137129
  62 C :   -0.017156
  63 N :   -0.051520
  64 C :   -0.021350
  65 N :   -0.050966
  66 C :   -0.026509
  67 C :   -0.052959
  68 C :    0.079276
  69 O :   -0.140508
  70 C :    0.033625
  71 C :   -0.007249
  72 C :   -0.006419
  73 C :    0.020174
  74 C :   -0.005140
  75 C :   -0.013367
  76 C :   -0.011605
  77 C :   -0.009125
  78 H :    0.039053
  79 H :    0.038718
  80 H :    0.034314
  81 H :    0.032982
  82 H :    0.032429
  83 H :    0.031537
  84 H :    0.048103
  85 H :    0.022827
  86 H :    0.032817
  87 H :   -0.005227
  88 H :    0.021079
  89 H :    0.049700
  90 H :    0.055756
  91 H :   -0.005729
  92 H :    0.011580
  93 H :    0.052896
  94 H :    0.055523
  95 H :    0.027005
  96 H :    0.060371
  97 H :    0.026252
  98 H :    0.033220
  99 H :    0.030432
 100 H :    0.030472
 101 H :    0.028701
 102 H :    0.034226
 103 H :    0.046146
 104 H :    0.039801
 105 H :    0.038983
 106 H :    0.034692
 107 H :    0.033248
 108 H :    0.032815
 109 H :    0.032139

  Mayer bond orders larger than 0.100000
B(  0-C ,  1-C ) :   1.6081 B(  0-C ,  6-C ) :   0.9964 B(  0-C , 18-C ) :   1.0689
B(  1-C ,  2-C ) :   1.1361 B(  1-C ,  4-C ) :   1.1600 B(  2-C ,  3-N ) :   2.9932
B(  4-C ,  5-N ) :   3.0119 B(  6-C ,  7-C ) :   1.2143 B(  6-C , 11-C ) :   1.4641
B(  7-C ,  8-C ) :   1.4745 B(  7-C , 16-C ) :   0.9209 B(  8-C ,  9-C ) :   1.1805
B(  8-C , 78-H ) :   1.0168 B(  9-C , 10-C ) :   1.2610 B(  9-C , 15-C ) :   1.2456
B( 10-C , 11-C ) :   1.1975 B( 10-C , 12-C ) :   1.2435 B( 11-C , 79-H ) :   0.9953
B( 12-C , 13-C ) :   1.4872 B( 12-C , 80-H ) :   0.9978 B( 13-C , 14-C ) :   1.2626
B( 13-C , 81-H ) :   0.9887 B( 14-C , 15-C ) :   1.4870 B( 14-C , 82-H ) :   0.9885
B( 15-C , 83-H ) :   0.9980 B( 16-C , 17-O ) :   2.2730 B( 16-C , 18-C ) :   0.9352
B( 18-C , 19-C ) :   1.6245 B( 19-C , 20-C ) :   1.1881 B( 19-C , 84-H ) :   0.9288
B( 20-C , 21-S ) :   1.0969 B( 20-C , 24-C ) :   1.4875 B( 21-S , 22-C ) :   1.1315
B( 22-C , 23-C ) :   1.5111 B( 22-C , 29-C ) :   1.0917 B( 23-C , 24-C ) :   1.2597
B( 23-C , 28-O ) :   1.0661 B( 24-C , 25-S ) :   1.0333 B( 25-S , 26-C ) :   1.0274
B( 25-S , 27-S ) :   0.1050 B( 26-C , 27-S ) :   1.7835 B( 26-C , 28-O ) :   1.0932
B( 29-C , 30-C ) :   1.4795 B( 29-C , 46-C ) :   1.1218 B( 30-C , 31-C ) :   1.1637
B( 30-C , 85-H ) :   0.9868 B( 31-C , 32-C ) :   1.4916 B( 31-C , 44-C ) :   1.1063
B( 32-C , 33-C ) :   1.0494 B( 32-C , 38-C ) :   1.0737 B( 33-C , 34-C ) :   1.0280
B( 33-C , 36-C ) :   1.0337 B( 33-C , 86-H ) :   0.8730 B( 34-C , 35-N ) :   1.1086
B( 34-C , 87-H ) :   0.9245 B( 34-C , 88-H ) :   0.9464 B( 35-N , 89-H ) :   0.9701
B( 35-N , 90-H ) :   0.9670 B( 36-C , 37-N ) :   1.0932 B( 36-C , 91-H ) :   0.9295
B( 36-C , 92-H ) :   0.9335 B( 37-N , 93-H ) :   0.9680 B( 37-N , 94-H ) :   0.9658
B( 38-C , 39-C ) :   1.6512 B( 38-C , 43-C ) :   1.0458 B( 39-C , 40-C ) :   0.9559
B( 39-C , 95-H ) :   0.9735 B( 40-C , 41-C ) :   0.9857 B( 40-C , 47-C ) :   0.9684
B( 40-C , 96-H ) :   0.8639 B( 41-C , 42-C ) :   1.7090 B( 41-C , 97-H ) :   0.9732
B( 42-C , 43-C ) :   1.1343 B( 42-C , 98-H ) :   0.9881 B( 43-C , 44-C ) :   1.4485
B( 44-C , 45-C ) :   1.1340 B( 45-C , 46-C ) :   1.6205 B( 45-C , 99-H ) :   0.9919
B( 46-C ,100-H ) :   0.9786 B( 47-C , 48-C ) :   1.7796 B( 47-C ,101-H ) :   0.9743
B( 48-C , 49-C ) :   1.1288 B( 48-C ,102-H ) :   0.9707 B( 49-C , 50-S ) :   1.1280
B( 49-C , 53-C ) :   1.5380 B( 50-S , 51-C ) :   1.0848 B( 51-C , 52-C ) :   1.4886
B( 51-C , 58-C ) :   1.1593 B( 52-C , 53-C ) :   1.2550 B( 52-C , 57-O ) :   1.1107
B( 53-C , 54-S ) :   0.9912 B( 54-S , 55-C ) :   1.0472 B( 54-S , 56-S ) :   0.1203
B( 55-C , 56-S ) :   1.7830 B( 55-C , 57-O ) :   1.0824 B( 58-C , 59-C ) :   1.6179
B( 58-C ,103-H ) :   0.9297 B( 59-C , 60-C ) :   1.0700 B( 59-C , 68-C ) :   0.9434
B( 60-C , 61-C ) :   1.6376 B( 60-C , 66-C ) :   0.9936 B( 61-C , 62-C ) :   1.1429
B( 61-C , 64-C ) :   1.1431 B( 62-C , 63-N ) :   2.9631 B( 64-C , 65-N ) :   2.9728
B( 66-C , 67-C ) :   1.2170 B( 66-C , 73-C ) :   1.4415 B( 67-C , 68-C ) :   0.9382
B( 67-C , 70-C ) :   1.4727 B( 68-C , 69-O ) :   2.2235 B( 70-C , 71-C ) :   1.1757
B( 70-C ,104-H ) :   1.0172 B( 71-C , 72-C ) :   1.2586 B( 71-C , 77-C ) :   1.2446
B( 72-C , 73-C ) :   1.2075 B( 72-C , 74-C ) :   1.2373 B( 73-C ,105-H ) :   0.9903
B( 74-C , 75-C ) :   1.4900 B( 74-C ,106-H ) :   0.9978 B( 75-C , 76-C ) :   1.2605
B( 75-C ,107-H ) :   0.9879 B( 76-C , 77-C ) :   1.4872 B( 76-C ,108-H ) :   0.9886
B( 77-C ,109-H ) :   0.9983

-----------------------------------------------------------------------------
         ABSORPTION SPECTRUM VIA TRANSITION ELECTRIC DIPOLE MOMENTS
-----------------------------------------------------------------------------
State   Energy  Wavelength   fosc         T2         TX        TY        TZ
        (cm-1)    (nm)                  (au**2)     (au)      (au)      (au)
-----------------------------------------------------------------------------
   0   13271.4    753.5   0.104693952   2.59705  -0.94715  -0.73145  -1.07933
   1   17310.8    577.7   0.166370603   3.16400   0.12601   0.16862   1.76626
   2   18126.6    551.7   0.683202491  12.40821   1.57896  -0.87873   3.02373
   3   22305.7    448.3   1.053023414  15.54169   0.31473   0.83672   3.83960
   4   22943.0    435.9   0.481377002   6.90735   2.27628  -0.89604   0.96073
   5   24462.6    408.8   0.092833869   1.24934  -0.39912  -1.03520   0.13569
   6   24952.7    400.8   0.131106627   1.72974  -0.77953   0.35305  -0.99872
   7   25507.0    392.0   0.051052156   0.65892  -0.20428  -0.44216  -0.64937
   8   26400.0    378.8   0.145128294   1.80977   0.33971  -0.96429   0.87436
   9   26702.9    374.5   0.001289367   0.01590  -0.05197   0.09198   0.06880
  10   26745.6    373.9   0.097266030   1.19725  -0.26418  -0.12186  -1.05480
  11   27046.8    369.7   0.045136495   0.54940  -0.29966   0.53729  -0.41342
  12   27236.1    367.2   0.116007589   1.40222   0.46382  -0.05790   1.08800
  13   27425.0    364.6   0.093222790   1.11906  -0.37777   0.28934   0.94479
  14   27787.7    359.9   0.118457233   1.40341   0.06413   0.47771   1.08217
  15   28384.1    352.3   0.059357271   0.68845  -0.22081   0.23014   0.76598
  16   28549.3    350.3   0.053162018   0.61303  -0.43616  -0.17332  -0.62670
  17   28741.2    347.9   0.065418005   0.74932   0.70006  -0.12686   0.49310
  18   28805.0    347.2   0.024218766   0.27680   0.01244  -0.09140  -0.51797
  19   29420.8    339.9   0.010893158   0.12189   0.01389   0.23206   0.26048
  20   30036.9    332.9   0.006934590   0.07600  -0.12156   0.16363  -0.18562
  21   30049.3    332.8   0.039528504   0.43306  -0.42077  -0.20573  -0.46227
  22   30543.2    327.4   0.339247865   3.65661  -1.05340  -0.72862  -1.41988
  23   30649.0    326.3   0.101051438   1.08543   0.56387   0.80770   0.33926
  24   31497.2    317.5   0.023426491   0.24486  -0.16129  -0.06182  -0.46370
  25   31520.8    317.3   0.312438332   3.26319  -0.87040   0.03696  -1.58248
  26   32977.8    303.2   0.209192459   2.08833  -0.43232  -0.18077  -1.36702
  27   33109.6    302.0   0.400150987   3.97874  -1.62565  -0.71963  -0.90450
  28   33208.4    301.1   0.597057166   5.91893  -0.09880  -0.55233   2.36730
  29   33514.9    298.4   0.000826447   0.00812  -0.02949   0.07789  -0.03436
  30   33739.6    296.4   0.000202002   0.00197   0.03312  -0.01667  -0.02442
  31   33898.1    295.0   0.006410963   0.06226  -0.16499   0.15113  -0.11044
  32   34027.4    293.9   0.007078434   0.06848  -0.09889   0.10431  -0.21869
  33   34155.2    292.8   0.144878355   1.39644  -0.23125   0.31886  -1.11413
  34   34224.1    292.2   0.033729923   0.32446   0.27391  -0.33381   0.37148
  35   34611.0    288.9   0.013819661   0.13145  -0.32822   0.05195  -0.14500
  36   34627.1    288.8   0.010927219   0.10389  -0.31132   0.05998   0.05807
  37   34634.6    288.7   0.012670434   0.12044  -0.25137   0.22281   0.08721
  38   34706.5    288.1   0.013847101   0.13135   0.20137   0.28601   0.09486
  39   35199.6    284.1   0.001286944   0.01204   0.06566   0.07287  -0.04914
  40   35334.0    283.0   0.011958017   0.11141  -0.27793   0.08435  -0.16448
  41   35456.0    282.0   0.000274427   0.00255  -0.03675   0.02393  -0.02500
  42   35601.6    280.9   0.016925823   0.15651   0.21262   0.00872  -0.33352
  43   35681.0    280.3   0.000700942   0.00647   0.05433   0.05666  -0.01747
  44   35809.4    279.3   0.000505999   0.00465   0.01497  -0.06015  -0.02845
  45   36078.4    277.2   0.006616681   0.06038   0.11831   0.10932   0.18555
  46   36404.3    274.7   0.199438986   1.80357  -0.43360  -0.18763  -1.25712
  47   36791.8    271.8   0.000578104   0.00517   0.02348  -0.06313   0.02523
  48   37061.6    269.8   0.001652836   0.01468   0.00996   0.08286  -0.08784
  49   37175.3    269.0   0.033013243   0.29235  -0.11323  -0.12391   0.51398
  50   37282.9    268.2   0.002679805   0.02366  -0.01011  -0.13448  -0.07400
  51   37518.8    266.5   0.033692519   0.29564  -0.13345  -0.44027   0.28981
  52   37611.9    265.9   0.001712987   0.01499  -0.08378   0.00278   0.08925
  53   37831.3    264.3   0.002742862   0.02387  -0.04454   0.00030  -0.14793
  54   37948.9    263.5   0.000299082   0.00259   0.01465  -0.03630   0.03259
  55   38043.6    262.9   0.015416107   0.13340   0.35296   0.06090   0.07151
  56   38286.8    261.2   0.021264662   0.18285  -0.20138  -0.25461   0.27832
  57   38852.7    257.4   0.173766912   1.47239  -0.53178  -0.45290   0.99221
  58   38967.8    256.6   0.017826092   0.15060   0.25818   0.20147  -0.20821
  59   39342.3    254.2   0.312643023   2.61616  -1.40168   0.44503   0.67334
  60   39549.9    252.8   0.068420194   0.56953  -0.69840  -0.24986   0.13907
  61   39745.2    251.6   0.003036796   0.02515  -0.02736  -0.01523   0.15548
  62   39855.0    250.9   0.011124818   0.09189   0.27270  -0.13229   0.00506
  63   39898.5    250.6   0.054985882   0.45370   0.02388  -0.29326   0.60591
  64   40239.2    248.5   0.331977615   2.71604   0.68330  -0.37530   1.45199

FINAL SINGLE POINT ENERGY     -5395.729109528924

DIPOLE MOMENT
-------------
                                X             Y             Z
Electronic contribution:    -19.42958     -25.18241      11.88210
Nuclear contribution   :     23.50762      26.23513     -12.72955
                        -----------------------------------------
Total Dipole Moment    :      4.07804       1.05272      -0.84745
                        -----------------------------------------
Magnitude (a.u.)       :      4.29613
Magnitude (Debye)      :     10.91990

Rotational constants in cm-1:     0.002038     0.000152     0.000151
Rotational constants in MHz :    61.094052     4.567284     4.522547

                             ****ORCA TERMINATED NORMALLY****
TOTAL RUN TIME: 0 days 0 hours 19 minutes 40 seconds 166 msec
