                         Program Version 4.2.0 -  RELEASE  -
|  1> # ORCA input file
|  2> # SCF done       -173.505142420009          0.002503895937
|  3> ! CAM-B3LYP def2-SVP def2/J RIJCOSX Grid4 TightSCF
|  4> %maxcore 5000
|  5> %tddft
|  6>     Mode sTDDFT
|  7>     Ethresh 5.0
|  8>     maxcore 5000
|  9> end
| 10>
| 11> %pal
| 12>   nprocs 6
| 13>   end
| 14> * xyz 0 1
| 15>    C        3.37868         3.75691         0.88969
| 16>    C        3.67761         4.44870         2.03082
| 17>    C        4.90246         5.11014         2.24666
| 18>    N        5.86167         5.71049         2.44513
| 19>    C        2.82578         4.55772         3.15329
| 20>    N        2.24608         4.61667         4.14305
| 21>    C        4.33297         3.38753        -0.15066
| 22>    C        3.77436         2.33224        -0.93056
| 23>    C        4.46698         1.74922        -1.95287
| 24>    C        5.76771         2.21015        -2.25672
| 25>    C        6.32568         3.27607        -1.49341
| 26>    C        5.58883         3.85489        -0.43469
| 27>    C        7.62102         3.73262        -1.81166
| 28>    C        8.33328         3.16404        -2.83221
| 29>    C        7.78382         2.11321        -3.58191
| 30>    C        6.52896         1.64594        -3.29951
| 31>    C        2.40976         2.04159        -0.45585
| 32>    O        1.64877         1.18784        -0.84767
| 33>    C        2.12969         3.08173         0.57922
| 34>    C        0.85106         3.34821         0.92507
| 35>    C        0.38077         4.47690         1.69875
| 36>    N       -0.67257         4.27115         2.43074
| 37>    N        1.12900         5.59893         1.62674
| 38>    C        0.62277         6.78226         1.87328
| 39>    C       -0.77433         6.88789         2.22676
| 40>    C       -1.75802         7.57580         1.59310
| 41>    S       -3.34944         6.97679         1.72876
| 42>    C       -2.99933         5.91441         3.03452
| 43>    S       -1.30785         5.56019         3.29783
| 44>    C        1.45341         7.92494         1.69296
| 45>    N        1.06706         9.19389         2.07383
| 46>    C        2.10526        10.03881         1.84116
| 47>    C        2.52832        11.35748         1.95055
| 48>    C        3.83659        11.38868         1.44270
| 49>    N        4.19678        10.12367         1.02321
| 50>    C        3.16498         9.28022         1.27159
| 51>    C        2.75416         7.95572         1.18048
| 52>    C        4.67548        12.52112         1.35966
| 53>    C        5.90051        12.57142         0.76880
| 54>    C        6.67042        13.73078         0.74605
| 55>    N        7.58618        14.40221         0.18768
| 56>    N        6.83225        14.98791         1.34896
| 57>    C        5.92854        16.04033         1.17427
| 58>    C        6.13440        16.98278         0.13757
| 59>    C        7.16675        16.96861        -0.77491
| 60>    S        7.24428        18.21080        -1.92062
| 61>    C        5.88403        19.03408        -1.38726
| 62>    S        5.02984        18.36396        -0.07298
| 63>    C        4.91909        16.26804         2.10332
| 64>    C        4.55757        15.63013         3.28436
| 65>    C        3.45437        16.07631         4.09333
| 66>    C        2.50269        17.02871         3.77791
| 67>    C        1.43140        17.37994         4.61989
| 68>    N        0.52722        17.71975         5.24411
| 69>    C        2.42629        17.77497         2.58995
| 70>    N        2.27927        18.42987         1.65284
| 71>    C        3.46696        15.31362         5.34042
| 72>    C        4.53269        14.37552         5.27380
| 73>    C        5.23229        14.51662         3.97780
| 74>    O        6.15512        13.81761         3.60262
| 75>    C        4.80683        13.51679         6.29590
| 76>    C        4.01424        13.56455         7.46701
| 77>    C        2.95143        14.50792         7.54737
| 78>    C        2.68828        15.38039         6.46394
| 79>    C        2.17423        14.55601         8.72202
| 80>    C        2.43185        13.71219         9.76860
| 81>    C        3.47804        12.78202         9.68738
| 82>    C        4.25214        12.70986         8.56027
| 83>    H        4.02746         0.94477        -2.52370
| 84>    H        6.03588         4.66194         0.12440
| 85>    H        8.04178         4.53896        -1.22882
| 86>    H        9.32505         3.52037        -3.06738
| 87>    H        8.35990         1.67598        -4.38381
| 88>    H        6.10089         0.83667        -3.87277
| 89>    H        0.09217         2.64803         0.59871
| 90>    H       -1.57856         8.35123         0.86915
| 91>    H       -3.71846         5.13831         3.22338
| 92>    H        0.19663         9.41724         2.52575
| 93>    H        1.99417        12.20163         2.33824
| 94>    H        5.11032         9.86481         0.69335
| 95>    H        3.28519         7.10759         0.80135
| 96>    H        4.27066        13.42615         1.78841
| 97>    H        6.33695        11.71762         0.26939
| 98>    H        7.92739        16.20845        -0.79224
| 99>    H        5.55730        19.94457        -1.84592
|100>    H        4.32168        17.14094         1.87434
|101>    H        5.62292        12.81343         6.21695
|102>    H        1.87745        16.08483         6.56035
|103>    H        1.37038        15.27541         8.78030
|104>    H        1.83198        13.75897        10.66522
|105>    H        3.66916        12.12367        10.52204
|106>    H        5.06060        11.99606         8.49225
|107> *
|108>
|109>                          ****END OF INPUT****

CARTESIAN COORDINATES (ANGSTROEM)
---------------------------------
  C      3.378680    3.756910    0.889690
  C      3.677610    4.448700    2.030820
  C      4.902460    5.110140    2.246660
  N      5.861670    5.710490    2.445130
  C      2.825780    4.557720    3.153290
  N      2.246080    4.616670    4.143050
  C      4.332970    3.387530   -0.150660
  C      3.774360    2.332240   -0.930560
  C      4.466980    1.749220   -1.952870
  C      5.767710    2.210150   -2.256720
  C      6.325680    3.276070   -1.493410
  C      5.588830    3.854890   -0.434690
  C      7.621020    3.732620   -1.811660
  C      8.333280    3.164040   -2.832210
  C      7.783820    2.113210   -3.581910
  C      6.528960    1.645940   -3.299510
  C      2.409760    2.041590   -0.455850
  O      1.648770    1.187840   -0.847670
  C      2.129690    3.081730    0.579220
  C      0.851060    3.348210    0.925070
  C      0.380770    4.476900    1.698750
  N     -0.672570    4.271150    2.430740
  N      1.129000    5.598930    1.626740
  C      0.622770    6.782260    1.873280
  C     -0.774330    6.887890    2.226760
  C     -1.758020    7.575800    1.593100
  S     -3.349440    6.976790    1.728760
  C     -2.999330    5.914410    3.034520
  S     -1.307850    5.560190    3.297830
  C      1.453410    7.924940    1.692960
  N      1.067060    9.193890    2.073830
  C      2.105260   10.038810    1.841160
  C      2.528320   11.357480    1.950550
  C      3.836590   11.388680    1.442700
  N      4.196780   10.123670    1.023210
  C      3.164980    9.280220    1.271590
  C      2.754160    7.955720    1.180480
  C      4.675480   12.521120    1.359660
  C      5.900510   12.571420    0.768800
  C      6.670420   13.730780    0.746050
  N      7.586180   14.402210    0.187680
  N      6.832250   14.987910    1.348960
  C      5.928540   16.040330    1.174270
  C      6.134400   16.982780    0.137570
  C      7.166750   16.968610   -0.774910
  S      7.244280   18.210800   -1.920620
  C      5.884030   19.034080   -1.387260
  S      5.029840   18.363960   -0.072980
  C      4.919090   16.268040    2.103320
  C      4.557570   15.630130    3.284360
  C      3.454370   16.076310    4.093330
  C      2.502690   17.028710    3.777910
  C      1.431400   17.379940    4.619890
  N      0.527220   17.719750    5.244110
  C      2.426290   17.774970    2.589950
  N      2.279270   18.429870    1.652840
  C      3.466960   15.313620    5.340420
  C      4.532690   14.375520    5.273800
  C      5.232290   14.516620    3.977800
  O      6.155120   13.817610    3.602620
  C      4.806830   13.516790    6.295900
  C      4.014240   13.564550    7.467010
  C      2.951430   14.507920    7.547370
  C      2.688280   15.380390    6.463940
  C      2.174230   14.556010    8.722020
  C      2.431850   13.712190    9.768600
  C      3.478040   12.782020    9.687380
  C      4.252140   12.709860    8.560270
  H      4.027460    0.944770   -2.523700
  H      6.035880    4.661940    0.124400
  H      8.041780    4.538960   -1.228820
  H      9.325050    3.520370   -3.067380
  H      8.359900    1.675980   -4.383810
  H      6.100890    0.836670   -3.872770
  H      0.092170    2.648030    0.598710
  H     -1.578560    8.351230    0.869150
  H     -3.718460    5.138310    3.223380
  H      0.196630    9.417240    2.525750
  H      1.994170   12.201630    2.338240
  H      5.110320    9.864810    0.693350
  H      3.285190    7.107590    0.801350
  H      4.270660   13.426150    1.788410
  H      6.336950   11.717620    0.269390
  H      7.927390   16.208450   -0.792240
  H      5.557300   19.944570   -1.845920
  H      4.321680   17.140940    1.874340
  H      5.622920   12.813430    6.216950
  H      1.877450   16.084830    6.560350
  H      1.370380   15.275410    8.780300
  H      1.831980   13.758970   10.665220
  H      3.669160   12.123670   10.522040
  H      5.060600   11.996060    8.492250

 Total Charge           Charge          ....    0
 Multiplicity           Mult            ....    1
 Number of Electrons    NEL             ....  486
 Basis Dimension        Dim             .... 1088

ORBITAL ENERGIES
----------------

  NO   OCC          E(Eh)            E(eV)
   0   2.0000     -89.040613     -2422.9183
   1   2.0000     -89.034053     -2422.7397
   2   2.0000     -89.020940     -2422.3829
   3   2.0000     -88.965031     -2420.8616
   4   2.0000     -19.215870      -522.8904
   5   2.0000     -19.177618      -521.8495
   6   2.0000     -14.475288      -393.8926
   7   2.0000     -14.471484      -393.7891
   8   2.0000     -14.432953      -392.7406
   9   2.0000     -14.428879      -392.6298
  10   2.0000     -14.418830      -392.3563
  11   2.0000     -14.409446      -392.1009
  12   2.0000     -14.406939      -392.0327
  13   2.0000     -14.404226      -391.9589
  14   2.0000     -14.392922      -391.6513
  15   2.0000     -14.382368      -391.3641
  16   2.0000     -10.382035      -282.5095
  17   2.0000     -10.366399      -282.0840
  18   2.0000     -10.357497      -281.8418
  19   2.0000     -10.355960      -281.8000
  20   2.0000     -10.354585      -281.7626
  21   2.0000     -10.353493      -281.7329
  22   2.0000     -10.342270      -281.4275
  23   2.0000     -10.337726      -281.3038
  24   2.0000     -10.333102      -281.1780
  25   2.0000     -10.331511      -281.1347
  26   2.0000     -10.328092      -281.0417
  27   2.0000     -10.322292      -280.8839
  28   2.0000     -10.320978      -280.8481
  29   2.0000     -10.320289      -280.8293
  30   2.0000     -10.314426      -280.6698
  31   2.0000     -10.312235      -280.6102
  32   2.0000     -10.311698      -280.5956
  33   2.0000     -10.311528      -280.5909
  34   2.0000     -10.309396      -280.5329
  35   2.0000     -10.309008      -280.5224
  36   2.0000     -10.308983      -280.5217
  37   2.0000     -10.306146      -280.4445
  38   2.0000     -10.304872      -280.4098
  39   2.0000     -10.302089      -280.3341
  40   2.0000     -10.301449      -280.3167
  41   2.0000     -10.299875      -280.2738
  42   2.0000     -10.299715      -280.2695
  43   2.0000     -10.299019      -280.2506
  44   2.0000     -10.298480      -280.2359
  45   2.0000     -10.297446      -280.2078
  46   2.0000     -10.293928      -280.1120
  47   2.0000     -10.290403      -280.0161
  48   2.0000     -10.288946      -279.9765
  49   2.0000     -10.288898      -279.9752
  50   2.0000     -10.288269      -279.9580
  51   2.0000     -10.288124      -279.9541
  52   2.0000     -10.287628      -279.9406
  53   2.0000     -10.287451      -279.9358
  54   2.0000     -10.284365      -279.8518
  55   2.0000     -10.283425      -279.8262
  56   2.0000     -10.274624      -279.5867
  57   2.0000     -10.273108      -279.5455
  58   2.0000     -10.272792      -279.5369
  59   2.0000     -10.272762      -279.5361
  60   2.0000     -10.269541      -279.4484
  61   2.0000     -10.269075      -279.4357
  62   2.0000     -10.265218      -279.3308
  63   2.0000     -10.264633      -279.3149
  64   2.0000     -10.264469      -279.3104
  65   2.0000     -10.264025      -279.2983
  66   2.0000     -10.261100      -279.2187
  67   2.0000     -10.259753      -279.1821
  68   2.0000      -8.135074      -221.3666
  69   2.0000      -8.119028      -220.9300
  70   2.0000      -8.114571      -220.8087
  71   2.0000      -8.060071      -219.3257
  72   2.0000      -6.103702      -166.0902
  73   2.0000      -6.099431      -165.9740
  74   2.0000      -6.098873      -165.9588
  75   2.0000      -6.089315      -165.6987
  76   2.0000      -6.086479      -165.6215
  77   2.0000      -6.083810      -165.5489
  78   2.0000      -6.079662      -165.4360
  79   2.0000      -6.079259      -165.4250
  80   2.0000      -6.077195      -165.3689
  81   2.0000      -6.029533      -164.0719
  82   2.0000      -6.024994      -163.9484
  83   2.0000      -6.022384      -163.8774
  84   2.0000      -1.149844       -31.2888
  85   2.0000      -1.130558       -30.7641
  86   2.0000      -1.107514       -30.1370
  87   2.0000      -1.093190       -29.7472
  88   2.0000      -1.089034       -29.6341
  89   2.0000      -1.068883       -29.0858
  90   2.0000      -1.045547       -28.4508
  91   2.0000      -1.017526       -27.6883
  92   2.0000      -1.001753       -27.2591
  93   2.0000      -0.998928       -27.1822
  94   2.0000      -0.991171       -26.9711
  95   2.0000      -0.988989       -26.9118
  96   2.0000      -0.976473       -26.5712
  97   2.0000      -0.973085       -26.4790
  98   2.0000      -0.970343       -26.4044
  99   2.0000      -0.965559       -26.2742
 100   2.0000      -0.951783       -25.8993
 101   2.0000      -0.941203       -25.6114
 102   2.0000      -0.924965       -25.1696
 103   2.0000      -0.917596       -24.9691
 104   2.0000      -0.910734       -24.7823
 105   2.0000      -0.907731       -24.7006
 106   2.0000      -0.895812       -24.3763
 107   2.0000      -0.892547       -24.2874
 108   2.0000      -0.884467       -24.0676
 109   2.0000      -0.881876       -23.9971
 110   2.0000      -0.879286       -23.9266
 111   2.0000      -0.870683       -23.6925
 112   2.0000      -0.859702       -23.3937
 113   2.0000      -0.856256       -23.2999
 114   2.0000      -0.854834       -23.2612
 115   2.0000      -0.848187       -23.0804
 116   2.0000      -0.830762       -22.6062
 117   2.0000      -0.829471       -22.5710
 118   2.0000      -0.823825       -22.4174
 119   2.0000      -0.803254       -21.8577
 120   2.0000      -0.799498       -21.7555
 121   2.0000      -0.786058       -21.3897
 122   2.0000      -0.777985       -21.1701
 123   2.0000      -0.761483       -20.7210
 124   2.0000      -0.740600       -20.1528
 125   2.0000      -0.735886       -20.0245
 126   2.0000      -0.732940       -19.9443
 127   2.0000      -0.723601       -19.6902
 128   2.0000      -0.720493       -19.6056
 129   2.0000      -0.710257       -19.3271
 130   2.0000      -0.706511       -19.2251
 131   2.0000      -0.703928       -19.1549
 132   2.0000      -0.701846       -19.0982
 133   2.0000      -0.685480       -18.6528
 134   2.0000      -0.684802       -18.6344
 135   2.0000      -0.678902       -18.4739
 136   2.0000      -0.675398       -18.3785
 137   2.0000      -0.673022       -18.3139
 138   2.0000      -0.671380       -18.2692
 139   2.0000      -0.668565       -18.1926
 140   2.0000      -0.657828       -17.9004
 141   2.0000      -0.646795       -17.6002
 142   2.0000      -0.643869       -17.5206
 143   2.0000      -0.635858       -17.3026
 144   2.0000      -0.633014       -17.2252
 145   2.0000      -0.623936       -16.9782
 146   2.0000      -0.619290       -16.8517
 147   2.0000      -0.608250       -16.5513
 148   2.0000      -0.607903       -16.5419
 149   2.0000      -0.607678       -16.5358
 150   2.0000      -0.595756       -16.2113
 151   2.0000      -0.592149       -16.1132
 152   2.0000      -0.586107       -15.9488
 153   2.0000      -0.581125       -15.8132
 154   2.0000      -0.578630       -15.7453
 155   2.0000      -0.574348       -15.6288
 156   2.0000      -0.568304       -15.4643
 157   2.0000      -0.557604       -15.1732
 158   2.0000      -0.552173       -15.0254
 159   2.0000      -0.551480       -15.0065
 160   2.0000      -0.548358       -14.9216
 161   2.0000      -0.547362       -14.8945
 162   2.0000      -0.545770       -14.8512
 163   2.0000      -0.541146       -14.7253
 164   2.0000      -0.537730       -14.6324
 165   2.0000      -0.533644       -14.5212
 166   2.0000      -0.532682       -14.4950
 167   2.0000      -0.531682       -14.4678
 168   2.0000      -0.530235       -14.4284
 169   2.0000      -0.526777       -14.3343
 170   2.0000      -0.522809       -14.2264
 171   2.0000      -0.521304       -14.1854
 172   2.0000      -0.519151       -14.1268
 173   2.0000      -0.516112       -14.0441
 174   2.0000      -0.513282       -13.9671
 175   2.0000      -0.511056       -13.9065
 176   2.0000      -0.508708       -13.8427
 177   2.0000      -0.507398       -13.8070
 178   2.0000      -0.505282       -13.7494
 179   2.0000      -0.501025       -13.6336
 180   2.0000      -0.495400       -13.4805
 181   2.0000      -0.493536       -13.4298
 182   2.0000      -0.492177       -13.3928
 183   2.0000      -0.488117       -13.2823
 184   2.0000      -0.485733       -13.2175
 185   2.0000      -0.485111       -13.2005
 186   2.0000      -0.482148       -13.1199
 187   2.0000      -0.481139       -13.0924
 188   2.0000      -0.479109       -13.0372
 189   2.0000      -0.474939       -12.9237
 190   2.0000      -0.470666       -12.8075
 191   2.0000      -0.470050       -12.7907
 192   2.0000      -0.466445       -12.6926
 193   2.0000      -0.464081       -12.6283
 194   2.0000      -0.460105       -12.5201
 195   2.0000      -0.458093       -12.4653
 196   2.0000      -0.454702       -12.3731
 197   2.0000      -0.452254       -12.3065
 198   2.0000      -0.449057       -12.2195
 199   2.0000      -0.447210       -12.1692
 200   2.0000      -0.442576       -12.0431
 201   2.0000      -0.440873       -11.9968
 202   2.0000      -0.439330       -11.9548
 203   2.0000      -0.435373       -11.8471
 204   2.0000      -0.431678       -11.7466
 205   2.0000      -0.430892       -11.7252
 206   2.0000      -0.430506       -11.7147
 207   2.0000      -0.425221       -11.5708
 208   2.0000      -0.419971       -11.4280
 209   2.0000      -0.419192       -11.4068
 210   2.0000      -0.416950       -11.3458
 211   2.0000      -0.415147       -11.2967
 212   2.0000      -0.409961       -11.1556
 213   2.0000      -0.408340       -11.1115
 214   2.0000      -0.407125       -11.0784
 215   2.0000      -0.404197       -10.9988
 216   2.0000      -0.399660       -10.8753
 217   2.0000      -0.397403       -10.8139
 218   2.0000      -0.394998       -10.7485
 219   2.0000      -0.393899       -10.7185
 220   2.0000      -0.391370       -10.6497
 221   2.0000      -0.379206       -10.3187
 222   2.0000      -0.378883       -10.3099
 223   2.0000      -0.376950       -10.2573
 224   2.0000      -0.372315       -10.1312
 225   2.0000      -0.368137       -10.0175
 226   2.0000      -0.353647        -9.6232
 227   2.0000      -0.351225        -9.5573
 228   2.0000      -0.338479        -9.2105
 229   2.0000      -0.336891        -9.1673
 230   2.0000      -0.331970        -9.0334
 231   2.0000      -0.326248        -8.8777
 232   2.0000      -0.318771        -8.6742
 233   2.0000      -0.313653        -8.5349
 234   2.0000      -0.307198        -8.3593
 235   2.0000      -0.304844        -8.2952
 236   2.0000      -0.293836        -7.9957
 237   2.0000      -0.293085        -7.9752
 238   2.0000      -0.285969        -7.7816
 239   2.0000      -0.270205        -7.3526
 240   2.0000      -0.256633        -6.9833
 241   2.0000      -0.232201        -6.3185
 242   2.0000      -0.216390        -5.8883
 243   0.0000      -0.094409        -2.5690
 244   0.0000      -0.093002        -2.5307
 245   0.0000      -0.074643        -2.0311
 246   0.0000      -0.053312        -1.4507
 247   0.0000      -0.047150        -1.2830

MULLIKEN ATOMIC CHARGES
-----------------------
   0 C :    0.299651
   1 C :   -0.307510
   2 C :   -0.194818
   3 N :    0.145727
   4 C :   -0.167983
   5 N :    0.153100
   6 C :    0.049047
   7 C :   -0.002582
   8 C :   -0.076053
   9 C :    0.092959
  10 C :    0.099202
  11 C :   -0.091779
  12 C :   -0.022016
  13 C :    0.038202
  14 C :    0.034015
  15 C :   -0.013615
  16 C :    0.138649
  17 O :   -0.135397
  18 C :   -0.108425
  19 C :    0.104505
  20 C :   -0.021860
  21 N :   -0.274717
  22 N :   -0.128001
  23 C :    0.106171
  24 C :   -0.292729
  25 C :   -0.020257
  26 S :    0.152146
  27 C :   -0.287366
  28 S :    0.473021
  29 C :    0.088292
  30 N :   -0.026595
  31 C :    0.120423
  32 C :   -0.137818
  33 C :    0.056903
  34 N :   -0.025958
  35 C :    0.126029
  36 C :   -0.142904
  37 C :    0.085450
  38 C :   -0.058740
  39 C :    0.181248
  40 N :   -0.126216
  41 N :   -0.178910
  42 C :    0.100056
  43 C :   -0.085417
  44 C :   -0.126987
  45 S :    0.286569
  46 C :   -0.124786
  47 S :    0.266498
  48 C :   -0.061878
  49 C :   -0.124925
  50 C :    0.318342
  51 C :   -0.394726
  52 C :   -0.191536
  53 N :    0.117931
  54 C :   -0.186710
  55 N :    0.095800
  56 C :    0.048111
  57 C :    0.007926
  58 C :    0.103259
  59 O :   -0.157832
  60 C :   -0.102647
  61 C :    0.103193
  62 C :    0.099458
  63 C :   -0.102460
  64 C :   -0.026889
  65 C :    0.032682
  66 C :    0.032543
  67 C :   -0.023716
  68 H :   -0.010911
  69 H :   -0.014664
  70 H :   -0.013187
  71 H :   -0.005606
  72 H :   -0.004463
  73 H :   -0.016517
  74 H :    0.029941
  75 H :    0.044583
  76 H :    0.065239
  77 H :    0.136584
  78 H :   -0.014422
  79 H :    0.134300
  80 H :   -0.023013
  81 H :    0.007368
  82 H :   -0.008762
  83 H :    0.093817
  84 H :    0.112746
  85 H :   -0.019030
  86 H :   -0.021581
  87 H :   -0.014042
  88 H :   -0.014724
  89 H :   -0.013311
  90 H :   -0.012516
  91 H :   -0.022182
Sum of atomic charges:   -0.0000000

LOEWDIN ATOMIC CHARGES
----------------------
   0 C :    0.068975
   1 C :   -0.118602
   2 C :   -0.015625
   3 N :   -0.058507
   4 C :   -0.018141
   5 N :   -0.056082
   6 C :   -0.020565
   7 C :   -0.058482
   8 C :    0.034209
   9 C :   -0.009881
  10 C :   -0.004885
  11 C :    0.009971
  12 C :   -0.008531
  13 C :   -0.012863
  14 C :   -0.013995
  15 C :   -0.008239
  16 C :    0.085046
  17 O :   -0.134805
  18 C :   -0.062839
  19 C :    0.070487
  20 C :   -0.008926
  21 N :   -0.323372
  22 N :   -0.115092
  23 C :    0.036889
  24 C :   -0.263240
  25 C :   -0.177249
  26 S :    0.453329
  27 C :   -0.565910
  28 S :    0.834001
  29 C :   -0.015387
  30 N :    0.078672
  31 C :   -0.010528
  32 C :   -0.061785
  33 C :   -0.000619
  34 N :    0.075488
  35 C :   -0.007185
  36 C :   -0.047557
  37 C :    0.049533
  38 C :   -0.094470
  39 C :    0.070413
  40 N :   -0.081760
  41 N :   -0.052305
  42 C :   -0.097452
  43 C :   -0.142288
  44 C :   -0.231498
  45 S :    0.603203
  46 C :   -0.337360
  47 S :    0.561655
  48 C :    0.006289
  49 C :   -0.148229
  50 C :    0.073175
  51 C :   -0.189733
  52 C :   -0.020668
  53 N :   -0.088611
  54 C :   -0.020106
  55 N :   -0.110949
  56 C :   -0.025089
  57 C :   -0.050636
  58 C :    0.065111
  59 O :   -0.159040
  60 C :    0.018478
  61 C :   -0.011958
  62 C :   -0.010826
  63 C :    0.007517
  64 C :   -0.009741
  65 C :   -0.022386
  66 C :   -0.020643
  67 C :   -0.013733
  68 H :    0.039760
  69 H :    0.036013
  70 H :    0.033166
  71 H :    0.032890
  72 H :    0.032913
  73 H :    0.032232
  74 H :    0.053837
  75 H :    0.033296
  76 H :    0.011307
  77 H :    0.093210
  78 H :    0.033969
  79 H :    0.093843
  80 H :    0.032128
  81 H :    0.048962
  82 H :    0.033324
  83 H :    0.041904
  84 H :    0.038014
  85 H :    0.023374
  86 H :    0.034769
  87 H :    0.036533
  88 H :    0.032097
  89 H :    0.029453
  90 H :    0.029449
  91 H :    0.029491

  Mayer bond orders larger than 0.100000
B(  0-C ,  1-C ) :   1.6833 B(  0-C ,  6-C ) :   1.0083 B(  0-C , 18-C ) :   1.0002
B(  1-C ,  2-C ) :   1.1523 B(  1-C ,  4-C ) :   1.1389 B(  2-C ,  3-N ) :   2.9623
B(  4-C ,  5-N ) :   2.9822 B(  6-C ,  7-C ) :   1.2120 B(  6-C , 11-C ) :   1.4485
B(  7-C ,  8-C ) :   1.4728 B(  7-C , 16-C ) :   0.9210 B(  8-C ,  9-C ) :   1.1854
B(  8-C , 68-H ) :   1.0161 B(  9-C , 10-C ) :   1.2580 B(  9-C , 15-C ) :   1.2431
B( 10-C , 11-C ) :   1.2062 B( 10-C , 12-C ) :   1.2369 B( 11-C , 69-H ) :   0.9934
B( 12-C , 13-C ) :   1.4920 B( 12-C , 70-H ) :   0.9981 B( 13-C , 14-C ) :   1.2587
B( 13-C , 71-H ) :   0.9880 B( 14-C , 15-C ) :   1.4893 B( 14-C , 72-H ) :   0.9894
B( 15-C , 73-H ) :   0.9985 B( 16-C , 17-O ) :   2.2826 B( 16-C , 18-C ) :   0.9241
B( 18-C , 19-C ) :   1.7253 B( 19-C , 20-C ) :   1.0016 B( 19-C , 74-H ) :   0.9557
B( 20-C , 21-N ) :   1.7693 B( 20-C , 22-N ) :   1.2479 B( 21-N , 28-S ) :   0.8689
B( 22-N , 23-C ) :   1.7348 B( 23-C , 24-C ) :   1.0104 B( 23-C , 29-C ) :   1.1070
B( 24-C , 25-C ) :   1.5402 B( 24-C , 26-S ) :   0.1089 B( 24-C , 28-S ) :   1.0297
B( 25-C , 26-S ) :   1.2705 B( 25-C , 75-H ) :   0.9603 B( 26-S , 27-C ) :   1.0753
B( 27-C , 28-S ) :   1.1328 B( 27-C , 76-H ) :   0.9648 B( 29-C , 30-N ) :   1.1969
B( 29-C , 36-C ) :   1.3746 B( 30-N , 31-C ) :   1.1796 B( 30-N , 77-H ) :   0.9211
B( 31-C , 32-C ) :   1.2525 B( 31-C , 35-C ) :   1.2886 B( 32-C , 33-C ) :   1.3551
B( 32-C , 78-H ) :   1.0403 B( 33-C , 34-N ) :   1.1956 B( 33-C , 37-C ) :   1.1781
B( 34-N , 35-C ) :   1.1743 B( 34-N , 79-H ) :   0.9281 B( 35-C , 36-C ) :   1.2476
B( 36-C , 80-H ) :   1.0460 B( 37-C , 38-C ) :   1.5746 B( 37-C , 81-H ) :   0.9546
B( 38-C , 39-C ) :   1.1951 B( 38-C , 82-H ) :   0.9515 B( 39-C , 40-N ) :   1.7340
B( 39-C , 41-N ) :   0.9090 B( 40-N , 41-N ) :   0.8458 B( 41-N , 42-C ) :   1.1217
B( 42-C , 43-C ) :   1.2704 B( 42-C , 48-C ) :   1.4333 B( 43-C , 44-C ) :   1.4340
B( 43-C , 47-S ) :   1.0899 B( 44-C , 45-S ) :   1.2002 B( 44-C , 46-C ) :   0.1081
B( 44-C , 83-H ) :   0.9183 B( 45-S , 46-C ) :   1.3759 B( 45-S , 47-S ) :   0.1377
B( 46-C , 47-S ) :   1.2624 B( 46-C , 84-H ) :   0.9633 B( 48-C , 49-C ) :   1.3331
B( 48-C , 85-H ) :   0.9078 B( 49-C , 50-C ) :   1.1808 B( 49-C , 58-C ) :   0.9532
B( 50-C , 51-C ) :   1.5079 B( 50-C , 56-C ) :   0.9660 B( 51-C , 52-C ) :   1.1628
B( 51-C , 54-C ) :   1.1747 B( 52-C , 53-N ) :   2.9507 B( 54-C , 55-N ) :   2.9381
B( 56-C , 57-C ) :   1.2158 B( 56-C , 63-C ) :   1.4622 B( 57-C , 58-C ) :   0.9302
B( 57-C , 60-C ) :   1.4884 B( 58-C , 59-O ) :   2.2151 B( 60-C , 61-C ) :   1.1587
B( 60-C , 86-H ) :   1.0169 B( 61-C , 62-C ) :   1.2658 B( 61-C , 67-C ) :   1.2498
B( 62-C , 63-C ) :   1.1888 B( 62-C , 64-C ) :   1.2448 B( 63-C , 87-H ) :   0.9906
B( 64-C , 65-C ) :   1.4842 B( 64-C , 88-H ) :   0.9972 B( 65-C , 66-C ) :   1.2646
B( 65-C , 89-H ) :   0.9879 B( 66-C , 67-C ) :   1.4833 B( 66-C , 90-H ) :   0.9881
B( 67-C , 91-H ) :   0.9976

-----------------------------------------------------------------------------
         ABSORPTION SPECTRUM VIA TRANSITION ELECTRIC DIPOLE MOMENTS
-----------------------------------------------------------------------------
State   Energy  Wavelength   fosc         T2         TX        TY        TZ
        (cm-1)    (nm)                  (au**2)     (au)      (au)      (au)
-----------------------------------------------------------------------------
   0    9634.5   1037.9   0.149164155   5.09696  -0.71782  -1.33022   1.67697
   1   12355.3    809.4   0.142255123   3.79044  -1.90552  -0.14797   0.37087
   2   13944.3    717.1   0.131610057   3.10719   0.20618   1.61274   0.68098
   3   16801.5    595.2   0.038597537   0.75629  -0.30834  -0.81298  -0.01640
   4   18195.6    549.6   0.056926966   1.02998  -0.53940  -0.78511   0.35019
   5   19223.5    520.2   0.248862787   4.26189   1.02658  -0.54426  -1.70640
   6   19275.1    518.8   0.046082560   0.78707   0.59960  -0.32924  -0.56494
   7   20987.3    476.5   0.290078335   4.55024  -1.31161  -1.62928   0.41879
   8   22234.9    449.7   0.098711710   1.46153   0.02671  -0.68993   0.99238
   9   22602.4    442.4   0.008530762   0.12425  -0.05714   0.00449   0.34781
  10   23746.6    421.1   0.656097280   9.09583   1.84167   2.34415  -0.45722
  11   24659.6    405.5   0.108651473   1.45052  -0.50788  -1.08967   0.07208
  12   25208.5    396.7   0.019538964   0.25517  -0.18368   0.26699  -0.38749
  13   25631.2    390.1   0.083954452   1.07833   0.79844   0.60125  -0.28163
  14   26096.6    383.2   0.061820281   0.77987  -0.40173   0.25375   0.74437
  15   26322.4    379.9   0.024622859   0.30796  -0.03920   0.25197  -0.49288
  16   26372.8    379.2   0.009783140   0.12212   0.10883   0.23422  -0.23542
  17   27303.4    366.3   0.076086193   0.91741  -0.35392  -0.87751   0.14876
  18   27728.7    360.6   0.011008571   0.13070  -0.12413  -0.11918  -0.31795
  19   28070.7    356.2   0.003070803   0.03601  -0.12933  -0.13223  -0.04244
  20   28204.3    354.6   0.000133209   0.00155  -0.03135   0.01169  -0.02087
  21   28442.6    351.6   0.017647382   0.20426  -0.38333  -0.23885  -0.01633
  22   28610.9    349.5   0.016906479   0.19453   0.33028   0.04454  -0.28891
  23   28766.2    347.6   0.004661355   0.05335  -0.06368   0.05792   0.21433
  24   28833.4    346.8   0.045623112   0.52091   0.62095  -0.15433  -0.33395
  25   29258.4    341.8   0.029647854   0.33359  -0.53821   0.10569   0.18097
  26   29507.2    338.9   0.035589923   0.39708  -0.11603   0.58308   0.20888
  27   29986.0    333.5   0.006831233   0.07500   0.26144   0.06531  -0.04882
  28   30116.1    332.0   0.010099552   0.11040  -0.04789  -0.31764   0.08492
  29   30491.1    328.0   0.078167202   0.84397   0.69755   0.58517  -0.12239
  30   30758.5    325.1   0.033800593   0.36177  -0.58680  -0.09995  -0.08629
  31   31029.2    322.3   0.219554926   2.32942  -0.03098  -0.76316   1.32138
  32   31225.4    320.3   0.058356526   0.61526  -0.07585  -0.78027   0.02601
  33   31384.7    318.6   0.068944472   0.72320  -0.40317   0.60030   0.44754
  34   31617.9    316.3   0.206161888   2.14660  -1.16801  -0.19004   0.86385
  35   31750.6    315.0   0.007328768   0.07599  -0.05656  -0.26882   0.02296
  36   31836.9    314.1   0.052244150   0.54024  -0.08250   0.50888  -0.52390
  37   32181.1    310.7   0.061803185   0.63225  -0.07161   0.55209   0.56772
  38   32488.8    307.8   0.117903786   1.19473  -1.03898   0.16540   0.29647
  39   32911.9    303.8   0.060728136   0.60745   0.25634  -0.29770   0.67314
  40   33035.0    302.7   0.028860328   0.28761   0.16843  -0.26892  -0.43235
  41   33298.3    300.3   0.118633664   1.17290   0.27218  -0.33507   0.99325
  42   33451.9    298.9   0.026036171   0.25623   0.23083   0.22063  -0.39278
  43   33484.1    298.6   0.059139466   0.58145  -0.15208  -0.63027  -0.40136
  44   33737.8    296.4   0.145888183   1.42357  -0.12427   0.67407   0.97661
  45   34082.8    293.4   0.074962966   0.72408  -0.53029  -0.30504   0.59146
  46   34330.9    291.3   0.224341027   2.15129  -0.19136  -0.50499   1.36369
  47   34561.4    289.3   0.159352626   1.51790  -1.08192   0.57849   0.11274
  48   34618.8    288.9   0.017933281   0.17054  -0.16030  -0.17278   0.33910
  49   34862.8    286.8   0.153801795   1.45236   0.90851  -0.78461  -0.10658
  50   34997.4    285.7   0.688506252   6.47661   1.81994   0.19677  -1.76797
  51   35684.8    280.2   0.006422767   0.05925   0.21266  -0.09444  -0.07148
  52   35939.5    278.2   0.223013603   2.04284  -1.05725   0.45796   0.84578
  53   36068.7    277.2   0.015706639   0.14336   0.20456  -0.31531   0.04577
  54   36241.7    275.9   0.009471266   0.08604  -0.27779   0.09235  -0.01845
  55   36330.6    275.3   0.019002123   0.17219   0.15758   0.18248  -0.33772
  56   36587.2    273.3   0.055264419   0.49727  -0.32413   0.47122  -0.41250
  57   37024.4    270.1   0.015527608   0.13807  -0.21745  -0.21676   0.20928
  58   37142.9    269.2   0.116404936   1.03174  -0.67256   0.72719   0.22494
  59   37214.6    268.7   0.145238244   1.28482  -0.25457  -0.54099  -0.96299
  60   37433.7    267.1   0.203543939   1.79007   0.61715  -0.84119   0.83761
  61   37478.1    266.8   0.174120334   1.52949  -0.23065   0.93422  -0.77687
  62   37876.9    264.0   0.046554108   0.40463   0.10073  -0.47627   0.40945
  63   38075.9    262.6   0.008439834   0.07297  -0.12079   0.16115  -0.18003
  64   38754.2    258.0   0.112761315   0.95789   0.95316   0.03780   0.21896
  65   39351.8    254.1   0.003566988   0.02984   0.00937  -0.00784   0.17231
  66   39687.1    252.0   0.030250742   0.25094  -0.33562   0.28278   0.24152
  67   39710.9    251.8   0.008414750   0.06976   0.21975  -0.02956  -0.14352
  68   39941.7    250.4   0.014265887   0.11758  -0.20996  -0.02410   0.27004
  69   40059.0    249.6   0.020400090   0.16765  -0.36496  -0.17840   0.05128
  70   40109.4    249.3   0.006045901   0.04962   0.12400   0.01016  -0.18478
  71   40171.9    248.9   0.015066603   0.12347   0.32691   0.08588  -0.09607

FINAL SINGLE POINT ENERGY     -4282.423447588813

DIPOLE MOMENT
-------------
                                X             Y             Z
Electronic contribution:    -10.53531      11.58994      -6.76176
Nuclear contribution   :     12.86680     -10.99195       1.95039
                        -----------------------------------------
Total Dipole Moment    :      2.33149       0.59799      -4.81137
                        -----------------------------------------
Magnitude (a.u.)       :      5.37985
Magnitude (Debye)      :     13.67448

Rotational constants in cm-1:     0.001184     0.000471     0.000393
Rotational constants in MHz :    35.509310    14.115136    11.771694

                             ****ORCA TERMINATED NORMALLY****
TOTAL RUN TIME: 0 days 0 hours 10 minutes 57 seconds 746 msec
