                         Program Version 4.2.0 -  RELEASE  -
|  1> # ORCA input file
|  2> # SCF done       -190.414586414758          0.000706730637
|  3> ! CAM-B3LYP def2-SVP def2/J RIJCOSX Grid4 TightSCF
|  4> %maxcore 5000
|  5> %tddft
|  6>     Mode sTDDFT
|  7>     Ethresh 5.0
|  8>     maxcore 5000
|  9> end
| 10>
| 11> %pal
| 12>   nprocs 6
| 13>   end
| 14> * xyz 0 1
| 15>    C        2.29451         1.12589        -1.05540
| 16>    C        3.24193         2.12286        -1.03309
| 17>    C        4.55134         1.96609        -0.53956
| 18>    N        5.61624         1.92927        -0.11055
| 19>    C        3.04205         3.40251        -1.57757
| 20>    N        2.93511         4.45748        -2.02087
| 21>    C        2.55775        -0.28963        -0.81736
| 22>    C        1.44070        -1.04185        -1.28345
| 23>    C        1.42094        -2.40500        -1.23382
| 24>    C        2.53492        -3.09143        -0.69804
| 25>    C        3.64980        -2.34533        -0.21919
| 26>    C        3.64406        -0.93225        -0.28945
| 27>    C        4.75373        -3.04131         0.31263
| 28>    C        4.76017        -4.40888         0.36653
| 29>    C        3.66242        -5.14258        -0.10605
| 30>    C        2.57316        -4.49743        -0.62663
| 31>    C        0.41197        -0.11489        -1.78518
| 32>    O       -0.64878        -0.38448        -2.30124
| 33>    C        0.93271         1.25461        -1.49298
| 34>    C        0.06552         2.30103        -1.64151
| 35>    C        0.06695         3.64584        -1.22085
| 36>    C        0.69694         4.32282        -0.17430
| 37>    C        0.38928         5.70166        -0.14244
| 38>    S        1.17727         6.82894         0.93318
| 39>    C        2.76193         5.92402         1.09686
| 40>    C        2.55967         4.68370         1.92713
| 41>    S        1.57478         3.42183         1.03741
| 42>    C       -0.49852         6.08492        -1.14466
| 43>    S       -0.95268         4.73375        -2.12741
| 44>    C       -1.01622         7.37161        -1.48108
| 45>    C       -1.15063         8.44359        -0.57634
| 46>    C       -1.59275         9.74998        -0.99089
| 47>    N       -1.60527        10.75457        -0.09055
| 48>    C       -1.30499        10.51242         1.14279
| 49>    C       -0.97376         9.20148         1.57210
| 50>    N       -0.89081         8.22388         0.72889
| 51>    F       -0.73903         8.94029         2.85544
| 52>    F       -1.31841        11.52889         2.00050
| 53>    C       -1.96624        10.03378        -2.31843
| 54>    C       -1.89051         8.94421        -3.21396
| 55>    C       -1.44803         7.63749        -2.80000
| 56>    N       -1.48015         6.76552        -3.80735
| 57>    S       -2.01261         7.50562        -5.12882
| 58>    N       -2.23347         8.96070        -4.50174
| 59>    C       -2.34758        11.32467        -2.79789
| 60>    C       -3.01080        12.36546        -2.14789
| 61>    C       -3.17654        13.48231        -2.98105
| 62>    S       -3.95861        15.00148        -2.61258
| 63>    C       -4.54658        14.77091        -0.90291
| 64>    C       -5.06400        13.37097        -0.67980
| 65>    S       -3.65970        12.20632        -0.52768
| 66>    C       -2.62936        13.30260        -4.26901
| 67>    S       -1.94861        11.71012        -4.44145
| 68>    C       -2.64383        14.31429        -5.23683
| 69>    C       -2.16108        14.31889        -6.52163
| 70>    C       -2.20434        15.44198        -7.43754
| 71>    C       -2.73654        16.68578        -7.20797
| 72>    C       -2.73085        17.73140        -8.15482
| 73>    N       -2.75983        18.62360        -8.87741
| 74>    C       -3.36841        17.11851        -6.02355
| 75>    N       -3.89935        17.56247        -5.10622
| 76>    C       -1.57072        15.01754        -8.68382
| 77>    C       -1.16392        13.65966        -8.54514
| 78>    C       -1.51584        13.18743        -7.19830
| 79>    O       -1.30773        12.07406        -6.74605
| 80>    C       -0.54258        12.98136        -9.55309
| 81>    C       -0.28798        13.64574       -10.77390
| 82>    C       -0.68591        15.00542       -10.92107
| 83>    C       -1.33218        15.67968        -9.85839
| 84>    C       -0.42254        15.66087       -12.14067
| 85>    C        0.20330        15.00632       -13.16686
| 86>    C        0.59314        13.66691       -13.02120
| 87>    C        0.35244        13.00090       -11.84991
| 88>    H        0.56773        -2.95570        -1.60126
| 89>    H        4.50099        -0.39315         0.08345
| 90>    H        5.59807        -2.47224         0.67348
| 91>    H        5.61238        -4.93261         0.77321
| 92>    H        3.68373        -6.22100        -0.05616
| 93>    H        1.72459        -5.05712        -0.99227
| 94>    H       -0.83021         2.02588        -2.19582
| 95>    H        3.43410         6.61396         1.60497
| 96>    H        3.14705         5.69872         0.10223
| 97>    H        2.04638         4.91671         2.86076
| 98>    H        3.50636         4.18638         2.14498
| 99>    H       -5.33483        15.51618        -0.79004
|100>    H       -3.73055        14.99941        -0.21695
|101>    H       -5.72309        13.04698        -1.48486
|102>    H       -5.58757        13.29993         0.27274
|103>    H       -3.10556        15.23233        -4.89163
|104>    H       -0.24688        11.95126        -9.41997
|105>    H       -1.62003        16.70825       -10.00519
|106>    H       -0.72489        16.69225       -12.24846
|107>    H        0.40134        15.51780       -14.09692
|108>    H        1.08550        13.16546       -13.84103
|109>    H        0.65081        11.96940       -11.73132
|110> *
|111>
|112>                          ****END OF INPUT****

CARTESIAN COORDINATES (ANGSTROEM)
---------------------------------
  C      2.294510    1.125890   -1.055400
  C      3.241930    2.122860   -1.033090
  C      4.551340    1.966090   -0.539560
  N      5.616240    1.929270   -0.110550
  C      3.042050    3.402510   -1.577570
  N      2.935110    4.457480   -2.020870
  C      2.557750   -0.289630   -0.817360
  C      1.440700   -1.041850   -1.283450
  C      1.420940   -2.405000   -1.233820
  C      2.534920   -3.091430   -0.698040
  C      3.649800   -2.345330   -0.219190
  C      3.644060   -0.932250   -0.289450
  C      4.753730   -3.041310    0.312630
  C      4.760170   -4.408880    0.366530
  C      3.662420   -5.142580   -0.106050
  C      2.573160   -4.497430   -0.626630
  C      0.411970   -0.114890   -1.785180
  O     -0.648780   -0.384480   -2.301240
  C      0.932710    1.254610   -1.492980
  C      0.065520    2.301030   -1.641510
  C      0.066950    3.645840   -1.220850
  C      0.696940    4.322820   -0.174300
  C      0.389280    5.701660   -0.142440
  S      1.177270    6.828940    0.933180
  C      2.761930    5.924020    1.096860
  C      2.559670    4.683700    1.927130
  S      1.574780    3.421830    1.037410
  C     -0.498520    6.084920   -1.144660
  S     -0.952680    4.733750   -2.127410
  C     -1.016220    7.371610   -1.481080
  C     -1.150630    8.443590   -0.576340
  C     -1.592750    9.749980   -0.990890
  N     -1.605270   10.754570   -0.090550
  C     -1.304990   10.512420    1.142790
  C     -0.973760    9.201480    1.572100
  N     -0.890810    8.223880    0.728890
  F     -0.739030    8.940290    2.855440
  F     -1.318410   11.528890    2.000500
  C     -1.966240   10.033780   -2.318430
  C     -1.890510    8.944210   -3.213960
  C     -1.448030    7.637490   -2.800000
  N     -1.480150    6.765520   -3.807350
  S     -2.012610    7.505620   -5.128820
  N     -2.233470    8.960700   -4.501740
  C     -2.347580   11.324670   -2.797890
  C     -3.010800   12.365460   -2.147890
  C     -3.176540   13.482310   -2.981050
  S     -3.958610   15.001480   -2.612580
  C     -4.546580   14.770910   -0.902910
  C     -5.064000   13.370970   -0.679800
  S     -3.659700   12.206320   -0.527680
  C     -2.629360   13.302600   -4.269010
  S     -1.948610   11.710120   -4.441450
  C     -2.643830   14.314290   -5.236830
  C     -2.161080   14.318890   -6.521630
  C     -2.204340   15.441980   -7.437540
  C     -2.736540   16.685780   -7.207970
  C     -2.730850   17.731400   -8.154820
  N     -2.759830   18.623600   -8.877410
  C     -3.368410   17.118510   -6.023550
  N     -3.899350   17.562470   -5.106220
  C     -1.570720   15.017540   -8.683820
  C     -1.163920   13.659660   -8.545140
  C     -1.515840   13.187430   -7.198300
  O     -1.307730   12.074060   -6.746050
  C     -0.542580   12.981360   -9.553090
  C     -0.287980   13.645740  -10.773900
  C     -0.685910   15.005420  -10.921070
  C     -1.332180   15.679680   -9.858390
  C     -0.422540   15.660870  -12.140670
  C      0.203300   15.006320  -13.166860
  C      0.593140   13.666910  -13.021200
  C      0.352440   13.000900  -11.849910
  H      0.567730   -2.955700   -1.601260
  H      4.500990   -0.393150    0.083450
  H      5.598070   -2.472240    0.673480
  H      5.612380   -4.932610    0.773210
  H      3.683730   -6.221000   -0.056160
  H      1.724590   -5.057120   -0.992270
  H     -0.830210    2.025880   -2.195820
  H      3.434100    6.613960    1.604970
  H      3.147050    5.698720    0.102230
  H      2.046380    4.916710    2.860760
  H      3.506360    4.186380    2.144980
  H     -5.334830   15.516180   -0.790040
  H     -3.730550   14.999410   -0.216950
  H     -5.723090   13.046980   -1.484860
  H     -5.587570   13.299930    0.272740
  H     -3.105560   15.232330   -4.891630
  H     -0.246880   11.951260   -9.419970
  H     -1.620030   16.708250  -10.005190
  H     -0.724890   16.692250  -12.248460
  H      0.401340   15.517800  -14.096920
  H      1.085500   13.165460  -13.841030
  H      0.650810   11.969400  -11.731320

 Total Charge           Charge          ....    0
 Multiplicity           Mult            ....    1
 Number of Electrons    NEL             ....  548
 Basis Dimension        Dim             .... 1160

ORBITAL ENERGIES
----------------

  NO   OCC          E(Eh)            E(eV)
   0   2.0000     -89.043158     -2422.9875
   1   2.0000     -88.961021     -2420.7525
   2   2.0000     -88.958194     -2420.6755
   3   2.0000     -88.946463     -2420.3563
   4   2.0000     -88.938128     -2420.1295
   5   2.0000     -88.934171     -2420.0218
   6   2.0000     -88.930849     -2419.9314
   7   2.0000     -24.816276      -675.2852
   8   2.0000     -24.815936      -675.2759
   9   2.0000     -19.214232      -522.8458
  10   2.0000     -19.209049      -522.7048
  11   2.0000     -14.457576      -393.4107
  12   2.0000     -14.455468      -393.3533
  13   2.0000     -14.451458      -393.2442
  14   2.0000     -14.451198      -393.2371
  15   2.0000     -14.413387      -392.2082
  16   2.0000     -14.411421      -392.1547
  17   2.0000     -14.408858      -392.0850
  18   2.0000     -14.406280      -392.0148
  19   2.0000     -10.431541      -283.8567
  20   2.0000     -10.430914      -283.8396
  21   2.0000     -10.362244      -281.9710
  22   2.0000     -10.358625      -281.8725
  23   2.0000     -10.350536      -281.6524
  24   2.0000     -10.349564      -281.6259
  25   2.0000     -10.342027      -281.4209
  26   2.0000     -10.341645      -281.4105
  27   2.0000     -10.336941      -281.2825
  28   2.0000     -10.333366      -281.1852
  29   2.0000     -10.332537      -281.1626
  30   2.0000     -10.328396      -281.0499
  31   2.0000     -10.325263      -280.9647
  32   2.0000     -10.323862      -280.9266
  33   2.0000     -10.321597      -280.8649
  34   2.0000     -10.321421      -280.8601
  35   2.0000     -10.318761      -280.7878
  36   2.0000     -10.317292      -280.7478
  37   2.0000     -10.316392      -280.7233
  38   2.0000     -10.316143      -280.7165
  39   2.0000     -10.316024      -280.7133
  40   2.0000     -10.314957      -280.6843
  41   2.0000     -10.314540      -280.6729
  42   2.0000     -10.314182      -280.6632
  43   2.0000     -10.312282      -280.6115
  44   2.0000     -10.311506      -280.5903
  45   2.0000     -10.311276      -280.5841
  46   2.0000     -10.309874      -280.5459
  47   2.0000     -10.309813      -280.5443
  48   2.0000     -10.308861      -280.5184
  49   2.0000     -10.302931      -280.3570
  50   2.0000     -10.299187      -280.2551
  51   2.0000     -10.296608      -280.1850
  52   2.0000     -10.296138      -280.1722
  53   2.0000     -10.292628      -280.0766
  54   2.0000     -10.292251      -280.0664
  55   2.0000     -10.291917      -280.0573
  56   2.0000     -10.291900      -280.0568
  57   2.0000     -10.291644      -280.0499
  58   2.0000     -10.291391      -280.0430
  59   2.0000     -10.291071      -280.0343
  60   2.0000     -10.290633      -280.0224
  61   2.0000     -10.290492      -280.0185
  62   2.0000     -10.288919      -279.9757
  63   2.0000     -10.282958      -279.8135
  64   2.0000     -10.282404      -279.7984
  65   2.0000     -10.282067      -279.7893
  66   2.0000     -10.281880      -279.7842
  67   2.0000     -10.281471      -279.7730
  68   2.0000     -10.281458      -279.7727
  69   2.0000     -10.281183      -279.7652
  70   2.0000     -10.280877      -279.7569
  71   2.0000     -10.280770      -279.7540
  72   2.0000     -10.280259      -279.7401
  73   2.0000      -8.134378      -221.3477
  74   2.0000      -8.056055      -219.2164
  75   2.0000      -8.051202      -219.0843
  76   2.0000      -8.041225      -218.8128
  77   2.0000      -8.033495      -218.6025
  78   2.0000      -8.028266      -218.4602
  79   2.0000      -8.025198      -218.3767
  80   2.0000      -6.105416      -166.1368
  81   2.0000      -6.097653      -165.9256
  82   2.0000      -6.097214      -165.9136
  83   2.0000      -6.025525      -163.9629
  84   2.0000      -6.021258      -163.8468
  85   2.0000      -6.020669      -163.8307
  86   2.0000      -6.017745      -163.7512
  87   2.0000      -6.016155      -163.7079
  88   2.0000      -6.013095      -163.6246
  89   2.0000      -6.011528      -163.5820
  90   2.0000      -6.007088      -163.4612
  91   2.0000      -6.003859      -163.3733
  92   2.0000      -6.001499      -163.3091
  93   2.0000      -5.999533      -163.2556
  94   2.0000      -5.998683      -163.2325
  95   2.0000      -5.995694      -163.1511
  96   2.0000      -5.994633      -163.1222
  97   2.0000      -5.993418      -163.0892
  98   2.0000      -5.991650      -163.0411
  99   2.0000      -5.987890      -162.9388
 100   2.0000      -5.984619      -162.8498
 101   2.0000      -1.344079       -36.5743
 102   2.0000      -1.329960       -36.1900
 103   2.0000      -1.142345       -31.0848
 104   2.0000      -1.129506       -30.7354
 105   2.0000      -1.123928       -30.5836
 106   2.0000      -1.116554       -30.3830
 107   2.0000      -1.043198       -28.3869
 108   2.0000      -1.017499       -27.6876
 109   2.0000      -1.011515       -27.5247
 110   2.0000      -1.009673       -27.4746
 111   2.0000      -1.007623       -27.4188
 112   2.0000      -0.993598       -27.0372
 113   2.0000      -0.992826       -27.0162
 114   2.0000      -0.992497       -27.0072
 115   2.0000      -0.989953       -26.9380
 116   2.0000      -0.985870       -26.8269
 117   2.0000      -0.974146       -26.5079
 118   2.0000      -0.965742       -26.2792
 119   2.0000      -0.964992       -26.2588
 120   2.0000      -0.938358       -25.5340
 121   2.0000      -0.934718       -25.4350
 122   2.0000      -0.923213       -25.1219
 123   2.0000      -0.919382       -25.0176
 124   2.0000      -0.911915       -24.8145
 125   2.0000      -0.903391       -24.5825
 126   2.0000      -0.889835       -24.2136
 127   2.0000      -0.887975       -24.1630
 128   2.0000      -0.885124       -24.0855
 129   2.0000      -0.875807       -23.8319
 130   2.0000      -0.875629       -23.8271
 131   2.0000      -0.872803       -23.7502
 132   2.0000      -0.860999       -23.4290
 133   2.0000      -0.860243       -23.4084
 134   2.0000      -0.851640       -23.1743
 135   2.0000      -0.848329       -23.0842
 136   2.0000      -0.825687       -22.4681
 137   2.0000      -0.823020       -22.3955
 138   2.0000      -0.822523       -22.3820
 139   2.0000      -0.811868       -22.0921
 140   2.0000      -0.811248       -22.0752
 141   2.0000      -0.788585       -21.4585
 142   2.0000      -0.775575       -21.1045
 143   2.0000      -0.764709       -20.8088
 144   2.0000      -0.757098       -20.6017
 145   2.0000      -0.755758       -20.5652
 146   2.0000      -0.752001       -20.4630
 147   2.0000      -0.747658       -20.3448
 148   2.0000      -0.744055       -20.2468
 149   2.0000      -0.730555       -19.8794
 150   2.0000      -0.719347       -19.5744
 151   2.0000      -0.713208       -19.4074
 152   2.0000      -0.700820       -19.0703
 153   2.0000      -0.699687       -19.0395
 154   2.0000      -0.695765       -18.9327
 155   2.0000      -0.695179       -18.9168
 156   2.0000      -0.692247       -18.8370
 157   2.0000      -0.682656       -18.5760
 158   2.0000      -0.678872       -18.4731
 159   2.0000      -0.672473       -18.2989
 160   2.0000      -0.670649       -18.2493
 161   2.0000      -0.665722       -18.1152
 162   2.0000      -0.662251       -18.0208
 163   2.0000      -0.655574       -17.8391
 164   2.0000      -0.643568       -17.5124
 165   2.0000      -0.634585       -17.2679
 166   2.0000      -0.629550       -17.1309
 167   2.0000      -0.628359       -17.0985
 168   2.0000      -0.623059       -16.9543
 169   2.0000      -0.619903       -16.8684
 170   2.0000      -0.615337       -16.7442
 171   2.0000      -0.604672       -16.4539
 172   2.0000      -0.602160       -16.3856
 173   2.0000      -0.601034       -16.3550
 174   2.0000      -0.598684       -16.2910
 175   2.0000      -0.591617       -16.0987
 176   2.0000      -0.587813       -15.9952
 177   2.0000      -0.579621       -15.7723
 178   2.0000      -0.571716       -15.5572
 179   2.0000      -0.570204       -15.5160
 180   2.0000      -0.567995       -15.4559
 181   2.0000      -0.564022       -15.3478
 182   2.0000      -0.558840       -15.2068
 183   2.0000      -0.553585       -15.0638
 184   2.0000      -0.549807       -14.9610
 185   2.0000      -0.548259       -14.9189
 186   2.0000      -0.546883       -14.8814
 187   2.0000      -0.542622       -14.7655
 188   2.0000      -0.540869       -14.7178
 189   2.0000      -0.539086       -14.6693
 190   2.0000      -0.537932       -14.6379
 191   2.0000      -0.533714       -14.5231
 192   2.0000      -0.530868       -14.4456
 193   2.0000      -0.530224       -14.4281
 194   2.0000      -0.527750       -14.3608
 195   2.0000      -0.525237       -14.2924
 196   2.0000      -0.521428       -14.1888
 197   2.0000      -0.519929       -14.1480
 198   2.0000      -0.518551       -14.1105
 199   2.0000      -0.515533       -14.0284
 200   2.0000      -0.514212       -13.9924
 201   2.0000      -0.512974       -13.9587
 202   2.0000      -0.511856       -13.9283
 203   2.0000      -0.509296       -13.8587
 204   2.0000      -0.508009       -13.8236
 205   2.0000      -0.505540       -13.7564
 206   2.0000      -0.504844       -13.7375
 207   2.0000      -0.500046       -13.6069
 208   2.0000      -0.494761       -13.4631
 209   2.0000      -0.494261       -13.4495
 210   2.0000      -0.490492       -13.3470
 211   2.0000      -0.489586       -13.3223
 212   2.0000      -0.488629       -13.2963
 213   2.0000      -0.485077       -13.1996
 214   2.0000      -0.483019       -13.1436
 215   2.0000      -0.481549       -13.1036
 216   2.0000      -0.478675       -13.0254
 217   2.0000      -0.477999       -13.0070
 218   2.0000      -0.476091       -12.9551
 219   2.0000      -0.462365       -12.5816
 220   2.0000      -0.460215       -12.5231
 221   2.0000      -0.459701       -12.5091
 222   2.0000      -0.454489       -12.3673
 223   2.0000      -0.448091       -12.1932
 224   2.0000      -0.444311       -12.0903
 225   2.0000      -0.442741       -12.0476
 226   2.0000      -0.441467       -12.0129
 227   2.0000      -0.439882       -11.9698
 228   2.0000      -0.438505       -11.9323
 229   2.0000      -0.437139       -11.8951
 230   2.0000      -0.435703       -11.8561
 231   2.0000      -0.434115       -11.8129
 232   2.0000      -0.432954       -11.7813
 233   2.0000      -0.431004       -11.7282
 234   2.0000      -0.428890       -11.6707
 235   2.0000      -0.428382       -11.6569
 236   2.0000      -0.427192       -11.6245
 237   2.0000      -0.425622       -11.5818
 238   2.0000      -0.423761       -11.5311
 239   2.0000      -0.423217       -11.5163
 240   2.0000      -0.419187       -11.4067
 241   2.0000      -0.416073       -11.3219
 242   2.0000      -0.414005       -11.2657
 243   2.0000      -0.413672       -11.2566
 244   2.0000      -0.407121       -11.0783
 245   2.0000      -0.404508       -11.0072
 246   2.0000      -0.402293       -10.9469
 247   2.0000      -0.400489       -10.8979
 248   2.0000      -0.397792       -10.8245
 249   2.0000      -0.392914       -10.6917
 250   2.0000      -0.388669       -10.5762
 251   2.0000      -0.381112       -10.3706
 252   2.0000      -0.377104       -10.2615
 253   2.0000      -0.374125       -10.1805
 254   2.0000      -0.369204       -10.0465
 255   2.0000      -0.364173        -9.9097
 256   2.0000      -0.363519        -9.8919
 257   2.0000      -0.361386        -9.8338
 258   2.0000      -0.353662        -9.6236
 259   2.0000      -0.346550        -9.4301
 260   2.0000      -0.343699        -9.3525
 261   2.0000      -0.333602        -9.0778
 262   2.0000      -0.329833        -8.9752
 263   2.0000      -0.327168        -8.9027
 264   2.0000      -0.325751        -8.8641
 265   2.0000      -0.315567        -8.5870
 266   2.0000      -0.311903        -8.4873
 267   2.0000      -0.308598        -8.3974
 268   2.0000      -0.290736        -7.9113
 269   2.0000      -0.290087        -7.8937
 270   2.0000      -0.279106        -7.5949
 271   2.0000      -0.270325        -7.3559
 272   2.0000      -0.266244        -7.2449
 273   2.0000      -0.246983        -6.7207
 274   0.0000      -0.118251        -3.2178
 275   0.0000      -0.082162        -2.2357
 276   0.0000      -0.077000        -2.0953
 277   0.0000      -0.052477        -1.4280
 278   0.0000      -0.050597        -1.3768

MULLIKEN ATOMIC CHARGES
-----------------------
   0 C :    0.310473
   1 C :   -0.342778
   2 C :   -0.187126
   3 N :    0.144973
   4 C :   -0.170714
   5 N :    0.142312
   6 C :    0.042618
   7 C :    0.015666
   8 C :   -0.084738
   9 C :    0.093941
  10 C :    0.099112
  11 C :   -0.096096
  12 C :   -0.020795
  13 C :    0.037433
  14 C :    0.030968
  15 C :   -0.016322
  16 C :    0.133514
  17 O :   -0.145729
  18 C :   -0.135014
  19 C :    0.042010
  20 C :   -0.115671
  21 C :   -0.034850
  22 C :    0.017688
  23 S :    0.022513
  24 C :   -0.098753
  25 C :    0.002241
  26 S :    0.024855
  27 C :   -0.192970
  28 S :    0.194022
  29 C :    0.153270
  30 C :   -0.060123
  31 C :   -0.054408
  32 N :   -0.022345
  33 C :    0.168116
  34 C :    0.170773
  35 N :   -0.038886
  36 F :   -0.140049
  37 F :   -0.138529
  38 C :    0.126883
  39 C :   -0.023122
  40 C :   -0.017219
  41 N :   -0.299591
  42 S :    0.556344
  43 N :   -0.272460
  44 C :   -0.197936
  45 C :    0.021285
  46 C :   -0.023981
  47 S :    0.007658
  48 C :   -0.009250
  49 C :   -0.075286
  50 S :    0.016126
  51 C :   -0.078288
  52 S :    0.244012
  53 C :   -0.051346
  54 C :   -0.104372
  55 C :    0.335215
  56 C :   -0.364749
  57 C :   -0.182383
  58 N :    0.142263
  59 C :   -0.196339
  60 N :    0.150254
  61 C :    0.044143
  62 C :    0.002081
  63 C :    0.162049
  64 O :   -0.180625
  65 C :   -0.085688
  66 C :    0.099278
  67 C :    0.097242
  68 C :   -0.085701
  69 C :   -0.019992
  70 C :    0.036036
  71 C :    0.035384
  72 C :   -0.017117
  73 H :   -0.014806
  74 H :   -0.012315
  75 H :   -0.013215
  76 H :   -0.007785
  77 H :   -0.006559
  78 H :   -0.019543
  79 H :    0.027252
  80 H :    0.058076
  81 H :    0.084517
  82 H :    0.067384
  83 H :    0.067067
  84 H :    0.065905
  85 H :    0.072777
  86 H :    0.068676
  87 H :    0.055966
  88 H :    0.036309
  89 H :   -0.017189
  90 H :   -0.010232
  91 H :   -0.009751
  92 H :   -0.006837
  93 H :   -0.006911
  94 H :   -0.020194
Sum of atomic charges:   -0.0000000

LOEWDIN ATOMIC CHARGES
----------------------
   0 C :    0.052020
   1 C :   -0.148952
   2 C :   -0.019288
   3 N :   -0.061678
   4 C :   -0.017791
   5 N :   -0.063028
   6 C :   -0.019027
   7 C :   -0.058356
   8 C :    0.032147
   9 C :   -0.011938
  10 C :   -0.005163
  11 C :    0.007721
  12 C :   -0.008885
  13 C :   -0.014765
  14 C :   -0.016965
  15 C :   -0.009677
  16 C :    0.085008
  17 O :   -0.144565
  18 C :   -0.096136
  19 C :    0.031885
  20 C :   -0.198768
  21 C :   -0.184419
  22 C :   -0.190154
  23 S :    0.339985
  24 C :   -0.152750
  25 C :   -0.137321
  26 S :    0.372723
  27 C :   -0.166868
  28 S :    0.496419
  29 C :   -0.041965
  30 C :   -0.007863
  31 C :   -0.007804
  32 N :   -0.048292
  33 C :    0.064431
  34 C :    0.062137
  35 N :   -0.051245
  36 F :   -0.026783
  37 F :   -0.025859
  38 C :   -0.046827
  39 C :   -0.046662
  40 C :   -0.047039
  41 N :   -0.296736
  42 S :    0.684013
  43 N :   -0.283256
  44 C :   -0.169618
  45 C :   -0.208036
  46 C :   -0.173451
  47 S :    0.340463
  48 C :   -0.141228
  49 C :   -0.153499
  50 S :    0.320805
  51 C :   -0.214037
  52 S :    0.551127
  53 C :    0.050298
  54 C :   -0.107974
  55 C :    0.075927
  56 C :   -0.145864
  57 C :   -0.016163
  58 N :   -0.061128
  59 C :   -0.025609
  60 N :   -0.053319
  61 C :   -0.024230
  62 C :   -0.054005
  63 C :    0.083136
  64 O :   -0.168778
  65 C :    0.029206
  66 C :   -0.009458
  67 C :   -0.006833
  68 C :    0.018213
  69 C :   -0.005621
  70 C :   -0.015018
  71 C :   -0.014133
  72 C :   -0.010661
  73 H :    0.038322
  74 H :    0.036861
  75 H :    0.033136
  76 H :    0.031992
  77 H :    0.031830
  78 H :    0.031024
  79 H :    0.045332
  80 H :    0.033823
  81 H :    0.030636
  82 H :    0.025536
  83 H :    0.033670
  84 H :    0.035100
  85 H :    0.027042
  86 H :    0.026472
  87 H :    0.032130
  88 H :    0.039087
  89 H :    0.037372
  90 H :    0.038652
  91 H :    0.034524
  92 H :    0.032435
  93 H :    0.031996
  94 H :    0.030854

  Mayer bond orders larger than 0.100000
B(  0-C ,  1-C ) :   1.5874 B(  0-C ,  6-C ) :   1.0016 B(  0-C , 18-C ) :   1.0830
B(  1-C ,  2-C ) :   1.1439 B(  1-C ,  4-C ) :   1.1833 B(  2-C ,  3-N ) :   2.9706
B(  4-C ,  5-N ) :   2.9035 B(  6-C ,  7-C ) :   1.2093 B(  6-C , 11-C ) :   1.4644
B(  7-C ,  8-C ) :   1.4792 B(  7-C , 16-C ) :   0.9228 B(  8-C ,  9-C ) :   1.1784
B(  8-C , 73-H ) :   1.0157 B(  9-C , 10-C ) :   1.2600 B(  9-C , 15-C ) :   1.2467
B( 10-C , 11-C ) :   1.1964 B( 10-C , 12-C ) :   1.2449 B( 11-C , 74-H ) :   0.9918
B( 12-C , 13-C ) :   1.4867 B( 12-C , 75-H ) :   0.9965 B( 13-C , 14-C ) :   1.2630
B( 13-C , 76-H ) :   0.9877 B( 14-C , 15-C ) :   1.4861 B( 14-C , 77-H ) :   0.9895
B( 15-C , 78-H ) :   0.9969 B( 16-C , 17-O ) :   2.2586 B( 16-C , 18-C ) :   0.9366
B( 18-C , 19-C ) :   1.6193 B( 19-C , 20-C ) :   1.1693 B( 19-C , 79-H ) :   0.9139
B( 20-C , 21-C ) :   1.4542 B( 20-C , 27-C ) :   0.1088 B( 20-C , 28-S ) :   1.0901
B( 21-C , 22-C ) :   1.2701 B( 21-C , 26-S ) :   1.0819 B( 22-C , 23-S ) :   1.0280
B( 22-C , 27-C ) :   1.5204 B( 23-S , 24-C ) :   0.9809 B( 24-C , 25-C ) :   1.0384
B( 24-C , 80-H ) :   0.9458 B( 24-C , 81-H ) :   0.9356 B( 25-C , 26-S ) :   0.9758
B( 25-C , 82-H ) :   0.9430 B( 25-C , 83-H ) :   0.9385 B( 27-C , 28-S ) :   1.1512
B( 27-C , 29-C ) :   1.1163 B( 29-C , 30-C ) :   1.3349 B( 29-C , 38-C ) :   0.1267
B( 29-C , 40-C ) :   1.2027 B( 30-C , 31-C ) :   1.0985 B( 30-C , 35-N ) :   1.3766
B( 31-C , 32-N ) :   1.3836 B( 31-C , 38-C ) :   1.3488 B( 32-N , 33-C ) :   1.6423
B( 33-C , 34-C ) :   1.1018 B( 33-C , 37-F ) :   1.1805 B( 34-C , 35-N ) :   1.6313
B( 34-C , 36-F ) :   1.1788 B( 38-C , 39-C ) :   1.2045 B( 38-C , 44-C ) :   1.1111
B( 39-C , 40-C ) :   1.1206 B( 39-C , 43-N ) :   1.5093 B( 40-C , 41-N ) :   1.4940
B( 41-N , 42-S ) :   1.2743 B( 41-N , 43-N ) :   0.1511 B( 42-S , 43-N ) :   1.2898
B( 44-C , 45-C ) :   1.4629 B( 44-C , 51-C ) :   0.1092 B( 44-C , 52-S ) :   1.1374
B( 45-C , 46-C ) :   1.3416 B( 45-C , 50-S ) :   1.0091 B( 46-C , 47-S ) :   1.0612
B( 46-C , 51-C ) :   1.4013 B( 47-S , 48-C ) :   1.0025 B( 48-C , 49-C ) :   1.0212
B( 48-C , 84-H ) :   0.9443 B( 48-C , 85-H ) :   0.9457 B( 49-C , 50-S ) :   0.9940
B( 49-C , 86-H ) :   0.9487 B( 49-C , 87-H ) :   0.9488 B( 51-C , 52-S ) :   1.0866
B( 51-C , 53-C ) :   1.2757 B( 53-C , 54-C ) :   1.5261 B( 53-C , 88-H ) :   0.9232
B( 54-C , 55-C ) :   1.0886 B( 54-C , 63-C ) :   0.9721 B( 55-C , 56-C ) :   1.6105
B( 55-C , 61-C ) :   0.9788 B( 56-C , 57-C ) :   1.1523 B( 56-C , 59-C ) :   1.1475
B( 57-C , 58-N ) :   2.9594 B( 59-C , 60-N ) :   2.9656 B( 61-C , 62-C ) :   1.2188
B( 61-C , 68-C ) :   1.4555 B( 62-C , 63-C ) :   0.9576 B( 62-C , 65-C ) :   1.4732
B( 63-C , 64-O ) :   2.1301 B( 65-C , 66-C ) :   1.1726 B( 65-C , 89-H ) :   1.0157
B( 66-C , 67-C ) :   1.2619 B( 66-C , 72-C ) :   1.2456 B( 67-C , 68-C ) :   1.2014
B( 67-C , 69-C ) :   1.2408 B( 68-C , 90-H ) :   0.9885 B( 69-C , 70-C ) :   1.4882
B( 69-C , 91-H ) :   0.9968 B( 70-C , 71-C ) :   1.2630 B( 70-C , 92-H ) :   0.9878
B( 71-C , 72-C ) :   1.4869 B( 71-C , 93-H ) :   0.9882 B( 72-C , 94-H ) :   0.9970

-----------------------------------------------------------------------------
         ABSORPTION SPECTRUM VIA TRANSITION ELECTRIC DIPOLE MOMENTS
-----------------------------------------------------------------------------
State   Energy  Wavelength   fosc         T2         TX        TY        TZ
        (cm-1)    (nm)                  (au**2)     (au)      (au)      (au)
-----------------------------------------------------------------------------
   0   12188.5    820.4   0.938337842  25.34456  -1.50712   4.29228  -2.15627
   1   15591.1    641.4   0.041257663   0.87117   0.33020  -0.04497  -0.87185
   2   16977.8    589.0   0.064387192   1.24851   0.31445   1.05281  -0.20303
   3   19434.7    514.5   0.162656728   2.75530   0.87680  -0.99390  -0.99934
   4   20983.2    476.6   0.449181018   7.04735  -0.16395  -1.48807   2.19229
   5   21559.5    463.8   0.185869266   2.83821   1.08821  -1.24763  -0.31215
   6   23152.4    431.9   0.046906940   0.66699   0.19836  -0.71512   0.34094
   7   23583.0    424.0   0.098859800   1.38005  -0.32012   1.07889   0.33702
   8   24886.5    401.8   0.007388482   0.09774   0.11479  -0.04678  -0.28701
   9   25489.0    392.3   0.062165161   0.80292   0.47821  -0.58742  -0.47872
  10   25526.0    391.8   0.034527075   0.44530   0.23930  -0.58108  -0.22445
  11   26628.4    375.5   0.076955891   0.95142   0.49571  -0.56662  -0.62019
  12   27321.6    366.0   0.056678216   0.68294  -0.18591   0.73976  -0.31803
  13   27791.7    359.8   0.035086282   0.41562   0.45692  -0.44377  -0.09958
  14   28144.4    355.3   0.034054701   0.39835   0.14525  -0.59991   0.13176
  15   28555.4    350.2   0.003111033   0.03587  -0.10043  -0.15706   0.03334
  16   28756.3    347.8   0.044871004   0.51370   0.05818   0.60826   0.37461
  17   28973.3    345.1   0.080552044   0.91528   0.03725   0.86315  -0.41093
  18   29087.5    343.8   0.044866964   0.50780   0.01298   0.19199   0.68613
  19   29234.3    342.1   0.000680631   0.00766  -0.04199   0.07373  -0.02157
  20   29500.0    339.0   0.013491571   0.15056   0.03585   0.30384  -0.23866
  21   29855.8    334.9   0.038939673   0.42938   0.49913  -0.34187  -0.25173
  22   30366.4    329.3   0.139687177   1.51440  -0.21241  -0.31730  -1.16987
  23   30512.7    327.7   0.143178989   1.54481   0.25517  -0.90444  -0.81344
  24   30739.6    325.3   0.030738646   0.32920   0.24091   0.52006   0.02648
  25   30776.3    324.9   0.162044843   1.73338  -0.48567   0.59804   1.06764
  26   31014.8    322.4   0.226285836   2.40195  -0.27207  -0.63996   1.38505
  27   31180.4    320.7   0.080260743   0.84742   0.41949  -0.38189  -0.72498
  28   31255.1    319.9   0.219754505   2.31468  -0.07227  -1.47659   0.35935
  29   31628.1    316.2   0.017179907   0.17882  -0.41979  -0.04583   0.02233
  30   31651.2    315.9   0.096778301   1.00661  -0.42444   0.60825   0.67565
  31   32497.2    307.7   0.063490310   0.64319  -0.34718   0.12999   0.71117
  32   32798.6    304.9   0.020008417   0.20083  -0.24963   0.32242   0.18590
  33   33160.6    301.6   0.095661256   0.94971  -0.24293   0.90790  -0.25772
  34   33664.9    297.0   0.019949592   0.19509  -0.01885  -0.31072   0.31335
  35   33809.4    295.8   0.041573231   0.40481   0.40800  -0.14505  -0.46616
  36   33927.4    294.7   0.032472898   0.31510  -0.31851  -0.31146  -0.34153
  37   34002.6    294.1   0.050815236   0.49199   0.10719   0.52316  -0.45476
  38   34189.7    292.5   0.074641175   0.71872   0.39018  -0.51534   0.54855
  39   34904.0    286.5   0.025986514   0.24510   0.13735  -0.23022   0.41622
  40   35365.6    282.8   0.297688309   2.77113   0.45371   1.59638   0.12986
  41   35622.2    280.7   0.675813115   6.24571   1.22420  -1.65103  -1.42166
  42   36159.4    276.6   0.008182922   0.07450   0.03455   0.01451  -0.27036
  43   36399.5    274.7   0.035396109   0.32014  -0.17847   0.20419   0.49658
  44   36809.3    271.7   0.042463056   0.37978  -0.34978  -0.50582  -0.03975
  45   36881.7    271.1   0.264457261   2.36059   0.45959   0.48260  -1.38436
  46   37038.8    270.0   0.052359256   0.46538  -0.08392   0.66544  -0.12464
  47   37116.8    269.4   0.147379556   1.30720  -0.64509   0.93154   0.15262
  48   37299.6    268.1   0.116110770   1.02481   0.05992   0.95680  -0.32519
  49   37625.8    265.8   0.011726431   0.10260  -0.04264   0.31409   0.04618
  50   37774.2    264.7   0.151999774   1.32472  -0.00651   0.68690   0.92350
  51   37900.8    263.8   0.050284609   0.43678  -0.14194   0.64123   0.07390
  52   38014.9    263.1   0.047677119   0.41289  -0.33555   0.47562  -0.27217
  53   38249.8    261.4   0.053986217   0.46465   0.07699   0.32306   0.59528
  54   38491.7    259.8   0.113003169   0.96649  -0.23616  -0.21811  -0.92906
  55   38529.1    259.5   0.016477637   0.14079  -0.32783   0.05031  -0.17548
  56   38918.7    256.9   0.063222091   0.53479   0.31372  -0.66057   0.00471
  57   38954.1    256.7   0.020972608   0.17725   0.03085   0.19661   0.37100
  58   39056.2    256.0   0.254698087   2.14690  -0.32038   0.83810  -1.15838
  59   39087.6    255.8   0.060004119   0.50538  -0.09864  -0.63722   0.29933
  60   39325.3    254.3   0.020115150   0.16839   0.10439  -0.28218  -0.27905
  61   39516.1    253.1   0.076459450   0.63699  -0.11844   0.23469   0.75358
  62   39892.9    250.7   0.052613134   0.43418   0.49954   0.38438  -0.19209
  63   39971.5    250.2   0.001822543   0.01501  -0.02486  -0.00969   0.11958
  64   40246.6    248.5   0.153125299   1.25255  -0.69577   0.44604  -0.75465

FINAL SINGLE POINT ENERGY     -5641.977259512598

DIPOLE MOMENT
-------------
                                X             Y             Z
Electronic contribution:    -18.60923      20.56013      20.29200
Nuclear contribution   :     18.75854     -23.03013     -19.70599
                        -----------------------------------------
Total Dipole Moment    :      0.14931      -2.47000       0.58601
                        -----------------------------------------
Magnitude (a.u.)       :      2.54295
Magnitude (Debye)      :      6.46367

Rotational constants in cm-1:     0.001451     0.000317     0.000275
Rotational constants in MHz :    43.491340     9.499233     8.250598

                             ****ORCA TERMINATED NORMALLY****
TOTAL RUN TIME: 0 days 0 hours 10 minutes 51 seconds 753 msec
