                         Program Version 4.2.0 -  RELEASE  -
|  1> # ORCA input file
|  2> # SCF done       -197.070742115004          0.000526056076
|  3> ! CAM-B3LYP def2-SVP def2/J RIJCOSX Grid4 TightSCF
|  4> %maxcore 5000
|  5> %tddft
|  6>     Mode sTDDFT
|  7>     Ethresh 5.0
|  8>     maxcore 5000
|  9> end
| 10>
| 11> %pal
| 12>   nprocs 6
| 13>   end
| 14> * xyz 0 1
| 15>    C       -5.97324         3.49619        -7.01968
| 16>    C       -6.78868         3.48577        -5.91699
| 17>    C       -7.44357         2.33617        -5.43686
| 18>    N       -7.98009         1.42273        -4.99287
| 19>    C       -7.15248         4.65221        -5.21389
| 20>    N       -7.53376         5.58686        -4.66664
| 21>    C       -5.83761         2.40687        -7.98275
| 22>    C       -5.33299         2.94596        -9.20254
| 23>    C       -5.14245         2.16635       -10.30597
| 24>    C       -5.44130         0.78640       -10.23566
| 25>    C       -5.93133         0.23922        -9.01529
| 26>    C       -6.12758         1.07326        -7.88959
| 27>    C       -6.21914        -1.13925        -8.95732
| 28>    C       -6.03546        -1.94033       -10.05142
| 29>    C       -5.55382        -1.40047       -11.25295
| 30>    C       -5.26345        -0.06613       -11.34282
| 31>    C       -5.06489         4.38617        -9.02437
| 32>    O       -4.67048         5.17892        -9.85170
| 33>    C       -5.31834         4.65222        -7.58505
| 34>    C       -4.81941         5.78812        -7.01495
| 35>    C       -4.55543         6.05859        -5.65948
| 36>    O       -4.63032         5.06962        -4.70579
| 37>    C       -4.26979         5.64239        -3.55387
| 38>    C       -4.07934         5.36856        -2.19799
| 39>    C       -3.65908         6.57440        -1.64633
| 40>    O       -3.58140         7.56111        -2.59259
| 41>    C       -3.95252         6.99758        -3.75063
| 42>    C       -4.12296         7.26704        -5.10278
| 43>    C       -3.29460         6.90797        -0.29551
| 44>    C       -2.87061         8.18477        -0.00286
| 45>    C       -2.48370         8.51352         1.31063
| 46>    C       -2.01021         9.69691         1.85474
| 47>    C       -1.74132        11.01175         1.19724
| 48>    C       -0.47451        10.92169         0.32625
| 49>    N        0.67121        10.61557         1.16532
| 50>    C       -2.94624        11.57229         0.40552
| 51>    N       -3.03832        11.05400        -0.94823
| 52>    C       -1.73599         9.42879         3.24760
| 53>    C       -1.20977        10.20212         4.21239
| 54>    C       -0.97290         9.68730         5.59507
| 55>    C       -1.41569         8.27579         5.81467
| 56>    C       -1.93328         7.51153         4.83566
| 57>    C       -2.09597         8.03053         3.52823
| 58>    C       -2.54477         7.48509         2.34537
| 59>    C       -3.00346         6.18727         2.01067
| 60>    C       -3.36219         5.90867         0.73395
| 61>    C       -1.64667        10.63083         6.55622
| 62>    C       -1.01625        11.65263         7.14182
| 63>    C       -1.62091        12.61581         8.01404
| 64>    O       -0.84000        13.67417         8.38802
| 65>    C       -1.61110        14.44460         9.17078
| 66>    C       -1.60382        15.63209         9.89520
| 67>    C       -2.88479        15.72164        10.44573
| 68>    O       -3.65763        14.63128        10.08882
| 69>    C       -2.88721        13.87156         9.31223
| 70>    C       -2.89380        12.69134         8.56023
| 71>    C       -3.52450        16.64741        11.29411
| 72>    C       -3.14533        17.89810        11.69477
| 73>    C       -3.92542        18.73062        12.59634
| 74>    C       -4.91789        18.31420        13.44529
| 75>    C       -5.62168        19.17445        14.31393
| 76>    N       -6.23472        19.82199        15.03740
| 77>    C       -5.34513        16.98068        13.61833
| 78>    N       -5.73543        15.92338        13.83962
| 79>    C       -3.40934        20.09140        12.50849
| 80>    C       -2.25982        20.08043        11.66982
| 81>    C       -2.01499        18.71131        11.18311
| 82>    O       -1.08186        18.36101        10.49035
| 83>    C       -1.55259        21.21552        11.39756
| 84>    C       -1.97646        22.44145        11.95752
| 85>    C       -3.12997        22.46275        12.79335
| 86>    C       -3.83869        21.26869        13.06139
| 87>    C       -3.54727        23.69243        13.34198
| 88>    C       -2.86006        24.84610        13.07871
| 89>    C       -1.72471        24.82382        12.25514
| 90>    C       -1.29191        23.64681        11.70719
| 91>    H       -4.76750         2.59558       -11.22331
| 92>    H       -6.49391         0.63307        -6.97510
| 93>    H       -6.59274        -1.54988        -8.03065
| 94>    H       -6.26106        -2.99496        -9.99698
| 95>    H       -5.41391        -2.04669       -12.10676
| 96>    H       -4.89217         0.35560       -12.26558
| 97>    H       -4.48902         6.55321        -7.70808
| 98>    H       -4.22835         4.44149        -1.68705
| 99>    H       -3.98158         8.18436        -5.63508
|100>    H       -2.84406         8.94668        -0.76642
|101>    H       -1.53536        11.73533         1.99411
|102>    H       -0.35835        11.86847        -0.23169
|103>    H       -0.59112        10.10717        -0.38996
|104>    H        0.88995        11.40129         1.76903
|105>    H        1.48757        10.42390         0.59658
|106>    H       -2.87544        12.67357         0.42288
|107>    H       -3.86046        11.29046         0.93386
|108>    H       -2.32894        11.46626        -1.54313
|109>    H       -3.94453        11.26818        -1.34702
|110>    H       -0.92948        11.23221         4.04183
|111>    H        0.11180         9.74401         5.77500
|112>    H       -1.28778         7.89531         6.81671
|113>    H       -2.22605         6.49044         5.03319
|114>    H       -3.05794         5.42977         2.77877
|115>    H       -3.70866         4.92241         0.47062
|116>    H       -2.70129        10.46265         6.71278
|117>    H        0.03667        11.82400         6.95860
|118>    H       -0.82015        16.34902        10.02006
|119>    H       -3.68827        11.98817         8.42896
|120>    H       -4.48913        16.28681        11.63245
|121>    H       -0.68213        21.17893        10.75936
|122>    H       -4.71171        21.31969        13.69234
|123>    H       -4.42142        23.70457        13.97635
|124>    H       -3.18784        25.78289        13.50393
|125>    H       -1.19494        25.74364        12.05691
|126>    H       -0.41825        23.62307        11.07218
|127> *
|128>
|129>                          ****END OF INPUT****

CARTESIAN COORDINATES (ANGSTROEM)
---------------------------------
  C     -5.973240    3.496190   -7.019680
  C     -6.788680    3.485770   -5.916990
  C     -7.443570    2.336170   -5.436860
  N     -7.980090    1.422730   -4.992870
  C     -7.152480    4.652210   -5.213890
  N     -7.533760    5.586860   -4.666640
  C     -5.837610    2.406870   -7.982750
  C     -5.332990    2.945960   -9.202540
  C     -5.142450    2.166350  -10.305970
  C     -5.441300    0.786400  -10.235660
  C     -5.931330    0.239220   -9.015290
  C     -6.127580    1.073260   -7.889590
  C     -6.219140   -1.139250   -8.957320
  C     -6.035460   -1.940330  -10.051420
  C     -5.553820   -1.400470  -11.252950
  C     -5.263450   -0.066130  -11.342820
  C     -5.064890    4.386170   -9.024370
  O     -4.670480    5.178920   -9.851700
  C     -5.318340    4.652220   -7.585050
  C     -4.819410    5.788120   -7.014950
  C     -4.555430    6.058590   -5.659480
  O     -4.630320    5.069620   -4.705790
  C     -4.269790    5.642390   -3.553870
  C     -4.079340    5.368560   -2.197990
  C     -3.659080    6.574400   -1.646330
  O     -3.581400    7.561110   -2.592590
  C     -3.952520    6.997580   -3.750630
  C     -4.122960    7.267040   -5.102780
  C     -3.294600    6.907970   -0.295510
  C     -2.870610    8.184770   -0.002860
  C     -2.483700    8.513520    1.310630
  C     -2.010210    9.696910    1.854740
  C     -1.741320   11.011750    1.197240
  C     -0.474510   10.921690    0.326250
  N      0.671210   10.615570    1.165320
  C     -2.946240   11.572290    0.405520
  N     -3.038320   11.054000   -0.948230
  C     -1.735990    9.428790    3.247600
  C     -1.209770   10.202120    4.212390
  C     -0.972900    9.687300    5.595070
  C     -1.415690    8.275790    5.814670
  C     -1.933280    7.511530    4.835660
  C     -2.095970    8.030530    3.528230
  C     -2.544770    7.485090    2.345370
  C     -3.003460    6.187270    2.010670
  C     -3.362190    5.908670    0.733950
  C     -1.646670   10.630830    6.556220
  C     -1.016250   11.652630    7.141820
  C     -1.620910   12.615810    8.014040
  O     -0.840000   13.674170    8.388020
  C     -1.611100   14.444600    9.170780
  C     -1.603820   15.632090    9.895200
  C     -2.884790   15.721640   10.445730
  O     -3.657630   14.631280   10.088820
  C     -2.887210   13.871560    9.312230
  C     -2.893800   12.691340    8.560230
  C     -3.524500   16.647410   11.294110
  C     -3.145330   17.898100   11.694770
  C     -3.925420   18.730620   12.596340
  C     -4.917890   18.314200   13.445290
  C     -5.621680   19.174450   14.313930
  N     -6.234720   19.821990   15.037400
  C     -5.345130   16.980680   13.618330
  N     -5.735430   15.923380   13.839620
  C     -3.409340   20.091400   12.508490
  C     -2.259820   20.080430   11.669820
  C     -2.014990   18.711310   11.183110
  O     -1.081860   18.361010   10.490350
  C     -1.552590   21.215520   11.397560
  C     -1.976460   22.441450   11.957520
  C     -3.129970   22.462750   12.793350
  C     -3.838690   21.268690   13.061390
  C     -3.547270   23.692430   13.341980
  C     -2.860060   24.846100   13.078710
  C     -1.724710   24.823820   12.255140
  C     -1.291910   23.646810   11.707190
  H     -4.767500    2.595580  -11.223310
  H     -6.493910    0.633070   -6.975100
  H     -6.592740   -1.549880   -8.030650
  H     -6.261060   -2.994960   -9.996980
  H     -5.413910   -2.046690  -12.106760
  H     -4.892170    0.355600  -12.265580
  H     -4.489020    6.553210   -7.708080
  H     -4.228350    4.441490   -1.687050
  H     -3.981580    8.184360   -5.635080
  H     -2.844060    8.946680   -0.766420
  H     -1.535360   11.735330    1.994110
  H     -0.358350   11.868470   -0.231690
  H     -0.591120   10.107170   -0.389960
  H      0.889950   11.401290    1.769030
  H      1.487570   10.423900    0.596580
  H     -2.875440   12.673570    0.422880
  H     -3.860460   11.290460    0.933860
  H     -2.328940   11.466260   -1.543130
  H     -3.944530   11.268180   -1.347020
  H     -0.929480   11.232210    4.041830
  H      0.111800    9.744010    5.775000
  H     -1.287780    7.895310    6.816710
  H     -2.226050    6.490440    5.033190
  H     -3.057940    5.429770    2.778770
  H     -3.708660    4.922410    0.470620
  H     -2.701290   10.462650    6.712780
  H      0.036670   11.824000    6.958600
  H     -0.820150   16.349020   10.020060
  H     -3.688270   11.988170    8.428960
  H     -4.489130   16.286810   11.632450
  H     -0.682130   21.178930   10.759360
  H     -4.711710   21.319690   13.692340
  H     -4.421420   23.704570   13.976350
  H     -3.187840   25.782890   13.503930
  H     -1.194940   25.743640   12.056910
  H     -0.418250   23.623070   11.072180

 Total Charge           Charge          ....    0
 Multiplicity           Mult            ....    1
 Number of Electrons    NEL             ....  510
 Basis Dimension        Dim             .... 1244

ORBITAL ENERGIES
----------------

  NO   OCC          E(Eh)            E(eV)
   0   2.0000     -19.309857      -525.4479
   1   2.0000     -19.306644      -525.3605
   2   2.0000     -19.301725      -525.2266
   3   2.0000     -19.298660      -525.1432
   4   2.0000     -19.214488      -522.8528
   5   2.0000     -19.199522      -522.4455
   6   2.0000     -14.409075      -392.0909
   7   2.0000     -14.408157      -392.0659
   8   2.0000     -14.401541      -391.8859
   9   2.0000     -14.396155      -391.7393
  10   2.0000     -14.394490      -391.6940
  11   2.0000     -14.386314      -391.4715
  12   2.0000     -10.365419      -282.0574
  13   2.0000     -10.360181      -281.9149
  14   2.0000     -10.351471      -281.6778
  15   2.0000     -10.348632      -281.6006
  16   2.0000     -10.347858      -281.5795
  17   2.0000     -10.347687      -281.5749
  18   2.0000     -10.342349      -281.4296
  19   2.0000     -10.339618      -281.3553
  20   2.0000     -10.337461      -281.2966
  21   2.0000     -10.335073      -281.2316
  22   2.0000     -10.334449      -281.2147
  23   2.0000     -10.331320      -281.1295
  24   2.0000     -10.325102      -280.9603
  25   2.0000     -10.324458      -280.9428
  26   2.0000     -10.318595      -280.7832
  27   2.0000     -10.312054      -280.6053
  28   2.0000     -10.311538      -280.5912
  29   2.0000     -10.309286      -280.5299
  30   2.0000     -10.304673      -280.4044
  31   2.0000     -10.303354      -280.3685
  32   2.0000     -10.303083      -280.3611
  33   2.0000     -10.302394      -280.3424
  34   2.0000     -10.301350      -280.3140
  35   2.0000     -10.300301      -280.2854
  36   2.0000     -10.300189      -280.2824
  37   2.0000     -10.298106      -280.2257
  38   2.0000     -10.298071      -280.2247
  39   2.0000     -10.297594      -280.2118
  40   2.0000     -10.295217      -280.1471
  41   2.0000     -10.294213      -280.1198
  42   2.0000     -10.294153      -280.1181
  43   2.0000     -10.293816      -280.1090
  44   2.0000     -10.292758      -280.0802
  45   2.0000     -10.292388      -280.0701
  46   2.0000     -10.291306      -280.0407
  47   2.0000     -10.290737      -280.0252
  48   2.0000     -10.286912      -279.9211
  49   2.0000     -10.286559      -279.9115
  50   2.0000     -10.285772      -279.8901
  51   2.0000     -10.285278      -279.8766
  52   2.0000     -10.284455      -279.8542
  53   2.0000     -10.284170      -279.8465
  54   2.0000     -10.283760      -279.8353
  55   2.0000     -10.283257      -279.8216
  56   2.0000     -10.282866      -279.8110
  57   2.0000     -10.282311      -279.7959
  58   2.0000     -10.281695      -279.7791
  59   2.0000     -10.280595      -279.7492
  60   2.0000     -10.277098      -279.6541
  61   2.0000     -10.277082      -279.6536
  62   2.0000     -10.276676      -279.6426
  63   2.0000     -10.276430      -279.6359
  64   2.0000     -10.275793      -279.6185
  65   2.0000     -10.275235      -279.6033
  66   2.0000     -10.274560      -279.5850
  67   2.0000     -10.273933      -279.5679
  68   2.0000     -10.272109      -279.5183
  69   2.0000     -10.271021      -279.4887
  70   2.0000     -10.269343      -279.4430
  71   2.0000     -10.263013      -279.2708
  72   2.0000     -10.262802      -279.2650
  73   2.0000     -10.262494      -279.2567
  74   2.0000     -10.261856      -279.2393
  75   2.0000     -10.260555      -279.2039
  76   2.0000      -1.233587       -33.5676
  77   2.0000      -1.225639       -33.3513
  78   2.0000      -1.214919       -33.0596
  79   2.0000      -1.207346       -32.8536
  80   2.0000      -1.129323       -30.7305
  81   2.0000      -1.114197       -30.3188
  82   2.0000      -1.012351       -27.5475
  83   2.0000      -1.002687       -27.2845
  84   2.0000      -0.993615       -27.0376
  85   2.0000      -0.987805       -26.8795
  86   2.0000      -0.987245       -26.8643
  87   2.0000      -0.984816       -26.7982
  88   2.0000      -0.977698       -26.6045
  89   2.0000      -0.974847       -26.5269
  90   2.0000      -0.967751       -26.3338
  91   2.0000      -0.961911       -26.1749
  92   2.0000      -0.959621       -26.1126
  93   2.0000      -0.950631       -25.8680
  94   2.0000      -0.931913       -25.3586
  95   2.0000      -0.925811       -25.1926
  96   2.0000      -0.920110       -25.0375
  97   2.0000      -0.917918       -24.9778
  98   2.0000      -0.915129       -24.9019
  99   2.0000      -0.911941       -24.8152
 100   2.0000      -0.906375       -24.6637
 101   2.0000      -0.901886       -24.5416
 102   2.0000      -0.887389       -24.1471
 103   2.0000      -0.884577       -24.0706
 104   2.0000      -0.877340       -23.8736
 105   2.0000      -0.874613       -23.7994
 106   2.0000      -0.870797       -23.6956
 107   2.0000      -0.867993       -23.6193
 108   2.0000      -0.858911       -23.3721
 109   2.0000      -0.841519       -22.8989
 110   2.0000      -0.838709       -22.8224
 111   2.0000      -0.831249       -22.6194
 112   2.0000      -0.824529       -22.4366
 113   2.0000      -0.819460       -22.2986
 114   2.0000      -0.816988       -22.2314
 115   2.0000      -0.806848       -21.9554
 116   2.0000      -0.787241       -21.4219
 117   2.0000      -0.770711       -20.9721
 118   2.0000      -0.759849       -20.6765
 119   2.0000      -0.757271       -20.6064
 120   2.0000      -0.754420       -20.5288
 121   2.0000      -0.747593       -20.3430
 122   2.0000      -0.737764       -20.0756
 123   2.0000      -0.736948       -20.0534
 124   2.0000      -0.724649       -19.7187
 125   2.0000      -0.708450       -19.2779
 126   2.0000      -0.705578       -19.1998
 127   2.0000      -0.702588       -19.1184
 128   2.0000      -0.698468       -19.0063
 129   2.0000      -0.694978       -18.9113
 130   2.0000      -0.691674       -18.8214
 131   2.0000      -0.688449       -18.7336
 132   2.0000      -0.686575       -18.6827
 133   2.0000      -0.685701       -18.6589
 134   2.0000      -0.675522       -18.3819
 135   2.0000      -0.671435       -18.2707
 136   2.0000      -0.668497       -18.1907
 137   2.0000      -0.661359       -17.9965
 138   2.0000      -0.658495       -17.9185
 139   2.0000      -0.649359       -17.6700
 140   2.0000      -0.645987       -17.5782
 141   2.0000      -0.633322       -17.2336
 142   2.0000      -0.629078       -17.1181
 143   2.0000      -0.619799       -16.8656
 144   2.0000      -0.614857       -16.7311
 145   2.0000      -0.611981       -16.6528
 146   2.0000      -0.610620       -16.6158
 147   2.0000      -0.610144       -16.6029
 148   2.0000      -0.602813       -16.4034
 149   2.0000      -0.601240       -16.3606
 150   2.0000      -0.595779       -16.2120
 151   2.0000      -0.595217       -16.1967
 152   2.0000      -0.592025       -16.1098
 153   2.0000      -0.588116       -16.0035
 154   2.0000      -0.585341       -15.9279
 155   2.0000      -0.584859       -15.9148
 156   2.0000      -0.583515       -15.8783
 157   2.0000      -0.580184       -15.7876
 158   2.0000      -0.573667       -15.6103
 159   2.0000      -0.569504       -15.4970
 160   2.0000      -0.558551       -15.1990
 161   2.0000      -0.555317       -15.1109
 162   2.0000      -0.548846       -14.9348
 163   2.0000      -0.546207       -14.8631
 164   2.0000      -0.543667       -14.7939
 165   2.0000      -0.541922       -14.7464
 166   2.0000      -0.539685       -14.6856
 167   2.0000      -0.538482       -14.6529
 168   2.0000      -0.536519       -14.5994
 169   2.0000      -0.534704       -14.5500
 170   2.0000      -0.533287       -14.5115
 171   2.0000      -0.530950       -14.4479
 172   2.0000      -0.529550       -14.4098
 173   2.0000      -0.528061       -14.3693
 174   2.0000      -0.526162       -14.3176
 175   2.0000      -0.523494       -14.2450
 176   2.0000      -0.522476       -14.2173
 177   2.0000      -0.522282       -14.2120
 178   2.0000      -0.519661       -14.1407
 179   2.0000      -0.513732       -13.9794
 180   2.0000      -0.513094       -13.9620
 181   2.0000      -0.508581       -13.8392
 182   2.0000      -0.507217       -13.8021
 183   2.0000      -0.506599       -13.7853
 184   2.0000      -0.505669       -13.7600
 185   2.0000      -0.505272       -13.7492
 186   2.0000      -0.502890       -13.6843
 187   2.0000      -0.500630       -13.6228
 188   2.0000      -0.496351       -13.5064
 189   2.0000      -0.495219       -13.4756
 190   2.0000      -0.493650       -13.4329
 191   2.0000      -0.491219       -13.3668
 192   2.0000      -0.487495       -13.2654
 193   2.0000      -0.483807       -13.1651
 194   2.0000      -0.482956       -13.1419
 195   2.0000      -0.482435       -13.1277
 196   2.0000      -0.480246       -13.0682
 197   2.0000      -0.478863       -13.0305
 198   2.0000      -0.475655       -12.9432
 199   2.0000      -0.471223       -12.8226
 200   2.0000      -0.469181       -12.7671
 201   2.0000      -0.463288       -12.6067
 202   2.0000      -0.460974       -12.5438
 203   2.0000      -0.456384       -12.4188
 204   2.0000      -0.453436       -12.3386
 205   2.0000      -0.443940       -12.0802
 206   2.0000      -0.442672       -12.0457
 207   2.0000      -0.442526       -12.0418
 208   2.0000      -0.440363       -11.9829
 209   2.0000      -0.439084       -11.9481
 210   2.0000      -0.436429       -11.8758
 211   2.0000      -0.435699       -11.8560
 212   2.0000      -0.433625       -11.7995
 213   2.0000      -0.431136       -11.7318
 214   2.0000      -0.429844       -11.6966
 215   2.0000      -0.428709       -11.6658
 216   2.0000      -0.427825       -11.6417
 217   2.0000      -0.424064       -11.5394
 218   2.0000      -0.422222       -11.4892
 219   2.0000      -0.421946       -11.4817
 220   2.0000      -0.418946       -11.4001
 221   2.0000      -0.417533       -11.3617
 222   2.0000      -0.416727       -11.3397
 223   2.0000      -0.414958       -11.2916
 224   2.0000      -0.414188       -11.2706
 225   2.0000      -0.411952       -11.2098
 226   2.0000      -0.407487       -11.0883
 227   2.0000      -0.405408       -11.0317
 228   2.0000      -0.402561       -10.9542
 229   2.0000      -0.400601       -10.9009
 230   2.0000      -0.395792       -10.7700
 231   2.0000      -0.393239       -10.7006
 232   2.0000      -0.391509       -10.6535
 233   2.0000      -0.379170       -10.3177
 234   2.0000      -0.378486       -10.2991
 235   2.0000      -0.370798       -10.0899
 236   2.0000      -0.364958        -9.9310
 237   2.0000      -0.364398        -9.9158
 238   2.0000      -0.355246        -9.6667
 239   2.0000      -0.348524        -9.4838
 240   2.0000      -0.346374        -9.4253
 241   2.0000      -0.338469        -9.2102
 242   2.0000      -0.332727        -9.0540
 243   2.0000      -0.326448        -8.8831
 244   2.0000      -0.323125        -8.7927
 245   2.0000      -0.314672        -8.5627
 246   2.0000      -0.312834        -8.5127
 247   2.0000      -0.311293        -8.4707
 248   2.0000      -0.306231        -8.3330
 249   2.0000      -0.301490        -8.2040
 250   2.0000      -0.291219        -7.9245
 251   2.0000      -0.283503        -7.7145
 252   2.0000      -0.260601        -7.0913
 253   2.0000      -0.253530        -6.8989
 254   2.0000      -0.220200        -5.9919
 255   0.0000      -0.091743        -2.4964
 256   0.0000      -0.086074        -2.3422
 257   0.0000      -0.064492        -1.7549
 258   0.0000      -0.054167        -1.4740
 259   0.0000      -0.042157        -1.1472

MULLIKEN ATOMIC CHARGES
-----------------------
   0 C :    0.277094
   1 C :   -0.320498
   2 C :   -0.179461
   3 N :    0.138318
   4 C :   -0.203707
   5 N :    0.152280
   6 C :    0.036343
   7 C :    0.014412
   8 C :   -0.089143
   9 C :    0.096182
  10 C :    0.096973
  11 C :   -0.085977
  12 C :   -0.018786
  13 C :    0.033486
  14 C :    0.033202
  15 C :   -0.016600
  16 C :    0.136408
  17 O :   -0.155796
  18 C :   -0.127647
  19 C :    0.023911
  20 C :    0.142988
  21 O :   -0.202815
  22 C :    0.231269
  23 C :   -0.153239
  24 C :    0.169110
  25 O :   -0.190994
  26 C :    0.210744
  27 C :   -0.103109
  28 C :    0.082497
  29 C :   -0.074572
  30 C :    0.020567
  31 C :    0.018578
  32 C :   -0.043458
  33 C :    0.123173
  34 N :   -0.214745
  35 C :    0.131299
  36 N :   -0.204945
  37 C :    0.119138
  38 C :   -0.121913
  39 C :    0.128686
  40 C :   -0.058674
  41 C :    0.025204
  42 C :    0.004747
  43 C :    0.042265
  44 C :   -0.001936
  45 C :   -0.010029
  46 C :   -0.049454
  47 C :    0.024251
  48 C :    0.180737
  49 O :   -0.191208
  50 C :    0.192308
  51 C :   -0.120112
  52 C :    0.138790
  53 O :   -0.187170
  54 C :    0.215153
  55 C :   -0.151735
  56 C :   -0.009494
  57 C :   -0.095018
  58 C :    0.303756
  59 C :   -0.351931
  60 C :   -0.185236
  61 N :    0.144801
  62 C :   -0.205790
  63 N :    0.161315
  64 C :    0.049394
  65 C :    0.000206
  66 C :    0.159348
  67 O :   -0.166231
  68 C :   -0.085801
  69 C :    0.099605
  70 C :    0.096754
  71 C :   -0.084753
  72 C :   -0.021308
  73 C :    0.037626
  74 C :    0.034384
  75 C :   -0.017903
  76 H :   -0.016357
  77 H :   -0.008674
  78 H :   -0.013828
  79 H :   -0.007887
  80 H :   -0.008705
  81 H :   -0.020933
  82 H :    0.018599
  83 H :   -0.000116
  84 H :    0.002605
  85 H :   -0.036878
  86 H :   -0.029648
  87 H :   -0.019538
  88 H :    0.011470
  89 H :    0.082325
  90 H :    0.093496
  91 H :   -0.011573
  92 H :    0.011074
  93 H :    0.099004
  94 H :    0.106732
  95 H :   -0.020830
  96 H :    0.041147
  97 H :   -0.011929
  98 H :   -0.034758
  99 H :   -0.036007
 100 H :   -0.031818
 101 H :    0.016606
 102 H :    0.002310
 103 H :    0.029922
 104 H :    0.002967
 105 H :    0.031760
 106 H :   -0.016393
 107 H :   -0.008423
 108 H :   -0.009118
 109 H :   -0.006613
 110 H :   -0.006871
 111 H :   -0.019234
Sum of atomic charges:   -0.0000000

LOEWDIN ATOMIC CHARGES
----------------------
   0 C :    0.069693
   1 C :   -0.140547
   2 C :   -0.018744
   3 N :   -0.063861
   4 C :   -0.023087
   5 N :   -0.066072
   6 C :   -0.019824
   7 C :   -0.055051
   8 C :    0.027857
   9 C :   -0.010810
  10 C :   -0.006376
  11 C :    0.011404
  12 C :   -0.007956
  13 C :   -0.016597
  14 C :   -0.017237
  15 C :   -0.010882
  16 C :    0.080891
  17 O :   -0.156466
  18 C :   -0.102036
  19 C :    0.046975
  20 C :    0.019158
  21 O :    0.021075
  22 C :    0.038164
  23 C :   -0.084822
  24 C :    0.085967
  25 O :    0.012581
  26 C :   -0.006160
  27 C :   -0.020757
  28 C :   -0.057428
  29 C :    0.009713
  30 C :   -0.019388
  31 C :   -0.015264
  32 C :   -0.041771
  33 C :    0.024288
  34 N :   -0.114279
  35 C :    0.027286
  36 N :   -0.086839
  37 C :   -0.008736
  38 C :    0.062001
  39 C :   -0.028684
  40 C :   -0.042722
  41 C :   -0.010874
  42 C :   -0.039955
  43 C :   -0.024746
  44 C :   -0.010894
  45 C :   -0.021225
  46 C :    0.021566
  47 C :   -0.051987
  48 C :    0.065244
  49 O :    0.009247
  50 C :   -0.010500
  51 C :   -0.011879
  52 C :    0.021835
  53 O :    0.011492
  54 C :    0.028984
  55 C :   -0.078924
  56 C :    0.052779
  57 C :   -0.100338
  58 C :    0.076157
  59 C :   -0.144987
  60 C :   -0.017137
  61 N :   -0.058732
  62 C :   -0.026668
  63 N :   -0.052703
  64 C :   -0.025215
  65 C :   -0.054176
  66 C :    0.085855
  67 O :   -0.151299
  68 C :    0.028584
  69 C :   -0.009105
  70 C :   -0.006838
  71 C :    0.018092
  72 C :   -0.005833
  73 C :   -0.014734
  74 C :   -0.014169
  75 C :   -0.010896
  76 H :    0.037444
  77 H :    0.037659
  78 H :    0.033096
  79 H :    0.031637
  80 H :    0.031093
  81 H :    0.030393
  82 H :    0.052725
  83 H :    0.037985
  84 H :    0.041750
  85 H :    0.016925
  86 H :    0.021283
  87 H :   -0.006662
  88 H :    0.023098
  89 H :    0.048170
  90 H :    0.056407
  91 H :    0.002891
  92 H :    0.024562
  93 H :    0.053184
  94 H :    0.061986
  95 H :    0.023856
  96 H :    0.059771
  97 H :    0.024587
  98 H :    0.030466
  99 H :    0.027764
 100 H :    0.025238
 101 H :    0.031310
 102 H :    0.038049
 103 H :    0.042338
 104 H :    0.038702
 105 H :    0.055542
 106 H :    0.037313
 107 H :    0.038720
 108 H :    0.034575
 109 H :    0.032477
 110 H :    0.032037
 111 H :    0.030953

  Mayer bond orders larger than 0.100000
B(  0-C ,  1-C ) :   1.6499 B(  0-C ,  6-C ) :   0.9969 B(  0-C , 18-C ) :   1.0564
B(  1-C ,  2-C ) :   1.1393 B(  1-C ,  4-C ) :   1.1588 B(  2-C ,  3-N ) :   2.9797
B(  4-C ,  5-N ) :   3.0086 B(  6-C ,  7-C ) :   1.2163 B(  6-C , 11-C ) :   1.4658
B(  7-C ,  8-C ) :   1.4799 B(  7-C , 16-C ) :   0.9198 B(  8-C ,  9-C ) :   1.1801
B(  8-C , 76-H ) :   1.0157 B(  9-C , 10-C ) :   1.2610 B(  9-C , 15-C ) :   1.2473
B( 10-C , 11-C ) :   1.1978 B( 10-C , 12-C ) :   1.2435 B( 11-C , 77-H ) :   0.9926
B( 12-C , 13-C ) :   1.4874 B( 12-C , 78-H ) :   0.9969 B( 13-C , 14-C ) :   1.2627
B( 13-C , 79-H ) :   0.9885 B( 14-C , 15-C ) :   1.4875 B( 14-C , 80-H ) :   0.9886
B( 15-C , 81-H ) :   0.9968 B( 16-C , 17-O ) :   2.2588 B( 16-C , 18-C ) :   0.9534
B( 18-C , 19-C ) :   1.5560 B( 19-C , 20-C ) :   1.2067 B( 19-C , 82-H ) :   0.9397
B( 20-C , 21-O ) :   1.0706 B( 20-C , 27-C ) :   1.3476 B( 21-O , 22-C ) :   1.1534
B( 22-C , 23-C ) :   1.2155 B( 22-C , 26-C ) :   1.3101 B( 23-C , 24-C ) :   1.4505
B( 23-C , 83-H ) :   1.0245 B( 24-C , 25-O ) :   1.1341 B( 24-C , 28-C ) :   1.0622
B( 25-O , 26-C ) :   1.1241 B( 26-C , 27-C ) :   1.2626 B( 27-C , 84-H ) :   1.0328
B( 28-C , 29-C ) :   1.4972 B( 28-C , 45-C ) :   1.1156 B( 29-C , 30-C ) :   1.1373
B( 29-C , 85-H ) :   0.9544 B( 30-C , 31-C ) :   1.4796 B( 30-C , 43-C ) :   1.1142
B( 31-C , 32-C ) :   1.0164 B( 31-C , 37-C ) :   1.1175 B( 32-C , 33-C ) :   1.0444
B( 32-C , 35-C ) :   1.0291 B( 32-C , 86-H ) :   0.8880 B( 33-C , 34-N ) :   1.0974
B( 33-C , 87-H ) :   0.9448 B( 33-C , 88-H ) :   0.9318 B( 34-N , 89-H ) :   0.9715
B( 34-N , 90-H ) :   0.9690 B( 35-C , 36-N ) :   1.0837 B( 35-C , 91-H ) :   0.9391
B( 35-C , 92-H ) :   0.9495 B( 36-N , 85-H ) :   0.1594 B( 36-N , 93-H ) :   0.9631
B( 36-N , 94-H ) :   0.9632 B( 37-C , 38-C ) :   1.6596 B( 37-C , 42-C ) :   1.0476
B( 38-C , 39-C ) :   0.9770 B( 38-C , 95-H ) :   0.9635 B( 39-C , 40-C ) :   0.9747
B( 39-C , 46-C ) :   0.9650 B( 39-C , 96-H ) :   0.8668 B( 40-C , 41-C ) :   1.7189
B( 40-C , 97-H ) :   0.9789 B( 41-C , 42-C ) :   1.1261 B( 41-C , 98-H ) :   0.9890
B( 42-C , 43-C ) :   1.4471 B( 43-C , 44-C ) :   1.1326 B( 44-C , 45-C ) :   1.6253
B( 44-C , 99-H ) :   0.9912 B( 45-C ,100-H ) :   0.9830 B( 46-C , 47-C ) :   1.7857
B( 46-C ,101-H ) :   0.9716 B( 47-C , 48-C ) :   1.0877 B( 47-C ,102-H ) :   0.9648
B( 48-C , 49-O ) :   1.1195 B( 48-C , 55-C ) :   1.4740 B( 49-O , 50-C ) :   1.1259
B( 50-C , 51-C ) :   1.2247 B( 50-C , 54-C ) :   1.3078 B( 51-C , 52-C ) :   1.3900
B( 51-C ,103-H ) :   1.0175 B( 52-C , 53-O ) :   1.0653 B( 52-C , 56-C ) :   1.2263
B( 53-O , 54-C ) :   1.1865 B( 54-C , 55-C ) :   1.2157 B( 55-C ,104-H ) :   1.0257
B( 56-C , 57-C ) :   1.5328 B( 56-C ,105-H ) :   0.9325 B( 57-C , 58-C ) :   1.0806
B( 57-C , 66-C ) :   0.9497 B( 58-C , 59-C ) :   1.6267 B( 58-C , 64-C ) :   0.9853
B( 59-C , 60-C ) :   1.1492 B( 59-C , 62-C ) :   1.1388 B( 60-C , 61-N ) :   2.9672
B( 62-C , 63-N ) :   2.9954 B( 64-C , 65-C ) :   1.2157 B( 64-C , 71-C ) :   1.4530
B( 65-C , 66-C ) :   0.9507 B( 65-C , 68-C ) :   1.4742 B( 66-C , 67-O ) :   2.1682
B( 68-C , 69-C ) :   1.1754 B( 68-C ,106-H ) :   1.0160 B( 69-C , 70-C ) :   1.2589
B( 69-C , 75-C ) :   1.2459 B( 70-C , 71-C ) :   1.2034 B( 70-C , 72-C ) :   1.2395
B( 71-C ,107-H ) :   0.9907 B( 72-C , 73-C ) :   1.4890 B( 72-C ,108-H ) :   0.9975
B( 73-C , 74-C ) :   1.2609 B( 73-C ,109-H ) :   0.9885 B( 74-C , 75-C ) :   1.4871
B( 74-C ,110-H ) :   0.9887 B( 75-C ,111-H ) :   0.9976

-----------------------------------------------------------------------------
         ABSORPTION SPECTRUM VIA TRANSITION ELECTRIC DIPOLE MOMENTS
-----------------------------------------------------------------------------
State   Energy  Wavelength   fosc         T2         TX        TY        TZ
        (cm-1)    (nm)                  (au**2)     (au)      (au)      (au)
-----------------------------------------------------------------------------
   0   13884.6    720.2   0.238981031   5.66639   0.61590   1.93575   1.24095
   1   17245.4    579.9   0.884107894  16.87747  -1.42988  -1.84903  -3.37846
   2   18583.5    538.1   0.527364781   9.34239  -0.12291   1.95015   2.35036
   3   21231.8    471.0   1.119420454  17.35727   0.16934  -3.26043  -2.58808
   4   21504.7    465.0   0.273065150   4.18030   1.43349  -1.28682  -0.68521
   5   25624.0    390.3   0.245555252   3.15485   0.28369   0.25167   1.73523
   6   26287.0    380.4   0.021736733   0.27223   0.11369  -0.25408  -0.44130
   7   26747.9    373.9   0.015500762   0.19078   0.30128   0.12478   0.29060
   8   27443.0    364.4   0.464477954   5.57197  -0.24344  -1.68288  -1.63726
   9   27561.7    362.8   0.094500728   1.12877   0.12987  -0.31692  -1.00572
  10   27762.2    360.2   0.078248994   0.92790  -0.26689  -0.92144   0.08728
  11   28323.2    353.1   0.047921814   0.55701   0.10783   0.55616  -0.48587
  12   28692.8    348.5   0.023650248   0.27136   0.05551  -0.06618  -0.51371
  13   28742.5    347.9   0.023491420   0.26907  -0.00514   0.02702   0.51799
  14   29251.2    341.9   0.098720142   1.11106   0.15286   1.04205  -0.04272
  15   29877.8    334.7   0.101246161   1.11559   0.39456   0.88824  -0.41346
  16   30010.4    333.2   0.000610461   0.00670  -0.02866   0.00859   0.07617
  17   30124.7    332.0   0.007497404   0.08193  -0.15723   0.12137   0.20612
  18   30763.4    325.1   0.197170652   2.11001   0.35804   0.59743   1.27471
  19   31488.5    317.6   0.043993633   0.45995   0.41498   0.09867   0.52726
  20   31826.3    314.2   0.030608871   0.31662   0.04957  -0.41562  -0.37606
  21   32862.9    304.3   0.639532541   6.40667  -0.08166   0.99969   2.32392
  22   33155.3    301.6   0.102382393   1.01659   0.04918  -0.62318  -0.79109
  23   33558.9    298.0   0.196662921   1.92926  -0.47037  -1.30678   0.01825
  24   33652.7    297.2   0.463759118   4.53679  -0.99547  -1.78205   0.60839
  25   34001.9    294.1   0.029802643   0.28855   0.21268  -0.42827   0.24476
  26   34276.3    291.7   0.052436692   0.50364  -0.21965  -0.67124   0.06949
  27   34758.7    287.7   0.272171152   2.57783   0.46593  -1.35047  -0.73278
  28   35915.7    278.4   0.231232654   2.11954   0.52061  -0.99464  -0.92693
  29   36171.1    276.5   0.027218571   0.24773   0.02658  -0.03301  -0.49592
  30   36386.2    274.8   0.020971997   0.18975  -0.22312   0.37087   0.04924
  31   36603.8    273.2   0.061529293   0.55339  -0.03818  -0.62787   0.39714
  32   37223.0    268.7   0.048714166   0.43084  -0.35045  -0.10453   0.54507
  33   37421.4    267.2   0.017102794   0.15046   0.10583   0.10944  -0.35677
  34   37455.3    267.0   0.045028711   0.39578  -0.52670  -0.32738   0.10576
  35   37798.2    264.6   0.087777772   0.76452  -0.45918  -0.22450   0.70942
  36   38093.8    262.5   0.018947654   0.16375   0.28352  -0.21882   0.18837
  37   38528.4    259.5   0.020494794   0.17512   0.02001  -0.28189   0.30864
  38   38647.4    258.7   0.148593603   1.26577   0.09636   0.81136   0.77342
  39   38877.6    257.2   0.049244389   0.41700  -0.04098  -0.29427  -0.57334
  40   39053.7    256.1   0.049312653   0.41569   0.23376  -0.21927  -0.55944
  41   39215.4    255.0   0.133432303   1.12016  -0.23300   0.16521   1.01911
  42   39275.7    254.6   0.071607236   0.60022  -0.76127   0.00453   0.14374
  43   39414.5    253.7   0.029992310   0.25051  -0.25567  -0.19963  -0.38118
  44   39482.1    253.3   0.008935748   0.07451  -0.19757   0.17701   0.06435
  45   40065.8    249.6   0.061171239   0.50263  -0.42442  -0.51529   0.23871
  46   40299.6    248.1   0.184082788   1.50379  -0.74297  -0.86207   0.45677

FINAL SINGLE POINT ENERGY     -3236.059097608714

DIPOLE MOMENT
-------------
                                X             Y             Z
Electronic contribution:    -23.79236      -0.91971      14.52477
Nuclear contribution   :     27.76606       2.53573     -15.90675
                        -----------------------------------------
Total Dipole Moment    :      3.97369       1.61602      -1.38199
                        -----------------------------------------
Magnitude (a.u.)       :      4.50685
Magnitude (Debye)      :     11.45549

Rotational constants in cm-1:     0.002517     0.000145     0.000144
Rotational constants in MHz :    75.467570     4.354295     4.309106

                             ****ORCA TERMINATED NORMALLY****
TOTAL RUN TIME: 0 days 0 hours 11 minutes 15 seconds 517 msec
