                         Program Version 4.2.0 -  RELEASE  -
|  1> # ORCA input file
|  2> # SCF done       -196.270896017097          0.000403482042
|  3> ! CAM-B3LYP def2-SVP def2/J RIJCOSX Grid4 TightSCF
|  4> %maxcore 5000
|  5> %tddft
|  6>     Mode sTDDFT
|  7>     Ethresh 5.0
|  8>     maxcore 5000
|  9> end
| 10>
| 11> %pal
| 12>   nprocs 6
| 13>   end
| 14> * xyz 0 1
| 15>    C       -3.57636         0.67882         1.93834
| 16>    C       -3.28085         1.49495         3.00220
| 17>    C       -2.66584         1.04947         4.18745
| 18>    N       -2.13044         0.74060         5.15540
| 19>    C       -3.62734         2.85811         3.04123
| 20>    N       -3.91818         3.96739         3.09850
| 21>    C       -3.52536        -0.78089         1.95000
| 22>    C       -4.30171        -1.26783         0.85814
| 23>    C       -4.47308        -2.60343         0.63746
| 24>    C       -3.85431        -3.53075         1.50666
| 25>    C       -3.06345        -3.05114         2.58988
| 26>    C       -2.91164        -1.66005         2.79952
| 27>    C       -2.44652        -3.98607         3.44509
| 28>    C       -2.60488        -5.33054         3.24445
| 29>    C       -3.38562        -5.80179         2.17890
| 30>    C       -3.99695        -4.92073         1.32852
| 31>    C       -4.81958        -0.12508         0.08467
| 32>    O       -5.55182        -0.14655        -0.87904
| 33>    C       -4.20505         1.08237         0.70806
| 34>    C       -4.26150         2.26153         0.02118
| 35>    C       -3.50871         3.44561         0.13148
| 36>    C       -2.24779         3.68259         0.69666
| 37>    O       -1.59073         2.66232         1.27115
| 38>    C       -0.36884         2.89548         1.95062
| 39>    C       -1.81304         5.02017         0.52499
| 40>    O       -0.56230         5.41598         0.90483
| 41>    C        0.23075         6.04627        -0.07935
| 42>    C       -2.76131         5.81285        -0.11601
| 43>    S       -4.10829         4.87374        -0.66006
| 44>    C       -2.78815         7.22845        -0.32675
| 45>    C       -2.22401         8.15728         0.57787
| 46>    C       -2.25567         9.57844         0.33070
| 47>    N       -1.83639        10.42412         1.28263
| 48>    C       -1.31407         9.94977         2.38305
| 49>    C       -1.20867         8.53289         2.59536
| 50>    N       -1.69083         7.69346         1.71954
| 51>    C       -0.59109         8.03210         3.76901
| 52>    N       -0.05996         7.67398         4.71845
| 53>    C       -0.86445        10.86492         3.36717
| 54>    N       -0.46875        11.59390         4.15737
| 55>    C       -2.79866        10.12089        -0.85788
| 56>    C       -3.47064         9.20343        -1.68953
| 57>    C       -3.47347         7.78555        -1.42331
| 58>    N       -4.15084         7.11098        -2.35516
| 59>    S       -4.72719         8.14624        -3.43497
| 60>    N       -4.14045         9.49408        -2.80611
| 61>    C       -2.73504        11.50457        -1.19249
| 62>    C       -1.71801        12.41737        -0.86496
| 63>    O       -0.57588        11.96432        -0.31787
| 64>    C        0.45638        12.87328         0.01068
| 65>    C       -2.03824        13.71137        -1.30215
| 66>    O       -1.26275        14.82505        -1.11357
| 67>    C       -1.65372        15.66201        -0.03148
| 68>    C       -3.25358        13.77601        -2.01639
| 69>    S       -4.00933        12.21862        -2.11866
| 70>    C       -3.69938        14.98007        -2.58593
| 71>    C       -4.80320        15.23149        -3.35679
| 72>    C       -5.17988        16.52073        -3.90543
| 73>    C       -4.66141        17.74446        -3.56698
| 74>    C       -5.07979        18.96369        -4.13981
| 75>    N       -5.36966        19.98740        -4.57104
| 76>    C       -3.68575        17.97029        -2.57426
| 77>    N       -2.92148        18.23700        -1.75898
| 78>    C       -6.27952        16.29640        -4.83841
| 79>    C       -6.63023        14.91587        -4.79999
| 80>    C       -5.74465        14.21882        -3.85537
| 81>    O       -5.77874        13.03577        -3.56538
| 82>    C       -7.64192        14.40503        -5.56018
| 83>    C       -8.36269        15.26841        -6.41574
| 84>    C       -8.01475        16.64906        -6.46583
| 85>    C       -6.96266        17.14935        -5.66350
| 86>    C       -8.73826        17.50035        -7.32503
| 87>    C       -9.75790        17.01359        -8.09748
| 88>    C      -10.09993        15.65430        -8.04687
| 89>    C       -9.41705        14.80012        -7.22366
| 90>    H       -5.07369        -2.95061        -0.19021
| 91>    H       -2.30447        -1.32510         3.62605
| 92>    H       -1.84861        -3.61877         4.26635
| 93>    H       -2.12962        -6.03847         3.90694
| 94>    H       -3.50049        -6.86579         2.03506
| 95>    H       -4.59956        -5.27746         0.50593
| 96>    H       -4.98241         2.26091        -0.79274
| 97>    H        0.44211         3.09812         1.24840
| 98>    H       -0.16025         1.97176         2.49012
| 99>    H       -0.45767         3.72456         2.65389
|100>    H        0.36465         5.39483        -0.95036
|101>    H        1.19451         6.22428         0.39464
|102>    H       -0.18739         6.99849        -0.41516
|103>    H        0.17577        13.49739         0.86266
|104>    H        0.72199        13.50664        -0.83730
|105>    H        1.30625        12.25262         0.29149
|106>    H       -2.70495        15.95101        -0.10045
|107>    H       -1.03156        16.55059        -0.10622
|108>    H       -1.48286        15.16536         0.92943
|109>    H       -3.02790        15.81118        -2.40341
|110>    H       -7.88975        13.35521        -5.50932
|111>    H       -6.72213        18.19858        -5.72773
|112>    H       -8.47220        18.54659        -7.35987
|113>    H      -10.30674        17.67420        -8.75170
|114>    H      -10.90694        15.28701        -8.66301
|115>    H       -9.67593        13.75226        -7.18026
|116> *
|117>
|118>                          ****END OF INPUT****

CARTESIAN COORDINATES (ANGSTROEM)
---------------------------------
  C     -3.576360    0.678820    1.938340
  C     -3.280850    1.494950    3.002200
  C     -2.665840    1.049470    4.187450
  N     -2.130440    0.740600    5.155400
  C     -3.627340    2.858110    3.041230
  N     -3.918180    3.967390    3.098500
  C     -3.525360   -0.780890    1.950000
  C     -4.301710   -1.267830    0.858140
  C     -4.473080   -2.603430    0.637460
  C     -3.854310   -3.530750    1.506660
  C     -3.063450   -3.051140    2.589880
  C     -2.911640   -1.660050    2.799520
  C     -2.446520   -3.986070    3.445090
  C     -2.604880   -5.330540    3.244450
  C     -3.385620   -5.801790    2.178900
  C     -3.996950   -4.920730    1.328520
  C     -4.819580   -0.125080    0.084670
  O     -5.551820   -0.146550   -0.879040
  C     -4.205050    1.082370    0.708060
  C     -4.261500    2.261530    0.021180
  C     -3.508710    3.445610    0.131480
  C     -2.247790    3.682590    0.696660
  O     -1.590730    2.662320    1.271150
  C     -0.368840    2.895480    1.950620
  C     -1.813040    5.020170    0.524990
  O     -0.562300    5.415980    0.904830
  C      0.230750    6.046270   -0.079350
  C     -2.761310    5.812850   -0.116010
  S     -4.108290    4.873740   -0.660060
  C     -2.788150    7.228450   -0.326750
  C     -2.224010    8.157280    0.577870
  C     -2.255670    9.578440    0.330700
  N     -1.836390   10.424120    1.282630
  C     -1.314070    9.949770    2.383050
  C     -1.208670    8.532890    2.595360
  N     -1.690830    7.693460    1.719540
  C     -0.591090    8.032100    3.769010
  N     -0.059960    7.673980    4.718450
  C     -0.864450   10.864920    3.367170
  N     -0.468750   11.593900    4.157370
  C     -2.798660   10.120890   -0.857880
  C     -3.470640    9.203430   -1.689530
  C     -3.473470    7.785550   -1.423310
  N     -4.150840    7.110980   -2.355160
  S     -4.727190    8.146240   -3.434970
  N     -4.140450    9.494080   -2.806110
  C     -2.735040   11.504570   -1.192490
  C     -1.718010   12.417370   -0.864960
  O     -0.575880   11.964320   -0.317870
  C      0.456380   12.873280    0.010680
  C     -2.038240   13.711370   -1.302150
  O     -1.262750   14.825050   -1.113570
  C     -1.653720   15.662010   -0.031480
  C     -3.253580   13.776010   -2.016390
  S     -4.009330   12.218620   -2.118660
  C     -3.699380   14.980070   -2.585930
  C     -4.803200   15.231490   -3.356790
  C     -5.179880   16.520730   -3.905430
  C     -4.661410   17.744460   -3.566980
  C     -5.079790   18.963690   -4.139810
  N     -5.369660   19.987400   -4.571040
  C     -3.685750   17.970290   -2.574260
  N     -2.921480   18.237000   -1.758980
  C     -6.279520   16.296400   -4.838410
  C     -6.630230   14.915870   -4.799990
  C     -5.744650   14.218820   -3.855370
  O     -5.778740   13.035770   -3.565380
  C     -7.641920   14.405030   -5.560180
  C     -8.362690   15.268410   -6.415740
  C     -8.014750   16.649060   -6.465830
  C     -6.962660   17.149350   -5.663500
  C     -8.738260   17.500350   -7.325030
  C     -9.757900   17.013590   -8.097480
  C    -10.099930   15.654300   -8.046870
  C     -9.417050   14.800120   -7.223660
  H     -5.073690   -2.950610   -0.190210
  H     -2.304470   -1.325100    3.626050
  H     -1.848610   -3.618770    4.266350
  H     -2.129620   -6.038470    3.906940
  H     -3.500490   -6.865790    2.035060
  H     -4.599560   -5.277460    0.505930
  H     -4.982410    2.260910   -0.792740
  H      0.442110    3.098120    1.248400
  H     -0.160250    1.971760    2.490120
  H     -0.457670    3.724560    2.653890
  H      0.364650    5.394830   -0.950360
  H      1.194510    6.224280    0.394640
  H     -0.187390    6.998490   -0.415160
  H      0.175770   13.497390    0.862660
  H      0.721990   13.506640   -0.837300
  H      1.306250   12.252620    0.291490
  H     -2.704950   15.951010   -0.100450
  H     -1.031560   16.550590   -0.106220
  H     -1.482860   15.165360    0.929430
  H     -3.027900   15.811180   -2.403410
  H     -7.889750   13.355210   -5.509320
  H     -6.722130   18.198580   -5.727730
  H     -8.472200   18.546590   -7.359870
  H    -10.306740   17.674200   -8.751700
  H    -10.906940   15.287010   -8.663010
  H     -9.675930   13.752260   -7.180260

 Total Charge           Charge          ....    0
 Multiplicity           Mult            ....    1
 Number of Electrons    NEL             ....  528
 Basis Dimension        Dim             .... 1192

ORBITAL ENERGIES
----------------

  NO   OCC          E(Eh)            E(eV)
   0   2.0000     -89.054966     -2423.3088
   1   2.0000     -88.969660     -2420.9875
   2   2.0000     -88.964033     -2420.8344
   3   2.0000     -19.267727      -524.3015
   4   2.0000     -19.259645      -524.0816
   5   2.0000     -19.254827      -523.9505
   6   2.0000     -19.253585      -523.9167
   7   2.0000     -19.224376      -523.1219
   8   2.0000     -19.204917      -522.5924
   9   2.0000     -14.461855      -393.5271
  10   2.0000     -14.461519      -393.5179
  11   2.0000     -14.461104      -393.5066
  12   2.0000     -14.458872      -393.4459
  13   2.0000     -14.431170      -392.6921
  14   2.0000     -14.428840      -392.6287
  15   2.0000     -14.421262      -392.4225
  16   2.0000     -14.416140      -392.2831
  17   2.0000     -14.406643      -392.0247
  18   2.0000     -14.402963      -391.9245
  19   2.0000     -10.382905      -282.5332
  20   2.0000     -10.381006      -282.4815
  21   2.0000     -10.372018      -282.2370
  22   2.0000     -10.356797      -281.8228
  23   2.0000     -10.355458      -281.7863
  24   2.0000     -10.355144      -281.7778
  25   2.0000     -10.353052      -281.7209
  26   2.0000     -10.352224      -281.6983
  27   2.0000     -10.351806      -281.6870
  28   2.0000     -10.351534      -281.6796
  29   2.0000     -10.351070      -281.6669
  30   2.0000     -10.350173      -281.6425
  31   2.0000     -10.344060      -281.4762
  32   2.0000     -10.343494      -281.4608
  33   2.0000     -10.332923      -281.1731
  34   2.0000     -10.329499      -281.0800
  35   2.0000     -10.328944      -281.0648
  36   2.0000     -10.328612      -281.0558
  37   2.0000     -10.326072      -280.9867
  38   2.0000     -10.326065      -280.9865
  39   2.0000     -10.324886      -280.9544
  40   2.0000     -10.324678      -280.9488
  41   2.0000     -10.324527      -280.9447
  42   2.0000     -10.324207      -280.9360
  43   2.0000     -10.324191      -280.9355
  44   2.0000     -10.322864      -280.8994
  45   2.0000     -10.321891      -280.8729
  46   2.0000     -10.319394      -280.8050
  47   2.0000     -10.319287      -280.8021
  48   2.0000     -10.316997      -280.7398
  49   2.0000     -10.311429      -280.5882
  50   2.0000     -10.309927      -280.5474
  51   2.0000     -10.309531      -280.5366
  52   2.0000     -10.305430      -280.4250
  53   2.0000     -10.304615      -280.4028
  54   2.0000     -10.301896      -280.3288
  55   2.0000     -10.300652      -280.2950
  56   2.0000     -10.300308      -280.2856
  57   2.0000     -10.300098      -280.2799
  58   2.0000     -10.299506      -280.2638
  59   2.0000     -10.292941      -280.0852
  60   2.0000     -10.291998      -280.0595
  61   2.0000     -10.289501      -279.9916
  62   2.0000     -10.289214      -279.9837
  63   2.0000     -10.289011      -279.9782
  64   2.0000     -10.288687      -279.9694
  65   2.0000     -10.288579      -279.9665
  66   2.0000     -10.288268      -279.9580
  67   2.0000     -10.288072      -279.9527
  68   2.0000     -10.286452      -279.9086
  69   2.0000     -10.285946      -279.8948
  70   2.0000     -10.279250      -279.7126
  71   2.0000     -10.279140      -279.7096
  72   2.0000     -10.278774      -279.6996
  73   2.0000     -10.278455      -279.6910
  74   2.0000     -10.277783      -279.6727
  75   2.0000      -8.146100      -221.6667
  76   2.0000      -8.062458      -219.3906
  77   2.0000      -8.059098      -219.2992
  78   2.0000      -6.117080      -166.4542
  79   2.0000      -6.109297      -166.2424
  80   2.0000      -6.109085      -166.2366
  81   2.0000      -6.031858      -164.1352
  82   2.0000      -6.028576      -164.0459
  83   2.0000      -6.027528      -164.0174
  84   2.0000      -6.024538      -163.9360
  85   2.0000      -6.024352      -163.9309
  86   2.0000      -6.020586      -163.8285
  87   2.0000      -1.175681       -31.9919
  88   2.0000      -1.171106       -31.8674
  89   2.0000      -1.153272       -31.3821
  90   2.0000      -1.152104       -31.3503
  91   2.0000      -1.150298       -31.3012
  92   2.0000      -1.139598       -31.0100
  93   2.0000      -1.121708       -30.5232
  94   2.0000      -1.119667       -30.4677
  95   2.0000      -1.048152       -28.5217
  96   2.0000      -1.021653       -27.8006
  97   2.0000      -1.015738       -27.6396
  98   2.0000      -1.012755       -27.5585
  99   2.0000      -1.007034       -27.4028
 100   2.0000      -1.003582       -27.3088
 101   2.0000      -1.002618       -27.2826
 102   2.0000      -1.000767       -27.2322
 103   2.0000      -0.996624       -27.1195
 104   2.0000      -0.989786       -26.9334
 105   2.0000      -0.988035       -26.8858
 106   2.0000      -0.983524       -26.7631
 107   2.0000      -0.976381       -26.5687
 108   2.0000      -0.972855       -26.4727
 109   2.0000      -0.961253       -26.1570
 110   2.0000      -0.928672       -25.2705
 111   2.0000      -0.917823       -24.9752
 112   2.0000      -0.913628       -24.8611
 113   2.0000      -0.911630       -24.8067
 114   2.0000      -0.903207       -24.5775
 115   2.0000      -0.891445       -24.2574
 116   2.0000      -0.884473       -24.0677
 117   2.0000      -0.880281       -23.9537
 118   2.0000      -0.872828       -23.7509
 119   2.0000      -0.868764       -23.6403
 120   2.0000      -0.856453       -23.3053
 121   2.0000      -0.852428       -23.1957
 122   2.0000      -0.844811       -22.9885
 123   2.0000      -0.834136       -22.6980
 124   2.0000      -0.831273       -22.6201
 125   2.0000      -0.830747       -22.6058
 126   2.0000      -0.819425       -22.2977
 127   2.0000      -0.809965       -22.0403
 128   2.0000      -0.807153       -21.9638
 129   2.0000      -0.800708       -21.7884
 130   2.0000      -0.786135       -21.3918
 131   2.0000      -0.772067       -21.0090
 132   2.0000      -0.771464       -20.9926
 133   2.0000      -0.765769       -20.8376
 134   2.0000      -0.759716       -20.6729
 135   2.0000      -0.750118       -20.4118
 136   2.0000      -0.744832       -20.2679
 137   2.0000      -0.733506       -19.9597
 138   2.0000      -0.718800       -19.5595
 139   2.0000      -0.708375       -19.2759
 140   2.0000      -0.704514       -19.1708
 141   2.0000      -0.702643       -19.1199
 142   2.0000      -0.697999       -18.9935
 143   2.0000      -0.693901       -18.8820
 144   2.0000      -0.689809       -18.7707
 145   2.0000      -0.688685       -18.7401
 146   2.0000      -0.681290       -18.5389
 147   2.0000      -0.673041       -18.3144
 148   2.0000      -0.668695       -18.1961
 149   2.0000      -0.663143       -18.0450
 150   2.0000      -0.652011       -17.7421
 151   2.0000      -0.650195       -17.6927
 152   2.0000      -0.644045       -17.5254
 153   2.0000      -0.638488       -17.3741
 154   2.0000      -0.637040       -17.3347
 155   2.0000      -0.626828       -17.0569
 156   2.0000      -0.622873       -16.9492
 157   2.0000      -0.620124       -16.8744
 158   2.0000      -0.613698       -16.6996
 159   2.0000      -0.609712       -16.5911
 160   2.0000      -0.605568       -16.4783
 161   2.0000      -0.603008       -16.4087
 162   2.0000      -0.597796       -16.2669
 163   2.0000      -0.594692       -16.1824
 164   2.0000      -0.588353       -16.0099
 165   2.0000      -0.582857       -15.8604
 166   2.0000      -0.579129       -15.7589
 167   2.0000      -0.575639       -15.6639
 168   2.0000      -0.573932       -15.6175
 169   2.0000      -0.572425       -15.5765
 170   2.0000      -0.567495       -15.4423
 171   2.0000      -0.563008       -15.3202
 172   2.0000      -0.559589       -15.2272
 173   2.0000      -0.553586       -15.0638
 174   2.0000      -0.549940       -14.9646
 175   2.0000      -0.548136       -14.9155
 176   2.0000      -0.546893       -14.8817
 177   2.0000      -0.545322       -14.8390
 178   2.0000      -0.544209       -14.8087
 179   2.0000      -0.540574       -14.7098
 180   2.0000      -0.538566       -14.6551
 181   2.0000      -0.537807       -14.6345
 182   2.0000      -0.535716       -14.5776
 183   2.0000      -0.532733       -14.4964
 184   2.0000      -0.528935       -14.3930
 185   2.0000      -0.526911       -14.3380
 186   2.0000      -0.520088       -14.1523
 187   2.0000      -0.519488       -14.1360
 188   2.0000      -0.514895       -14.0110
 189   2.0000      -0.513304       -13.9677
 190   2.0000      -0.511503       -13.9187
 191   2.0000      -0.508251       -13.8302
 192   2.0000      -0.506292       -13.7769
 193   2.0000      -0.503303       -13.6956
 194   2.0000      -0.502131       -13.6637
 195   2.0000      -0.500759       -13.6264
 196   2.0000      -0.498460       -13.5638
 197   2.0000      -0.495311       -13.4781
 198   2.0000      -0.494037       -13.4434
 199   2.0000      -0.491752       -13.3813
 200   2.0000      -0.487511       -13.2659
 201   2.0000      -0.485508       -13.2113
 202   2.0000      -0.483154       -13.1473
 203   2.0000      -0.479577       -13.0500
 204   2.0000      -0.477751       -13.0003
 205   2.0000      -0.477193       -12.9851
 206   2.0000      -0.470866       -12.8129
 207   2.0000      -0.468504       -12.7486
 208   2.0000      -0.457884       -12.4596
 209   2.0000      -0.456946       -12.4341
 210   2.0000      -0.454485       -12.3672
 211   2.0000      -0.453657       -12.3446
 212   2.0000      -0.453421       -12.3382
 213   2.0000      -0.450323       -12.2539
 214   2.0000      -0.449332       -12.2269
 215   2.0000      -0.446437       -12.1482
 216   2.0000      -0.445992       -12.1361
 217   2.0000      -0.443835       -12.0774
 218   2.0000      -0.441811       -12.0223
 219   2.0000      -0.440433       -11.9848
 220   2.0000      -0.438115       -11.9217
 221   2.0000      -0.437751       -11.9118
 222   2.0000      -0.436872       -11.8879
 223   2.0000      -0.435117       -11.8401
 224   2.0000      -0.434515       -11.8238
 225   2.0000      -0.432885       -11.7794
 226   2.0000      -0.431294       -11.7361
 227   2.0000      -0.430268       -11.7082
 228   2.0000      -0.429613       -11.6904
 229   2.0000      -0.427455       -11.6316
 230   2.0000      -0.425426       -11.5764
 231   2.0000      -0.424663       -11.5557
 232   2.0000      -0.423655       -11.5282
 233   2.0000      -0.420322       -11.4376
 234   2.0000      -0.418742       -11.3945
 235   2.0000      -0.415570       -11.3082
 236   2.0000      -0.412129       -11.2146
 237   2.0000      -0.409391       -11.1401
 238   2.0000      -0.407540       -11.0897
 239   2.0000      -0.404171       -10.9980
 240   2.0000      -0.402689       -10.9577
 241   2.0000      -0.401655       -10.9296
 242   2.0000      -0.398248       -10.8369
 243   2.0000      -0.392279       -10.6745
 244   2.0000      -0.384184       -10.4542
 245   2.0000      -0.381207       -10.3732
 246   2.0000      -0.375641       -10.2217
 247   2.0000      -0.369099       -10.0437
 248   2.0000      -0.368271       -10.0212
 249   2.0000      -0.358129        -9.7452
 250   2.0000      -0.354800        -9.6546
 251   2.0000      -0.352436        -9.5903
 252   2.0000      -0.348860        -9.4930
 253   2.0000      -0.338949        -9.2233
 254   2.0000      -0.328041        -8.9265
 255   2.0000      -0.323333        -8.7983
 256   2.0000      -0.319886        -8.7045
 257   2.0000      -0.308324        -8.3899
 258   2.0000      -0.301564        -8.2060
 259   2.0000      -0.298460        -8.1215
 260   2.0000      -0.294895        -8.0245
 261   2.0000      -0.285341        -7.7645
 262   2.0000      -0.282365        -7.6835
 263   2.0000      -0.253819        -6.9068
 264   0.0000      -0.132151        -3.5960
 265   0.0000      -0.090776        -2.4702
 266   0.0000      -0.075126        -2.0443
 267   0.0000      -0.061700        -1.6789
 268   0.0000      -0.051086        -1.3901

MULLIKEN ATOMIC CHARGES
-----------------------
   0 C :    0.301049
   1 C :   -0.339962
   2 C :   -0.183918
   3 N :    0.144857
   4 C :   -0.207735
   5 N :    0.164563
   6 C :    0.047351
   7 C :    0.012665
   8 C :   -0.084247
   9 C :    0.093822
  10 C :    0.096143
  11 C :   -0.093882
  12 C :   -0.020970
  13 C :    0.035508
  14 C :    0.032619
  15 C :   -0.015541
  16 C :    0.132806
  17 O :   -0.149836
  18 C :   -0.134431
  19 C :    0.072409
  20 C :   -0.142436
  21 C :    0.186072
  22 O :   -0.295273
  23 C :    0.188120
  24 C :    0.155562
  25 O :   -0.325520
  26 C :    0.188830
  27 C :   -0.234172
  28 S :    0.196791
  29 C :    0.151932
  30 C :   -0.116682
  31 C :   -0.071772
  32 N :    0.078114
  33 C :   -0.152556
  34 C :   -0.135508
  35 N :    0.082824
  36 C :   -0.197813
  37 N :    0.239937
  38 C :   -0.205414
  39 N :    0.231526
  40 C :    0.148795
  41 C :   -0.013413
  42 C :   -0.014285
  43 N :   -0.289713
  44 S :    0.564237
  45 N :   -0.273113
  46 C :   -0.251512
  47 C :    0.246756
  48 O :   -0.301341
  49 C :    0.180728
  50 C :    0.081604
  51 O :   -0.345736
  52 C :    0.198567
  53 C :   -0.086917
  54 S :    0.252087
  55 C :   -0.043802
  56 C :   -0.092375
  57 C :    0.323422
  58 C :   -0.349999
  59 C :   -0.184698
  60 N :    0.153294
  61 C :   -0.197080
  62 N :    0.145443
  63 C :    0.041631
  64 C :   -0.000136
  65 C :    0.171061
  66 O :   -0.178082
  67 C :   -0.081526
  68 C :    0.098516
  69 C :    0.094996
  70 C :   -0.081737
  71 C :   -0.019048
  72 C :    0.035941
  73 C :    0.036202
  74 C :   -0.017012
  75 H :   -0.015772
  76 H :   -0.011381
  77 H :   -0.013293
  78 H :   -0.007777
  79 H :   -0.008024
  80 H :   -0.020034
  81 H :    0.018351
  82 H :    0.022062
  83 H :    0.042671
  84 H :    0.055454
  85 H :    0.021132
  86 H :    0.039409
  87 H :    0.025927
  88 H :    0.025651
  89 H :    0.043976
  90 H :    0.031187
  91 H :    0.026131
  92 H :    0.055166
  93 H :    0.020315
  94 H :    0.027500
  95 H :   -0.015181
  96 H :   -0.007228
  97 H :   -0.007929
  98 H :   -0.003452
  99 H :   -0.004531
 100 H :   -0.017914
Sum of atomic charges:   -0.0000000

LOEWDIN ATOMIC CHARGES
----------------------
   0 C :    0.065580
   1 C :   -0.138574
   2 C :   -0.019829
   3 N :   -0.061805
   4 C :   -0.018792
   5 N :   -0.058058
   6 C :   -0.018720
   7 C :   -0.057687
   8 C :    0.030377
   9 C :   -0.011989
  10 C :   -0.005565
  11 C :    0.008190
  12 C :   -0.008725
  13 C :   -0.015443
  14 C :   -0.017531
  15 C :   -0.010257
  16 C :    0.083426
  17 O :   -0.149131
  18 C :   -0.090265
  19 C :    0.041756
  20 C :   -0.201336
  21 C :    0.032221
  22 O :   -0.063993
  23 C :    0.084263
  24 C :    0.002445
  25 O :   -0.103023
  26 C :    0.077548
  27 C :   -0.176662
  28 S :    0.490835
  29 C :   -0.044382
  30 C :   -0.012330
  31 C :   -0.009162
  32 N :    0.018422
  33 C :   -0.032514
  34 C :   -0.023178
  35 N :    0.015350
  36 C :   -0.033918
  37 N :   -0.002554
  38 C :   -0.035597
  39 N :   -0.011279
  40 C :   -0.025572
  41 C :   -0.046989
  42 C :   -0.046446
  43 N :   -0.294044
  44 S :    0.695199
  45 N :   -0.282807
  46 C :   -0.189416
  47 C :    0.017069
  48 O :   -0.087550
  49 C :    0.081205
  50 C :    0.004670
  51 O :   -0.125714
  52 C :    0.086970
  53 C :   -0.202021
  54 S :    0.557712
  55 C :    0.056444
  56 C :   -0.101223
  57 C :    0.078032
  58 C :   -0.143533
  59 C :   -0.018099
  60 N :   -0.053996
  61 C :   -0.017620
  62 N :   -0.056355
  63 C :   -0.025628
  64 C :   -0.054621
  65 C :    0.083812
  66 O :   -0.164255
  67 C :    0.030946
  68 C :   -0.008574
  69 C :   -0.006394
  70 C :    0.020450
  71 C :   -0.004928
  72 C :   -0.012939
  73 C :   -0.011802
  74 C :   -0.010180
  75 H :    0.037729
  76 H :    0.036875
  77 H :    0.033173
  78 H :    0.031826
  79 H :    0.031307
  80 H :    0.030678
  81 H :    0.044268
  82 H :    0.017600
  83 H :    0.027125
  84 H :    0.028389
  85 H :    0.016376
  86 H :    0.029075
  87 H :    0.009480
  88 H :    0.018360
  89 H :    0.021487
  90 H :    0.025843
  91 H :    0.015060
  92 H :    0.033806
  93 H :    0.011088
  94 H :    0.049852
  95 H :    0.038090
  96 H :    0.039305
  97 H :    0.035127
  98 H :    0.033618
  99 H :    0.033043
 100 H :    0.031504

  Mayer bond orders larger than 0.100000
B(  0-C ,  1-C ) :   1.6183 B(  0-C ,  6-C ) :   0.9968 B(  0-C , 18-C ) :   1.0737
B(  1-C ,  2-C ) :   1.1460 B(  1-C ,  4-C ) :   1.1739 B(  2-C ,  3-N ) :   2.9692
B(  4-C ,  5-N ) :   2.9927 B(  6-C ,  7-C ) :   1.2129 B(  6-C , 11-C ) :   1.4635
B(  7-C ,  8-C ) :   1.4787 B(  7-C , 16-C ) :   0.9218 B(  8-C ,  9-C ) :   1.1796
B(  8-C , 75-H ) :   1.0156 B(  9-C , 10-C ) :   1.2613 B(  9-C , 15-C ) :   1.2462
B( 10-C , 11-C ) :   1.1969 B( 10-C , 12-C ) :   1.2443 B( 11-C , 76-H ) :   0.9930
B( 12-C , 13-C ) :   1.4880 B( 12-C , 77-H ) :   0.9967 B( 13-C , 14-C ) :   1.2627
B( 13-C , 78-H ) :   0.9884 B( 14-C , 15-C ) :   1.4869 B( 14-C , 79-H ) :   0.9889
B( 15-C , 80-H ) :   0.9971 B( 16-C , 17-O ) :   2.2588 B( 16-C , 18-C ) :   0.9421
B( 18-C , 19-C ) :   1.6271 B( 19-C , 20-C ) :   1.1734 B( 19-C , 81-H ) :   0.9192
B( 20-C , 21-C ) :   1.4064 B( 20-C , 27-C ) :   0.1240 B( 20-C , 28-S ) :   1.0825
B( 21-C , 22-O ) :   1.2209 B( 21-C , 24-C ) :   1.2272 B( 22-O , 23-C ) :   0.9060
B( 23-C , 82-H ) :   0.9781 B( 23-C , 83-H ) :   0.9742 B( 23-C , 84-H ) :   0.9714
B( 24-C , 25-O ) :   1.1528 B( 24-C , 27-C ) :   1.4448 B( 25-O , 26-C ) :   0.9445
B( 26-C , 85-H ) :   0.9662 B( 26-C , 86-H ) :   0.9818 B( 26-C , 87-H ) :   0.9647
B( 27-C , 28-S ) :   1.1378 B( 27-C , 29-C ) :   1.0900 B( 29-C , 30-C ) :   1.2789
B( 29-C , 40-C ) :   0.1282 B( 29-C , 42-C ) :   1.2132 B( 30-C , 31-C ) :   1.0854
B( 30-C , 35-N ) :   1.4481 B( 31-C , 32-N ) :   1.4421 B( 31-C , 40-C ) :   1.2780
B( 32-N , 33-C ) :   1.7422 B( 33-C , 34-C ) :   1.1844 B( 33-C , 38-C ) :   1.1517
B( 34-C , 35-N ) :   1.7571 B( 34-C , 36-C ) :   1.1486 B( 36-C , 37-N ) :   3.0467
B( 38-C , 39-N ) :   3.0477 B( 40-C , 41-C ) :   1.2227 B( 40-C , 46-C ) :   1.1246
B( 41-C , 42-C ) :   1.1173 B( 41-C , 45-N ) :   1.5014 B( 42-C , 43-N ) :   1.4982
B( 43-N , 44-S ) :   1.2854 B( 43-N , 45-N ) :   0.1541 B( 44-S , 45-N ) :   1.2980
B( 46-C , 47-C ) :   1.3556 B( 46-C , 53-C ) :   0.1210 B( 46-C , 54-S ) :   1.1273
B( 47-C , 48-O ) :   1.2135 B( 47-C , 50-C ) :   1.2824 B( 48-O , 49-C ) :   0.9280
B( 49-C , 88-H ) :   0.9730 B( 49-C , 89-H ) :   0.9709 B( 49-C , 90-H ) :   0.9778
B( 50-C , 51-O ) :   1.1392 B( 50-C , 53-C ) :   1.3445 B( 51-O , 52-C ) :   0.9033
B( 52-C , 91-H ) :   0.9670 B( 52-C , 92-H ) :   0.9816 B( 52-C , 93-H ) :   0.9645
B( 53-C , 54-S ) :   1.0923 B( 53-C , 55-C ) :   1.2527 B( 55-C , 56-C ) :   1.4983
B( 55-C , 94-H ) :   0.9376 B( 56-C , 57-C ) :   1.0733 B( 56-C , 65-C ) :   0.9749
B( 57-C , 58-C ) :   1.6232 B( 57-C , 63-C ) :   0.9866 B( 58-C , 59-C ) :   1.1462
B( 58-C , 61-C ) :   1.1520 B( 59-C , 60-N ) :   2.9671 B( 61-C , 62-N ) :   2.9636
B( 63-C , 64-C ) :   1.2138 B( 63-C , 70-C ) :   1.4575 B( 64-C , 65-C ) :   0.9572
B( 64-C , 67-C ) :   1.4728 B( 65-C , 66-O ) :   2.1311 B( 67-C , 68-C ) :   1.1772
B( 67-C , 95-H ) :   1.0158 B( 68-C , 69-C ) :   1.2557 B( 68-C , 74-C ) :   1.2458
B( 69-C , 70-C ) :   1.2016 B( 69-C , 71-C ) :   1.2432 B( 70-C , 96-H ) :   0.9893
B( 71-C , 72-C ) :   1.4868 B( 71-C , 97-H ) :   0.9969 B( 72-C , 73-C ) :   1.2619
B( 72-C , 98-H ) :   0.9889 B( 73-C , 74-C ) :   1.4863 B( 73-C , 99-H ) :   0.9893
B( 74-C ,100-H ) :   0.9974

-----------------------------------------------------------------------------
         ABSORPTION SPECTRUM VIA TRANSITION ELECTRIC DIPOLE MOMENTS
-----------------------------------------------------------------------------
State   Energy  Wavelength   fosc         T2         TX        TY        TZ
        (cm-1)    (nm)                  (au**2)     (au)      (au)      (au)
-----------------------------------------------------------------------------
   0   10518.6    950.7   0.780694328  24.43423  -0.41202   4.67095  -1.56419
   1   17031.1    587.2   0.022883837   0.44235   0.39723   0.53014   0.05921
   2   17359.4    576.1   0.005770538   0.10944  -0.13375  -0.29984  -0.04054
   3   19492.7    513.0   0.079500867   1.34269   0.86971  -0.50428   0.57620
   4   20958.9    477.1   0.670148104  10.52635   1.18111  -2.58922   1.55796
   5   22592.5    442.6   0.091705897   1.33631   0.33688   1.10005  -0.11272
   6   23201.6    431.0   0.385512091   5.47010   0.62511   2.14710  -0.68504
   7   23814.4    419.9   0.016680405   0.23059  -0.20360   0.13327  -0.41397
   8   24433.7    409.3   0.005477764   0.07381  -0.17939   0.11714   0.16704
   9   24851.6    402.4   0.015614116   0.20684  -0.21406   0.31032  -0.25440
  10   26296.9    380.3   0.010004383   0.12525  -0.20996   0.16914  -0.22925
  11   26540.2    376.8   0.020441575   0.25356  -0.02996  -0.06447   0.49851
  12   26896.9    371.8   0.006574424   0.08047  -0.14138  -0.19333  -0.15200
  13   27241.1    367.1   0.028354540   0.34267  -0.52674   0.20881  -0.14703
  14   27519.3    363.4   0.006136403   0.07341  -0.10153   0.07725  -0.23903
  15   27610.3    362.2   0.010711674   0.12772   0.17104   0.25597   0.18151
  16   28308.3    353.3   0.055047796   0.64018   0.61445   0.37828   0.34574
  17   28439.1    351.6   0.011573174   0.13397  -0.20835   0.03961  -0.29832
  18   28740.7    347.9   0.025277320   0.28954  -0.31161   0.17040  -0.40424
  19   29472.2    339.3   0.004894980   0.05468  -0.07179   0.13322   0.17826
  20   29804.2    335.5   0.184490894   2.03785   0.82270   0.97423   0.64179
  21   30294.8    330.1   0.209998732   2.28205   0.03853  -1.36305  -0.65012
  22   30522.5    327.6   0.201290697   2.17110  -1.09009   0.63623  -0.76027
  23   30594.3    326.9   0.086017650   0.92560   0.74126   0.42763   0.43963
  24   30691.9    325.8   0.062326140   0.66853   0.27959   0.70214   0.31202
  25   31318.6    319.3   0.183205863   1.92581  -0.61185  -0.21068  -1.22762
  26   31860.6    313.9   0.059703314   0.61691   0.39239  -0.25740   0.62983
  27   31952.0    313.0   0.319843259   3.29545  -0.75182   0.36149  -1.61231
  28   32248.9    310.1   0.177849786   1.81558   0.55089  -0.28657   1.19581
  29   32280.8    309.8   0.077377365   0.78912   0.63316  -0.10747   0.61375
  30   32910.8    303.9   0.071863491   0.71886  -0.46585  -0.39226  -0.58989
  31   32966.9    303.3   0.013911930   0.13893   0.31220   0.20279   0.01834
  32   33443.0    299.0   0.020958722   0.20632  -0.11490   0.03581  -0.43799
  33   33824.8    295.6   0.043780210   0.42611  -0.31344  -0.45747  -0.34436
  34   34113.4    293.1   0.450164947   4.34433   0.24957   2.00449   0.51388
  35   34673.6    288.4   0.131530679   1.24883   0.57164   0.81781   0.50324
  36   34762.6    287.7   0.032463177   0.30744  -0.19560  -0.42078  -0.30352
  37   34900.8    286.5   0.141960215   1.33908   0.83092  -0.65490   0.46878
  38   35203.1    284.1   0.174116764   1.62830  -0.61105   0.48024  -1.01207
  39   35406.3    282.4   0.066584999   0.61912  -0.26314  -0.69912  -0.24721
  40   35590.1    281.0   0.731835663   6.76955   1.36431   1.96313   1.02680
  41   35826.1    279.1   0.136368919   1.25312  -0.82794   0.69691  -0.28627
  42   35964.3    278.1   0.011565203   0.10587  -0.04659   0.31618  -0.06107
  43   36004.3    277.7   0.084550659   0.77310   0.07558   0.85704   0.18131
  44   36366.4    275.0   0.022049866   0.19961  -0.11818  -0.40863   0.13663
  45   36523.4    273.8   0.079167088   0.71359   0.23080   0.74207   0.33114
  46   36631.3    273.0   0.003318137   0.02982  -0.04445   0.04781  -0.15987
  47   36799.9    271.7   0.117226823   1.04871   0.63638  -0.11992   0.79332
  48   37143.9    269.2   0.003313056   0.02936   0.05273   0.15564   0.04859
  49   37277.9    268.3   0.001121125   0.00990  -0.04933  -0.05178   0.06919
  50   37512.2    266.6   0.032329973   0.28373   0.29460   0.17840   0.40635
  51   37937.8    263.6   0.055506184   0.48166   0.08620   0.36497   0.58398
  52   38512.3    259.7   0.005885088   0.05031  -0.18780  -0.11811  -0.03298
  53   38762.5    258.0   0.059627786   0.50642   0.14542   0.67282   0.18051
  54   39007.6    256.4   0.009282253   0.07834  -0.07431   0.26847   0.02724
  55   39300.1    254.5   0.110720486   0.92749  -0.29006   0.89465  -0.20729
  56   39435.9    253.6   0.015119482   0.12622  -0.11726  -0.32205   0.09354
  57   39688.7    252.0   0.132365865   1.09796  -0.56237   0.59895  -0.65036
  58   40153.7    249.0   0.000706067   0.00579   0.03173   0.05753   0.03836
  59   40190.7    248.8   0.014649645   0.12000  -0.25466  -0.21844  -0.08623

FINAL SINGLE POINT ENERGY     -4338.553295172098

DIPOLE MOMENT
-------------
                                X             Y             Z
Electronic contribution:    -10.74608       9.50209       2.22468
Nuclear contribution   :     10.45290     -10.84081      -6.33395
                        -----------------------------------------
Total Dipole Moment    :     -0.29318      -1.33872      -4.10928
                        -----------------------------------------
Magnitude (a.u.)       :      4.33178
Magnitude (Debye)      :     11.01050

Rotational constants in cm-1:     0.001823     0.000308     0.000270
Rotational constants in MHz :    54.644311     9.244171     8.095571

                             ****ORCA TERMINATED NORMALLY****
TOTAL RUN TIME: 0 days 0 hours 11 minutes 1 seconds 253 msec
