                         Program Version 4.2.0 -  RELEASE  -
|  1> # ORCA input file
|  2> # SCF done       -129.980452751937          0.000918132912
|  3> ! CAM-B3LYP def2-SVP def2/J RIJCOSX Grid4 TightSCF
|  4> %maxcore 5000
|  5> %tddft
|  6>     Mode sTDDFT
|  7>     Ethresh 5.0
|  8>     maxcore 5000
|  9> end
| 10>
| 11> %pal
| 12>   nprocs 6
| 13>   end
| 14> * xyz 0 1
| 15>    C        0.61749         1.22216        -0.78893
| 16>    C        0.80707         0.26526        -1.76834
| 17>    C        0.13016        -0.93674        -1.69706
| 18>    F        0.35473        -1.83034        -2.68163
| 19>    C       -0.76317        -1.24975        -0.66308
| 20>    C       -0.93877        -0.26790         0.32019
| 21>    C       -0.25916         0.92876         0.24217
| 22>    F       -0.45775         1.84419         1.20977
| 23>    C       -1.47463        -2.50572        -0.59200
| 24>    C       -2.43355        -2.86006         0.33506
| 25>    C       -2.92233        -4.14954         0.12523
| 26>    C       -2.33626        -4.79844        -0.96940
| 27>    S       -1.17279        -3.79079        -1.74604
| 28>    C       -2.82096        -6.08339        -1.18759
| 29>    C       -3.78741        -6.43390        -0.25856
| 30>    S       -4.09526        -5.15586         0.90161
| 31>    C       -4.50017        -7.66485        -0.20368
| 32>    C       -5.47965        -7.91839         0.78184
| 33>    C       -6.24322        -9.13623         0.84682
| 34>    N       -7.15231        -9.27840         1.83619
| 35>    C       -7.32137        -8.32960         2.69587
| 36>    C       -6.57454        -7.12557         2.62772
| 37>    N       -5.69489        -6.95252         1.69826
| 38>    F       -6.75444        -6.14903         3.51229
| 39>    F       -8.22566        -8.52250         3.65536
| 40>    C       -6.06032       -10.17772        -0.09161
| 41>    C       -5.06006        -9.93670        -1.06035
| 42>    C       -4.29402        -8.71551        -1.12650
| 43>    N       -3.42125        -8.74375        -2.13642
| 44>    S       -3.54521       -10.14099        -2.91223
| 45>    N       -4.70836       -10.79080        -2.02180
| 46>    C       -6.80239       -11.39552        -0.11015
| 47>    C       -7.84443       -11.78271         0.71461
| 48>    C       -8.32543       -13.04489         0.38049
| 49>    C       -7.66371       -13.64439        -0.69693
| 50>    S       -6.42150       -12.61799        -1.31590
| 51>    C       -8.14989       -14.91292        -1.02685
| 52>    C       -9.18913       -15.29742        -0.21176
| 53>    S       -9.57478       -14.06867         0.98733
| 54>    C       -9.95743       -16.52180        -0.23012
| 55>    C      -11.11798       -16.63594         0.54294
| 56>    C      -11.85619       -17.79997         0.53198
| 57>    F      -12.96839       -17.86714         1.28680
| 58>    C      -11.49431       -18.89871        -0.22907
| 59>    C      -10.34789       -18.80731        -0.99645
| 60>    C       -9.60318       -17.64377        -0.99201
| 61>    F       -8.49068       -17.62668        -1.75399
| 62>    H        1.13067         2.16898        -0.81555
| 63>    H        1.47797         0.43730        -2.59471
| 64>    H       -1.60131        -0.43311         1.15258
| 65>    H       -2.77836        -2.22140         1.12591
| 66>    H       -2.50371        -6.74351        -1.97236
| 67>    H       -8.22013       -11.16814         1.50882
| 68>    H       -7.75722       -15.50576        -1.83017
| 69>    H      -11.44554       -15.80799         1.15189
| 70>    H      -12.09437       -19.79333        -0.21462
| 71>    H      -10.01653       -19.63427        -1.60400
| 72> *
| 73>
| 74>                          ****END OF INPUT****

CARTESIAN COORDINATES (ANGSTROEM)
---------------------------------
  C      0.617490    1.222160   -0.788930
  C      0.807070    0.265260   -1.768340
  C      0.130160   -0.936740   -1.697060
  F      0.354730   -1.830340   -2.681630
  C     -0.763170   -1.249750   -0.663080
  C     -0.938770   -0.267900    0.320190
  C     -0.259160    0.928760    0.242170
  F     -0.457750    1.844190    1.209770
  C     -1.474630   -2.505720   -0.592000
  C     -2.433550   -2.860060    0.335060
  C     -2.922330   -4.149540    0.125230
  C     -2.336260   -4.798440   -0.969400
  S     -1.172790   -3.790790   -1.746040
  C     -2.820960   -6.083390   -1.187590
  C     -3.787410   -6.433900   -0.258560
  S     -4.095260   -5.155860    0.901610
  C     -4.500170   -7.664850   -0.203680
  C     -5.479650   -7.918390    0.781840
  C     -6.243220   -9.136230    0.846820
  N     -7.152310   -9.278400    1.836190
  C     -7.321370   -8.329600    2.695870
  C     -6.574540   -7.125570    2.627720
  N     -5.694890   -6.952520    1.698260
  F     -6.754440   -6.149030    3.512290
  F     -8.225660   -8.522500    3.655360
  C     -6.060320  -10.177720   -0.091610
  C     -5.060060   -9.936700   -1.060350
  C     -4.294020   -8.715510   -1.126500
  N     -3.421250   -8.743750   -2.136420
  S     -3.545210  -10.140990   -2.912230
  N     -4.708360  -10.790800   -2.021800
  C     -6.802390  -11.395520   -0.110150
  C     -7.844430  -11.782710    0.714610
  C     -8.325430  -13.044890    0.380490
  C     -7.663710  -13.644390   -0.696930
  S     -6.421500  -12.617990   -1.315900
  C     -8.149890  -14.912920   -1.026850
  C     -9.189130  -15.297420   -0.211760
  S     -9.574780  -14.068670    0.987330
  C     -9.957430  -16.521800   -0.230120
  C    -11.117980  -16.635940    0.542940
  C    -11.856190  -17.799970    0.531980
  F    -12.968390  -17.867140    1.286800
  C    -11.494310  -18.898710   -0.229070
  C    -10.347890  -18.807310   -0.996450
  C     -9.603180  -17.643770   -0.992010
  F     -8.490680  -17.626680   -1.753990
  H      1.130670    2.168980   -0.815550
  H      1.477970    0.437300   -2.594710
  H     -1.601310   -0.433110    1.152580
  H     -2.778360   -2.221400    1.125910
  H     -2.503710   -6.743510   -1.972360
  H     -8.220130  -11.168140    1.508820
  H     -7.757220  -15.505760   -1.830170
  H    -11.445540  -15.807990    1.151890
  H    -12.094370  -19.793330   -0.214620
  H    -10.016530  -19.634270   -1.604000

 Total Charge           Charge          ....    0
 Multiplicity           Mult            ....    1
 Number of Electrons    NEL             ....  364
 Basis Dimension        Dim             ....  728

ORBITAL ENERGIES
----------------

  NO   OCC          E(Eh)            E(eV)
   0   2.0000     -89.039539     -2422.8890
   1   2.0000     -88.951751     -2420.5002
   2   2.0000     -88.950264     -2420.4597
   3   2.0000     -88.946993     -2420.3707
   4   2.0000     -88.946369     -2420.3537
   5   2.0000     -24.813860      -675.2195
   6   2.0000     -24.812209      -675.1745
   7   2.0000     -24.786707      -674.4806
   8   2.0000     -24.783809      -674.4017
   9   2.0000     -24.775676      -674.1804
  10   2.0000     -24.774454      -674.1472
  11   2.0000     -14.453272      -393.2935
  12   2.0000     -14.450668      -393.2227
  13   2.0000     -14.448121      -393.1534
  14   2.0000     -14.447907      -393.1475
  15   2.0000     -10.428976      -283.7869
  16   2.0000     -10.427556      -283.7482
  17   2.0000     -10.359655      -281.9005
  18   2.0000     -10.358915      -281.8804
  19   2.0000     -10.357025      -281.8290
  20   2.0000     -10.355836      -281.7966
  21   2.0000     -10.341659      -281.4109
  22   2.0000     -10.340117      -281.3689
  23   2.0000     -10.336189      -281.2620
  24   2.0000     -10.334780      -281.2237
  25   2.0000     -10.310174      -280.5541
  26   2.0000     -10.309778      -280.5433
  27   2.0000     -10.308549      -280.5099
  28   2.0000     -10.307614      -280.4844
  29   2.0000     -10.305267      -280.4206
  30   2.0000     -10.304676      -280.4045
  31   2.0000     -10.303695      -280.3778
  32   2.0000     -10.303104      -280.3617
  33   2.0000     -10.290653      -280.0229
  34   2.0000     -10.287788      -279.9449
  35   2.0000     -10.287359      -279.9333
  36   2.0000     -10.287143      -279.9274
  37   2.0000     -10.286387      -279.9068
  38   2.0000     -10.285896      -279.8935
  39   2.0000     -10.285699      -279.8881
  40   2.0000     -10.285296      -279.8771
  41   2.0000     -10.284192      -279.8471
  42   2.0000     -10.284059      -279.8435
  43   2.0000     -10.279369      -279.7159
  44   2.0000     -10.277116      -279.6546
  45   2.0000     -10.274631      -279.5869
  46   2.0000     -10.274408      -279.5809
  47   2.0000      -8.130740      -221.2487
  48   2.0000      -8.047061      -218.9717
  49   2.0000      -8.045164      -218.9200
  50   2.0000      -8.041102      -218.8095
  51   2.0000      -8.040072      -218.7815
  52   2.0000      -6.101864      -166.0402
  53   2.0000      -6.094053      -165.8276
  54   2.0000      -6.093471      -165.8118
  55   2.0000      -6.016559      -163.7189
  56   2.0000      -6.014733      -163.6692
  57   2.0000      -6.012618      -163.6117
  58   2.0000      -6.010784      -163.5617
  59   2.0000      -6.010508      -163.5542
  60   2.0000      -6.009809      -163.5352
  61   2.0000      -6.008593      -163.5021
  62   2.0000      -6.006783      -163.4529
  63   2.0000      -6.006440      -163.4435
  64   2.0000      -6.005371      -163.4145
  65   2.0000      -6.002622      -163.3396
  66   2.0000      -6.001627      -163.3126
  67   2.0000      -1.340961       -36.4894
  68   2.0000      -1.326904       -36.1069
  69   2.0000      -1.301349       -35.4115
  70   2.0000      -1.297777       -35.3143
  71   2.0000      -1.290603       -35.1191
  72   2.0000      -1.289658       -35.0934
  73   2.0000      -1.137197       -30.9447
  74   2.0000      -1.111365       -30.2418
  75   2.0000      -1.037019       -28.2187
  76   2.0000      -1.002993       -27.2928
  77   2.0000      -1.000758       -27.2320
  78   2.0000      -0.990528       -26.9536
  79   2.0000      -0.975462       -26.5437
  80   2.0000      -0.969281       -26.3755
  81   2.0000      -0.964993       -26.2588
  82   2.0000      -0.938087       -25.5266
  83   2.0000      -0.929430       -25.2911
  84   2.0000      -0.885285       -24.0898
  85   2.0000      -0.881975       -23.9998
  86   2.0000      -0.870927       -23.6991
  87   2.0000      -0.862988       -23.4831
  88   2.0000      -0.850925       -23.1548
  89   2.0000      -0.846996       -23.0479
  90   2.0000      -0.838441       -22.8151
  91   2.0000      -0.835850       -22.7446
  92   2.0000      -0.814203       -22.1556
  93   2.0000      -0.802488       -21.8368
  94   2.0000      -0.793629       -21.5957
  95   2.0000      -0.792465       -21.5641
  96   2.0000      -0.781070       -21.2540
  97   2.0000      -0.760225       -20.6868
  98   2.0000      -0.754295       -20.5254
  99   2.0000      -0.737418       -20.0662
 100   2.0000      -0.727164       -19.7871
 101   2.0000      -0.713998       -19.4289
 102   2.0000      -0.706013       -19.2116
 103   2.0000      -0.691106       -18.8060
 104   2.0000      -0.682401       -18.5691
 105   2.0000      -0.675289       -18.3756
 106   2.0000      -0.665776       -18.1167
 107   2.0000      -0.661364       -17.9966
 108   2.0000      -0.652939       -17.7674
 109   2.0000      -0.646841       -17.6015
 110   2.0000      -0.635944       -17.3049
 111   2.0000      -0.629160       -17.1203
 112   2.0000      -0.628227       -17.0949
 113   2.0000      -0.625564       -17.0225
 114   2.0000      -0.621773       -16.9193
 115   2.0000      -0.617210       -16.7951
 116   2.0000      -0.616108       -16.7652
 117   2.0000      -0.607369       -16.5273
 118   2.0000      -0.607163       -16.5217
 119   2.0000      -0.600720       -16.3464
 120   2.0000      -0.588711       -16.0197
 121   2.0000      -0.572658       -15.5828
 122   2.0000      -0.568582       -15.4719
 123   2.0000      -0.568126       -15.4595
 124   2.0000      -0.562782       -15.3141
 125   2.0000      -0.561499       -15.2792
 126   2.0000      -0.560929       -15.2636
 127   2.0000      -0.558261       -15.1911
 128   2.0000      -0.548438       -14.9238
 129   2.0000      -0.545696       -14.8491
 130   2.0000      -0.544624       -14.8200
 131   2.0000      -0.543094       -14.7783
 132   2.0000      -0.542685       -14.7672
 133   2.0000      -0.528543       -14.3824
 134   2.0000      -0.527857       -14.3637
 135   2.0000      -0.518837       -14.1183
 136   2.0000      -0.518162       -14.0999
 137   2.0000      -0.516755       -14.0616
 138   2.0000      -0.514784       -14.0080
 139   2.0000      -0.511471       -13.9178
 140   2.0000      -0.506317       -13.7776
 141   2.0000      -0.505225       -13.7479
 142   2.0000      -0.499964       -13.6047
 143   2.0000      -0.493946       -13.4409
 144   2.0000      -0.491806       -13.3827
 145   2.0000      -0.482858       -13.1392
 146   2.0000      -0.480089       -13.0639
 147   2.0000      -0.475913       -12.9503
 148   2.0000      -0.472973       -12.8703
 149   2.0000      -0.470584       -12.8052
 150   2.0000      -0.466755       -12.7010
 151   2.0000      -0.466252       -12.6874
 152   2.0000      -0.453221       -12.3328
 153   2.0000      -0.452805       -12.3214
 154   2.0000      -0.447174       -12.1682
 155   2.0000      -0.447113       -12.1666
 156   2.0000      -0.443730       -12.0745
 157   2.0000      -0.440030       -11.9738
 158   2.0000      -0.433728       -11.8023
 159   2.0000      -0.432605       -11.7718
 160   2.0000      -0.428381       -11.6568
 161   2.0000      -0.421166       -11.4605
 162   2.0000      -0.412218       -11.2170
 163   2.0000      -0.410357       -11.1664
 164   2.0000      -0.404005       -10.9935
 165   2.0000      -0.401347       -10.9212
 166   2.0000      -0.394398       -10.7321
 167   2.0000      -0.383762       -10.4427
 168   2.0000      -0.358483        -9.7548
 169   2.0000      -0.358234        -9.7480
 170   2.0000      -0.356370        -9.6973
 171   2.0000      -0.353991        -9.6326
 172   2.0000      -0.352257        -9.5854
 173   2.0000      -0.342317        -9.3149
 174   2.0000      -0.338886        -9.2216
 175   2.0000      -0.319543        -8.6952
 176   2.0000      -0.314613        -8.5610
 177   2.0000      -0.302415        -8.2291
 178   2.0000      -0.286622        -7.7994
 179   2.0000      -0.285902        -7.7798
 180   2.0000      -0.267917        -7.2904
 181   2.0000      -0.228490        -6.2175
 182   0.0000      -0.108268        -2.9461
 183   0.0000      -0.030269        -0.8237
 184   0.0000      -0.026757        -0.7281
 185   0.0000      -0.020199        -0.5496
 186   0.0000       0.007130         0.1940

MULLIKEN ATOMIC CHARGES
-----------------------
   0 C :   -0.049355
   1 C :   -0.033460
   2 C :    0.201347
   3 F :   -0.192716
   4 C :    0.096436
   5 C :   -0.108541
   6 C :    0.304524
   7 F :   -0.197760
   8 C :   -0.078495
   9 C :   -0.057783
  10 C :    0.022337
  11 C :   -0.000757
  12 S :    0.153760
  13 C :   -0.048927
  14 C :   -0.181040
  15 S :    0.149704
  16 C :    0.184828
  17 C :   -0.061667
  18 C :   -0.079468
  19 N :    0.002415
  20 C :    0.137211
  21 C :    0.149431
  22 N :   -0.039087
  23 F :   -0.138129
  24 F :   -0.144532
  25 C :    0.207153
  26 C :   -0.026790
  27 C :   -0.011288
  28 N :   -0.293181
  29 S :    0.550144
  30 N :   -0.326442
  31 C :   -0.184835
  32 C :   -0.047577
  33 C :    0.011064
  34 C :    0.014913
  35 S :    0.151845
  36 C :   -0.051159
  37 C :   -0.080446
  38 S :    0.108989
  39 C :    0.097271
  40 C :   -0.117393
  41 C :    0.298613
  42 F :   -0.196683
  43 C :   -0.049081
  44 C :   -0.033869
  45 C :    0.212561
  46 F :   -0.193474
  47 H :    0.001036
  48 H :    0.002974
  49 H :   -0.012283
  50 H :   -0.019739
  51 H :   -0.004292
  52 H :   -0.000171
  53 H :   -0.005908
  54 H :    0.005671
  55 H :    0.001415
  56 H :    0.000686
Sum of atomic charges:   -0.0000000

LOEWDIN ATOMIC CHARGES
----------------------
   0 C :   -0.043277
   1 C :   -0.033711
   2 C :    0.072540
   3 F :   -0.067788
   4 C :   -0.051058
   5 C :   -0.035799
   6 C :    0.080532
   7 F :   -0.072465
   8 C :   -0.157437
   9 C :   -0.066663
  10 C :   -0.201699
  11 C :   -0.209635
  12 S :    0.434764
  13 C :   -0.047420
  14 C :   -0.165028
  15 S :    0.445070
  16 C :   -0.040079
  17 C :   -0.016003
  18 C :   -0.009526
  19 N :   -0.029987
  20 C :    0.057376
  21 C :    0.059414
  22 N :   -0.049658
  23 F :   -0.027644
  24 F :   -0.032706
  25 C :   -0.043948
  26 C :   -0.046333
  27 C :   -0.038471
  28 N :   -0.279225
  29 S :    0.671695
  30 N :   -0.297706
  31 C :   -0.161362
  32 C :   -0.049841
  33 C :   -0.202953
  34 C :   -0.202877
  35 S :    0.450827
  36 C :   -0.060696
  37 C :   -0.152269
  38 S :    0.415741
  39 C :   -0.052191
  40 C :   -0.048021
  41 C :    0.079860
  42 F :   -0.071312
  43 C :   -0.043847
  44 C :   -0.034661
  45 C :    0.082064
  46 F :   -0.064038
  47 H :    0.040478
  48 H :    0.042293
  49 H :    0.038296
  50 H :    0.029917
  51 H :    0.030431
  52 H :    0.030815
  53 H :    0.031377
  54 H :    0.031902
  55 H :    0.040315
  56 H :    0.041626

  Mayer bond orders larger than 0.100000
B(  0-C ,  1-C ) :   1.3292 B(  0-C ,  6-C ) :   1.3587 B(  0-C , 47-H ) :   0.9978
B(  1-C ,  2-C ) :   1.3961 B(  1-C , 48-H ) :   0.9887 B(  2-C ,  3-F ) :   1.0898
B(  2-C ,  4-C ) :   1.3026 B(  4-C ,  5-C ) :   1.3027 B(  4-C ,  8-C ) :   1.0769
B(  5-C ,  6-C ) :   1.3680 B(  5-C , 49-H ) :   0.9982 B(  6-C ,  7-F ) :   1.0854
B(  8-C ,  9-C ) :   1.5243 B(  8-C , 12-S ) :   1.1092 B(  9-C , 10-C ) :   1.2590
B(  9-C , 50-H ) :   0.9970 B( 10-C , 11-C ) :   1.4024 B( 10-C , 15-S ) :   1.0288
B( 11-C , 12-S ) :   1.0430 B( 11-C , 13-C ) :   1.2407 B( 13-C , 14-C ) :   1.4808
B( 13-C , 51-H ) :   0.9883 B( 14-C , 15-S ) :   1.0820 B( 14-C , 16-C ) :   1.1978
B( 16-C , 17-C ) :   1.2938 B( 16-C , 25-C ) :   0.1249 B( 16-C , 27-C ) :   1.2011
B( 17-C , 18-C ) :   1.1073 B( 17-C , 22-N ) :   1.3808 B( 18-C , 19-N ) :   1.4239
B( 18-C , 25-C ) :   1.3037 B( 19-N , 20-C ) :   1.6722 B( 20-C , 21-C ) :   1.1048
B( 20-C , 24-F ) :   1.1693 B( 21-C , 22-N ) :   1.6626 B( 21-C , 23-F ) :   1.1842
B( 25-C , 26-C ) :   1.1849 B( 25-C , 31-C ) :   1.1889 B( 26-C , 27-C ) :   1.1099
B( 26-C , 30-N ) :   1.4720 B( 27-C , 28-N ) :   1.5059 B( 28-N , 29-S ) :   1.2790
B( 28-N , 30-N ) :   0.1539 B( 29-S , 30-N ) :   1.2752 B( 31-C , 32-C ) :   1.4710
B( 31-C , 35-S ) :   1.0971 B( 32-C , 33-C ) :   1.2351 B( 32-C , 52-H ) :   0.9939
B( 33-C , 34-C ) :   1.4078 B( 33-C , 38-S ) :   1.0587 B( 34-C , 35-S ) :   1.0403
B( 34-C , 36-C ) :   1.2241 B( 36-C , 37-C ) :   1.5420 B( 36-C , 53-H ) :   1.0040
B( 37-C , 38-S ) :   1.0962 B( 37-C , 39-C ) :   1.0864 B( 39-C , 40-C ) :   1.2887
B( 39-C , 45-C ) :   1.3129 B( 40-C , 41-C ) :   1.3762 B( 40-C , 54-H ) :   0.9874
B( 41-C , 42-F ) :   1.0874 B( 41-C , 43-C ) :   1.3654 B( 43-C , 44-C ) :   1.3238
B( 43-C , 55-H ) :   0.9980 B( 44-C , 45-C ) :   1.3987 B( 44-C , 56-H ) :   0.9870
B( 45-C , 46-F ) :   1.0880

-----------------------------------------------------------------------------
         ABSORPTION SPECTRUM VIA TRANSITION ELECTRIC DIPOLE MOMENTS
-----------------------------------------------------------------------------
State   Energy  Wavelength   fosc         T2         TX        TY        TZ
        (cm-1)    (nm)                  (au**2)     (au)      (au)      (au)
-----------------------------------------------------------------------------
   0   10674.3    936.8   0.677890764  20.90713   2.40267   3.88605  -0.18142
   1   19663.8    508.5   0.005672020   0.09496   0.08722  -0.03125  -0.29390
   2   21638.2    462.1   0.009755585   0.14843   0.26050  -0.02279  -0.28293
   3   21897.5    456.7   0.002779924   0.04179   0.10267  -0.04690  -0.17045
   4   25789.5    387.8   0.176977735   2.25918  -0.76423  -1.29423  -0.00992
   5   27536.5    363.2   1.838565784  21.98095   2.45642   3.98793  -0.20828
   6   28274.6    353.7   0.024655575   0.28707  -0.31218  -0.43284   0.04762
   7   29457.9    339.5   0.005928928   0.06626   0.23350  -0.03257  -0.10333
   8   30375.8    329.2   0.000681773   0.00739   0.05825  -0.06120   0.01581
   9   30936.7    323.2   0.000085723   0.00091  -0.01425   0.01430   0.02246
  10   31313.4    319.4   0.187722884   1.97361   0.49995  -0.62775  -1.15308
  11   33119.4    301.9   0.011761908   0.11692  -0.19869   0.08550   0.26482
  12   33822.6    295.7   0.003428958   0.03338  -0.09501  -0.14074  -0.06739
  13   35421.3    282.3   0.067589680   0.62819  -0.23442   0.45494   0.60520
  14   36199.6    276.2   0.310301435   2.82199   0.78040  -0.70204  -1.31153
  15   36529.8    273.7   0.070040130   0.63121  -0.50822   0.02363   0.61022
  16   36929.5    270.8   0.135116644   1.20451   0.68860  -0.13634  -0.84365
  17   37488.7    266.7   0.001305724   0.01147  -0.06135   0.05304  -0.06992
  18   38000.9    263.2   0.069771342   0.60445  -0.53011  -0.10402   0.55912
  19   38222.2    261.6   0.102426862   0.88221   0.38362  -0.38416  -0.76646
  20   38920.0    256.9   0.035253777   0.29820  -0.17142   0.24579   0.45651
  21   39276.4    254.6   0.085119847   0.71347   0.36074  -0.38334  -0.66059
  22   39457.6    253.4   0.115041128   0.95984   0.45580  -0.42786  -0.75433
  23   39759.9    251.5   0.001799279   0.01490  -0.07815   0.04898  -0.07995
  24   39883.6    250.7   0.009508815   0.07849   0.17918  -0.01224  -0.21502
  25   40278.3    248.3   0.363583014   2.97172   0.92321   1.45011  -0.12886

FINAL SINGLE POINT ENERGY     -4031.404551007122

DIPOLE MOMENT
-------------
                                X             Y             Z
Electronic contribution:     -3.52169       2.79133       7.31074
Nuclear contribution   :      4.03289      -2.94556      -8.05009
                        -----------------------------------------
Total Dipole Moment    :      0.51120      -0.15423      -0.73935
                        -----------------------------------------
Magnitude (a.u.)       :      0.91200
Magnitude (Debye)      :      2.31813

Rotational constants in cm-1:     0.005864     0.000512     0.000471
Rotational constants in MHz :   175.805711    15.336430    14.131814

                             ****ORCA TERMINATED NORMALLY****
TOTAL RUN TIME: 0 days 0 hours 3 minutes 57 seconds 320 msec
