                         Program Version 4.2.0 -  RELEASE  -
|  1> # ORCA input file
|  2> # SCF done       -184.923751498942          0.001054064939
|  3> ! CAM-B3LYP def2-SVP def2/J RIJCOSX Grid4 TightSCF
|  4> %maxcore 5000
|  5> %tddft
|  6>     Mode sTDDFT
|  7>     Ethresh 5.0
|  8>     maxcore 5000
|  9> end
| 10>
| 11> %pal
| 12>   nprocs 6
| 13>   end
| 14> * xyz 0 1
| 15>    O        4.25027         0.50258        10.33847
| 16>    N        2.99369         0.90078        10.13753
| 17>    C        2.90110         1.35783         8.91154
| 18>    C        1.69740         1.86679         8.37355
| 19>    N        0.72644         2.28080         7.93598
| 20>    C        4.16630         1.26128         8.25272
| 21>    C        4.97598         0.70629         9.23084
| 22>    C        6.34318         0.37223         9.18453
| 23>    N        7.45527         0.10977         9.12325
| 24>    C        4.49476         1.67108         6.88075
| 25>    O        3.71572         2.14087         6.09933
| 26>    O        5.80592         1.43812         6.65231
| 27>    C        6.41211         1.75408         5.47410
| 28>    C        5.89811         2.14237         4.26751
| 29>    C        6.93456         2.37520         3.34768
| 30>    C        8.21132         2.15568         3.88577
| 31>    S        8.16038         1.65497         5.52067
| 32>    C        9.18654         2.45282         2.89769
| 33>    C        8.51363         2.86523         1.73009
| 34>    C        7.07680         2.81281         1.97117
| 35>    C        6.08616         3.10628         1.08191
| 36>    C        4.71543         3.00472         1.40475
| 37>    N        3.59861         2.91880         1.64661
| 38>    C        6.36872         3.52305        -0.23691
| 39>    N        6.59751         3.86255        -1.30790
| 40>    C        9.38186         3.22145         0.70635
| 41>    C       10.70895         3.08058         1.09392
| 42>    S       10.88626         2.48577         2.73838
| 43>    C       11.86761         3.38734         0.36045
| 44>    C       13.17648         3.22652         0.82685
| 45>    C       14.16657         3.67702        -0.10765
| 46>    N       15.46688         3.60818         0.17285
| 47>    C       15.79659         3.10432         1.34351
| 48>    C       17.24508         3.02307         1.65613
| 49>    O       18.10106         3.40214         0.88493
| 50>    C       17.56640         2.44428         2.97183
| 51>    C       16.64343         2.02442         3.84360
| 52>    C       15.19329         2.08886         3.59439
| 53>    O       14.37596         1.70782         4.40574
| 54>    C       14.80728         2.65452         2.27762
| 55>    N       13.51978         2.72260         2.01161
| 56>    C       13.61667         4.18450        -1.28989
| 57>    S       11.88159         4.07995        -1.23521
| 58>    C       14.35841         4.73863        -2.34664
| 59>    C       13.89174         5.27611        -3.54010
| 60>    C       14.93279         5.77111        -4.31497
| 61>    C       16.19357         5.60799        -3.70466
| 62>    S       16.10693         4.83691        -2.18496
| 63>    C       17.17855         6.16858        -4.55948
| 64>    C       16.54338         6.67942        -5.70335
| 65>    C       15.11405         6.44520        -5.59314
| 66>    C       14.14379         6.78780        -6.48751
| 67>    C       12.78084         6.50325        -6.25621
| 68>    N       11.67375         6.27230        -6.06904
| 69>    C       14.43356         7.44998        -7.69973
| 70>    N       14.65985         7.98955        -8.68538
| 71>    C       17.43730         7.27260        -6.60328
| 72>    C       18.71955         7.20093        -6.11948
| 73>    S       18.87138         6.41071        -4.56687
| 74>    O       19.79220         7.70553        -6.77761
| 75>    C       21.00714         7.62259        -6.21083
| 76>    O       21.21560         7.10775        -5.13914
| 77>    C       22.02588         8.23583        -7.06071
| 78>    C       23.42000         8.38546        -6.77810
| 79>    N       24.02113         8.98609        -7.77645
| 80>    O       23.10966         9.24651        -8.71373
| 81>    C       21.90687         8.81133        -8.31642
| 82>    C       20.76986         8.96612        -9.13218
| 83>    N       19.83344         9.08129        -9.77943
| 84>    C       24.09757         7.97295        -5.60852
| 85>    N       24.63705         7.63893        -4.65815
| 86>    H        4.84771         2.25835         4.07168
| 87>    H        9.09610         3.57319        -0.26876
| 88>    H       18.62259         2.37965         3.19604
| 89>    H       16.92353         1.60703         4.80140
| 90>    H       12.84830         5.29667        -3.79914
| 91>    H       17.18897         7.72946        -7.54313
| 92> *
| 93>
| 94>                          ****END OF INPUT****

CARTESIAN COORDINATES (ANGSTROEM)
---------------------------------
  O      4.250270    0.502580   10.338470
  N      2.993690    0.900780   10.137530
  C      2.901100    1.357830    8.911540
  C      1.697400    1.866790    8.373550
  N      0.726440    2.280800    7.935980
  C      4.166300    1.261280    8.252720
  C      4.975980    0.706290    9.230840
  C      6.343180    0.372230    9.184530
  N      7.455270    0.109770    9.123250
  C      4.494760    1.671080    6.880750
  O      3.715720    2.140870    6.099330
  O      5.805920    1.438120    6.652310
  C      6.412110    1.754080    5.474100
  C      5.898110    2.142370    4.267510
  C      6.934560    2.375200    3.347680
  C      8.211320    2.155680    3.885770
  S      8.160380    1.654970    5.520670
  C      9.186540    2.452820    2.897690
  C      8.513630    2.865230    1.730090
  C      7.076800    2.812810    1.971170
  C      6.086160    3.106280    1.081910
  C      4.715430    3.004720    1.404750
  N      3.598610    2.918800    1.646610
  C      6.368720    3.523050   -0.236910
  N      6.597510    3.862550   -1.307900
  C      9.381860    3.221450    0.706350
  C     10.708950    3.080580    1.093920
  S     10.886260    2.485770    2.738380
  C     11.867610    3.387340    0.360450
  C     13.176480    3.226520    0.826850
  C     14.166570    3.677020   -0.107650
  N     15.466880    3.608180    0.172850
  C     15.796590    3.104320    1.343510
  C     17.245080    3.023070    1.656130
  O     18.101060    3.402140    0.884930
  C     17.566400    2.444280    2.971830
  C     16.643430    2.024420    3.843600
  C     15.193290    2.088860    3.594390
  O     14.375960    1.707820    4.405740
  C     14.807280    2.654520    2.277620
  N     13.519780    2.722600    2.011610
  C     13.616670    4.184500   -1.289890
  S     11.881590    4.079950   -1.235210
  C     14.358410    4.738630   -2.346640
  C     13.891740    5.276110   -3.540100
  C     14.932790    5.771110   -4.314970
  C     16.193570    5.607990   -3.704660
  S     16.106930    4.836910   -2.184960
  C     17.178550    6.168580   -4.559480
  C     16.543380    6.679420   -5.703350
  C     15.114050    6.445200   -5.593140
  C     14.143790    6.787800   -6.487510
  C     12.780840    6.503250   -6.256210
  N     11.673750    6.272300   -6.069040
  C     14.433560    7.449980   -7.699730
  N     14.659850    7.989550   -8.685380
  C     17.437300    7.272600   -6.603280
  C     18.719550    7.200930   -6.119480
  S     18.871380    6.410710   -4.566870
  O     19.792200    7.705530   -6.777610
  C     21.007140    7.622590   -6.210830
  O     21.215600    7.107750   -5.139140
  C     22.025880    8.235830   -7.060710
  C     23.420000    8.385460   -6.778100
  N     24.021130    8.986090   -7.776450
  O     23.109660    9.246510   -8.713730
  C     21.906870    8.811330   -8.316420
  C     20.769860    8.966120   -9.132180
  N     19.833440    9.081290   -9.779430
  C     24.097570    7.972950   -5.608520
  N     24.637050    7.638930   -4.658150
  H      4.847710    2.258350    4.071680
  H      9.096100    3.573190   -0.268760
  H     18.622590    2.379650    3.196040
  H     16.923530    1.607030    4.801400
  H     12.848300    5.296670   -3.799140
  H     17.188970    7.729460   -7.543130

 Total Charge           Charge          ....    0
 Multiplicity           Mult            ....    1
 Number of Electrons    NEL             ....  510
 Basis Dimension        Dim             .... 1044

ORBITAL ENERGIES
----------------

  NO   OCC          E(Eh)            E(eV)
   0   2.0000     -89.006026     -2421.9771
   1   2.0000     -88.999456     -2421.7983
   2   2.0000     -88.999337     -2421.7951
   3   2.0000     -88.989585     -2421.5297
   4   2.0000     -88.988452     -2421.4989
   5   2.0000     -19.392365      -527.6931
   6   2.0000     -19.387516      -527.5611
   7   2.0000     -19.339963      -526.2671
   8   2.0000     -19.330870      -526.0197
   9   2.0000     -19.270379      -524.3737
  10   2.0000     -19.260028      -524.0920
  11   2.0000     -19.234579      -523.3995
  12   2.0000     -19.234217      -523.3897
  13   2.0000     -14.532805      -395.4577
  14   2.0000     -14.528111      -395.3300
  15   2.0000     -14.467188      -393.6722
  16   2.0000     -14.464611      -393.6021
  17   2.0000     -14.461135      -393.5075
  18   2.0000     -14.461003      -393.5039
  19   2.0000     -14.448989      -393.1770
  20   2.0000     -14.443421      -393.0255
  21   2.0000     -14.432313      -392.7232
  22   2.0000     -14.431935      -392.7129
  23   2.0000     -14.431285      -392.6952
  24   2.0000     -14.430369      -392.6703
  25   2.0000     -10.472689      -284.9764
  26   2.0000     -10.465122      -284.7704
  27   2.0000     -10.440597      -284.1031
  28   2.0000     -10.434835      -283.9463
  29   2.0000     -10.401675      -283.0440
  30   2.0000     -10.396234      -282.8959
  31   2.0000     -10.390076      -282.7283
  32   2.0000     -10.388677      -282.6903
  33   2.0000     -10.384471      -282.5758
  34   2.0000     -10.384118      -282.5662
  35   2.0000     -10.369870      -282.1785
  36   2.0000     -10.367424      -282.1119
  37   2.0000     -10.366517      -282.0873
  38   2.0000     -10.364096      -282.0214
  39   2.0000     -10.363261      -281.9987
  40   2.0000     -10.361865      -281.9607
  41   2.0000     -10.354286      -281.7544
  42   2.0000     -10.354199      -281.7521
  43   2.0000     -10.351330      -281.6740
  44   2.0000     -10.350834      -281.6605
  45   2.0000     -10.345963      -281.5280
  46   2.0000     -10.342155      -281.4244
  47   2.0000     -10.341410      -281.4041
  48   2.0000     -10.340360      -281.3755
  49   2.0000     -10.339754      -281.3590
  50   2.0000     -10.339460      -281.3510
  51   2.0000     -10.337913      -281.3089
  52   2.0000     -10.332731      -281.1679
  53   2.0000     -10.332411      -281.1592
  54   2.0000     -10.332163      -281.1524
  55   2.0000     -10.331779      -281.1420
  56   2.0000     -10.331330      -281.1298
  57   2.0000     -10.330638      -281.1110
  58   2.0000     -10.330248      -281.1003
  59   2.0000     -10.330046      -281.0948
  60   2.0000     -10.329514      -281.0804
  61   2.0000     -10.316982      -280.7393
  62   2.0000     -10.316273      -280.7200
  63   2.0000     -10.309236      -280.5286
  64   2.0000     -10.308749      -280.5153
  65   2.0000     -10.308249      -280.5017
  66   2.0000     -10.308030      -280.4958
  67   2.0000     -10.307909      -280.4925
  68   2.0000     -10.306545      -280.4553
  69   2.0000     -10.305294      -280.4213
  70   2.0000     -10.304080      -280.3883
  71   2.0000      -8.100056      -220.4137
  72   2.0000      -8.094559      -220.2641
  73   2.0000      -8.092729      -220.2144
  74   2.0000      -8.082879      -219.9463
  75   2.0000      -8.081868      -219.9188
  76   2.0000      -6.069182      -165.1508
  77   2.0000      -6.065091      -165.0395
  78   2.0000      -6.063904      -165.0072
  79   2.0000      -6.062648      -164.9730
  80   2.0000      -6.062209      -164.9611
  81   2.0000      -6.059728      -164.8936
  82   2.0000      -6.057683      -164.8379
  83   2.0000      -6.056541      -164.8069
  84   2.0000      -6.054871      -164.7614
  85   2.0000      -6.052267      -164.6906
  86   2.0000      -6.051269      -164.6634
  87   2.0000      -6.047808      -164.5692
  88   2.0000      -6.046741      -164.5402
  89   2.0000      -6.045213      -164.4986
  90   2.0000      -6.044194      -164.4709
  91   2.0000      -1.335455       -36.3396
  92   2.0000      -1.330370       -36.2012
  93   2.0000      -1.272697       -34.6318
  94   2.0000      -1.257209       -34.2104
  95   2.0000      -1.170729       -31.8572
  96   2.0000      -1.163968       -31.6732
  97   2.0000      -1.152220       -31.3535
  98   2.0000      -1.147441       -31.2234
  99   2.0000      -1.111342       -30.2412
 100   2.0000      -1.054500       -28.6944
 101   2.0000      -1.050812       -28.5940
 102   2.0000      -1.048150       -28.5216
 103   2.0000      -1.047073       -28.4923
 104   2.0000      -1.043234       -28.3879
 105   2.0000      -1.039747       -28.2930
 106   2.0000      -1.039305       -28.2809
 107   2.0000      -1.024178       -27.8693
 108   2.0000      -1.023396       -27.8480
 109   2.0000      -1.018137       -27.7049
 110   2.0000      -1.016232       -27.6531
 111   2.0000      -1.010973       -27.5100
 112   2.0000      -1.009337       -27.4655
 113   2.0000      -1.008747       -27.4494
 114   2.0000      -1.002007       -27.2660
 115   2.0000      -0.995007       -27.0755
 116   2.0000      -0.983592       -26.7649
 117   2.0000      -0.978967       -26.6390
 118   2.0000      -0.961316       -26.1587
 119   2.0000      -0.957898       -26.0657
 120   2.0000      -0.947384       -25.7796
 121   2.0000      -0.922084       -25.0912
 122   2.0000      -0.913333       -24.8531
 123   2.0000      -0.885124       -24.0855
 124   2.0000      -0.884477       -24.0678
 125   2.0000      -0.880071       -23.9479
 126   2.0000      -0.874719       -23.8023
 127   2.0000      -0.865632       -23.5551
 128   2.0000      -0.861009       -23.4292
 129   2.0000      -0.856786       -23.3143
 130   2.0000      -0.852865       -23.2076
 131   2.0000      -0.820209       -22.3190
 132   2.0000      -0.816071       -22.2064
 133   2.0000      -0.814009       -22.1503
 134   2.0000      -0.810862       -22.0647
 135   2.0000      -0.803672       -21.8690
 136   2.0000      -0.800437       -21.7810
 137   2.0000      -0.797129       -21.6910
 138   2.0000      -0.780850       -21.2480
 139   2.0000      -0.776800       -21.1378
 140   2.0000      -0.771670       -20.9982
 141   2.0000      -0.758168       -20.6308
 142   2.0000      -0.752706       -20.4822
 143   2.0000      -0.735226       -20.0065
 144   2.0000      -0.724840       -19.7239
 145   2.0000      -0.702125       -19.1058
 146   2.0000      -0.697532       -18.9808
 147   2.0000      -0.691115       -18.8062
 148   2.0000      -0.690764       -18.7966
 149   2.0000      -0.688810       -18.7435
 150   2.0000      -0.679348       -18.4860
 151   2.0000      -0.676924       -18.4200
 152   2.0000      -0.671593       -18.2750
 153   2.0000      -0.665503       -18.1093
 154   2.0000      -0.654417       -17.8076
 155   2.0000      -0.650879       -17.7113
 156   2.0000      -0.649187       -17.6653
 157   2.0000      -0.643738       -17.5170
 158   2.0000      -0.634229       -17.2582
 159   2.0000      -0.631975       -17.1969
 160   2.0000      -0.630672       -17.1614
 161   2.0000      -0.625229       -17.0133
 162   2.0000      -0.621629       -16.9154
 163   2.0000      -0.619218       -16.8498
 164   2.0000      -0.618290       -16.8245
 165   2.0000      -0.615218       -16.7409
 166   2.0000      -0.610062       -16.6006
 167   2.0000      -0.607687       -16.5360
 168   2.0000      -0.602544       -16.3961
 169   2.0000      -0.598793       -16.2940
 170   2.0000      -0.594399       -16.1744
 171   2.0000      -0.578305       -15.7365
 172   2.0000      -0.577493       -15.7144
 173   2.0000      -0.572938       -15.5904
 174   2.0000      -0.568926       -15.4813
 175   2.0000      -0.564592       -15.3633
 176   2.0000      -0.563856       -15.3433
 177   2.0000      -0.558811       -15.2060
 178   2.0000      -0.549510       -14.9529
 179   2.0000      -0.548673       -14.9302
 180   2.0000      -0.547543       -14.8994
 181   2.0000      -0.534352       -14.5404
 182   2.0000      -0.529972       -14.4213
 183   2.0000      -0.529260       -14.4019
 184   2.0000      -0.523304       -14.2398
 185   2.0000      -0.516664       -14.0591
 186   2.0000      -0.514590       -14.0027
 187   2.0000      -0.514216       -13.9925
 188   2.0000      -0.511621       -13.9219
 189   2.0000      -0.509716       -13.8701
 190   2.0000      -0.507877       -13.8200
 191   2.0000      -0.506062       -13.7706
 192   2.0000      -0.504554       -13.7296
 193   2.0000      -0.503524       -13.7016
 194   2.0000      -0.501659       -13.6508
 195   2.0000      -0.499936       -13.6040
 196   2.0000      -0.498117       -13.5544
 197   2.0000      -0.497095       -13.5267
 198   2.0000      -0.491789       -13.3823
 199   2.0000      -0.491084       -13.3631
 200   2.0000      -0.487993       -13.2790
 201   2.0000      -0.487863       -13.2754
 202   2.0000      -0.487008       -13.2522
 203   2.0000      -0.485327       -13.2064
 204   2.0000      -0.483897       -13.1675
 205   2.0000      -0.475936       -12.9509
 206   2.0000      -0.474857       -12.9215
 207   2.0000      -0.471864       -12.8401
 208   2.0000      -0.471426       -12.8282
 209   2.0000      -0.470351       -12.7989
 210   2.0000      -0.467804       -12.7296
 211   2.0000      -0.466017       -12.6810
 212   2.0000      -0.462461       -12.5842
 213   2.0000      -0.462309       -12.5801
 214   2.0000      -0.462166       -12.5762
 215   2.0000      -0.459184       -12.4950
 216   2.0000      -0.458505       -12.4765
 217   2.0000      -0.456628       -12.4255
 218   2.0000      -0.454065       -12.3557
 219   2.0000      -0.453653       -12.3445
 220   2.0000      -0.451912       -12.2972
 221   2.0000      -0.450941       -12.2707
 222   2.0000      -0.445624       -12.1260
 223   2.0000      -0.445325       -12.1179
 224   2.0000      -0.441564       -12.0156
 225   2.0000      -0.440977       -11.9996
 226   2.0000      -0.440728       -11.9928
 227   2.0000      -0.440028       -11.9738
 228   2.0000      -0.436497       -11.8777
 229   2.0000      -0.432743       -11.7755
 230   2.0000      -0.429206       -11.6793
 231   2.0000      -0.428237       -11.6529
 232   2.0000      -0.418599       -11.3907
 233   2.0000      -0.412087       -11.2134
 234   2.0000      -0.411374       -11.1941
 235   2.0000      -0.409183       -11.1344
 236   2.0000      -0.407389       -11.0856
 237   2.0000      -0.406133       -11.0514
 238   2.0000      -0.400749       -10.9049
 239   2.0000      -0.396014       -10.7761
 240   2.0000      -0.392280       -10.6745
 241   2.0000      -0.389359       -10.5950
 242   2.0000      -0.380840       -10.3632
 243   2.0000      -0.372220       -10.1286
 244   2.0000      -0.367355        -9.9962
 245   2.0000      -0.358278        -9.7492
 246   2.0000      -0.355258        -9.6671
 247   2.0000      -0.352814        -9.6006
 248   2.0000      -0.350937        -9.5495
 249   2.0000      -0.343913        -9.3583
 250   2.0000      -0.329234        -8.9589
 251   2.0000      -0.324428        -8.8281
 252   2.0000      -0.320300        -8.7158
 253   2.0000      -0.285158        -7.7595
 254   2.0000      -0.240200        -6.5362
 255   0.0000      -0.117812        -3.2058
 256   0.0000      -0.106628        -2.9015
 257   0.0000      -0.096264        -2.6195
 258   0.0000      -0.094315        -2.5664
 259   0.0000      -0.092647        -2.5211

MULLIKEN ATOMIC CHARGES
-----------------------
   0 O :   -0.126398
   1 N :    0.073492
   2 C :   -0.190288
   3 C :   -0.165614
   4 N :    0.268738
   5 C :    0.033251
   6 C :    0.011436
   7 C :   -0.151752
   8 N :    0.248841
   9 C :    0.207946
  10 O :   -0.134899
  11 O :   -0.247419
  12 C :    0.068701
  13 C :   -0.039952
  14 C :    0.003044
  15 C :   -0.106175
  16 S :    0.220400
  17 C :   -0.094891
  18 C :    0.025885
  19 C :    0.299010
  20 C :   -0.294409
  21 C :   -0.194044
  22 N :    0.185567
  23 C :   -0.187754
  24 N :    0.176008
  25 C :   -0.079691
  26 C :   -0.077571
  27 S :    0.237977
  28 C :   -0.120318
  29 C :    0.024130
  30 C :    0.020125
  31 N :    0.040652
  32 C :   -0.116139
  33 C :    0.140996
  34 O :   -0.106180
  35 C :   -0.020569
  36 C :   -0.015510
  37 C :    0.139963
  38 O :   -0.107136
  39 C :   -0.117265
  40 N :    0.038842
  41 C :   -0.120490
  42 S :    0.233807
  43 C :   -0.075664
  44 C :   -0.083586
  45 C :    0.027340
  46 C :   -0.086218
  47 S :    0.238213
  48 C :   -0.100897
  49 C :   -0.016315
  50 C :    0.295789
  51 C :   -0.293296
  52 C :   -0.189109
  53 N :    0.174262
  54 C :   -0.193864
  55 N :    0.180789
  56 C :   -0.023375
  57 C :    0.063394
  58 S :    0.220200
  59 O :   -0.209720
  60 C :    0.216156
  61 O :   -0.168518
  62 C :    0.041595
  63 C :   -0.190275
  64 N :    0.079022
  65 O :   -0.124254
  66 C :    0.014508
  67 C :   -0.153189
  68 N :    0.259649
  69 C :   -0.166651
  70 N :    0.265694
  71 H :    0.037555
  72 H :    0.009304
  73 H :    0.020215
  74 H :    0.018315
  75 H :    0.009147
  76 H :    0.019435
Sum of atomic charges:   -0.0000000

LOEWDIN ATOMIC CHARGES
----------------------
   0 O :    0.080121
   1 N :    0.027000
   2 C :   -0.044740
   3 C :   -0.034118
   4 N :    0.018133
   5 C :   -0.076137
   6 C :    0.032949
   7 C :   -0.042559
   8 N :    0.016946
   9 C :    0.103226
  10 O :   -0.109685
  11 O :   -0.042074
  12 C :   -0.106505
  13 C :   -0.057972
  14 C :   -0.068291
  15 C :   -0.178114
  16 S :    0.485248
  17 C :   -0.184221
  18 C :   -0.070105
  19 C :    0.079806
  20 C :   -0.097600
  21 C :   -0.020885
  22 N :   -0.022357
  23 C :   -0.016025
  24 N :   -0.030580
  25 C :   -0.027967
  26 C :   -0.183840
  27 S :    0.528250
  28 C :   -0.190725
  29 C :   -0.056950
  30 C :   -0.057797
  31 N :   -0.008116
  32 C :   -0.041147
  33 C :    0.054923
  34 O :   -0.103015
  35 C :   -0.011358
  36 C :   -0.011900
  37 C :    0.055218
  38 O :   -0.103797
  39 C :   -0.040084
  40 N :   -0.009200
  41 C :   -0.188411
  42 S :    0.520422
  43 C :   -0.185999
  44 C :   -0.026761
  45 C :   -0.073329
  46 C :   -0.178643
  47 S :    0.529470
  48 C :   -0.193600
  49 C :   -0.066710
  50 C :    0.081324
  51 C :   -0.101439
  52 C :   -0.016692
  53 N :   -0.031418
  54 C :   -0.019342
  55 N :   -0.028129
  56 C :   -0.047969
  57 C :   -0.113976
  58 S :    0.504547
  59 O :   -0.014682
  60 C :    0.095728
  61 O :   -0.139470
  62 C :   -0.078970
  63 C :   -0.044028
  64 N :    0.028720
  65 O :    0.082648
  66 C :    0.038784
  67 C :   -0.044218
  68 N :    0.029333
  69 C :   -0.033635
  70 N :    0.017399
  71 H :    0.047778
  72 H :    0.037510
  73 H :    0.046760
  74 H :    0.046368
  75 H :    0.037606
  76 H :    0.049068

  Mayer bond orders larger than 0.100000
B(  0-O ,  1-N ) :   1.0236 B(  0-O ,  6-C ) :   1.1933 B(  1-N ,  2-C ) :   1.7065
B(  1-N ,  6-C ) :   0.1035 B(  2-C ,  3-C ) :   1.1585 B(  2-C ,  5-C ) :   1.2458
B(  3-C ,  4-N ) :   3.0661 B(  5-C ,  6-C ) :   1.5215 B(  5-C ,  9-C ) :   0.8895
B(  6-C ,  7-C ) :   1.1288 B(  7-C ,  8-N ) :   3.0413 B(  9-C , 10-O ) :   2.1723
B(  9-C , 11-O ) :   1.1422 B( 11-O , 12-C ) :   1.0068 B( 12-C , 13-C ) :   1.4954
B( 12-C , 16-S ) :   1.1193 B( 13-C , 14-C ) :   1.2019 B( 13-C , 71-H ) :   1.0036
B( 14-C , 15-C ) :   1.4653 B( 14-C , 19-C ) :   1.0211 B( 15-C , 16-S ) :   1.1042
B( 15-C , 17-C ) :   1.2091 B( 17-C , 18-C ) :   1.4244 B( 17-C , 27-S ) :   1.1040
B( 18-C , 19-C ) :   0.9884 B( 18-C , 25-C ) :   1.3221 B( 19-C , 20-C ) :   1.7178
B( 20-C , 21-C ) :   1.1290 B( 20-C , 23-C ) :   1.1334 B( 21-C , 22-N ) :   2.9998
B( 23-C , 24-N ) :   2.9926 B( 25-C , 26-C ) :   1.3935 B( 25-C , 72-H ) :   0.9942
B( 26-C , 27-S ) :   1.1149 B( 26-C , 28-C ) :   1.2335 B( 28-C , 29-C ) :   1.3258
B( 28-C , 41-C ) :   0.1167 B( 28-C , 42-S ) :   1.1531 B( 29-C , 30-C ) :   1.1820
B( 29-C , 40-N ) :   1.4168 B( 30-C , 31-N ) :   1.4196 B( 30-C , 41-C ) :   1.3217
B( 31-N , 32-C ) :   1.6998 B( 32-C , 33-C ) :   0.8990 B( 32-C , 39-C ) :   1.1031
B( 33-C , 34-O ) :   2.2458 B( 33-C , 35-C ) :   1.0227 B( 35-C , 36-C ) :   1.6755
B( 35-C , 73-H ) :   0.9992 B( 36-C , 37-C ) :   1.0231 B( 36-C , 74-H ) :   0.9986
B( 37-C , 38-O ) :   2.2458 B( 37-C , 39-C ) :   0.8983 B( 39-C , 40-N ) :   1.7018
B( 41-C , 42-S ) :   1.1565 B( 41-C , 43-C ) :   1.2368 B( 43-C , 44-C ) :   1.3922
B( 43-C , 47-S ) :   1.1106 B( 44-C , 45-C ) :   1.3152 B( 44-C , 75-H ) :   0.9968
B( 45-C , 46-C ) :   1.4207 B( 45-C , 50-C ) :   0.9932 B( 46-C , 47-S ) :   1.1096
B( 46-C , 48-C ) :   1.1986 B( 48-C , 49-C ) :   1.4548 B( 48-C , 58-S ) :   1.0742
B( 49-C , 50-C ) :   1.0157 B( 49-C , 56-C ) :   1.2517 B( 50-C , 51-C ) :   1.7173
B( 51-C , 52-C ) :   1.1312 B( 51-C , 54-C ) :   1.1284 B( 52-C , 53-N ) :   2.9942
B( 54-C , 55-N ) :   3.0041 B( 56-C , 57-C ) :   1.4911 B( 56-C , 76-H ) :   1.0060
B( 57-C , 58-S ) :   1.1264 B( 57-C , 59-O ) :   1.0138 B( 59-O , 60-C ) :   1.1829
B( 60-C , 61-O ) :   2.1154 B( 60-C , 62-C ) :   0.8920 B( 62-C , 63-C ) :   1.2432
B( 62-C , 66-C ) :   1.5128 B( 63-C , 64-N ) :   1.7097 B( 63-C , 69-C ) :   1.1623
B( 64-N , 65-O ) :   1.0217 B( 64-N , 66-C ) :   0.1019 B( 65-O , 66-C ) :   1.1967
B( 66-C , 67-C ) :   1.1370 B( 67-C , 68-N ) :   3.0313 B( 69-C , 70-N ) :   3.0632

-----------------------------------------------------------------------------
         ABSORPTION SPECTRUM VIA TRANSITION ELECTRIC DIPOLE MOMENTS
-----------------------------------------------------------------------------
State   Energy  Wavelength   fosc         T2         TX        TY        TZ
        (cm-1)    (nm)                  (au**2)     (au)      (au)      (au)
-----------------------------------------------------------------------------
   0   10352.1    966.0   0.519981663  16.53612  -2.86185  -1.24010   2.60922
   1   12272.7    814.8   0.011338297   0.30415  -0.24842   0.31240  -0.38058
   2   13578.2    736.5   0.044596530   1.08127   0.69345   0.33901  -0.69676
   3   16097.0    621.2   0.114264870   2.33692   1.05064  -0.48743   0.99774
   4   20350.4    491.4   0.161925382   2.61950   1.32979   0.53357  -0.75263
   5   21026.3    475.6   0.030534745   0.47809   0.49419  -0.31153   0.36987
   6   21749.7    459.8   0.138465197   2.09586   0.84442   0.30956  -1.13446
   7   23390.7    427.5   0.001719389   0.02420   0.12586   0.04670  -0.07861
   8   24894.0    401.7   0.001561551   0.02065   0.02337   0.11929   0.07665
   9   25441.7    393.1   0.028244473   0.36548   0.40205  -0.25892   0.36986
  10   25708.6    389.0   0.000020299   0.00026  -0.01338   0.00088   0.00895
  11   26607.0    375.8   0.001153682   0.01427  -0.00638   0.11391   0.03547
  12   27172.7    368.0   0.682034720   8.26322   2.07188   0.86978  -1.79277
  13   27627.3    362.0   0.475670220   5.66816   1.70550   0.72701  -1.49361
  14   29341.0    340.8   0.004511284   0.05062   0.21748  -0.01182   0.05639
  15   29486.6    339.1   0.150865660   1.68439   0.85084  -0.32151   0.92579
  16   29761.7    336.0   0.005861601   0.06484  -0.21243  -0.10714  -0.09074
  17   30233.7    330.8   0.045055369   0.49060   0.13740   0.21615  -0.65192
  18   30523.7    327.6   0.117392106   1.26613   0.99953   0.22497  -0.46524
  19   30922.7    323.4   0.000174663   0.00186   0.03216   0.01197  -0.02611
  20   31239.3    320.1   0.008167458   0.08607  -0.02004   0.09375   0.27728
  21   31763.1    314.8   0.049441489   0.51244   0.00751   0.28573  -0.65631
  22   32658.7    306.2   0.001425445   0.01437   0.01869  -0.02642   0.11542
  23   33066.5    302.4   1.080437417  10.75689   2.37099  -0.76323   2.13373
  24   33250.2    300.7   0.085693152   0.84845  -0.84796  -0.16470   0.31981
  25   33471.5    298.8   0.246342458   2.42292   1.07990  -0.37385   1.05686
  26   33903.9    295.0   0.037367378   0.36284   0.25548   0.26810  -0.47507
  27   33915.7    294.8   0.090857520   0.88193  -0.38284  -0.43400   0.73960
  28   34108.6    293.2   0.135773384   1.31047   0.90395   0.17055  -0.68136
  29   35020.8    285.5   0.044733920   0.42052  -0.59924  -0.09615   0.22846
  30   35096.2    284.9   0.003835624   0.03598  -0.02181   0.12422  -0.14167
  31   35165.8    284.4   0.017563414   0.16442  -0.05852  -0.29421   0.27284
  32   35336.5    283.0   0.064824650   0.60394   0.76915  -0.03609   0.10507
  33   35660.5    280.4   0.288660163   2.66486  -1.05527   0.54272  -1.12104
  34   35837.2    279.0   0.005090266   0.04676   0.10112   0.09587  -0.16536
  35   36845.4    271.4   0.076313805   0.68186   0.65791  -0.23485   0.44029
  36   36929.8    270.8   0.007210150   0.06428  -0.24448  -0.05758   0.03452
  37   37005.7    270.2   0.040523705   0.36051  -0.06773  -0.21782   0.55540
  38   37168.6    269.0   0.005440578   0.04819   0.10284   0.11474   0.15635
  39   37382.3    267.5   0.133822310   1.17852   0.89719  -0.16602   0.58823
  40   37600.1    266.0   0.000494319   0.00433   0.02115  -0.05323   0.03237
  41   37682.5    265.4   0.045728896   0.39951  -0.26135  -0.19618   0.54104
  42   38751.6    258.1   0.015136633   0.12859   0.27019  -0.10029   0.21338
  43   38979.2    256.5   0.005937300   0.05015  -0.06138  -0.15169   0.15287
  44   39076.8    255.9   0.026203005   0.22075  -0.40237   0.02521  -0.24129
  45   39516.4    253.1   0.027187987   0.22650   0.45787   0.10539   0.07582
  46   39590.7    252.6   0.003074168   0.02556   0.12049  -0.06156   0.08519
  47   40038.2    249.8   0.043323934   0.35623   0.52780   0.09264  -0.26282

FINAL SINGLE POINT ENERGY     -5001.631330435457

DIPOLE MOMENT
-------------
                                X             Y             Z
Electronic contribution:      0.46914       1.75401       0.47760
Nuclear contribution   :      2.54662      -2.43674       1.13159
                        -----------------------------------------
Total Dipole Moment    :      3.01575      -0.68273       1.60919
                        -----------------------------------------
Magnitude (a.u.)       :      3.48574
Magnitude (Debye)      :      8.86005

Rotational constants in cm-1:     0.002222     0.000244     0.000222
Rotational constants in MHz :    66.599900     7.328070     6.663259

                             ****ORCA TERMINATED NORMALLY****
TOTAL RUN TIME: 0 days 0 hours 7 minutes 29 seconds 679 msec
