                         Program Version 4.2.0 -  RELEASE  -
|  1> # ORCA input file
|  2> # SCF done       -187.440132567330          0.000511328749
|  3> ! CAM-B3LYP def2-SVP def2/J RIJCOSX Grid4 TightSCF
|  4> %maxcore 5000
|  5> %tddft
|  6>     Mode sTDDFT
|  7>     Ethresh 5.0
|  8>     maxcore 5000
|  9> end
| 10>
| 11> %pal
| 12>   nprocs 6
| 13>   end
| 14> * xyz 0 1
| 15>    O       18.58020       -10.76424        -2.43197
| 16>    N       18.98288       -10.39585        -1.21552
| 17>    C       18.49883        -9.20242        -0.96966
| 18>    C       18.72370        -8.51103         0.24146
| 19>    N       18.88124        -7.92714         1.21144
| 20>    C       17.72844        -8.74393        -2.08407
| 21>    C       17.82772        -9.80031        -2.97708
| 22>    C       17.27403        -9.95368        -4.26341
| 23>    N       16.82230       -10.08049        -5.30647
| 24>    C       16.99228        -7.49448        -2.26251
| 25>    O       16.33433        -7.21640        -3.23728
| 26>    O       17.12821        -6.69091        -1.19774
| 27>    C       16.46197        -5.51197        -1.17001
| 28>    C       16.49385        -4.65106        -0.10068
| 29>    C       15.67611        -3.54127        -0.34415
| 30>    C       15.04963        -3.59171        -1.60167
| 31>    S       15.45322        -4.99035        -2.49950
| 32>    C       14.19352        -2.46980        -1.72877
| 33>    C       14.28070        -1.70827        -0.54512
| 34>    C       15.22639        -2.35030         0.35720
| 35>    C       15.58749        -1.93054         1.60301
| 36>    C       16.51211        -2.63909         2.40015
| 37>    N       17.26149        -3.20779         3.05501
| 38>    C       15.05375        -0.76019         2.18467
| 39>    N       14.62015         0.18409         2.66914
| 40>    C       13.41656        -0.62270        -0.53954
| 41>    C       12.66514        -0.55327        -1.70807
| 42>    S       13.06962        -1.83200        -2.84430
| 43>    C       11.59013         0.32939        -1.97921
| 44>    C       10.85913         0.23259        -3.18535
| 45>    C        9.61929         0.93390        -3.38996
| 46>    N        8.95207         0.77484        -4.53767
| 47>    C        9.43444        -0.00667        -5.47335
| 48>    C       10.66753        -0.70739        -5.26849
| 49>    N       11.32831        -0.57243        -4.14414
| 50>    C       11.19115        -1.54682        -6.28293
| 51>    N       11.59020        -2.21564        -7.12237
| 52>    C        8.72870        -0.14214        -6.69464
| 53>    N        8.18385        -0.26885        -7.69379
| 54>    C        9.05100         1.76578        -2.39837
| 55>    C        9.85859         1.98704        -1.25756
| 56>    C       11.10467         1.28159        -1.05161
| 57>    N       11.67125         1.62244         0.10588
| 58>    S       10.75901         2.70956         0.85021
| 59>    N        9.58666         2.80220        -0.23841
| 60>    C        7.72180         2.24138        -2.52310
| 61>    C        7.01810         3.01085        -1.60269
| 62>    C        5.68582         3.15578        -1.96250
| 63>    C        5.37028         2.49606        -3.16825
| 64>    S        6.72174         1.72908        -3.87499
| 65>    C        3.97821         2.62904        -3.39870
| 66>    C        3.41583         3.37039        -2.34517
| 67>    C        4.47010         3.74249        -1.41667
| 68>    C        4.35030         4.46678        -0.26783
| 69>    C        5.45581         4.74048         0.56623
| 70>    N        6.34599         4.96151         1.25401
| 71>    C        3.11350         4.98830         0.16846
| 72>    N        2.11282         5.41584         0.52871
| 73>    C        2.02462         3.48833        -2.44670
| 74>    C        1.56925         2.83222        -3.56350
| 75>    S        2.81683         2.07338        -4.52492
| 76>    O        0.25664         2.73942        -3.88908
| 77>    C       -0.10067         2.02531        -4.96989
| 78>    O        0.68664         1.49119        -5.71267
| 79>    C       -1.55449         1.97395        -5.10892
| 80>    C       -2.30768         1.35207        -6.15389
| 81>    N       -3.59181         1.49352        -5.92996
| 82>    O       -3.74298         2.17249        -4.79250
| 83>    C       -2.54447         2.47410        -4.27661
| 84>    C       -2.42850         3.17932        -3.06351
| 85>    N       -2.30902         3.74452        -2.07585
| 86>    C       -1.79329         0.67267        -7.28138
| 87>    N       -1.36815         0.12461        -8.18946
| 88>    H       17.06746        -4.84076         0.78758
| 89>    H       13.29476         0.08795         0.25724
| 90>    H        7.48395         3.40702        -0.71910
| 91>    H        1.37479         3.99827        -1.76006
| 92> *
| 93>
| 94>                          ****END OF INPUT****

CARTESIAN COORDINATES (ANGSTROEM)
---------------------------------
  O     18.580200  -10.764240   -2.431970
  N     18.982880  -10.395850   -1.215520
  C     18.498830   -9.202420   -0.969660
  C     18.723700   -8.511030    0.241460
  N     18.881240   -7.927140    1.211440
  C     17.728440   -8.743930   -2.084070
  C     17.827720   -9.800310   -2.977080
  C     17.274030   -9.953680   -4.263410
  N     16.822300  -10.080490   -5.306470
  C     16.992280   -7.494480   -2.262510
  O     16.334330   -7.216400   -3.237280
  O     17.128210   -6.690910   -1.197740
  C     16.461970   -5.511970   -1.170010
  C     16.493850   -4.651060   -0.100680
  C     15.676110   -3.541270   -0.344150
  C     15.049630   -3.591710   -1.601670
  S     15.453220   -4.990350   -2.499500
  C     14.193520   -2.469800   -1.728770
  C     14.280700   -1.708270   -0.545120
  C     15.226390   -2.350300    0.357200
  C     15.587490   -1.930540    1.603010
  C     16.512110   -2.639090    2.400150
  N     17.261490   -3.207790    3.055010
  C     15.053750   -0.760190    2.184670
  N     14.620150    0.184090    2.669140
  C     13.416560   -0.622700   -0.539540
  C     12.665140   -0.553270   -1.708070
  S     13.069620   -1.832000   -2.844300
  C     11.590130    0.329390   -1.979210
  C     10.859130    0.232590   -3.185350
  C      9.619290    0.933900   -3.389960
  N      8.952070    0.774840   -4.537670
  C      9.434440   -0.006670   -5.473350
  C     10.667530   -0.707390   -5.268490
  N     11.328310   -0.572430   -4.144140
  C     11.191150   -1.546820   -6.282930
  N     11.590200   -2.215640   -7.122370
  C      8.728700   -0.142140   -6.694640
  N      8.183850   -0.268850   -7.693790
  C      9.051000    1.765780   -2.398370
  C      9.858590    1.987040   -1.257560
  C     11.104670    1.281590   -1.051610
  N     11.671250    1.622440    0.105880
  S     10.759010    2.709560    0.850210
  N      9.586660    2.802200   -0.238410
  C      7.721800    2.241380   -2.523100
  C      7.018100    3.010850   -1.602690
  C      5.685820    3.155780   -1.962500
  C      5.370280    2.496060   -3.168250
  S      6.721740    1.729080   -3.874990
  C      3.978210    2.629040   -3.398700
  C      3.415830    3.370390   -2.345170
  C      4.470100    3.742490   -1.416670
  C      4.350300    4.466780   -0.267830
  C      5.455810    4.740480    0.566230
  N      6.345990    4.961510    1.254010
  C      3.113500    4.988300    0.168460
  N      2.112820    5.415840    0.528710
  C      2.024620    3.488330   -2.446700
  C      1.569250    2.832220   -3.563500
  S      2.816830    2.073380   -4.524920
  O      0.256640    2.739420   -3.889080
  C     -0.100670    2.025310   -4.969890
  O      0.686640    1.491190   -5.712670
  C     -1.554490    1.973950   -5.108920
  C     -2.307680    1.352070   -6.153890
  N     -3.591810    1.493520   -5.929960
  O     -3.742980    2.172490   -4.792500
  C     -2.544470    2.474100   -4.276610
  C     -2.428500    3.179320   -3.063510
  N     -2.309020    3.744520   -2.075850
  C     -1.793290    0.672670   -7.281380
  N     -1.368150    0.124610   -8.189460
  H     17.067460   -4.840760    0.787580
  H     13.294760    0.087950    0.257240
  H      7.483950    3.407020   -0.719100
  H      1.374790    3.998270   -1.760060

 Total Charge           Charge          ....    0
 Multiplicity           Mult            ....    1
 Number of Electrons    NEL             ....  520
 Basis Dimension        Dim             .... 1062

ORBITAL ENERGIES
----------------

  NO   OCC          E(Eh)            E(eV)
   0   2.0000     -89.056039     -2423.3380
   1   2.0000     -89.001970     -2421.8667
   2   2.0000     -89.001517     -2421.8544
   3   2.0000     -88.989359     -2421.5236
   4   2.0000     -88.989101     -2421.5166
   5   2.0000     -19.393560      -527.7256
   6   2.0000     -19.393545      -527.7252
   7   2.0000     -19.342840      -526.3454
   8   2.0000     -19.342613      -526.3393
   9   2.0000     -19.272724      -524.4375
  10   2.0000     -19.271220      -524.3966
  11   2.0000     -14.534214      -395.4961
  12   2.0000     -14.533850      -395.4862
  13   2.0000     -14.480570      -394.0364
  14   2.0000     -14.480421      -394.0323
  15   2.0000     -14.468722      -393.7140
  16   2.0000     -14.465538      -393.6273
  17   2.0000     -14.464614      -393.6022
  18   2.0000     -14.464509      -393.5993
  19   2.0000     -14.453403      -393.2971
  20   2.0000     -14.449652      -393.1950
  21   2.0000     -14.441734      -392.9796
  22   2.0000     -14.441627      -392.9767
  23   2.0000     -14.432724      -392.7344
  24   2.0000     -14.432660      -392.7326
  25   2.0000     -14.432316      -392.7233
  26   2.0000     -14.431802      -392.7093
  27   2.0000     -10.474946      -285.0378
  28   2.0000     -10.474434      -285.0238
  29   2.0000     -10.442107      -284.1442
  30   2.0000     -10.441167      -284.1186
  31   2.0000     -10.403699      -283.0990
  32   2.0000     -10.402905      -283.0774
  33   2.0000     -10.397521      -282.9309
  34   2.0000     -10.397280      -282.9244
  35   2.0000     -10.392857      -282.8040
  36   2.0000     -10.392261      -282.7878
  37   2.0000     -10.371318      -282.2179
  38   2.0000     -10.370614      -282.1987
  39   2.0000     -10.367777      -282.1215
  40   2.0000     -10.367338      -282.1096
  41   2.0000     -10.364797      -282.0405
  42   2.0000     -10.360976      -281.9365
  43   2.0000     -10.360446      -281.9221
  44   2.0000     -10.360192      -281.9152
  45   2.0000     -10.356298      -281.8092
  46   2.0000     -10.356045      -281.8023
  47   2.0000     -10.355379      -281.7842
  48   2.0000     -10.354885      -281.7707
  49   2.0000     -10.350868      -281.6614
  50   2.0000     -10.346546      -281.5438
  51   2.0000     -10.335002      -281.2297
  52   2.0000     -10.334847      -281.2255
  53   2.0000     -10.332951      -281.1739
  54   2.0000     -10.332919      -281.1730
  55   2.0000     -10.332721      -281.1676
  56   2.0000     -10.332717      -281.1675
  57   2.0000     -10.332557      -281.1632
  58   2.0000     -10.331734      -281.1408
  59   2.0000     -10.331463      -281.1334
  60   2.0000     -10.331176      -281.1256
  61   2.0000     -10.331089      -281.1232
  62   2.0000     -10.330756      -281.1142
  63   2.0000     -10.328353      -281.0488
  64   2.0000     -10.328219      -281.0451
  65   2.0000     -10.312714      -280.6232
  66   2.0000     -10.312334      -280.6129
  67   2.0000     -10.311184      -280.5816
  68   2.0000     -10.310619      -280.5662
  69   2.0000     -10.303254      -280.3658
  70   2.0000     -10.303160      -280.3632
  71   2.0000     -10.302753      -280.3522
  72   2.0000     -10.302588      -280.3477
  73   2.0000      -8.146996      -221.6910
  74   2.0000      -8.095402      -220.2871
  75   2.0000      -8.094950      -220.2748
  76   2.0000      -8.082207      -219.9280
  77   2.0000      -8.081905      -219.9198
  78   2.0000      -6.118063      -166.4809
  79   2.0000      -6.110170      -166.2662
  80   2.0000      -6.109931      -166.2597
  81   2.0000      -6.064873      -165.0336
  82   2.0000      -6.064422      -165.0213
  83   2.0000      -6.060344      -164.9103
  84   2.0000      -6.059878      -164.8977
  85   2.0000      -6.057543      -164.8341
  86   2.0000      -6.057105      -164.8222
  87   2.0000      -6.051735      -164.6761
  88   2.0000      -6.051441      -164.6681
  89   2.0000      -6.046935      -164.5455
  90   2.0000      -6.046641      -164.5375
  91   2.0000      -6.044666      -164.4837
  92   2.0000      -6.044360      -164.4754
  93   2.0000      -1.336629       -36.3715
  94   2.0000      -1.336592       -36.3705
  95   2.0000      -1.275824       -34.7169
  96   2.0000      -1.275323       -34.7033
  97   2.0000      -1.173166       -31.9235
  98   2.0000      -1.171994       -31.8916
  99   2.0000      -1.153996       -31.4018
 100   2.0000      -1.139180       -30.9987
 101   2.0000      -1.068225       -29.0679
 102   2.0000      -1.055906       -28.7327
 103   2.0000      -1.055706       -28.7272
 104   2.0000      -1.048153       -28.5217
 105   2.0000      -1.047434       -28.5021
 106   2.0000      -1.044385       -28.4192
 107   2.0000      -1.043219       -28.3874
 108   2.0000      -1.027388       -27.9566
 109   2.0000      -1.024571       -27.8800
 110   2.0000      -1.023964       -27.8635
 111   2.0000      -1.019753       -27.7489
 112   2.0000      -1.017307       -27.6823
 113   2.0000      -1.017048       -27.6753
 114   2.0000      -1.011059       -27.5123
 115   2.0000      -1.010198       -27.4889
 116   2.0000      -1.009408       -27.4674
 117   2.0000      -1.006976       -27.4012
 118   2.0000      -0.998893       -27.1813
 119   2.0000      -0.990119       -26.9425
 120   2.0000      -0.984431       -26.7877
 121   2.0000      -0.981218       -26.7003
 122   2.0000      -0.961596       -26.1663
 123   2.0000      -0.957784       -26.0626
 124   2.0000      -0.925366       -25.1805
 125   2.0000      -0.922966       -25.1152
 126   2.0000      -0.914576       -24.8869
 127   2.0000      -0.896452       -24.3937
 128   2.0000      -0.882572       -24.0160
 129   2.0000      -0.882433       -24.0122
 130   2.0000      -0.867550       -23.6072
 131   2.0000      -0.861762       -23.4497
 132   2.0000      -0.858816       -23.3696
 133   2.0000      -0.858727       -23.3671
 134   2.0000      -0.848315       -23.0838
 135   2.0000      -0.827886       -22.5279
 136   2.0000      -0.822963       -22.3940
 137   2.0000      -0.817889       -22.2559
 138   2.0000      -0.816707       -22.2237
 139   2.0000      -0.806767       -21.9533
 140   2.0000      -0.797846       -21.7105
 141   2.0000      -0.784301       -21.3419
 142   2.0000      -0.781553       -21.2671
 143   2.0000      -0.769451       -20.9378
 144   2.0000      -0.762935       -20.7605
 145   2.0000      -0.749441       -20.3933
 146   2.0000      -0.747373       -20.3371
 147   2.0000      -0.727018       -19.7832
 148   2.0000      -0.719947       -19.5908
 149   2.0000      -0.705347       -19.1935
 150   2.0000      -0.704871       -19.1805
 151   2.0000      -0.699111       -19.0238
 152   2.0000      -0.692042       -18.8314
 153   2.0000      -0.691237       -18.8095
 154   2.0000      -0.685953       -18.6657
 155   2.0000      -0.680905       -18.5284
 156   2.0000      -0.670061       -18.2333
 157   2.0000      -0.669675       -18.2228
 158   2.0000      -0.655661       -17.8414
 159   2.0000      -0.655480       -17.8365
 160   2.0000      -0.648173       -17.6377
 161   2.0000      -0.647807       -17.6277
 162   2.0000      -0.641040       -17.4436
 163   2.0000      -0.638555       -17.3760
 164   2.0000      -0.632994       -17.2246
 165   2.0000      -0.632135       -17.2013
 166   2.0000      -0.630102       -17.1460
 167   2.0000      -0.625592       -17.0232
 168   2.0000      -0.620810       -16.8931
 169   2.0000      -0.620363       -16.8809
 170   2.0000      -0.618785       -16.8380
 171   2.0000      -0.614331       -16.7168
 172   2.0000      -0.610422       -16.6104
 173   2.0000      -0.603417       -16.4198
 174   2.0000      -0.596662       -16.2360
 175   2.0000      -0.595530       -16.2052
 176   2.0000      -0.578427       -15.7398
 177   2.0000      -0.573258       -15.5991
 178   2.0000      -0.570593       -15.5266
 179   2.0000      -0.565384       -15.3849
 180   2.0000      -0.558912       -15.2088
 181   2.0000      -0.558104       -15.1868
 182   2.0000      -0.550396       -14.9770
 183   2.0000      -0.550153       -14.9704
 184   2.0000      -0.549019       -14.9396
 185   2.0000      -0.540213       -14.6999
 186   2.0000      -0.518313       -14.1040
 187   2.0000      -0.516010       -14.0414
 188   2.0000      -0.515790       -14.0354
 189   2.0000      -0.513379       -13.9698
 190   2.0000      -0.512968       -13.9586
 191   2.0000      -0.511930       -13.9303
 192   2.0000      -0.509517       -13.8647
 193   2.0000      -0.508433       -13.8352
 194   2.0000      -0.504862       -13.7380
 195   2.0000      -0.504059       -13.7161
 196   2.0000      -0.500014       -13.6061
 197   2.0000      -0.499581       -13.5943
 198   2.0000      -0.496047       -13.4981
 199   2.0000      -0.495071       -13.4716
 200   2.0000      -0.493449       -13.4274
 201   2.0000      -0.489559       -13.3216
 202   2.0000      -0.488403       -13.2901
 203   2.0000      -0.487184       -13.2569
 204   2.0000      -0.486192       -13.2300
 205   2.0000      -0.485757       -13.2181
 206   2.0000      -0.482741       -13.1360
 207   2.0000      -0.482163       -13.1203
 208   2.0000      -0.477862       -13.0033
 209   2.0000      -0.476353       -12.9622
 210   2.0000      -0.475134       -12.9291
 211   2.0000      -0.472409       -12.8549
 212   2.0000      -0.472195       -12.8491
 213   2.0000      -0.470495       -12.8028
 214   2.0000      -0.468492       -12.7483
 215   2.0000      -0.467702       -12.7268
 216   2.0000      -0.464747       -12.6464
 217   2.0000      -0.464605       -12.6426
 218   2.0000      -0.463559       -12.6141
 219   2.0000      -0.462948       -12.5974
 220   2.0000      -0.462074       -12.5737
 221   2.0000      -0.458981       -12.4895
 222   2.0000      -0.458209       -12.4685
 223   2.0000      -0.457467       -12.4483
 224   2.0000      -0.456260       -12.4155
 225   2.0000      -0.454261       -12.3611
 226   2.0000      -0.447500       -12.1771
 227   2.0000      -0.442676       -12.0458
 228   2.0000      -0.442020       -12.0280
 229   2.0000      -0.441882       -12.0242
 230   2.0000      -0.441330       -12.0092
 231   2.0000      -0.439458       -11.9583
 232   2.0000      -0.438312       -11.9271
 233   2.0000      -0.437503       -11.9051
 234   2.0000      -0.431607       -11.7446
 235   2.0000      -0.430689       -11.7196
 236   2.0000      -0.429880       -11.6976
 237   2.0000      -0.429151       -11.6778
 238   2.0000      -0.420536       -11.4434
 239   2.0000      -0.420235       -11.4352
 240   2.0000      -0.419249       -11.4084
 241   2.0000      -0.410908       -11.1814
 242   2.0000      -0.410202       -11.1622
 243   2.0000      -0.409443       -11.1415
 244   2.0000      -0.405827       -11.0431
 245   2.0000      -0.397231       -10.8092
 246   2.0000      -0.396886       -10.7998
 247   2.0000      -0.396401       -10.7866
 248   2.0000      -0.390342       -10.6218
 249   2.0000      -0.380679       -10.3588
 250   2.0000      -0.367598       -10.0029
 251   2.0000      -0.365763        -9.9529
 252   2.0000      -0.360646        -9.8137
 253   2.0000      -0.352668        -9.5966
 254   2.0000      -0.352355        -9.5881
 255   2.0000      -0.328781        -8.9466
 256   2.0000      -0.325214        -8.8495
 257   2.0000      -0.322414        -8.7733
 258   2.0000      -0.288516        -7.8509
 259   2.0000      -0.245469        -6.6795
 260   0.0000      -0.139376        -3.7926
 261   0.0000      -0.105967        -2.8835
 262   0.0000      -0.102369        -2.7856
 263   0.0000      -0.094630        -2.5750
 264   0.0000      -0.093518        -2.5448

MULLIKEN ATOMIC CHARGES
-----------------------
   0 O :   -0.124800
   1 N :    0.080156
   2 C :   -0.173787
   3 C :   -0.173149
   4 N :    0.260574
   5 C :    0.042359
   6 C :    0.002549
   7 C :   -0.146850
   8 N :    0.265679
   9 C :    0.211447
  10 O :   -0.175009
  11 O :   -0.202679
  12 C :    0.065483
  13 C :   -0.019581
  14 C :   -0.014268
  15 C :   -0.105722
  16 S :    0.220194
  17 C :   -0.060717
  18 C :    0.032584
  19 C :    0.297082
  20 C :   -0.297538
  21 C :   -0.196924
  22 N :    0.182420
  23 C :   -0.187643
  24 N :    0.176949
  25 C :   -0.058476
  26 C :   -0.174293
  27 S :    0.202096
  28 C :    0.188617
  29 C :   -0.064982
  30 C :   -0.067059
  31 N :   -0.000979
  32 C :   -0.103701
  33 C :   -0.104164
  34 N :   -0.002909
  35 C :   -0.236330
  36 N :    0.251460
  37 C :   -0.236953
  38 N :    0.249896
  39 C :    0.190413
  40 C :   -0.014551
  41 C :   -0.016514
  42 N :   -0.280097
  43 S :    0.582401
  44 N :   -0.281059
  45 C :   -0.172519
  46 C :   -0.060957
  47 C :    0.034456
  48 C :   -0.060010
  49 S :    0.202323
  50 C :   -0.105335
  51 C :   -0.019531
  52 C :    0.299795
  53 C :   -0.297289
  54 C :   -0.184789
  55 N :    0.170661
  56 C :   -0.195632
  57 N :    0.182866
  58 C :   -0.021175
  59 C :    0.066130
  60 S :    0.221849
  61 O :   -0.209717
  62 C :    0.215955
  63 O :   -0.167433
  64 C :    0.039741
  65 C :   -0.188810
  66 N :    0.080059
  67 O :   -0.124903
  68 C :    0.017133
  69 C :   -0.154949
  70 N :    0.260466
  71 C :   -0.167788
  72 N :    0.268443
  73 H :    0.023464
  74 H :    0.022482
  75 H :    0.021810
  76 H :    0.021579
Sum of atomic charges:   -0.0000000

LOEWDIN ATOMIC CHARGES
----------------------
   0 O :    0.084053
   1 N :    0.028209
   2 C :   -0.049401
   3 C :   -0.035972
   4 N :    0.011783
   5 C :   -0.080811
   6 C :    0.046390
   7 C :   -0.041197
   8 N :    0.035941
   9 C :    0.095388
  10 O :   -0.145392
  11 O :   -0.008427
  12 C :   -0.109687
  13 C :   -0.046400
  14 C :   -0.060836
  15 C :   -0.196063
  16 S :    0.504820
  17 C :   -0.172430
  18 C :   -0.077886
  19 C :    0.080182
  20 C :   -0.100331
  21 C :   -0.020202
  22 N :   -0.026989
  23 C :   -0.016209
  24 N :   -0.031438
  25 C :   -0.005221
  26 C :   -0.169543
  27 S :    0.509433
  28 C :   -0.037677
  29 C :   -0.016947
  30 C :   -0.016948
  31 N :   -0.016962
  32 C :   -0.023204
  33 C :   -0.023290
  34 N :   -0.016987
  35 C :   -0.039849
  36 N :    0.001913
  37 C :   -0.039909
  38 N :    0.002200
  39 C :   -0.038139
  40 C :   -0.037505
  41 C :   -0.037704
  42 N :   -0.271412
  43 S :    0.703119
  44 N :   -0.271462
  45 C :   -0.169303
  46 C :   -0.005379
  47 C :   -0.078155
  48 C :   -0.172336
  49 S :    0.509831
  50 C :   -0.196176
  51 C :   -0.061103
  52 C :    0.080650
  53 C :   -0.100842
  54 C :   -0.016132
  55 N :   -0.031460
  56 C :   -0.019727
  57 N :   -0.028600
  58 C :   -0.048417
  59 C :   -0.109886
  60 S :    0.505592
  61 O :   -0.014625
  62 C :    0.096608
  63 O :   -0.138044
  64 C :   -0.079430
  65 C :   -0.043373
  66 N :    0.029245
  67 O :    0.082756
  68 C :    0.039403
  69 C :   -0.044247
  70 N :    0.029357
  71 C :   -0.034258
  72 N :    0.019188
  73 H :    0.050676
  74 H :    0.038821
  75 H :    0.038775
  76 H :    0.049584

  Mayer bond orders larger than 0.100000
B(  0-O ,  1-N ) :   1.0231 B(  0-O ,  6-C ) :   1.1962 B(  1-N ,  2-C ) :   1.7103
B(  1-N ,  6-C ) :   0.1014 B(  2-C ,  3-C ) :   1.1608 B(  2-C ,  5-C ) :   1.2208
B(  3-C ,  4-N ) :   3.0593 B(  5-C ,  6-C ) :   1.5344 B(  5-C ,  9-C ) :   0.8982
B(  6-C ,  7-C ) :   1.1372 B(  7-C ,  8-N ) :   3.0349 B(  9-C , 10-O ) :   2.1085
B(  9-C , 11-O ) :   1.1941 B( 11-O , 12-C ) :   1.0140 B( 12-C , 13-C ) :   1.4850
B( 12-C , 16-S ) :   1.1302 B( 13-C , 14-C ) :   1.2552 B( 13-C , 73-H ) :   1.0063
B( 14-C , 15-C ) :   1.4461 B( 14-C , 19-C ) :   1.0145 B( 15-C , 16-S ) :   1.0693
B( 15-C , 17-C ) :   1.2074 B( 17-C , 18-C ) :   1.4044 B( 17-C , 27-S ) :   1.1023
B( 18-C , 19-C ) :   0.9943 B( 18-C , 25-C ) :   1.2819 B( 19-C , 20-C ) :   1.7150
B( 20-C , 21-C ) :   1.1274 B( 20-C , 23-C ) :   1.1394 B( 21-C , 22-N ) :   3.0066
B( 23-C , 24-N ) :   2.9883 B( 25-C , 26-C ) :   1.4104 B( 25-C , 74-H ) :   0.9829
B( 26-C , 27-S ) :   1.0824 B( 26-C , 28-C ) :   1.2145 B( 28-C , 29-C ) :   1.2467
B( 28-C , 39-C ) :   0.1146 B( 28-C , 41-C ) :   1.1970 B( 29-C , 30-C ) :   1.1105
B( 29-C , 34-N ) :   1.4042 B( 30-C , 31-N ) :   1.4040 B( 30-C , 39-C ) :   1.2495
B( 31-N , 32-C ) :   1.6937 B( 32-C , 33-C ) :   1.2189 B( 32-C , 37-C ) :   1.1624
B( 33-C , 34-N ) :   1.6930 B( 33-C , 35-C ) :   1.1631 B( 35-C , 36-N ) :   3.0406
B( 37-C , 38-N ) :   3.0411 B( 39-C , 40-C ) :   1.1935 B( 39-C , 45-C ) :   1.2152
B( 40-C , 41-C ) :   1.1031 B( 40-C , 44-N ) :   1.5177 B( 41-C , 42-N ) :   1.5188
B( 42-N , 43-S ) :   1.2837 B( 42-N , 44-N ) :   0.1460 B( 43-S , 44-N ) :   1.2846
B( 45-C , 46-C ) :   1.4092 B( 45-C , 49-S ) :   1.0819 B( 46-C , 47-C ) :   1.2801
B( 46-C , 75-H ) :   0.9841 B( 47-C , 48-C ) :   1.4056 B( 47-C , 52-C ) :   0.9937
B( 48-C , 49-S ) :   1.1046 B( 48-C , 50-C ) :   1.2058 B( 50-C , 51-C ) :   1.4483
B( 50-C , 60-S ) :   1.0692 B( 51-C , 52-C ) :   1.0140 B( 51-C , 58-C ) :   1.2563
B( 52-C , 53-C ) :   1.7154 B( 53-C , 54-C ) :   1.1380 B( 53-C , 56-C ) :   1.1258
B( 54-C , 55-N ) :   2.9859 B( 56-C , 57-N ) :   3.0069 B( 58-C , 59-C ) :   1.4843
B( 58-C , 76-H ) :   1.0062 B( 59-C , 60-S ) :   1.1320 B( 59-C , 61-O ) :   1.0149
B( 61-O , 62-C ) :   1.1808 B( 62-C , 63-O ) :   2.1158 B( 62-C , 64-C ) :   0.8942
B( 64-C , 65-C ) :   1.2420 B( 64-C , 68-C ) :   1.5128 B( 65-C , 66-N ) :   1.7111
B( 65-C , 71-C ) :   1.1616 B( 66-N , 67-O ) :   1.0210 B( 66-N , 68-C ) :   0.1020
B( 67-O , 68-C ) :   1.1953 B( 68-C , 69-C ) :   1.1387 B( 69-C , 70-N ) :   3.0309
B( 71-C , 72-N ) :   3.0649

-----------------------------------------------------------------------------
         ABSORPTION SPECTRUM VIA TRANSITION ELECTRIC DIPOLE MOMENTS
-----------------------------------------------------------------------------
State   Energy  Wavelength   fosc         T2         TX        TY        TZ
        (cm-1)    (nm)                  (au**2)     (au)      (au)      (au)
-----------------------------------------------------------------------------
   0    7296.7   1370.5   0.406773101  18.35270   3.68906  -2.10295   0.56670
   1   13321.8    750.7   0.010442593   0.25806  -0.30515  -0.39198   0.10628
   2   13735.4    728.0   0.015139835   0.36287  -0.49073   0.34052  -0.07808
   3   17384.4    575.2   0.041147640   0.77922   0.43571   0.64277  -0.41979
   4   20961.9    477.1   0.184809595   2.90249   1.66440  -0.24645   0.26742
   5   21564.1    463.7   0.211933400   3.23552  -1.03931   1.46720  -0.05160
   6   22687.9    440.8   0.123942467   1.79846   0.26158  -0.72731  -1.09593
   7   23341.3    428.4   0.139377099   1.96581  -1.23090   0.60323  -0.29464
   8   24044.6    415.9   0.042755791   0.58540  -0.67198   0.31287  -0.18962
   9   24269.1    412.0   0.005582750   0.07573   0.11558  -0.12507  -0.21617
  10   24317.1    411.2   0.023684417   0.32065   0.12203   0.17269   0.52529
  11   25319.5    395.0   0.001374753   0.01787  -0.08398  -0.08038  -0.06604
  12   25605.1    390.5   0.001898330   0.02441  -0.10372  -0.10970   0.04019
  13   26240.2    381.1   0.101398411   1.27215  -0.97764   0.53891  -0.16105
  14   29433.1    339.8   0.364850153   4.08089  -1.68224   1.08557  -0.26923
  15   29988.9    333.5   0.257120231   2.82261  -1.60518   0.39989  -0.29339
  16   30580.1    327.0   0.141224399   1.52036   0.49678   0.34478   1.07457
  17   30788.4    324.8   0.086244990   0.92219  -0.07792  -0.71557  -0.63567
  18   30972.8    322.9   0.012767461   0.13571  -0.14550   0.30726   0.14188
  19   31088.8    321.7   0.000180641   0.00191   0.02319  -0.00778   0.03626
  20   31374.4    318.7   0.596987817   6.26420   2.16302  -1.08171   0.64456
  21   31540.9    317.0   0.125840926   1.31348   0.52817  -0.95267  -0.35628
  22   31646.9    316.0   0.183023525   1.90393   0.30231  -0.66122  -1.17274
  23   32386.3    308.8   1.302301578  13.23809   0.22679   1.49410   3.30973
  24   32593.3    306.8   0.027374674   0.27650  -0.28911  -0.03382  -0.43792
  25   33001.5    303.0   0.010699594   0.10674  -0.18622   0.23796   0.12423
  26   33539.7    298.2   0.229407207   2.25177  -0.08616  -0.53063  -1.40099
  27   34371.7    290.9   0.017707280   0.16960   0.35104  -0.20658   0.06078
  28   34407.8    290.6   0.004210529   0.04029  -0.17363   0.08236   0.05794
  29   34674.7    288.4   0.024249639   0.23023   0.30188   0.15855  -0.33758
  30   35037.4    285.4   0.010037124   0.09431  -0.26621   0.08425  -0.12783
  31   35185.9    284.2   0.101610952   0.95071  -0.80057   0.16457  -0.53171
  32   35352.6    282.9   0.071838714   0.66898  -0.76404   0.14152  -0.25533
  33   35572.7    281.1   0.274179045   2.53742  -0.16996  -1.07680  -1.16148
  34   36201.3    276.2   0.035421214   0.32212  -0.07172   0.44334   0.34702
  35   36319.0    275.3   0.096901304   0.87836  -0.76023   0.54771  -0.02077
  36   37903.4    263.8   0.066306116   0.57590   0.38275   0.65525   0.00771
  37   38041.7    262.9   0.041092957   0.35562   0.20769   0.53234   0.17058
  38   38150.8    262.1   0.057444531   0.49570  -0.29074  -0.56159  -0.30950
  39   39046.0    256.1   0.000269545   0.00227  -0.03100   0.03588  -0.00489
  40   39460.4    253.4   0.030655937   0.25576  -0.04307  -0.45799  -0.21011
  41   39666.2    252.1   0.037741906   0.31324   0.18835   0.30187   0.43202
  42   39852.5    250.9   0.005711267   0.04718   0.13488   0.16985   0.01176
  43   40055.3    249.7   0.028924138   0.23773   0.48098  -0.05275  -0.06004

FINAL SINGLE POINT ENERGY     -5068.844894013822

DIPOLE MOMENT
-------------
                                X             Y             Z
Electronic contribution:     -1.93701      -5.59497      -7.87278
Nuclear contribution   :      1.58624       5.12524       7.71418
                        -----------------------------------------
Total Dipole Moment    :     -0.35076      -0.46973      -0.15860
                        -----------------------------------------
Magnitude (a.u.)       :      0.60732
Magnitude (Debye)      :      1.54367

Rotational constants in cm-1:     0.001484     0.000268     0.000241
Rotational constants in MHz :    44.475064     8.026234     7.210430

                             ****ORCA TERMINATED NORMALLY****
TOTAL RUN TIME: 0 days 0 hours 7 minutes 25 seconds 599 msec
