                         Program Version 4.2.0 -  RELEASE  -
|  1> # ORCA input file
|  2> # SCF done       -138.510156322413          0.000599914907
|  3> ! CAM-B3LYP def2-SVP def2/J RIJCOSX Grid4 TightSCF
|  4> %maxcore 5000
|  5> %tddft
|  6>     Mode sTDDFT
|  7>     Ethresh 5.0
|  8>     maxcore 5000
|  9> end
| 10>
| 11> %pal
| 12>   nprocs 6
| 13>   end
| 14> * xyz 0 1
| 15>    C        3.17365        -0.99858         3.48950
| 16>    O        1.84082        -0.94213         3.00530
| 17>    C        1.65851        -1.33818         1.70032
| 18>    C        0.98700        -0.47483         0.82240
| 19>    C        0.49492         0.83227         1.27178
| 20>    C        1.20479         1.70125         2.06032
| 21>    C        0.69778         2.95304         2.48496
| 22>    C       -0.54476         3.39771         2.14486
| 23>    C       -1.31354         2.54995         1.32571
| 24>    N       -2.52618         2.67751         0.81939
| 25>    O       -2.75072         1.57119         0.11423
| 26>    N       -1.73081         0.71746         0.13550
| 27>    C       -0.79595         1.27649         0.88098
| 28>    C        0.75849        -0.88089        -0.49049
| 29>    C        1.23269        -2.08875        -0.95082
| 30>    C        1.88707        -2.96093        -0.08801
| 31>    C        2.37131        -4.26274        -0.55664
| 32>    C        3.63271        -4.73510        -0.26943
| 33>    F        4.51385        -3.96218         0.38207
| 34>    C        4.08263        -6.01273        -0.67285
| 35>    F        5.32431        -6.36920        -0.29944
| 36>    C        3.30350        -6.89107        -1.38873
| 37>    C        3.74113        -8.23989        -1.76588
| 38>    C        4.96227        -8.45686        -2.39320
| 39>    C        5.35270        -9.73443        -2.73005
| 40>    C        4.50785       -10.82068        -2.51800
| 41>    C        4.94157       -12.16293        -2.92180
| 42>    C        4.13698       -13.08452        -3.54182
| 43>    C        4.58332       -14.37393        -3.91893
| 44>    C        5.85540       -14.80781        -3.69335
| 45>    C        6.72820       -13.89813        -3.06771
| 46>    N        7.99739       -13.99505        -2.71691
| 47>    O        8.31799       -12.82827        -2.16317
| 48>    N        7.30803       -11.96357        -2.13545
| 49>    C        6.27986       -12.57751        -2.69071
| 50>    C        3.26590       -10.61363        -1.89799
| 51>    O        2.46811       -11.70536        -1.64790
| 52>    C        1.12630       -11.61956        -2.09944
| 53>    C        2.91327        -9.32894        -1.46879
| 54>    O        1.77218        -9.10875        -0.72246
| 55>    C        1.82830        -9.66209         0.58125
| 56>    C        2.01877        -6.42003        -1.74569
| 57>    N        1.11610        -7.05637        -2.48965
| 58>    S       -0.18795        -6.13340        -2.62095
| 59>    N        0.32029        -4.87317        -1.76472
| 60>    C        1.55588        -5.12104        -1.33084
| 61>    C        2.04696        -2.60898         1.25824
| 62>    O        2.57079        -3.54712         2.12186
| 63>    C        1.67299        -3.98804         3.12452
| 64>    H        3.82071        -0.32204         2.92012
| 65>    H        3.59524        -2.00409         3.44121
| 66>    H        3.12240        -0.66877         4.52585
| 67>    H        2.20256         1.43757         2.37086
| 68>    H        1.33295         3.56842         3.10489
| 69>    H       -0.94067         4.34478         2.47048
| 70>    H        0.22403        -0.22258        -1.15579
| 71>    H        1.08659        -2.37787        -1.97865
| 72>    H        5.60816        -7.61930        -2.60434
| 73>    H        6.31467        -9.90026        -3.18700
| 74>    H        3.11612       -12.82500        -3.76995
| 75>    H        3.87480       -15.02941        -4.40356
| 76>    H        6.20085       -15.78914        -3.97161
| 77>    H        1.09143       -11.51017        -3.18887
| 78>    H        0.58542       -10.78576        -1.64955
| 79>    H        0.66160       -12.56126        -1.81182
| 80>    H        2.00031       -10.74135         0.56096
| 81>    H        0.86215        -9.45307         1.03740
| 82>    H        2.62075        -9.18607         1.16875
| 83>    H        0.82322        -4.51246         2.67387
| 84>    H        1.29810        -3.16296         3.73508
| 85>    H        2.23892        -4.67862         3.74736
| 86> *
| 87>
| 88>                          ****END OF INPUT****

CARTESIAN COORDINATES (ANGSTROEM)
---------------------------------
  C      3.173650   -0.998580    3.489500
  O      1.840820   -0.942130    3.005300
  C      1.658510   -1.338180    1.700320
  C      0.987000   -0.474830    0.822400
  C      0.494920    0.832270    1.271780
  C      1.204790    1.701250    2.060320
  C      0.697780    2.953040    2.484960
  C     -0.544760    3.397710    2.144860
  C     -1.313540    2.549950    1.325710
  N     -2.526180    2.677510    0.819390
  O     -2.750720    1.571190    0.114230
  N     -1.730810    0.717460    0.135500
  C     -0.795950    1.276490    0.880980
  C      0.758490   -0.880890   -0.490490
  C      1.232690   -2.088750   -0.950820
  C      1.887070   -2.960930   -0.088010
  C      2.371310   -4.262740   -0.556640
  C      3.632710   -4.735100   -0.269430
  F      4.513850   -3.962180    0.382070
  C      4.082630   -6.012730   -0.672850
  F      5.324310   -6.369200   -0.299440
  C      3.303500   -6.891070   -1.388730
  C      3.741130   -8.239890   -1.765880
  C      4.962270   -8.456860   -2.393200
  C      5.352700   -9.734430   -2.730050
  C      4.507850  -10.820680   -2.518000
  C      4.941570  -12.162930   -2.921800
  C      4.136980  -13.084520   -3.541820
  C      4.583320  -14.373930   -3.918930
  C      5.855400  -14.807810   -3.693350
  C      6.728200  -13.898130   -3.067710
  N      7.997390  -13.995050   -2.716910
  O      8.317990  -12.828270   -2.163170
  N      7.308030  -11.963570   -2.135450
  C      6.279860  -12.577510   -2.690710
  C      3.265900  -10.613630   -1.897990
  O      2.468110  -11.705360   -1.647900
  C      1.126300  -11.619560   -2.099440
  C      2.913270   -9.328940   -1.468790
  O      1.772180   -9.108750   -0.722460
  C      1.828300   -9.662090    0.581250
  C      2.018770   -6.420030   -1.745690
  N      1.116100   -7.056370   -2.489650
  S     -0.187950   -6.133400   -2.620950
  N      0.320290   -4.873170   -1.764720
  C      1.555880   -5.121040   -1.330840
  C      2.046960   -2.608980    1.258240
  O      2.570790   -3.547120    2.121860
  C      1.672990   -3.988040    3.124520
  H      3.820710   -0.322040    2.920120
  H      3.595240   -2.004090    3.441210
  H      3.122400   -0.668770    4.525850
  H      2.202560    1.437570    2.370860
  H      1.332950    3.568420    3.104890
  H     -0.940670    4.344780    2.470480
  H      0.224030   -0.222580   -1.155790
  H      1.086590   -2.377870   -1.978650
  H      5.608160   -7.619300   -2.604340
  H      6.314670   -9.900260   -3.187000
  H      3.116120  -12.825000   -3.769950
  H      3.874800  -15.029410   -4.403560
  H      6.200850  -15.789140   -3.971610
  H      1.091430  -11.510170   -3.188870
  H      0.585420  -10.785760   -1.649550
  H      0.661600  -12.561260   -1.811820
  H      2.000310  -10.741350    0.560960
  H      0.862150   -9.453070    1.037400
  H      2.620750   -9.186070    1.168750
  H      0.823220   -4.512460    2.673870
  H      1.298100   -3.162960    3.735080
  H      2.238920   -4.678620    3.747360

 Total Charge           Charge          ....    0
 Multiplicity           Mult            ....    1
 Number of Electrons    NEL             ....  350
 Basis Dimension        Dim             ....  800

ORBITAL ENERGIES
----------------

  NO   OCC          E(Eh)            E(eV)
   0   2.0000     -89.017173     -2422.2804
   1   2.0000     -24.790963      -674.5964
   2   2.0000     -24.787124      -674.4919
   3   2.0000     -19.344497      -526.3905
   4   2.0000     -19.344265      -526.3842
   5   2.0000     -19.240554      -523.5621
   6   2.0000     -19.240492      -523.5604
   7   2.0000     -19.237077      -523.4675
   8   2.0000     -19.235421      -523.4224
   9   2.0000     -14.468244      -393.7009
  10   2.0000     -14.468030      -393.6951
  11   2.0000     -14.467474      -393.6800
  12   2.0000     -14.467292      -393.6750
  13   2.0000     -14.431108      -392.6904
  14   2.0000     -14.430671      -392.6785
  15   2.0000     -10.372721      -282.2561
  16   2.0000     -10.371829      -282.2318
  17   2.0000     -10.331505      -281.1345
  18   2.0000     -10.330743      -281.1138
  19   2.0000     -10.328874      -281.0629
  20   2.0000     -10.328519      -281.0533
  21   2.0000     -10.322308      -280.8843
  22   2.0000     -10.320504      -280.8352
  23   2.0000     -10.316359      -280.7224
  24   2.0000     -10.315623      -280.7024
  25   2.0000     -10.315119      -280.6887
  26   2.0000     -10.314890      -280.6824
  27   2.0000     -10.314156      -280.6625
  28   2.0000     -10.314037      -280.6592
  29   2.0000     -10.313116      -280.6341
  30   2.0000     -10.312994      -280.6308
  31   2.0000     -10.299889      -280.2742
  32   2.0000     -10.298938      -280.2483
  33   2.0000     -10.298816      -280.2450
  34   2.0000     -10.298597      -280.2391
  35   2.0000     -10.289684      -279.9965
  36   2.0000     -10.289555      -279.9930
  37   2.0000     -10.289090      -279.9804
  38   2.0000     -10.288922      -279.9758
  39   2.0000     -10.286897      -279.9207
  40   2.0000     -10.285891      -279.8933
  41   2.0000     -10.285756      -279.8897
  42   2.0000     -10.285606      -279.8856
  43   2.0000     -10.284397      -279.8527
  44   2.0000     -10.284013      -279.8422
  45   2.0000     -10.270341      -279.4702
  46   2.0000     -10.268990      -279.4334
  47   2.0000     -10.268133      -279.4101
  48   2.0000     -10.267517      -279.3934
  49   2.0000      -8.109147      -220.6611
  50   2.0000      -6.080344      -165.4546
  51   2.0000      -6.072612      -165.2442
  52   2.0000      -6.071535      -165.2149
  53   2.0000      -1.312190       -35.7065
  54   2.0000      -1.297280       -35.3008
  55   2.0000      -1.296835       -35.2887
  56   2.0000      -1.294662       -35.2295
  57   2.0000      -1.152301       -31.3557
  58   2.0000      -1.151675       -31.3387
  59   2.0000      -1.127918       -30.6922
  60   2.0000      -1.127425       -30.6788
  61   2.0000      -1.118754       -30.4428
  62   2.0000      -1.000209       -27.2171
  63   2.0000      -0.999953       -27.2101
  64   2.0000      -0.988790       -26.9063
  65   2.0000      -0.988600       -26.9012
  66   2.0000      -0.976714       -26.5777
  67   2.0000      -0.973559       -26.4919
  68   2.0000      -0.951056       -25.8796
  69   2.0000      -0.944684       -25.7062
  70   2.0000      -0.908566       -24.7233
  71   2.0000      -0.906731       -24.6734
  72   2.0000      -0.894015       -24.3274
  73   2.0000      -0.879836       -23.9415
  74   2.0000      -0.858075       -23.3494
  75   2.0000      -0.853569       -23.2268
  76   2.0000      -0.841008       -22.8850
  77   2.0000      -0.839610       -22.8469
  78   2.0000      -0.833353       -22.6767
  79   2.0000      -0.813616       -22.1396
  80   2.0000      -0.788685       -21.4612
  81   2.0000      -0.782336       -21.2884
  82   2.0000      -0.765975       -20.8432
  83   2.0000      -0.759312       -20.6619
  84   2.0000      -0.759075       -20.6555
  85   2.0000      -0.755517       -20.5587
  86   2.0000      -0.747156       -20.3311
  87   2.0000      -0.736302       -20.0358
  88   2.0000      -0.736032       -20.0284
  89   2.0000      -0.720117       -19.5954
  90   2.0000      -0.713867       -19.4253
  91   2.0000      -0.706224       -19.2173
  92   2.0000      -0.680124       -18.5071
  93   2.0000      -0.674853       -18.3637
  94   2.0000      -0.671506       -18.2726
  95   2.0000      -0.661304       -17.9950
  96   2.0000      -0.655998       -17.8506
  97   2.0000      -0.636743       -17.3267
  98   2.0000      -0.630202       -17.1487
  99   2.0000      -0.626737       -17.0544
 100   2.0000      -0.624843       -17.0028
 101   2.0000      -0.618649       -16.8343
 102   2.0000      -0.609252       -16.5786
 103   2.0000      -0.607379       -16.5276
 104   2.0000      -0.599363       -16.3095
 105   2.0000      -0.595720       -16.2104
 106   2.0000      -0.595298       -16.1989
 107   2.0000      -0.595079       -16.1929
 108   2.0000      -0.587951       -15.9990
 109   2.0000      -0.583262       -15.8714
 110   2.0000      -0.580193       -15.7879
 111   2.0000      -0.577870       -15.7247
 112   2.0000      -0.572964       -15.5911
 113   2.0000      -0.563699       -15.3390
 114   2.0000      -0.563541       -15.3347
 115   2.0000      -0.557946       -15.1825
 116   2.0000      -0.553087       -15.0503
 117   2.0000      -0.549514       -14.9530
 118   2.0000      -0.546893       -14.8817
 119   2.0000      -0.543534       -14.7903
 120   2.0000      -0.541670       -14.7396
 121   2.0000      -0.539479       -14.6800
 122   2.0000      -0.533816       -14.5259
 123   2.0000      -0.531707       -14.4685
 124   2.0000      -0.530184       -14.4270
 125   2.0000      -0.529997       -14.4219
 126   2.0000      -0.514573       -14.0023
 127   2.0000      -0.513204       -13.9650
 128   2.0000      -0.510020       -13.8784
 129   2.0000      -0.509722       -13.8702
 130   2.0000      -0.502961       -13.6863
 131   2.0000      -0.502634       -13.6774
 132   2.0000      -0.487786       -13.2733
 133   2.0000      -0.483208       -13.1488
 134   2.0000      -0.472179       -12.8486
 135   2.0000      -0.471167       -12.8211
 136   2.0000      -0.470367       -12.7993
 137   2.0000      -0.466792       -12.7021
 138   2.0000      -0.464715       -12.6455
 139   2.0000      -0.463988       -12.6258
 140   2.0000      -0.457284       -12.4433
 141   2.0000      -0.456715       -12.4279
 142   2.0000      -0.454133       -12.3576
 143   2.0000      -0.450289       -12.2530
 144   2.0000      -0.448899       -12.2152
 145   2.0000      -0.443138       -12.0584
 146   2.0000      -0.440567       -11.9884
 147   2.0000      -0.429855       -11.6970
 148   2.0000      -0.427303       -11.6275
 149   2.0000      -0.425501       -11.5785
 150   2.0000      -0.419570       -11.4171
 151   2.0000      -0.411069       -11.1858
 152   2.0000      -0.406879       -11.0718
 153   2.0000      -0.404706       -11.0126
 154   2.0000      -0.397611       -10.8195
 155   2.0000      -0.394685       -10.7399
 156   2.0000      -0.391940       -10.6652
 157   2.0000      -0.391653       -10.6574
 158   2.0000      -0.385187       -10.4815
 159   2.0000      -0.384494       -10.4626
 160   2.0000      -0.381896       -10.3919
 161   2.0000      -0.381764       -10.3883
 162   2.0000      -0.361721        -9.8429
 163   2.0000      -0.352803        -9.6003
 164   2.0000      -0.352685        -9.5970
 165   2.0000      -0.349554        -9.5119
 166   2.0000      -0.346808        -9.4371
 167   2.0000      -0.335265        -9.1230
 168   2.0000      -0.328129        -8.9288
 169   2.0000      -0.317672        -8.6443
 170   2.0000      -0.304098        -8.2749
 171   2.0000      -0.298614        -8.1257
 172   2.0000      -0.296812        -8.0767
 173   2.0000      -0.283485        -7.7140
 174   2.0000      -0.269457        -7.3323
 175   0.0000      -0.060176        -1.6375
 176   0.0000      -0.049207        -1.3390
 177   0.0000      -0.045418        -1.2359
 178   0.0000       0.006920         0.1883
 179   0.0000       0.018889         0.5140

MULLIKEN ATOMIC CHARGES
-----------------------
   0 C :    0.179668
   1 O :   -0.337322
   2 C :    0.092307
   3 C :    0.024140
   4 C :    0.103681
   5 C :   -0.016959
   6 C :    0.038525
   7 C :   -0.027096
   8 C :    0.007187
   9 N :    0.050850
  10 O :   -0.103527
  11 N :    0.047332
  12 C :   -0.081184
  13 C :   -0.008956
  14 C :    0.010745
  15 C :    0.015098
  16 C :   -0.025711
  17 C :    0.184444
  18 F :   -0.165671
  19 C :    0.155474
  20 F :   -0.168811
  21 C :   -0.015526
  22 C :    0.022045
  23 C :   -0.013169
  24 C :   -0.001793
  25 C :    0.020800
  26 C :    0.102663
  27 C :   -0.018476
  28 C :    0.041695
  29 C :   -0.029874
  30 C :    0.007819
  31 N :    0.051192
  32 O :   -0.102556
  33 N :    0.047037
  34 C :   -0.079521
  35 C :    0.096767
  36 O :   -0.336669
  37 C :    0.179768
  38 C :    0.104351
  39 O :   -0.346747
  40 C :    0.190119
  41 C :    0.004589
  42 N :   -0.251545
  43 S :    0.496210
  44 N :   -0.266957
  45 C :    0.014385
  46 C :    0.089672
  47 O :   -0.346752
  48 C :    0.187280
  49 H :    0.017510
  50 H :    0.043524
  51 H :    0.030529
  52 H :   -0.034820
  53 H :   -0.001340
  54 H :   -0.012454
  55 H :   -0.013707
  56 H :   -0.019513
  57 H :   -0.020926
  58 H :   -0.014006
  59 H :   -0.033686
  60 H :   -0.001789
  61 H :   -0.012224
  62 H :    0.017935
  63 H :    0.042192
  64 H :    0.029226
  65 H :    0.031979
  66 H :    0.029767
  67 H :    0.017690
  68 H :    0.018217
  69 H :    0.033077
  70 H :    0.031797
Sum of atomic charges:    0.0000000

LOEWDIN ATOMIC CHARGES
----------------------
   0 C :    0.075858
   1 O :   -0.124376
   2 C :    0.032309
   3 C :   -0.034235
   4 C :   -0.008960
   5 C :   -0.001014
   6 C :   -0.008332
   7 C :   -0.019891
   8 C :   -0.059871
   9 N :   -0.028814
  10 O :    0.073139
  11 N :   -0.028731
  12 C :   -0.051534
  13 C :   -0.007109
  14 C :   -0.003246
  15 C :   -0.029384
  16 C :   -0.049048
  17 C :    0.074253
  18 F :   -0.042077
  19 C :    0.071008
  20 F :   -0.048850
  21 C :   -0.047300
  22 C :   -0.027484
  23 C :   -0.012644
  24 C :   -0.005491
  25 C :   -0.034745
  26 C :   -0.009086
  27 C :   -0.000716
  28 C :   -0.008343
  29 C :   -0.019838
  30 C :   -0.059847
  31 N :   -0.028696
  32 O :    0.073814
  33 N :   -0.029302
  34 C :   -0.051660
  35 C :    0.036005
  36 O :   -0.123244
  37 C :    0.075762
  38 C :    0.035317
  39 O :   -0.125122
  40 C :    0.077199
  41 C :   -0.046676
  42 N :   -0.276433
  43 S :    0.637361
  44 N :   -0.289084
  45 C :   -0.047635
  46 C :    0.030135
  47 O :   -0.125822
  48 C :    0.077309
  49 H :    0.010624
  50 H :    0.016219
  51 H :    0.024229
  52 H :    0.031794
  53 H :    0.034626
  54 H :    0.038627
  55 H :    0.032258
  56 H :    0.032249
  57 H :    0.031829
  58 H :    0.032396
  59 H :    0.031944
  60 H :    0.034589
  61 H :    0.038665
  62 H :    0.010964
  63 H :    0.015642
  64 H :    0.023557
  65 H :    0.013698
  66 H :    0.023060
  67 H :    0.015092
  68 H :    0.015464
  69 H :    0.013633
  70 H :    0.024013

  Mayer bond orders larger than 0.100000
B(  0-C ,  1-O ) :   0.9324 B(  0-C , 49-H ) :   0.9615 B(  0-C , 50-H ) :   0.9627
B(  0-C , 51-H ) :   0.9837 B(  1-O ,  2-C ) :   1.1338 B(  2-C ,  3-C ) :   1.3953
B(  2-C , 46-C ) :   1.3090 B(  3-C ,  4-C ) :   0.9466 B(  3-C , 13-C ) :   1.3680
B(  3-C , 15-C ) :   0.1046 B(  4-C ,  5-C ) :   1.5809 B(  4-C ,  7-C ) :   0.1078
B(  4-C , 12-C ) :   1.1746 B(  5-C ,  6-C ) :   1.1768 B(  5-C , 52-H ) :   0.9929
B(  6-C ,  7-C ) :   1.5384 B(  6-C , 53-H ) :   0.9843 B(  7-C ,  8-C ) :   1.1606
B(  7-C , 54-H ) :   1.0249 B(  8-C ,  9-N ) :   1.5938 B(  8-C , 12-C ) :   1.1442
B(  9-N , 10-O ) :   1.0687 B(  9-N , 11-N ) :   0.1874 B( 10-O , 11-N ) :   1.0624
B( 11-N , 12-C ) :   1.5955 B( 13-C , 14-C ) :   1.3527 B( 13-C , 55-H ) :   0.9970
B( 14-C , 15-C ) :   1.3721 B( 14-C , 56-H ) :   0.9984 B( 15-C , 16-C ) :   0.9259
B( 15-C , 46-C ) :   1.4076 B( 16-C , 17-C ) :   1.4653 B( 16-C , 21-C ) :   0.1282
B( 16-C , 45-C ) :   1.2265 B( 17-C , 18-F ) :   1.1648 B( 17-C , 19-C ) :   1.0890
B( 19-C , 20-F ) :   1.1624 B( 19-C , 21-C ) :   1.4803 B( 21-C , 22-C ) :   0.9177
B( 21-C , 41-C ) :   1.2145 B( 22-C , 23-C ) :   1.3682 B( 22-C , 25-C ) :   0.1051
B( 22-C , 38-C ) :   1.4141 B( 23-C , 24-C ) :   1.3497 B( 23-C , 57-H ) :   1.0022
B( 24-C , 25-C ) :   1.3752 B( 24-C , 58-H ) :   0.9961 B( 25-C , 26-C ) :   0.9442
B( 25-C , 35-C ) :   1.3932 B( 26-C , 27-C ) :   1.5810 B( 26-C , 29-C ) :   0.1082
B( 26-C , 34-C ) :   1.1750 B( 27-C , 28-C ) :   1.1776 B( 27-C , 59-H ) :   0.9930
B( 28-C , 29-C ) :   1.5391 B( 28-C , 60-H ) :   0.9835 B( 29-C , 30-C ) :   1.1612
B( 29-C , 61-H ) :   1.0241 B( 30-C , 31-N ) :   1.5933 B( 30-C , 34-C ) :   1.1448
B( 31-N , 32-O ) :   1.0691 B( 31-N , 33-N ) :   0.1874 B( 32-O , 33-N ) :   1.0629
B( 33-N , 34-C ) :   1.5936 B( 35-C , 36-O ) :   1.1385 B( 35-C , 38-C ) :   1.3116
B( 36-O , 37-C ) :   0.9338 B( 37-C , 62-H ) :   0.9623 B( 37-C , 63-H ) :   0.9625
B( 37-C , 64-H ) :   0.9834 B( 38-C , 39-O ) :   1.1016 B( 39-O , 40-C ) :   0.9347
B( 40-C , 65-H ) :   0.9669 B( 40-C , 66-H ) :   0.9830 B( 40-C , 67-H ) :   0.9683
B( 41-C , 42-N ) :   1.5577 B( 41-C , 45-C ) :   1.1468 B( 42-N , 43-S ) :   1.2708
B( 42-N , 44-N ) :   0.1495 B( 43-S , 44-N ) :   1.2594 B( 44-N , 45-C ) :   1.5506
B( 46-C , 47-O ) :   1.1096 B( 47-O , 48-C ) :   0.9336 B( 48-C , 68-H ) :   0.9689
B( 48-C , 69-H ) :   0.9659 B( 48-C , 70-H ) :   0.9832

-----------------------------------------------------------------------------
         ABSORPTION SPECTRUM VIA TRANSITION ELECTRIC DIPOLE MOMENTS
-----------------------------------------------------------------------------
State   Energy  Wavelength   fosc         T2         TX        TY        TZ
        (cm-1)    (nm)                  (au**2)     (au)      (au)      (au)
-----------------------------------------------------------------------------
   0   28461.8    351.3   0.901936106  10.43252   0.98512  -2.91014  -0.99656
   1   31548.7    317.0   0.007070033   0.07378  -0.07318   0.25169  -0.07120
   2   31775.2    314.7   0.240069474   2.48727   0.62646  -1.39023  -0.40260
   3   32716.8    305.7   0.061908566   0.62295   0.00320   0.63141   0.47356
   4   32813.0    304.8   0.022621226   0.22696   0.11485   0.39302  -0.24353
   5   33326.3    300.1   0.005239310   0.05176  -0.03306   0.16133   0.15696
   6   35239.1    283.8   0.024378326   0.22775   0.13147  -0.44879  -0.09514
   7   35317.2    283.1   0.002889126   0.02693   0.05905   0.12229  -0.09214
   8   38383.2    260.5   0.011890503   0.10198  -0.08658  -0.26512  -0.15556
   9   38563.2    259.3   0.007578579   0.06470  -0.06868  -0.21456  -0.11808
  10   39349.9    254.1   0.004532173   0.03792   0.12117   0.08991   0.12309
  11   39565.6    252.7   0.063483650   0.52823  -0.64849  -0.08952  -0.31571
  12   40204.3    248.7   0.457356662   3.74505   1.73025   0.12378   0.85789

FINAL SINGLE POINT ENERGY     -2683.460924174761

DIPOLE MOMENT
-------------
                                X             Y             Z
Electronic contribution:      7.37369       6.94742     -15.27397
Nuclear contribution   :     -8.01470      -7.30729      15.79368
                        -----------------------------------------
Total Dipole Moment    :     -0.64101      -0.35987       0.51971
                        -----------------------------------------
Magnitude (a.u.)       :      0.90027
Magnitude (Debye)      :      2.28831

Rotational constants in cm-1:     0.006101     0.000697     0.000657
Rotational constants in MHz :   182.895207    20.907559    19.695067

                             ****ORCA TERMINATED NORMALLY****
TOTAL RUN TIME: 0 days 0 hours 4 minutes 42 seconds 931 msec
