                         Program Version 4.2.0 -  RELEASE  -
|  1> # ORCA input file
|  2> # SCF done       -123.531181909268          0.000382850722
|  3> ! CAM-B3LYP def2-SVP def2/J RIJCOSX Grid4 TightSCF
|  4> %maxcore 5000
|  5> %tddft
|  6>     Mode sTDDFT
|  7>     Ethresh 5.0
|  8>     maxcore 5000
|  9> end
| 10>
| 11> %pal
| 12>   nprocs 6
| 13>   end
| 14> * xyz 0 1
| 15>    C        3.04454        -0.62398         4.34552
| 16>    C        3.05601        -0.35607         3.00457
| 17>    C        2.87182        -1.36062         2.04071
| 18>    C        2.66694        -2.68547         2.37809
| 19>    C        2.64990        -2.99401         3.76941
| 20>    C        2.84001        -1.95541         4.75345
| 21>    N        2.80133        -2.38124         6.01217
| 22>   Se        2.52531        -4.10567         6.02767
| 23>    N        2.46769        -4.20280         4.27916
| 24>    C        2.47777        -3.72322         1.40017
| 25>    C        2.46762        -3.58916         0.02764
| 26>    C        2.25868        -4.80868        -0.61585
| 27>    C        2.10654        -5.88706         0.26151
| 28>    S        2.22443        -5.37949         1.90688
| 29>    C        1.90041        -7.09400        -0.41832
| 30>    C        1.89732        -6.92573        -1.80970
| 31>    S        2.14845        -5.27172        -2.29206
| 32>    C        1.69647        -8.10863        -2.51883
| 33>    C        1.54496        -9.18572        -1.67153
| 34>    S        1.64949        -8.74320         0.01980
| 35>    C        1.32761       -10.53842        -2.02386
| 36>    N        1.18923       -11.50696        -1.16961
| 37>    C        1.00070       -12.66895        -1.79454
| 38>    C        0.98717       -12.63513        -3.19751
| 39>    S        1.22872       -11.02234        -3.74156
| 40>    N        0.80072       -13.79748        -3.82243
| 41>    C        0.66322       -14.76611        -2.96815
| 42>    S        0.75949       -14.28171        -1.25039
| 43>    C        0.45459       -16.12032        -3.31998
| 44>    C        0.29716       -17.19582        -2.47172
| 45>    C        0.11584       -18.38230        -3.18010
| 46>    C        0.13430       -18.21848        -4.57188
| 47>    S        0.37871       -16.56863        -5.01129
| 48>    C       -0.04715       -19.42977        -5.25100
| 49>    C       -0.20274       -20.50692        -4.37271
| 50>    S       -0.12764       -20.03710        -2.69644
| 51>    C       -0.38335       -21.73128        -5.01558
| 52>    C       -0.36791       -21.60224        -6.38854
| 53>    S       -0.12758       -19.94438        -6.89642
| 54>    C       -0.52059       -22.64624        -7.36617
| 55>    C       -0.70191       -23.97436        -7.02821
| 56>    C       -0.84876       -24.98517        -7.99194
| 57>    C       -0.82186       -24.72053        -9.33331
| 58>    C       -0.63997       -23.38601        -9.74185
| 59>    C       -0.48799       -22.34102        -8.75795
| 60>    N       -0.32354       -21.12990        -9.26820
| 61>   Se       -0.35109       -21.23287       -11.01709
| 62>    N       -0.59035       -22.96276       -11.00105
| 63>    H        3.18506         0.14290         5.08939
| 64>    H        3.20950         0.65701         2.66378
| 65>    H        2.89198        -1.07633         1.00080
| 66>    H        2.60389        -2.66008        -0.49271
| 67>    H        1.66168        -8.18793        -3.58989
| 68>    H        0.31492       -17.11299        -1.40051
| 69>    H       -0.51820       -22.66020        -4.49453
| 70>    H       -0.73181       -24.25641        -5.98790
| 71>    H       -0.98553       -26.00049        -7.65067
| 72>    H       -0.93371       -25.49223       -10.07706
| 73> *
| 74>
| 75>                          ****END OF INPUT****

CARTESIAN COORDINATES (ANGSTROEM)
---------------------------------
  C      3.044540   -0.623980    4.345520
  C      3.056010   -0.356070    3.004570
  C      2.871820   -1.360620    2.040710
  C      2.666940   -2.685470    2.378090
  C      2.649900   -2.994010    3.769410
  C      2.840010   -1.955410    4.753450
  N      2.801330   -2.381240    6.012170
  Se     2.525310   -4.105670    6.027670
  N      2.467690   -4.202800    4.279160
  C      2.477770   -3.723220    1.400170
  C      2.467620   -3.589160    0.027640
  C      2.258680   -4.808680   -0.615850
  C      2.106540   -5.887060    0.261510
  S      2.224430   -5.379490    1.906880
  C      1.900410   -7.094000   -0.418320
  C      1.897320   -6.925730   -1.809700
  S      2.148450   -5.271720   -2.292060
  C      1.696470   -8.108630   -2.518830
  C      1.544960   -9.185720   -1.671530
  S      1.649490   -8.743200    0.019800
  C      1.327610  -10.538420   -2.023860
  N      1.189230  -11.506960   -1.169610
  C      1.000700  -12.668950   -1.794540
  C      0.987170  -12.635130   -3.197510
  S      1.228720  -11.022340   -3.741560
  N      0.800720  -13.797480   -3.822430
  C      0.663220  -14.766110   -2.968150
  S      0.759490  -14.281710   -1.250390
  C      0.454590  -16.120320   -3.319980
  C      0.297160  -17.195820   -2.471720
  C      0.115840  -18.382300   -3.180100
  C      0.134300  -18.218480   -4.571880
  S      0.378710  -16.568630   -5.011290
  C     -0.047150  -19.429770   -5.251000
  C     -0.202740  -20.506920   -4.372710
  S     -0.127640  -20.037100   -2.696440
  C     -0.383350  -21.731280   -5.015580
  C     -0.367910  -21.602240   -6.388540
  S     -0.127580  -19.944380   -6.896420
  C     -0.520590  -22.646240   -7.366170
  C     -0.701910  -23.974360   -7.028210
  C     -0.848760  -24.985170   -7.991940
  C     -0.821860  -24.720530   -9.333310
  C     -0.639970  -23.386010   -9.741850
  C     -0.487990  -22.341020   -8.757950
  N     -0.323540  -21.129900   -9.268200
  Se    -0.351090  -21.232870  -11.017090
  N     -0.590350  -22.962760  -11.001050
  H      3.185060    0.142900    5.089390
  H      3.209500    0.657010    2.663780
  H      2.891980   -1.076330    1.000800
  H      2.603890   -2.660080   -0.492710
  H      1.661680   -8.187930   -3.589890
  H      0.314920  -17.112990   -1.400510
  H     -0.518200  -22.660200   -4.494530
  H     -0.731810  -24.256410   -5.987900
  H     -0.985530  -26.000490   -7.650670
  H     -0.933710  -25.492230  -10.077060

 Total Charge           Charge          ....    0
 Multiplicity           Mult            ....    1
 Number of Electrons    NEL             ....  440
 Basis Dimension        Dim             ....  790

ORBITAL ENERGIES
----------------

  NO   OCC          E(Eh)            E(eV)
   0   2.0000    -453.974045    -12353.2618
   1   2.0000    -453.974039    -12353.2616
   2   2.0000     -88.961126     -2420.7553
   3   2.0000     -88.961090     -2420.7543
   4   2.0000     -88.957157     -2420.6473
   5   2.0000     -88.957154     -2420.6472
   6   2.0000     -88.950936     -2420.4780
   7   2.0000     -88.950918     -2420.4775
   8   2.0000     -88.950398     -2420.4634
   9   2.0000     -88.950373     -2420.4627
  10   2.0000     -58.187985     -1583.3756
  11   2.0000     -58.187977     -1583.3754
  12   2.0000     -52.258644     -1422.0300
  13   2.0000     -52.258636     -1422.0298
  14   2.0000     -52.256363     -1421.9679
  15   2.0000     -52.256355     -1421.9677
  16   2.0000     -52.255837     -1421.9536
  17   2.0000     -52.255829     -1421.9534
  18   2.0000     -14.431673      -392.7058
  19   2.0000     -14.431658      -392.7054
  20   2.0000     -14.429172      -392.6377
  21   2.0000     -14.429142      -392.6369
  22   2.0000     -14.414861      -392.2483
  23   2.0000     -14.414813      -392.2470
  24   2.0000     -10.343441      -281.4593
  25   2.0000     -10.343434      -281.4592
  26   2.0000     -10.321939      -280.8742
  27   2.0000     -10.321387      -280.8592
  28   2.0000     -10.318856      -280.7903
  29   2.0000     -10.318846      -280.7901
  30   2.0000     -10.315976      -280.7120
  31   2.0000     -10.315962      -280.7116
  32   2.0000     -10.306111      -280.4435
  33   2.0000     -10.306103      -280.4433
  34   2.0000     -10.302913      -280.3565
  35   2.0000     -10.302911      -280.3565
  36   2.0000     -10.301750      -280.3249
  37   2.0000     -10.301742      -280.3246
  38   2.0000     -10.297845      -280.2186
  39   2.0000     -10.297840      -280.2185
  40   2.0000     -10.297613      -280.2123
  41   2.0000     -10.297604      -280.2120
  42   2.0000     -10.294998      -280.1411
  43   2.0000     -10.294991      -280.1409
  44   2.0000     -10.293247      -280.0935
  45   2.0000     -10.293233      -280.0931
  46   2.0000     -10.286234      -279.9027
  47   2.0000     -10.286231      -279.9026
  48   2.0000     -10.283867      -279.8383
  49   2.0000     -10.283857      -279.8380
  50   2.0000     -10.283551      -279.8297
  51   2.0000     -10.283547      -279.8295
  52   2.0000     -10.278691      -279.6974
  53   2.0000     -10.278681      -279.6971
  54   2.0000     -10.278410      -279.6897
  55   2.0000     -10.278383      -279.6890
  56   2.0000      -8.057000      -219.2421
  57   2.0000      -8.056962      -219.2411
  58   2.0000      -8.051903      -219.1034
  59   2.0000      -8.051892      -219.1031
  60   2.0000      -8.046262      -218.9499
  61   2.0000      -8.046255      -218.9497
  62   2.0000      -8.044164      -218.8928
  63   2.0000      -8.044151      -218.8925
  64   2.0000      -7.963806      -216.7062
  65   2.0000      -7.963798      -216.7060
  66   2.0000      -6.026199      -163.9812
  67   2.0000      -6.026183      -163.9808
  68   2.0000      -6.022553      -163.8820
  69   2.0000      -6.022537      -163.8816
  70   2.0000      -6.021526      -163.8541
  71   2.0000      -6.021516      -163.8538
  72   2.0000      -6.018607      -163.7746
  73   2.0000      -6.018591      -163.7742
  74   2.0000      -6.017366      -163.7409
  75   2.0000      -6.017354      -163.7405
  76   2.0000      -6.016002      -163.7037
  77   2.0000      -6.015994      -163.7035
  78   2.0000      -6.013905      -163.6467
  79   2.0000      -6.013891      -163.6463
  80   2.0000      -6.013406      -163.6331
  81   2.0000      -6.013397      -163.6329
  82   2.0000      -6.012194      -163.6001
  83   2.0000      -6.012187      -163.5999
  84   2.0000      -6.009386      -163.5237
  85   2.0000      -6.009373      -163.5234
  86   2.0000      -6.007178      -163.4636
  87   2.0000      -6.007167      -163.4633
  88   2.0000      -6.005805      -163.4263
  89   2.0000      -6.005787      -163.4258
  90   2.0000      -5.914003      -160.9282
  91   2.0000      -5.913995      -160.9280
  92   2.0000      -5.907397      -160.7484
  93   2.0000      -5.907390      -160.7483
  94   2.0000      -5.903541      -160.6435
  95   2.0000      -5.903532      -160.6433
  96   2.0000      -2.268099       -61.7181
  97   2.0000      -2.268095       -61.7180
  98   2.0000      -2.267529       -61.7026
  99   2.0000      -2.267521       -61.7024
 100   2.0000      -2.262959       -61.5782
 101   2.0000      -2.262946       -61.5779
 102   2.0000      -2.257828       -61.4386
 103   2.0000      -2.257825       -61.4385
 104   2.0000      -2.257688       -61.4348
 105   2.0000      -2.257673       -61.4344
 106   2.0000      -1.087240       -29.5853
 107   2.0000      -1.084925       -29.5223
 108   2.0000      -1.084898       -29.5216
 109   2.0000      -1.048118       -28.5207
 110   2.0000      -1.011294       -27.5187
 111   2.0000      -1.010467       -27.4962
 112   2.0000      -0.978019       -26.6133
 113   2.0000      -0.977030       -26.5863
 114   2.0000      -0.960097       -26.1256
 115   2.0000      -0.959624       -26.1127
 116   2.0000      -0.948173       -25.8011
 117   2.0000      -0.947818       -25.7914
 118   2.0000      -0.917602       -24.9692
 119   2.0000      -0.916952       -24.9515
 120   2.0000      -0.904529       -24.6135
 121   2.0000      -0.874613       -23.7994
 122   2.0000      -0.867661       -23.6103
 123   2.0000      -0.863592       -23.4995
 124   2.0000      -0.853547       -23.2262
 125   2.0000      -0.843391       -22.9498
 126   2.0000      -0.842661       -22.9300
 127   2.0000      -0.841842       -22.9077
 128   2.0000      -0.827664       -22.5219
 129   2.0000      -0.826515       -22.4906
 130   2.0000      -0.820447       -22.3255
 131   2.0000      -0.796600       -21.6766
 132   2.0000      -0.780439       -21.2368
 133   2.0000      -0.780146       -21.2289
 134   2.0000      -0.758184       -20.6312
 135   2.0000      -0.742101       -20.1936
 136   2.0000      -0.731158       -19.8958
 137   2.0000      -0.723679       -19.6923
 138   2.0000      -0.701998       -19.1023
 139   2.0000      -0.693142       -18.8613
 140   2.0000      -0.686643       -18.6845
 141   2.0000      -0.685605       -18.6563
 142   2.0000      -0.666323       -18.1316
 143   2.0000      -0.663102       -18.0439
 144   2.0000      -0.645204       -17.5569
 145   2.0000      -0.642291       -17.4776
 146   2.0000      -0.639122       -17.3914
 147   2.0000      -0.629785       -17.1373
 148   2.0000      -0.626463       -17.0469
 149   2.0000      -0.609669       -16.5899
 150   2.0000      -0.608719       -16.5641
 151   2.0000      -0.596913       -16.2428
 152   2.0000      -0.584525       -15.9057
 153   2.0000      -0.573018       -15.5926
 154   2.0000      -0.572580       -15.5807
 155   2.0000      -0.570241       -15.5170
 156   2.0000      -0.569115       -15.4864
 157   2.0000      -0.565573       -15.3900
 158   2.0000      -0.555775       -15.1234
 159   2.0000      -0.549011       -14.9393
 160   2.0000      -0.547707       -14.9039
 161   2.0000      -0.539250       -14.6737
 162   2.0000      -0.530695       -14.4409
 163   2.0000      -0.528527       -14.3819
 164   2.0000      -0.528215       -14.3735
 165   2.0000      -0.528121       -14.3709
 166   2.0000      -0.519965       -14.1490
 167   2.0000      -0.513248       -13.9662
 168   2.0000      -0.511731       -13.9249
 169   2.0000      -0.506547       -13.7838
 170   2.0000      -0.502608       -13.6767
 171   2.0000      -0.483927       -13.1683
 172   2.0000      -0.483301       -13.1513
 173   2.0000      -0.482862       -13.1393
 174   2.0000      -0.475123       -12.9288
 175   2.0000      -0.472047       -12.8451
 176   2.0000      -0.468601       -12.7513
 177   2.0000      -0.468184       -12.7399
 178   2.0000      -0.464235       -12.6325
 179   2.0000      -0.463874       -12.6226
 180   2.0000      -0.460215       -12.5231
 181   2.0000      -0.457464       -12.4482
 182   2.0000      -0.457368       -12.4456
 183   2.0000      -0.451611       -12.2890
 184   2.0000      -0.451364       -12.2822
 185   2.0000      -0.449646       -12.2355
 186   2.0000      -0.435709       -11.8562
 187   2.0000      -0.435607       -11.8535
 188   2.0000      -0.430963       -11.7271
 189   2.0000      -0.425375       -11.5750
 190   2.0000      -0.419846       -11.4246
 191   2.0000      -0.419581       -11.4174
 192   2.0000      -0.414840       -11.2884
 193   2.0000      -0.412705       -11.2303
 194   2.0000      -0.408111       -11.1053
 195   2.0000      -0.407514       -11.0890
 196   2.0000      -0.407094       -11.0776
 197   2.0000      -0.387741       -10.5510
 198   2.0000      -0.387102       -10.5336
 199   2.0000      -0.382875       -10.4186
 200   2.0000      -0.376135       -10.2352
 201   2.0000      -0.376124       -10.2349
 202   2.0000      -0.369054       -10.0425
 203   2.0000      -0.366339        -9.9686
 204   2.0000      -0.353003        -9.6057
 205   2.0000      -0.345675        -9.4063
 206   2.0000      -0.345604        -9.4044
 207   2.0000      -0.340171        -9.2565
 208   2.0000      -0.329444        -8.9646
 209   2.0000      -0.326465        -8.8836
 210   2.0000      -0.326138        -8.8747
 211   2.0000      -0.320368        -8.7177
 212   2.0000      -0.320161        -8.7120
 213   2.0000      -0.318054        -8.6547
 214   2.0000      -0.306083        -8.3289
 215   2.0000      -0.280367        -7.6292
 216   2.0000      -0.276707        -7.5296
 217   2.0000      -0.275764        -7.5039
 218   2.0000      -0.248157        -6.7527
 219   2.0000      -0.225725        -6.1423
 220   0.0000      -0.073334        -1.9955
 221   0.0000      -0.068281        -1.8580
 222   0.0000      -0.047195        -1.2842
 223   0.0000      -0.017804        -0.4845
 224   0.0000       0.010614         0.2888

MULLIKEN ATOMIC CHARGES
-----------------------
   0 C :   -0.023181
   1 C :    0.051284
   2 C :   -0.067495
   3 C :    0.165873
   4 C :   -0.021249
   5 C :    0.052122
   6 N :   -0.270419
   7 Se:    0.526014
   8 N :   -0.323235
   9 C :   -0.095401
  10 C :   -0.051737
  11 C :   -0.023004
  12 C :   -0.061827
  13 S :    0.178552
  14 C :   -0.089424
  15 C :   -0.023172
  16 S :    0.141721
  17 C :   -0.055478
  18 C :   -0.046981
  19 S :    0.203209
  20 C :   -0.100083
  21 N :   -0.040692
  22 C :   -0.057182
  23 C :   -0.057253
  24 S :    0.108742
  25 N :   -0.040666
  26 C :   -0.100042
  27 S :    0.108625
  28 C :   -0.047005
  29 C :   -0.055517
  30 C :   -0.023137
  31 C :   -0.089863
  32 S :    0.203208
  33 C :   -0.061365
  34 C :   -0.023217
  35 S :    0.141747
  36 C :   -0.051571
  37 C :   -0.095265
  38 S :    0.178559
  39 C :    0.165461
  40 C :   -0.066885
  41 C :    0.050840
  42 C :   -0.023235
  43 C :    0.052242
  44 C :   -0.021624
  45 N :   -0.323076
  46 Se:    0.526154
  47 N :   -0.270621
  48 H :   -0.019139
  49 H :   -0.007120
  50 H :   -0.023135
  51 H :   -0.023494
  52 H :   -0.004006
  53 H :   -0.003968
  54 H :   -0.023493
  55 H :   -0.023055
  56 H :   -0.007033
  57 H :   -0.019008
Sum of atomic charges:   -0.0000000

LOEWDIN ATOMIC CHARGES
----------------------
   0 C :   -0.024927
   1 C :   -0.013682
   2 C :   -0.014756
   3 C :   -0.036176
   4 C :   -0.042264
   5 C :   -0.043957
   6 N :   -0.249788
   7 Se:    0.569583
   8 N :   -0.269494
   9 C :   -0.158737
  10 C :   -0.064901
  11 C :   -0.191327
  12 C :   -0.225888
  13 S :    0.467425
  14 C :   -0.211537
  15 C :   -0.194996
  16 S :    0.394195
  17 C :   -0.060723
  18 C :   -0.197274
  19 S :    0.459315
  20 C :   -0.128914
  21 N :   -0.109944
  22 C :   -0.212660
  23 C :   -0.212662
  24 S :    0.401387
  25 N :   -0.109923
  26 C :   -0.128875
  27 S :    0.401376
  28 C :   -0.197288
  29 C :   -0.060727
  30 C :   -0.194983
  31 C :   -0.211543
  32 S :    0.459296
  33 C :   -0.225875
  34 C :   -0.191323
  35 S :    0.394183
  36 C :   -0.064903
  37 C :   -0.158757
  38 S :    0.467436
  39 C :   -0.036203
  40 C :   -0.014757
  41 C :   -0.013714
  42 C :   -0.024918
  43 C :   -0.043978
  44 C :   -0.042289
  45 N :   -0.269466
  46 Se:    0.569617
  47 N :   -0.249787
  48 H :    0.036641
  49 H :    0.033464
  50 H :    0.029453
  51 H :    0.029420
  52 H :    0.031053
  53 H :    0.031039
  54 H :    0.029430
  55 H :    0.029468
  56 H :    0.033481
  57 H :    0.036650

  Mayer bond orders larger than 0.100000
B(  0-C ,  1-C ) :   1.5035 B(  0-C ,  3-C ) :   0.1005 B(  0-C ,  5-C ) :   1.1874
B(  0-C , 48-H ) :   1.0183 B(  1-C ,  2-C ) :   1.1944 B(  1-C , 49-H ) :   0.9824
B(  2-C ,  3-C ) :   1.5146 B(  2-C , 50-H ) :   0.9944 B(  3-C ,  4-C ) :   1.1399
B(  3-C ,  9-C ) :   1.0907 B(  4-C ,  5-C ) :   1.1269 B(  4-C ,  8-N ) :   1.5597
B(  5-C ,  6-N ) :   1.5648 B(  6-N ,  7-Se) :   1.2569 B(  6-N ,  8-N ) :   0.1324
B(  7-Se,  8-N ) :   1.2183 B(  9-C , 10-C ) :   1.5101 B(  9-C , 13-S ) :   1.1135
B( 10-C , 11-C ) :   1.2763 B( 10-C , 51-H ) :   0.9944 B( 11-C , 12-C ) :   1.4585
B( 11-C , 16-S ) :   1.0437 B( 12-C , 13-S ) :   1.0387 B( 12-C , 14-C ) :   1.3001
B( 14-C , 15-C ) :   1.4619 B( 14-C , 19-S ) :   1.0721 B( 15-C , 16-S ) :   1.0446
B( 15-C , 17-C ) :   1.2893 B( 17-C , 18-C ) :   1.5060 B( 17-C , 52-H ) :   0.9901
B( 18-C , 19-S ) :   1.0920 B( 18-C , 20-C ) :   1.1537 B( 20-C , 21-N ) :   1.7295
B( 20-C , 24-S ) :   1.0852 B( 21-N , 22-C ) :   1.3939 B( 22-C , 23-C ) :   1.3194
B( 22-C , 27-S ) :   1.0925 B( 23-C , 24-S ) :   1.0925 B( 23-C , 25-N ) :   1.3938
B( 25-N , 26-C ) :   1.7295 B( 26-C , 27-S ) :   1.0852 B( 26-C , 28-C ) :   1.1537
B( 28-C , 29-C ) :   1.5059 B( 28-C , 32-S ) :   1.0919 B( 29-C , 30-C ) :   1.2894
B( 29-C , 53-H ) :   0.9901 B( 30-C , 31-C ) :   1.4620 B( 30-C , 35-S ) :   1.0446
B( 31-C , 32-S ) :   1.0722 B( 31-C , 33-C ) :   1.2997 B( 33-C , 34-C ) :   1.4585
B( 33-C , 38-S ) :   1.0387 B( 34-C , 35-S ) :   1.0437 B( 34-C , 36-C ) :   1.2763
B( 36-C , 37-C ) :   1.5103 B( 36-C , 54-H ) :   0.9944 B( 37-C , 38-S ) :   1.1135
B( 37-C , 39-C ) :   1.0903 B( 39-C , 40-C ) :   1.5151 B( 39-C , 42-C ) :   0.1004
B( 39-C , 44-C ) :   1.1400 B( 40-C , 41-C ) :   1.1939 B( 40-C , 55-H ) :   0.9944
B( 41-C , 42-C ) :   1.5034 B( 41-C , 56-H ) :   0.9827 B( 42-C , 43-C ) :   1.1877
B( 42-C , 57-H ) :   1.0184 B( 43-C , 44-C ) :   1.1268 B( 43-C , 47-N ) :   1.5645
B( 44-C , 45-N ) :   1.5598 B( 45-N , 46-Se) :   1.2184 B( 45-N , 47-N ) :   0.1324
B( 46-Se, 47-N ) :   1.2570

-----------------------------------------------------------------------------
         ABSORPTION SPECTRUM VIA TRANSITION ELECTRIC DIPOLE MOMENTS
-----------------------------------------------------------------------------
State   Energy  Wavelength   fosc         T2         TX        TY        TZ
        (cm-1)    (nm)                  (au**2)     (au)      (au)      (au)
-----------------------------------------------------------------------------
   0   19117.4    523.1   2.446049872  42.12236  -0.88818  -5.50378  -3.32293
   1   20910.3    478.2   0.000142294   0.00224   0.04198  -0.02118  -0.00539
   2   24083.8    415.2   0.574345273   7.85097   0.42769   2.74934   0.33042
   3   27229.7    367.2   0.000037046   0.00045   0.02111  -0.00078   0.00125
   4   28055.2    356.4   0.074747788   0.87712  -0.13349  -0.88953   0.26085
   5   28186.2    354.8   0.000013091   0.00015  -0.01216  -0.00137   0.00179
   6   29301.7    341.3   0.166372441   1.86924   0.11213   0.63306   1.20661
   7   29947.1    333.9   0.000062834   0.00069   0.02593  -0.00342   0.00256
   8   32739.9    305.4   0.000021197   0.00021  -0.01395   0.00411  -0.00131
   9   33308.0    300.2   0.005486516   0.05423   0.02857   0.19855  -0.11827
  10   33553.7    298.0   0.070207252   0.68884  -0.08633  -0.60753   0.55883
  11   33649.7    297.2   0.000008602   0.00008  -0.00583  -0.00460   0.00539
  12   34869.2    286.8   0.000001406   0.00001   0.00323   0.00167  -0.00023
  13   35663.6    280.4   0.481561644   4.44531   0.15058   0.81616   1.93817
  14   37229.6    268.6   0.208666266   1.84518   0.05475   0.23169   1.33735
  15   38616.3    259.0   0.000006477   0.00006   0.00420  -0.00612   0.00033
  16   38718.6    258.3   0.080117203   0.68121  -0.08464  -0.60928   0.55029
  17   38938.2    256.8   0.000018206   0.00015  -0.01167   0.00148   0.00394
  18   39232.1    254.9   0.006686765   0.05611   0.02682   0.18413   0.14659
  19   39386.5    253.9   0.000005936   0.00005   0.00261   0.00255  -0.00603
  20   39616.7    252.4   0.030190154   0.25088  -0.01747  -0.16026   0.47423
  21   39804.5    251.2   0.000016872   0.00014  -0.01166   0.00187   0.00011

FINAL SINGLE POINT ENERGY     -9539.271278287972

DIPOLE MOMENT
-------------
                                X             Y             Z
Electronic contribution:      0.63521      -0.13448      -0.00599
Nuclear contribution   :     -0.61836       0.13153       0.00605
                        -----------------------------------------
Total Dipole Moment    :      0.01686      -0.00295       0.00006
                        -----------------------------------------
Magnitude (a.u.)       :      0.01711
Magnitude (Debye)      :      0.04350

Rotational constants in cm-1:     0.004754     0.000231     0.000220
Rotational constants in MHz :   142.531882     6.922802     6.602396

                             ****ORCA TERMINATED NORMALLY****
TOTAL RUN TIME: 0 days 0 hours 3 minutes 59 seconds 891 msec
