                         Program Version 4.2.0 -  RELEASE  -
|  1> # ORCA input file
|  2> # SCF done       -202.653773596864          0.000528388913
|  3> ! CAM-B3LYP def2-SVP def2/J RIJCOSX Grid4 TightSCF
|  4> %maxcore 5000
|  5> %tddft
|  6>     Mode sTDDFT
|  7>     Ethresh 5.0
|  8>     maxcore 5000
|  9> end
| 10>
| 11> %pal
| 12>   nprocs 6
| 13>   end
| 14> * xyz 0 1
| 15>    C       12.01516        -4.01882        -9.74568
| 16>    C       11.70679        -3.76197       -11.04448
| 17>    S       10.00077        -3.84688       -11.30065
| 18>    C        9.67960        -4.23882        -9.63091
| 19>    C        8.30702        -4.45440        -9.12260
| 20>    C       10.85631        -4.29135        -8.94689
| 21>    C       11.26774        -4.55995        -7.57409
| 22>    O       10.55367        -4.87049        -6.63425
| 23>    C       12.73173        -4.36601        -7.55284
| 24>    C       13.19444        -4.09766        -8.90736
| 25>    C       14.48031        -3.96485        -9.35996
| 26>    C       14.74721        -3.70098       -10.72003
| 27>    N       14.97377        -3.48193       -11.82327
| 28>    C       15.64702        -4.09216        -8.58109
| 29>    N       16.63218        -4.19682        -8.00058
| 30>    C       13.51088        -4.30884        -6.42838
| 31>    C       13.16244        -4.47335        -5.07590
| 32>    C       14.04934        -4.15927        -4.03832
| 33>    C       13.48102        -4.32412        -2.78960
| 34>    C       12.15808        -4.82437        -2.86808
| 35>    S       11.60734        -5.03012        -4.46595
| 36>    C       11.62883        -4.87754        -1.55906
| 37>    C       12.59577        -4.38679        -0.65454
| 38>    C       13.80809        -4.07157        -1.39350
| 39>    C       14.99354        -3.63561        -0.88102
| 40>    C       16.10701        -3.35350        -1.70112
| 41>    N       17.00981        -3.11903        -2.36727
| 42>    C       15.18709        -3.45851         0.50656
| 43>    N       15.34818        -3.33051         1.63408
| 44>    C       12.10803        -4.26104         0.64086
| 45>    C       10.78757        -4.67615         0.73789
| 46>    S       10.16170        -5.28150        -0.79220
| 47>    C        9.88090        -4.54112         1.82604
| 48>    C       10.04024        -3.58755         2.86074
| 49>    C        8.94730        -3.26901         3.74549
| 50>    N        9.08116        -2.28655         4.64469
| 51>    C       10.21186        -1.63053         4.73372
| 52>    C       11.30391        -1.95966         3.86563
| 53>    N       11.18893        -2.90378         2.96552
| 54>    C       12.52435        -1.24274         3.96558
| 55>    N       13.48633        -0.63066         4.06727
| 56>    C       10.33784        -0.59366         5.69119
| 57>    N       10.46386         0.25300         6.45182
| 58>    C        7.69044        -3.91647         3.68632
| 59>    C        7.59877        -4.98817         2.77077
| 60>    C        8.66589        -5.26002         1.84031
| 61>    N        8.34731        -6.24620         1.00054
| 62>    S        6.87937        -6.78890         1.35282
| 63>    N        6.55635        -5.79397         2.56684
| 64>    C        6.56941        -3.40373         4.38584
| 65>    C        5.29798        -3.96384         4.44777
| 66>    C        4.37762        -3.09136         5.00851
| 67>    C        4.94938        -1.85040         5.36892
| 68>    S        6.63713        -1.79951         5.09754
| 69>    C        3.90768        -0.98463         5.76687
| 70>    C        2.67746        -1.67479         5.67586
| 71>    C        2.94153        -3.03406         5.23326
| 72>    C        2.03626        -4.03437         5.03672
| 73>    C        2.41625        -5.31077         4.56898
| 74>    N        2.71364        -6.34708         4.17928
| 75>    C        0.65658        -3.85752         5.27661
| 76>    N       -0.46591        -3.71800         5.46231
| 77>    C        1.58331        -0.85239         5.90361
| 78>    C        1.95288         0.46168         6.17213
| 79>    S        3.70493         0.65818         6.15929
| 80>    C        1.05635         1.55173         6.21145
| 81>    C        1.28022         2.87247         6.45392
| 82>    C        0.35477         3.87487         5.83145
| 83>    O       -0.73717         3.65202         5.36171
| 84>    C        1.11167         5.12732         5.85703
| 85>    C        0.94712         6.38644         5.36575
| 86>    S        2.32131         7.36661         5.81242
| 87>    C        3.08562         6.06789         6.65655
| 88>    C        2.33138         4.94031         6.59043
| 89>    C        2.37858         3.57859         7.08271
| 90>    C        3.15010         3.14472         8.12936
| 91>    C        4.12078         3.97923         8.71829
| 92>    N        4.91656         4.65631         9.19187
| 93>    C        2.97164         1.89611         8.75383
| 94>    N        2.81181         0.89407         9.29086
| 95>    C       -0.17546         6.92464         4.56647
| 96>    H       12.34908        -3.52549       -11.86894
| 97>    H        7.81425        -5.25598        -9.67164
| 98>    H        7.70750        -3.55227        -9.24422
| 99>    H        8.35160        -4.71495        -8.06754
|100>    H       14.55305        -4.04553        -6.56923
|101>    H       15.04665        -3.80229        -4.22575
|102>    H       12.65480        -3.87530         1.48088
|103>    H        5.08770        -4.94506         4.06370
|104>    H        0.55508        -1.16457         5.86551
|105>    H        0.05691         1.32285         5.85117
|106>    H        4.03612         6.22897         7.12465
|107>    H       -0.91583         6.14219         4.41622
|108>    H        0.17797         7.27623         3.59732
|109>    H       -0.64180         7.76752         5.07520
|110> *
|111>
|112>                          ****END OF INPUT****

CARTESIAN COORDINATES (ANGSTROEM)
---------------------------------
  C     12.015160   -4.018820   -9.745680
  C     11.706790   -3.761970  -11.044480
  S     10.000770   -3.846880  -11.300650
  C      9.679600   -4.238820   -9.630910
  C      8.307020   -4.454400   -9.122600
  C     10.856310   -4.291350   -8.946890
  C     11.267740   -4.559950   -7.574090
  O     10.553670   -4.870490   -6.634250
  C     12.731730   -4.366010   -7.552840
  C     13.194440   -4.097660   -8.907360
  C     14.480310   -3.964850   -9.359960
  C     14.747210   -3.700980  -10.720030
  N     14.973770   -3.481930  -11.823270
  C     15.647020   -4.092160   -8.581090
  N     16.632180   -4.196820   -8.000580
  C     13.510880   -4.308840   -6.428380
  C     13.162440   -4.473350   -5.075900
  C     14.049340   -4.159270   -4.038320
  C     13.481020   -4.324120   -2.789600
  C     12.158080   -4.824370   -2.868080
  S     11.607340   -5.030120   -4.465950
  C     11.628830   -4.877540   -1.559060
  C     12.595770   -4.386790   -0.654540
  C     13.808090   -4.071570   -1.393500
  C     14.993540   -3.635610   -0.881020
  C     16.107010   -3.353500   -1.701120
  N     17.009810   -3.119030   -2.367270
  C     15.187090   -3.458510    0.506560
  N     15.348180   -3.330510    1.634080
  C     12.108030   -4.261040    0.640860
  C     10.787570   -4.676150    0.737890
  S     10.161700   -5.281500   -0.792200
  C      9.880900   -4.541120    1.826040
  C     10.040240   -3.587550    2.860740
  C      8.947300   -3.269010    3.745490
  N      9.081160   -2.286550    4.644690
  C     10.211860   -1.630530    4.733720
  C     11.303910   -1.959660    3.865630
  N     11.188930   -2.903780    2.965520
  C     12.524350   -1.242740    3.965580
  N     13.486330   -0.630660    4.067270
  C     10.337840   -0.593660    5.691190
  N     10.463860    0.253000    6.451820
  C      7.690440   -3.916470    3.686320
  C      7.598770   -4.988170    2.770770
  C      8.665890   -5.260020    1.840310
  N      8.347310   -6.246200    1.000540
  S      6.879370   -6.788900    1.352820
  N      6.556350   -5.793970    2.566840
  C      6.569410   -3.403730    4.385840
  C      5.297980   -3.963840    4.447770
  C      4.377620   -3.091360    5.008510
  C      4.949380   -1.850400    5.368920
  S      6.637130   -1.799510    5.097540
  C      3.907680   -0.984630    5.766870
  C      2.677460   -1.674790    5.675860
  C      2.941530   -3.034060    5.233260
  C      2.036260   -4.034370    5.036720
  C      2.416250   -5.310770    4.568980
  N      2.713640   -6.347080    4.179280
  C      0.656580   -3.857520    5.276610
  N     -0.465910   -3.718000    5.462310
  C      1.583310   -0.852390    5.903610
  C      1.952880    0.461680    6.172130
  S      3.704930    0.658180    6.159290
  C      1.056350    1.551730    6.211450
  C      1.280220    2.872470    6.453920
  C      0.354770    3.874870    5.831450
  O     -0.737170    3.652020    5.361710
  C      1.111670    5.127320    5.857030
  C      0.947120    6.386440    5.365750
  S      2.321310    7.366610    5.812420
  C      3.085620    6.067890    6.656550
  C      2.331380    4.940310    6.590430
  C      2.378580    3.578590    7.082710
  C      3.150100    3.144720    8.129360
  C      4.120780    3.979230    8.718290
  N      4.916560    4.656310    9.191870
  C      2.971640    1.896110    8.753830
  N      2.811810    0.894070    9.290860
  C     -0.175460    6.924640    4.566470
  H     12.349080   -3.525490  -11.868940
  H      7.814250   -5.255980   -9.671640
  H      7.707500   -3.552270   -9.244220
  H      8.351600   -4.714950   -8.067540
  H     14.553050   -4.045530   -6.569230
  H     15.046650   -3.802290   -4.225750
  H     12.654800   -3.875300    1.480880
  H      5.087700   -4.945060    4.063700
  H      0.555080   -1.164570    5.865510
  H      0.056910    1.322850    5.851170
  H      4.036120    6.228970    7.124650
  H     -0.915830    6.142190    4.416220
  H      0.177970    7.276230    3.597320
  H     -0.641800    7.767520    5.075200

 Total Charge           Charge          ....    0
 Multiplicity           Mult            ....    1
 Number of Electrons    NEL             ....  588
 Basis Dimension        Dim             .... 1232

ORBITAL ENERGIES
----------------

  NO   OCC          E(Eh)            E(eV)
   0   2.0000     -89.068944     -2423.6892
   1   2.0000     -89.004167     -2421.9265
   2   2.0000     -89.001116     -2421.8435
   3   2.0000     -89.000322     -2421.8219
   4   2.0000     -88.998120     -2421.7620
   5   2.0000     -88.985274     -2421.4124
   6   2.0000     -88.981932     -2421.3215
   7   2.0000     -19.234029      -523.3845
   8   2.0000     -19.220233      -523.0091
   9   2.0000     -14.486730      -394.2040
  10   2.0000     -14.481155      -394.0523
  11   2.0000     -14.477798      -393.9609
  12   2.0000     -14.476603      -393.9284
  13   2.0000     -14.446014      -393.0960
  14   2.0000     -14.441321      -392.9683
  15   2.0000     -14.439885      -392.9293
  16   2.0000     -14.439389      -392.9158
  17   2.0000     -14.434619      -392.7860
  18   2.0000     -14.433966      -392.7682
  19   2.0000     -14.421829      -392.4379
  20   2.0000     -14.421030      -392.4162
  21   2.0000     -14.420104      -392.3910
  22   2.0000     -14.418810      -392.3558
  23   2.0000     -10.403250      -283.0868
  24   2.0000     -10.401610      -283.0422
  25   2.0000     -10.384997      -282.5901
  26   2.0000     -10.375553      -282.3331
  27   2.0000     -10.375519      -282.3322
  28   2.0000     -10.371301      -282.2174
  29   2.0000     -10.371221      -282.2153
  30   2.0000     -10.369925      -282.1800
  31   2.0000     -10.367106      -282.1033
  32   2.0000     -10.366362      -282.0831
  33   2.0000     -10.363381      -282.0019
  34   2.0000     -10.359350      -281.8922
  35   2.0000     -10.352440      -281.7042
  36   2.0000     -10.349937      -281.6361
  37   2.0000     -10.349530      -281.6250
  38   2.0000     -10.349042      -281.6117
  39   2.0000     -10.347018      -281.5567
  40   2.0000     -10.343970      -281.4737
  41   2.0000     -10.343169      -281.4519
  42   2.0000     -10.342127      -281.4236
  43   2.0000     -10.341970      -281.4193
  44   2.0000     -10.341906      -281.4176
  45   2.0000     -10.341778      -281.4141
  46   2.0000     -10.340890      -281.3899
  47   2.0000     -10.339970      -281.3649
  48   2.0000     -10.339232      -281.3448
  49   2.0000     -10.338701      -281.3304
  50   2.0000     -10.338688      -281.3300
  51   2.0000     -10.338024      -281.3119
  52   2.0000     -10.336145      -281.2608
  53   2.0000     -10.335316      -281.2382
  54   2.0000     -10.334233      -281.2088
  55   2.0000     -10.333664      -281.1933
  56   2.0000     -10.333589      -281.1913
  57   2.0000     -10.333374      -281.1854
  58   2.0000     -10.330929      -281.1189
  59   2.0000     -10.326100      -280.9875
  60   2.0000     -10.324026      -280.9310
  61   2.0000     -10.323482      -280.9162
  62   2.0000     -10.322471      -280.8887
  63   2.0000     -10.322229      -280.8821
  64   2.0000     -10.321960      -280.8748
  65   2.0000     -10.321240      -280.8552
  66   2.0000     -10.320323      -280.8303
  67   2.0000     -10.318876      -280.7909
  68   2.0000     -10.317716      -280.7593
  69   2.0000     -10.316547      -280.7275
  70   2.0000     -10.314494      -280.6717
  71   2.0000     -10.314066      -280.6600
  72   2.0000     -10.311744      -280.5968
  73   2.0000     -10.310685      -280.5680
  74   2.0000     -10.308154      -280.4991
  75   2.0000     -10.306985      -280.4673
  76   2.0000     -10.306539      -280.4552
  77   2.0000     -10.294064      -280.1157
  78   2.0000     -10.293566      -280.1022
  79   2.0000     -10.290234      -280.0115
  80   2.0000     -10.288985      -279.9775
  81   2.0000      -8.159946      -222.0434
  82   2.0000      -8.098330      -220.3668
  83   2.0000      -8.094087      -220.2513
  84   2.0000      -8.093941      -220.2473
  85   2.0000      -8.090555      -220.1552
  86   2.0000      -8.081201      -219.9006
  87   2.0000      -8.077843      -219.8093
  88   2.0000      -6.130993      -166.8328
  89   2.0000      -6.123145      -166.6193
  90   2.0000      -6.122862      -166.6115
  91   2.0000      -6.067525      -165.1058
  92   2.0000      -6.063438      -164.9945
  93   2.0000      -6.063360      -164.9924
  94   2.0000      -6.063267      -164.9899
  95   2.0000      -6.060856      -164.9243
  96   2.0000      -6.059915      -164.8987
  97   2.0000      -6.058968      -164.8729
  98   2.0000      -6.058728      -164.8664
  99   2.0000      -6.056598      -164.8084
 100   2.0000      -6.056388      -164.8027
 101   2.0000      -6.055248      -164.7717
 102   2.0000      -6.053140      -164.7143
 103   2.0000      -6.050481      -164.6420
 104   2.0000      -6.047099      -164.5499
 105   2.0000      -6.045825      -164.5153
 106   2.0000      -6.043757      -164.4590
 107   2.0000      -6.042500      -164.4248
 108   2.0000      -6.040391      -164.3674
 109   2.0000      -1.166644       -31.7460
 110   2.0000      -1.149595       -31.2821
 111   2.0000      -1.143586       -31.1185
 112   2.0000      -1.136350       -30.9216
 113   2.0000      -1.071291       -29.1513
 114   2.0000      -1.058029       -28.7904
 115   2.0000      -1.054549       -28.6957
 116   2.0000      -1.032450       -28.0944
 117   2.0000      -1.030669       -28.0459
 118   2.0000      -1.029844       -28.0235
 119   2.0000      -1.028467       -27.9860
 120   2.0000      -1.027366       -27.9561
 121   2.0000      -1.024200       -27.8699
 122   2.0000      -1.017340       -27.6832
 123   2.0000      -1.016797       -27.6685
 124   2.0000      -1.014770       -27.6133
 125   2.0000      -1.012481       -27.5510
 126   2.0000      -1.011697       -27.5297
 127   2.0000      -1.010589       -27.4995
 128   2.0000      -1.005924       -27.3726
 129   2.0000      -0.999050       -27.1855
 130   2.0000      -0.998818       -27.1792
 131   2.0000      -0.994618       -27.0649
 132   2.0000      -0.974379       -26.5142
 133   2.0000      -0.971986       -26.4491
 134   2.0000      -0.965850       -26.2821
 135   2.0000      -0.963758       -26.2252
 136   2.0000      -0.934991       -25.4424
 137   2.0000      -0.930736       -25.3266
 138   2.0000      -0.926258       -25.2048
 139   2.0000      -0.913670       -24.8622
 140   2.0000      -0.907704       -24.6999
 141   2.0000      -0.903117       -24.5751
 142   2.0000      -0.889641       -24.2084
 143   2.0000      -0.888335       -24.1728
 144   2.0000      -0.880712       -23.9654
 145   2.0000      -0.879668       -23.9370
 146   2.0000      -0.876162       -23.8416
 147   2.0000      -0.870123       -23.6773
 148   2.0000      -0.868603       -23.6359
 149   2.0000      -0.866008       -23.5653
 150   2.0000      -0.856407       -23.3040
 151   2.0000      -0.829767       -22.5791
 152   2.0000      -0.828034       -22.5320
 153   2.0000      -0.811296       -22.0765
 154   2.0000      -0.803941       -21.8763
 155   2.0000      -0.800555       -21.7842
 156   2.0000      -0.797672       -21.7058
 157   2.0000      -0.789830       -21.4924
 158   2.0000      -0.784351       -21.3433
 159   2.0000      -0.770035       -20.9537
 160   2.0000      -0.761235       -20.7143
 161   2.0000      -0.751333       -20.4448
 162   2.0000      -0.748713       -20.3735
 163   2.0000      -0.739106       -20.1121
 164   2.0000      -0.728323       -19.8187
 165   2.0000      -0.716637       -19.5007
 166   2.0000      -0.715283       -19.4638
 167   2.0000      -0.710855       -19.3433
 168   2.0000      -0.709815       -19.3151
 169   2.0000      -0.699292       -19.0287
 170   2.0000      -0.696038       -18.9402
 171   2.0000      -0.692319       -18.8390
 172   2.0000      -0.689205       -18.7542
 173   2.0000      -0.680034       -18.5047
 174   2.0000      -0.677458       -18.4346
 175   2.0000      -0.675016       -18.3681
 176   2.0000      -0.670527       -18.2460
 177   2.0000      -0.667149       -18.1540
 178   2.0000      -0.651340       -17.7239
 179   2.0000      -0.646878       -17.6024
 180   2.0000      -0.642923       -17.4948
 181   2.0000      -0.640548       -17.4302
 182   2.0000      -0.634340       -17.2613
 183   2.0000      -0.631369       -17.1804
 184   2.0000      -0.626355       -17.0440
 185   2.0000      -0.623064       -16.9544
 186   2.0000      -0.618845       -16.8396
 187   2.0000      -0.610810       -16.6210
 188   2.0000      -0.606578       -16.5058
 189   2.0000      -0.604861       -16.4591
 190   2.0000      -0.603630       -16.4256
 191   2.0000      -0.601723       -16.3737
 192   2.0000      -0.584053       -15.8929
 193   2.0000      -0.580303       -15.7908
 194   2.0000      -0.577378       -15.7113
 195   2.0000      -0.574981       -15.6460
 196   2.0000      -0.570515       -15.5245
 197   2.0000      -0.560888       -15.2625
 198   2.0000      -0.558756       -15.2045
 199   2.0000      -0.556291       -15.1374
 200   2.0000      -0.553097       -15.0505
 201   2.0000      -0.551204       -14.9990
 202   2.0000      -0.550807       -14.9882
 203   2.0000      -0.545703       -14.8493
 204   2.0000      -0.542131       -14.7521
 205   2.0000      -0.539282       -14.6746
 206   2.0000      -0.532238       -14.4829
 207   2.0000      -0.531044       -14.4504
 208   2.0000      -0.525858       -14.3093
 209   2.0000      -0.524184       -14.2638
 210   2.0000      -0.522191       -14.2095
 211   2.0000      -0.520246       -14.1566
 212   2.0000      -0.518978       -14.1221
 213   2.0000      -0.518360       -14.1053
 214   2.0000      -0.516723       -14.0608
 215   2.0000      -0.513808       -13.9814
 216   2.0000      -0.513480       -13.9725
 217   2.0000      -0.509379       -13.8609
 218   2.0000      -0.508365       -13.8333
 219   2.0000      -0.506883       -13.7930
 220   2.0000      -0.504708       -13.7338
 221   2.0000      -0.502230       -13.6664
 222   2.0000      -0.501167       -13.6375
 223   2.0000      -0.499925       -13.6037
 224   2.0000      -0.498808       -13.5733
 225   2.0000      -0.490911       -13.3584
 226   2.0000      -0.489528       -13.3207
 227   2.0000      -0.486302       -13.2329
 228   2.0000      -0.484699       -13.1893
 229   2.0000      -0.484353       -13.1799
 230   2.0000      -0.481976       -13.1152
 231   2.0000      -0.479435       -13.0461
 232   2.0000      -0.470459       -12.8018
 233   2.0000      -0.470061       -12.7910
 234   2.0000      -0.469235       -12.7685
 235   2.0000      -0.468445       -12.7470
 236   2.0000      -0.467066       -12.7095
 237   2.0000      -0.466005       -12.6806
 238   2.0000      -0.465234       -12.6597
 239   2.0000      -0.464384       -12.6365
 240   2.0000      -0.463224       -12.6050
 241   2.0000      -0.462768       -12.5926
 242   2.0000      -0.460791       -12.5388
 243   2.0000      -0.459408       -12.5011
 244   2.0000      -0.456443       -12.4204
 245   2.0000      -0.454469       -12.3667
 246   2.0000      -0.453558       -12.3420
 247   2.0000      -0.453210       -12.3325
 248   2.0000      -0.450630       -12.2623
 249   2.0000      -0.449766       -12.2388
 250   2.0000      -0.449150       -12.2220
 251   2.0000      -0.449015       -12.2183
 252   2.0000      -0.445971       -12.1355
 253   2.0000      -0.445246       -12.1158
 254   2.0000      -0.444231       -12.0881
 255   2.0000      -0.443540       -12.0693
 256   2.0000      -0.442627       -12.0445
 257   2.0000      -0.441060       -12.0018
 258   2.0000      -0.439999       -11.9730
 259   2.0000      -0.437409       -11.9025
 260   2.0000      -0.435204       -11.8425
 261   2.0000      -0.434513       -11.8237
 262   2.0000      -0.433046       -11.7838
 263   2.0000      -0.432654       -11.7731
 264   2.0000      -0.432253       -11.7622
 265   2.0000      -0.430579       -11.7167
 266   2.0000      -0.429300       -11.6819
 267   2.0000      -0.426208       -11.5977
 268   2.0000      -0.424401       -11.5486
 269   2.0000      -0.418568       -11.3898
 270   2.0000      -0.416915       -11.3448
 271   2.0000      -0.416289       -11.3278
 272   2.0000      -0.415232       -11.2990
 273   2.0000      -0.409356       -11.1391
 274   2.0000      -0.400695       -10.9035
 275   2.0000      -0.396741       -10.7959
 276   2.0000      -0.393351       -10.7036
 277   2.0000      -0.377188       -10.2638
 278   2.0000      -0.369291       -10.0489
 279   2.0000      -0.368687       -10.0325
 280   2.0000      -0.358279        -9.7493
 281   2.0000      -0.357708        -9.7337
 282   2.0000      -0.352048        -9.5797
 283   2.0000      -0.347934        -9.4678
 284   2.0000      -0.343280        -9.3411
 285   2.0000      -0.339798        -9.2464
 286   2.0000      -0.334522        -9.1028
 287   2.0000      -0.332522        -9.0484
 288   2.0000      -0.327792        -8.9197
 289   2.0000      -0.322076        -8.7641
 290   2.0000      -0.314495        -8.5579
 291   2.0000      -0.307811        -8.3760
 292   2.0000      -0.285188        -7.7603
 293   2.0000      -0.255824        -6.9613
 294   0.0000      -0.150305        -4.0900
 295   0.0000      -0.117503        -3.1974
 296   0.0000      -0.112786        -3.0691
 297   0.0000      -0.093147        -2.5347
 298   0.0000      -0.092480        -2.5165

MULLIKEN ATOMIC CHARGES
-----------------------
   0 C :    0.038797
   1 C :   -0.137362
   2 S :    0.157567
   3 C :   -0.313962
   4 C :    0.114832
   5 C :    0.053380
   6 C :    0.171347
   7 O :   -0.199499
   8 C :   -0.101871
   9 C :    0.292924
  10 C :   -0.329345
  11 C :   -0.193150
  12 N :    0.155707
  13 C :   -0.195301
  14 N :    0.160541
  15 C :   -0.026449
  16 C :   -0.057065
  17 C :   -0.052436
  18 C :    0.045563
  19 C :   -0.077678
  20 S :    0.248681
  21 C :   -0.088385
  22 C :    0.033999
  23 C :    0.297201
  24 C :   -0.287522
  25 C :   -0.194972
  26 N :    0.184683
  27 C :   -0.190398
  28 N :    0.183883
  29 C :   -0.022271
  30 C :   -0.175521
  31 S :    0.223624
  32 C :    0.172081
  33 C :   -0.050055
  34 C :   -0.073577
  35 N :   -0.008458
  36 C :   -0.098177
  37 C :   -0.126276
  38 N :    0.056353
  39 C :   -0.214902
  40 N :    0.254735
  41 C :   -0.228492
  42 N :    0.257650
  43 C :    0.173948
  44 C :    0.010057
  45 C :   -0.046470
  46 N :   -0.307245
  47 S :    0.577510
  48 N :   -0.279521
  49 C :   -0.168305
  50 C :   -0.043621
  51 C :    0.034338
  52 C :   -0.070771
  53 S :    0.219505
  54 C :   -0.083279
  55 C :    0.026516
  56 C :    0.299182
  57 C :   -0.291427
  58 C :   -0.185512
  59 N :    0.176012
  60 C :   -0.193809
  61 N :    0.179758
  62 C :   -0.014246
  63 C :   -0.063977
  64 S :    0.216969
  65 C :    0.034816
  66 C :   -0.143933
  67 C :    0.135926
  68 O :   -0.146967
  69 C :    0.058839
  70 C :   -0.314749
  71 S :    0.154509
  72 C :   -0.135149
  73 C :    0.031956
  74 C :    0.239868
  75 C :   -0.307006
  76 C :   -0.181619
  77 N :    0.157629
  78 C :   -0.213958
  79 N :    0.177632
  80 C :    0.116369
  81 H :    0.051436
  82 H :    0.039742
  83 H :    0.041042
  84 H :    0.045587
  85 H :    0.023099
  86 H :    0.026928
  87 H :    0.023537
  88 H :    0.025900
  89 H :    0.023101
  90 H :    0.032816
  91 H :    0.048320
  92 H :    0.049451
  93 H :    0.038344
  94 H :    0.040500
Sum of atomic charges:   -0.0000000

LOEWDIN ATOMIC CHARGES
----------------------
   0 C :   -0.061526
   1 C :   -0.147878
   2 S :    0.468471
   3 C :   -0.127983
   4 C :   -0.058244
   5 C :   -0.104477
   6 C :    0.087582
   7 O :   -0.179972
   8 C :   -0.101614
   9 C :    0.075824
  10 C :   -0.140793
  11 C :   -0.014983
  12 N :   -0.053090
  13 C :   -0.026373
  14 N :   -0.045548
  15 C :    0.053543
  16 C :   -0.180679
  17 C :    0.010038
  18 C :   -0.071213
  19 C :   -0.172978
  20 S :    0.550816
  21 C :   -0.181272
  22 C :   -0.059104
  23 C :    0.074339
  24 C :   -0.096369
  25 C :   -0.019810
  26 N :   -0.022903
  27 C :   -0.019070
  28 N :   -0.022202
  29 C :   -0.008084
  30 C :   -0.155435
  31 S :    0.513757
  32 C :   -0.041354
  33 C :   -0.004202
  34 C :   -0.013263
  35 N :   -0.019011
  36 C :   -0.018727
  37 C :   -0.017568
  38 N :    0.010019
  39 C :   -0.040221
  40 N :    0.013993
  41 C :   -0.040249
  42 N :    0.009314
  43 C :   -0.036469
  44 C :   -0.037612
  45 C :   -0.047879
  46 N :   -0.295100
  47 S :    0.701355
  48 N :   -0.270218
  49 C :   -0.158736
  50 C :   -0.006711
  51 C :   -0.062021
  52 C :   -0.179063
  53 S :    0.517919
  54 C :   -0.156405
  55 C :   -0.068153
  56 C :    0.078047
  57 C :   -0.098089
  58 C :   -0.016499
  59 N :   -0.029912
  60 C :   -0.018686
  61 N :   -0.025904
  62 C :    0.011210
  63 C :   -0.170265
  64 S :    0.523317
  65 C :    0.046589
  66 C :   -0.093952
  67 C :    0.084313
  68 O :   -0.147548
  69 C :   -0.105418
  70 C :   -0.128213
  71 S :    0.466258
  72 C :   -0.152188
  73 C :   -0.061066
  74 C :    0.059742
  75 C :   -0.146321
  76 C :   -0.018526
  77 N :   -0.047217
  78 C :   -0.041604
  79 N :   -0.043870
  80 C :   -0.057459
  81 H :    0.035982
  82 H :    0.043863
  83 H :    0.044423
  84 H :    0.046929
  85 H :    0.054961
  86 H :    0.048121
  87 H :    0.040739
  88 H :    0.040393
  89 H :    0.047947
  90 H :    0.055304
  91 H :    0.035527
  92 H :    0.048990
  93 H :    0.043418
  94 H :    0.044253

  Mayer bond orders larger than 0.100000
B(  0-C ,  1-C ) :   1.5551 B(  0-C ,  5-C ) :   1.2011 B(  0-C ,  9-C ) :   0.9928
B(  1-C ,  2-S ) :   1.1545 B(  1-C , 81-H ) :   0.9554 B(  2-S ,  3-C ) :   1.1698
B(  3-C ,  4-C ) :   1.0878 B(  3-C ,  5-C ) :   1.5379 B(  4-C , 82-H ) :   0.9419
B(  4-C , 83-H ) :   0.9429 B(  4-C , 84-H ) :   0.9459 B(  5-C ,  6-C ) :   0.9926
B(  6-C ,  7-O ) :   2.0648 B(  6-C ,  8-C ) :   0.9894 B(  8-C ,  9-C ) :   1.0772
B(  8-C , 15-C ) :   1.5242 B(  9-C , 10-C ) :   1.6471 B( 10-C , 11-C ) :   1.1489
B( 10-C , 13-C ) :   1.1363 B( 11-C , 12-N ) :   2.9919 B( 13-C , 14-N ) :   2.9754
B( 15-C , 16-C ) :   1.2493 B( 15-C , 85-H ) :   0.9446 B( 16-C , 17-C ) :   1.3324
B( 16-C , 20-S ) :   1.0828 B( 17-C , 18-C ) :   1.3380 B( 17-C , 86-H ) :   1.0077
B( 18-C , 19-C ) :   1.3506 B( 18-C , 23-C ) :   0.9865 B( 19-C , 20-S ) :   1.1294
B( 19-C , 21-C ) :   1.2073 B( 21-C , 22-C ) :   1.3914 B( 21-C , 31-S ) :   1.1273
B( 22-C , 23-C ) :   0.9936 B( 22-C , 29-C ) :   1.2832 B( 23-C , 24-C ) :   1.7233
B( 24-C , 25-C ) :   1.1340 B( 24-C , 27-C ) :   1.1322 B( 25-C , 26-N ) :   2.9953
B( 27-C , 28-N ) :   2.9911 B( 29-C , 30-C ) :   1.4178 B( 29-C , 87-H ) :   0.9925
B( 30-C , 31-S ) :   1.1030 B( 30-C , 32-C ) :   1.1705 B( 32-C , 33-C ) :   1.2737
B( 32-C , 43-C ) :   0.1155 B( 32-C , 45-C ) :   1.1895 B( 33-C , 34-C ) :   1.1216
B( 33-C , 38-N ) :   1.4362 B( 34-C , 35-N ) :   1.4058 B( 34-C , 43-C ) :   1.2411
B( 35-N , 36-C ) :   1.6950 B( 36-C , 37-C ) :   1.2095 B( 36-C , 41-C ) :   1.1599
B( 37-C , 38-N ) :   1.7397 B( 37-C , 39-C ) :   1.1536 B( 39-C , 40-N ) :   3.0402
B( 41-C , 42-N ) :   3.0438 B( 43-C , 44-C ) :   1.2059 B( 43-C , 49-C ) :   1.2085
B( 44-C , 45-C ) :   1.1120 B( 44-C , 48-N ) :   1.5083 B( 45-C , 46-N ) :   1.4908
B( 46-N , 47-S ) :   1.2840 B( 46-N , 48-N ) :   0.1482 B( 47-S , 48-N ) :   1.2883
B( 49-C , 50-C ) :   1.4069 B( 49-C , 53-S ) :   1.0949 B( 50-C , 51-C ) :   1.2948
B( 50-C , 88-H ) :   0.9854 B( 51-C , 52-C ) :   1.3857 B( 51-C , 56-C ) :   0.9949
B( 52-C , 53-S ) :   1.1023 B( 52-C , 54-C ) :   1.2215 B( 54-C , 55-C ) :   1.3749
B( 54-C , 64-S ) :   1.1701 B( 55-C , 56-C ) :   0.9955 B( 55-C , 62-C ) :   1.3147
B( 56-C , 57-C ) :   1.7171 B( 57-C , 58-C ) :   1.1382 B( 57-C , 60-C ) :   1.1306
B( 58-C , 59-N ) :   2.9880 B( 60-C , 61-N ) :   2.9962 B( 62-C , 63-C ) :   1.3845
B( 62-C , 89-H ) :   1.0045 B( 63-C , 64-S ) :   1.0869 B( 63-C , 65-C ) :   1.1731
B( 65-C , 66-C ) :   1.6341 B( 65-C , 90-H ) :   0.9425 B( 66-C , 67-C ) :   0.9475
B( 66-C , 74-C ) :   1.0419 B( 67-C , 68-O ) :   2.2257 B( 67-C , 69-C ) :   0.9490
B( 69-C , 70-C ) :   1.5541 B( 69-C , 73-C ) :   1.1999 B( 70-C , 71-S ) :   1.1685
B( 70-C , 80-C ) :   1.0864 B( 71-S , 72-C ) :   1.1550 B( 72-C , 73-C ) :   1.5556
B( 72-C , 91-H ) :   0.9600 B( 73-C , 74-C ) :   1.0099 B( 74-C , 75-C ) :   1.6548
B( 75-C , 76-C ) :   1.1383 B( 75-C , 78-C ) :   1.1443 B( 76-C , 77-N ) :   3.0044
B( 78-C , 79-N ) :   3.0214 B( 80-C , 92-H ) :   0.9457 B( 80-C , 93-H ) :   0.9429
B( 80-C , 94-H ) :   0.9425

-----------------------------------------------------------------------------
         ABSORPTION SPECTRUM VIA TRANSITION ELECTRIC DIPOLE MOMENTS
-----------------------------------------------------------------------------
State   Energy  Wavelength   fosc         T2         TX        TY        TZ
        (cm-1)    (nm)                  (au**2)     (au)      (au)      (au)
-----------------------------------------------------------------------------
   0    8019.4   1247.0   0.683969177  28.07843  -3.51387   1.62703   3.61717
   1   13640.2    733.1   0.054152201   1.30698   0.44270  -0.94937   0.45792
   2   14755.4    677.7   0.130599828   2.91386  -0.26087  -0.00054   1.68695
   3   16101.6    621.1   0.097084420   1.98498  -0.49634   0.84711  -1.01046
   4   20681.2    483.5   0.643049374  10.23633  -1.35758   2.23553   1.84275
   5   21320.5    469.0   0.724305484  11.18409  -0.33958  -0.16937   3.32266
   6   21700.0    460.8   0.042707086   0.64791   0.01575  -0.78516   0.17661
   7   23288.6    429.4   0.069645975   0.98453  -0.67758  -0.69477  -0.20663
   8   23399.2    427.4   0.022330318   0.31417  -0.06406   0.09474  -0.54872
   9   23999.2    416.7   0.008482622   0.11636  -0.02622  -0.28910   0.17915
  10   24124.0    414.5   0.053466436   0.72964   0.11378   0.30059  -0.79141
  11   24616.3    406.2   0.033058497   0.44212   0.40408  -0.32135   0.41901
  12   24713.4    404.6   0.010764404   0.14339   0.30689   0.22163   0.00963
  13   25326.4    394.8   0.024773849   0.32203  -0.45776  -0.27639   0.18999
  14   25851.5    386.8   0.012760057   0.16250   0.11261   0.37738   0.08600
  15   26213.7    381.5   0.019964606   0.25073   0.37677   0.20917   0.25500
  16   27440.8    364.4   0.005922323   0.07105  -0.19090  -0.07744  -0.16915
  17   27572.0    362.7   0.016008529   0.19114  -0.11849  -0.00807  -0.42076
  18   28705.7    348.4   0.036797291   0.42201   0.05299   0.64156  -0.08718
  19   28846.7    346.7   0.013069028   0.14915  -0.12766   0.14629   0.33385
  20   28959.2    345.3   0.024251128   0.27569  -0.50010  -0.08923  -0.13278
  21   29279.2    341.5   0.006754183   0.07594   0.08298  -0.24734  -0.08877
  22   29398.5    340.2   0.132725070   1.48629  -1.01409  -0.54768  -0.39744
  23   29611.7    337.7   0.069082029   0.76803  -0.35736  -0.79416   0.09815
  24   29633.0    337.5   0.101945113   1.13257   0.65106   0.75211   0.37818
  25   29891.9    334.5   0.079629972   0.87700   0.18872  -0.56808   0.72019
  26   30184.0    331.3   0.075698811   0.82564  -0.58442   0.42833   0.54829
  27   30631.2    326.5   0.187525461   2.01545  -0.87471   1.10513   0.17036
  28   30839.9    324.3   0.116333657   1.24185   0.58732  -0.33361  -0.88634
  29   31062.8    321.9   0.068303681   0.72390   0.30016   0.60771  -0.51429
  30   31275.4    319.7   0.566090226   5.95880  -2.41058   0.28954   0.25311
  31   31642.2    316.0   0.109916599   1.14360  -0.76544  -0.14778  -0.73202
  32   31732.3    315.1   0.016115573   0.16719  -0.32976   0.01334   0.24141
  33   31961.0    312.9   0.181908267   1.87374  -1.16163  -0.64438  -0.33034
  34   32107.8    311.5   1.065542619  10.92538  -2.12228  -2.06907  -1.46295
  35   32399.4    308.6   0.234130740   2.37902   0.37223  -1.44225   0.40047
  36   32760.8    305.2   0.156761853   1.57529  -0.16683   0.41758  -1.17179
  37   33005.7    303.0   0.172330684   1.71890   0.67398   1.11356   0.15697
  38   33434.8    299.1   0.011988767   0.11805  -0.16450   0.09290  -0.28697
  39   33541.2    298.1   0.056946168   0.55894   0.09084   0.30561  -0.67623
  40   33737.0    296.4   0.142309923   1.38869   0.32744   0.47284  -1.02854
  41   33942.0    294.6   0.076239847   0.73947  -0.85370   0.05625  -0.08666
  42   34036.5    293.8   0.070894416   0.68571   0.38916   0.72563   0.08790
  43   34340.3    291.2   0.177188471   1.69866  -1.15616   0.49355   0.34405
  44   34680.8    288.3   0.032334889   0.30694  -0.47909   0.16703  -0.22253
  45   34799.0    287.4   0.119541856   1.13091   0.78847   0.25644   0.66594
  46   35007.7    285.7   0.158190340   1.48762  -0.27945  -1.18459   0.07923
  47   35236.6    283.8   0.147968840   1.38246  -0.50679  -0.94213  -0.48786
  48   35414.3    282.4   0.046190012   0.42938   0.57320   0.15224   0.27865
  49   35487.8    281.8   0.054625592   0.50675   0.43626  -0.53231  -0.18186
  50   35570.3    281.1   0.032929412   0.30477  -0.28217  -0.46781   0.07938
  51   35795.2    279.4   0.068524958   0.63023   0.41841  -0.33300   0.58674
  52   35897.0    278.6   0.011749046   0.10775  -0.00373  -0.00473  -0.32820
  53   36267.0    275.7   0.014458067   0.13124  -0.21944  -0.06076  -0.28178
  54   36560.4    273.5   0.010865472   0.09784  -0.14049  -0.02382  -0.27845
  55   36670.5    272.7   0.020820725   0.18692  -0.37169   0.12079   0.18487
  56   36965.1    270.5   0.072111799   0.64223  -0.62019  -0.19202  -0.46981
  57   37376.0    267.6   0.358151676   3.15464  -1.70110  -0.06598  -0.50649
  58   37479.8    266.8   0.085105598   0.74754  -0.86132   0.00164  -0.07525
  59   37628.1    265.8   0.010463927   0.09155  -0.13177  -0.01384   0.27202
  60   37713.1    265.2   0.024139357   0.21072   0.21128   0.39355   0.10586
  61   37779.5    264.7   0.024090587   0.20993   0.07342  -0.24320  -0.38130
  62   37982.9    263.3   0.018255330   0.15823   0.05458   0.24392   0.30944
  63   38367.4    260.6   0.121557982   1.04303   0.66989  -0.73366   0.23669
  64   38410.1    260.3   0.297172007   2.54706  -0.02458  -1.40403   0.75839
  65   38627.2    258.9   0.021636479   0.18440   0.27567   0.02276   0.32847
  66   38836.4    257.5   0.122305996   1.03678   0.81175  -0.24873   0.56211
  67   39010.4    256.3   0.020288481   0.17122  -0.41257   0.02920  -0.01210
  68   39325.6    254.3   0.103569840   0.86703   0.52420  -0.01777  -0.76937
  69   39406.9    253.8   0.082375408   0.68818  -0.01786   0.80097  -0.21520
  70   39774.9    251.4   0.114524468   0.94791   0.62092   0.29101   0.69114
  71   39924.0    250.5   0.049524851   0.40838   0.36263   0.39315  -0.34973
  72   40096.5    249.4   0.089565214   0.73538   0.83238   0.09276   0.18416
  73   40284.5    248.2   0.110212556   0.90068  -0.76436   0.50537  -0.24704

FINAL SINGLE POINT ENERGY     -5917.813934526031

DIPOLE MOMENT
-------------
                                X             Y             Z
Electronic contribution:     20.25721     -21.33285      20.45303
Nuclear contribution   :    -24.13676      20.87292     -23.14403
                        -----------------------------------------
Total Dipole Moment    :     -3.87954      -0.45994      -2.69100
                        -----------------------------------------
Magnitude (a.u.)       :      4.74383
Magnitude (Debye)      :     12.05785

Rotational constants in cm-1:     0.000919     0.000227     0.000219
Rotational constants in MHz :    27.562359     6.813415     6.579295

                             ****ORCA TERMINATED NORMALLY****
TOTAL RUN TIME: 0 days 0 hours 11 minutes 40 seconds 604 msec
