                         Program Version 4.2.0 -  RELEASE  -
|  1> # ORCA input file
|  2> # SCF done       -200.319601533866          0.000303594135
|  3> ! CAM-B3LYP def2-SVP def2/J RIJCOSX Grid4 TightSCF
|  4> %maxcore 5000
|  5> %tddft
|  6>     Mode sTDDFT
|  7>     Ethresh 5.0
|  8>     maxcore 5000
|  9> end
| 10>
| 11> %pal
| 12>   nprocs 6
| 13>   end
| 14> * xyz 0 1
| 15>    C        6.28125       -12.60184       -15.38707
| 16>    O        7.15550       -11.76120       -15.47615
| 17>    N        5.71239       -13.14185       -16.52436
| 18>    C        6.17593       -12.68831       -17.82505
| 19>    C        4.71551       -14.09232       -16.54081
| 20>    O        4.26078       -14.51915       -17.57646
| 21>    N        4.26274       -14.53176       -15.31535
| 22>    C        3.21100       -15.53432       -15.36619
| 23>    C        4.71446       -14.10456       -14.07486
| 24>    O        4.21895       -14.57557       -13.06763
| 25>    C        5.77203       -13.10159       -14.09891
| 26>    C        6.38940       -12.53436       -13.00826
| 27>    C        6.26721       -12.67296       -11.61671
| 28>    S        7.35048       -11.68593       -10.64413
| 29>    C        6.70107       -12.31843        -9.17402
| 30>    C        5.69665       -13.24365        -9.43781
| 31>    C        5.45801       -13.43872       -10.78667
| 32>    C        7.17508       -11.91075        -7.90125
| 33>    C        6.73719       -12.33690        -6.66035
| 34>    C        7.41485       -11.74692        -5.59964
| 35>    C        8.39138       -10.85132        -5.99894
| 36>    S        8.45922       -10.74679        -7.73163
| 37>    C        9.25774       -10.09270        -5.16964
| 38>    S       10.42988        -8.99222        -5.83719
| 39>    C       10.99539        -8.55286        -4.24920
| 40>    C       10.29102        -9.24105        -3.27796
| 41>    C        9.32196       -10.09803        -3.78867
| 42>    C       12.03590        -7.61685        -4.03281
| 43>    C       12.69447        -6.93788        -5.00262
| 44>    C       13.73343        -6.00646        -4.76506
| 45>    S       14.29730        -5.66392        -3.13589
| 46>    C       15.43684        -4.54379        -3.75759
| 47>    C       15.38504        -4.43744        -5.14750
| 48>    C       14.42493        -5.26500        -5.71268
| 49>    C       16.40379        -3.43593        -5.64290
| 50>    C       17.43672        -4.10004        -6.55738
| 51>    C       15.72770        -2.26041        -6.35374
| 52>    C       17.02594        -3.00258        -4.33436
| 53>    C       16.43355        -3.67486        -3.26373
| 54>    S       17.10388        -3.22238        -1.75401
| 55>    C       18.19729        -2.10663        -2.55865
| 56>    C       18.01821        -2.11900        -3.93534
| 57>    C       19.08803        -1.35391        -1.75444
| 58>    C       19.96752        -0.42467        -2.20416
| 59>    C       20.83752         0.31982        -1.36511
| 60>    S       21.88533         1.52748        -2.06176
| 61>    C       22.53460         1.93952        -0.50035
| 62>    C       21.95677         1.16463         0.48588
| 63>    C       21.01235         0.26364         0.00572
| 64>    C       23.51307         2.95297        -0.34618
| 65>    C       24.09270         3.74503        -1.31705
| 66>    C       25.01597         4.65648        -0.81116
| 67>    C       25.16673         4.58489         0.55892
| 68>    S       24.13436         3.35000         1.23094
| 69>    C       26.00468         5.35917         1.39782
| 70>    S       27.02304         6.61115         0.76139
| 71>    C       27.62593         6.99975         2.35553
| 72>    C       27.04282         6.17422         3.30572
| 73>    C       26.14249         5.26358         2.77353
| 74>    C       28.57003         8.03538         2.52280
| 75>    C       29.09553         8.41887         3.72131
| 76>    C       30.02952         9.46593         3.81892
| 77>    C       30.62824         9.94875         4.95725
| 78>    C       30.37136         9.41548         6.29141
| 79>    O       29.61176         8.49653         6.53726
| 80>    N       31.06640        10.03196         7.32270
| 81>    C       31.95302        11.08110         7.19458
| 82>    O       32.50800        11.55367         8.16022
| 83>    N       32.16680        11.55265         5.91679
| 84>    C       31.56662        11.05893         4.77235
| 85>    O       31.82882        11.54798         3.69094
| 86>    C       33.09551        12.65656         5.74249
| 87>    C       30.86276         9.55328         8.68028
| 88>    H        6.98147       -11.97755       -17.65877
| 89>    H        5.35574       -12.21474       -18.36397
| 90>    H        6.52973       -13.54056       -18.40409
| 91>    H        3.57815       -16.42666       -15.87240
| 92>    H        2.35928       -15.14316       -15.92142
| 93>    H        2.92473       -15.76900       -14.34426
| 94>    H        7.14906       -11.81284       -13.30431
| 95>    H        5.16090       -13.75657        -8.66013
| 96>    H        4.72186       -14.11413       -11.17959
| 97>    H        5.94814       -13.05525        -6.53339
| 98>    H        7.20443       -11.96127        -4.56804
| 99>    H       10.48490        -9.11482        -2.22765
|100>    H        8.68418       -10.70878        -3.17615
|101>    H       12.30347        -7.44949        -2.99671
|102>    H       12.42578        -7.09780        -6.03943
|103>    H       14.21541        -5.34291        -6.76446
|104>    H       16.95368        -4.47285        -7.45721
|105>    H       17.91337        -4.93363        -6.04641
|106>    H       18.20173        -3.38152        -6.84118
|107>    H       15.22177        -2.60754        -7.25124
|108>    H       16.46941        -1.51650        -6.63398
|109>    H       14.99538        -1.79337        -5.69895
|110>    H       18.59610        -1.50541        -4.60179
|111>    H       19.03211        -1.55398        -0.69350
|112>    H       20.02695        -0.20828        -3.26121
|113>    H       22.22443         1.26508         1.52327
|114>    H       20.46957        -0.41351         0.63927
|115>    H       23.84094         3.65328        -2.35871
|116>    H       25.56679         5.35693        -1.41382
|117>    H       27.27310         6.24235         4.35306
|118>    H       25.59219         4.54355         3.35337
|119>    H       28.88415         8.55081         1.62313
|120>    H       28.80094         7.92235         4.63178
|121>    H       30.32299         9.96468         2.90033
|122>    H       33.46663        12.94407         6.72255
|123>    H       32.58129        13.49165         5.26745
|124>    H       33.91789        12.34305         5.09975
|125>    H       30.14796         8.73533         8.63885
|126>    H       30.48076        10.36222         9.30217
|127>    H       31.81016         9.21096         9.09543
|128> *
|129>
|130>                          ****END OF INPUT****

CARTESIAN COORDINATES (ANGSTROEM)
---------------------------------
  C      6.281250  -12.601840  -15.387070
  O      7.155500  -11.761200  -15.476150
  N      5.712390  -13.141850  -16.524360
  C      6.175930  -12.688310  -17.825050
  C      4.715510  -14.092320  -16.540810
  O      4.260780  -14.519150  -17.576460
  N      4.262740  -14.531760  -15.315350
  C      3.211000  -15.534320  -15.366190
  C      4.714460  -14.104560  -14.074860
  O      4.218950  -14.575570  -13.067630
  C      5.772030  -13.101590  -14.098910
  C      6.389400  -12.534360  -13.008260
  C      6.267210  -12.672960  -11.616710
  S      7.350480  -11.685930  -10.644130
  C      6.701070  -12.318430   -9.174020
  C      5.696650  -13.243650   -9.437810
  C      5.458010  -13.438720  -10.786670
  C      7.175080  -11.910750   -7.901250
  C      6.737190  -12.336900   -6.660350
  C      7.414850  -11.746920   -5.599640
  C      8.391380  -10.851320   -5.998940
  S      8.459220  -10.746790   -7.731630
  C      9.257740  -10.092700   -5.169640
  S     10.429880   -8.992220   -5.837190
  C     10.995390   -8.552860   -4.249200
  C     10.291020   -9.241050   -3.277960
  C      9.321960  -10.098030   -3.788670
  C     12.035900   -7.616850   -4.032810
  C     12.694470   -6.937880   -5.002620
  C     13.733430   -6.006460   -4.765060
  S     14.297300   -5.663920   -3.135890
  C     15.436840   -4.543790   -3.757590
  C     15.385040   -4.437440   -5.147500
  C     14.424930   -5.265000   -5.712680
  C     16.403790   -3.435930   -5.642900
  C     17.436720   -4.100040   -6.557380
  C     15.727700   -2.260410   -6.353740
  C     17.025940   -3.002580   -4.334360
  C     16.433550   -3.674860   -3.263730
  S     17.103880   -3.222380   -1.754010
  C     18.197290   -2.106630   -2.558650
  C     18.018210   -2.119000   -3.935340
  C     19.088030   -1.353910   -1.754440
  C     19.967520   -0.424670   -2.204160
  C     20.837520    0.319820   -1.365110
  S     21.885330    1.527480   -2.061760
  C     22.534600    1.939520   -0.500350
  C     21.956770    1.164630    0.485880
  C     21.012350    0.263640    0.005720
  C     23.513070    2.952970   -0.346180
  C     24.092700    3.745030   -1.317050
  C     25.015970    4.656480   -0.811160
  C     25.166730    4.584890    0.558920
  S     24.134360    3.350000    1.230940
  C     26.004680    5.359170    1.397820
  S     27.023040    6.611150    0.761390
  C     27.625930    6.999750    2.355530
  C     27.042820    6.174220    3.305720
  C     26.142490    5.263580    2.773530
  C     28.570030    8.035380    2.522800
  C     29.095530    8.418870    3.721310
  C     30.029520    9.465930    3.818920
  C     30.628240    9.948750    4.957250
  C     30.371360    9.415480    6.291410
  O     29.611760    8.496530    6.537260
  N     31.066400   10.031960    7.322700
  C     31.953020   11.081100    7.194580
  O     32.508000   11.553670    8.160220
  N     32.166800   11.552650    5.916790
  C     31.566620   11.058930    4.772350
  O     31.828820   11.547980    3.690940
  C     33.095510   12.656560    5.742490
  C     30.862760    9.553280    8.680280
  H      6.981470  -11.977550  -17.658770
  H      5.355740  -12.214740  -18.363970
  H      6.529730  -13.540560  -18.404090
  H      3.578150  -16.426660  -15.872400
  H      2.359280  -15.143160  -15.921420
  H      2.924730  -15.769000  -14.344260
  H      7.149060  -11.812840  -13.304310
  H      5.160900  -13.756570   -8.660130
  H      4.721860  -14.114130  -11.179590
  H      5.948140  -13.055250   -6.533390
  H      7.204430  -11.961270   -4.568040
  H     10.484900   -9.114820   -2.227650
  H      8.684180  -10.708780   -3.176150
  H     12.303470   -7.449490   -2.996710
  H     12.425780   -7.097800   -6.039430
  H     14.215410   -5.342910   -6.764460
  H     16.953680   -4.472850   -7.457210
  H     17.913370   -4.933630   -6.046410
  H     18.201730   -3.381520   -6.841180
  H     15.221770   -2.607540   -7.251240
  H     16.469410   -1.516500   -6.633980
  H     14.995380   -1.793370   -5.698950
  H     18.596100   -1.505410   -4.601790
  H     19.032110   -1.553980   -0.693500
  H     20.026950   -0.208280   -3.261210
  H     22.224430    1.265080    1.523270
  H     20.469570   -0.413510    0.639270
  H     23.840940    3.653280   -2.358710
  H     25.566790    5.356930   -1.413820
  H     27.273100    6.242350    4.353060
  H     25.592190    4.543550    3.353370
  H     28.884150    8.550810    1.623130
  H     28.800940    7.922350    4.631780
  H     30.322990    9.964680    2.900330
  H     33.466630   12.944070    6.722550
  H     32.581290   13.491650    5.267450
  H     33.917890   12.343050    5.099750
  H     30.147960    8.735330    8.638850
  H     30.480760   10.362220    9.302170
  H     31.810160    9.210960    9.095430

 Total Charge           Charge          ....    0
 Multiplicity           Mult            ....    1
 Number of Electrons    NEL             ....  574
 Basis Dimension        Dim             .... 1254

ORBITAL ENERGIES
----------------

  NO   OCC          E(Eh)            E(eV)
   0   2.0000     -88.967078     -2420.9173
   1   2.0000     -88.966357     -2420.8976
   2   2.0000     -88.964392     -2420.8442
   3   2.0000     -88.963508     -2420.8201
   4   2.0000     -88.962448     -2420.7913
   5   2.0000     -88.960698     -2420.7437
   6   2.0000     -88.959635     -2420.7147
   7   2.0000     -88.959214     -2420.7033
   8   2.0000     -19.193199      -522.2735
   9   2.0000     -19.189803      -522.1811
  10   2.0000     -19.187863      -522.1283
  11   2.0000     -19.186742      -522.0978
  12   2.0000     -19.185927      -522.0756
  13   2.0000     -19.184093      -522.0257
  14   2.0000     -14.453507      -393.2999
  15   2.0000     -14.453339      -393.2954
  16   2.0000     -14.452219      -393.2649
  17   2.0000     -14.451126      -393.2351
  18   2.0000     -10.405866      -283.1580
  19   2.0000     -10.405192      -283.1397
  20   2.0000     -10.385673      -282.6085
  21   2.0000     -10.382232      -282.5149
  22   2.0000     -10.379763      -282.4477
  23   2.0000     -10.375354      -282.3277
  24   2.0000     -10.325610      -280.9741
  25   2.0000     -10.321235      -280.8551
  26   2.0000     -10.318722      -280.7867
  27   2.0000     -10.314910      -280.6830
  28   2.0000     -10.314131      -280.6618
  29   2.0000     -10.312357      -280.6135
  30   2.0000     -10.311296      -280.5846
  31   2.0000     -10.310971      -280.5758
  32   2.0000     -10.308584      -280.5108
  33   2.0000     -10.308122      -280.4983
  34   2.0000     -10.306191      -280.4457
  35   2.0000     -10.305779      -280.4345
  36   2.0000     -10.305759      -280.4340
  37   2.0000     -10.304774      -280.4072
  38   2.0000     -10.304019      -280.3866
  39   2.0000     -10.302907      -280.3563
  40   2.0000     -10.302830      -280.3543
  41   2.0000     -10.302297      -280.3398
  42   2.0000     -10.300770      -280.2982
  43   2.0000     -10.295601      -280.1576
  44   2.0000     -10.288329      -279.9597
  45   2.0000     -10.287822      -279.9459
  46   2.0000     -10.287747      -279.9438
  47   2.0000     -10.287645      -279.9411
  48   2.0000     -10.287535      -279.9381
  49   2.0000     -10.286783      -279.9176
  50   2.0000     -10.286746      -279.9166
  51   2.0000     -10.286624      -279.9133
  52   2.0000     -10.285121      -279.8724
  53   2.0000     -10.284659      -279.8598
  54   2.0000     -10.283646      -279.8322
  55   2.0000     -10.283624      -279.8316
  56   2.0000     -10.283103      -279.8174
  57   2.0000     -10.282713      -279.8068
  58   2.0000     -10.280713      -279.7524
  59   2.0000     -10.280670      -279.7512
  60   2.0000     -10.280048      -279.7343
  61   2.0000     -10.279739      -279.7259
  62   2.0000     -10.279557      -279.7210
  63   2.0000     -10.279147      -279.7098
  64   2.0000     -10.278673      -279.6969
  65   2.0000     -10.278083      -279.6809
  66   2.0000     -10.277180      -279.6563
  67   2.0000     -10.275542      -279.6117
  68   2.0000     -10.275044      -279.5982
  69   2.0000     -10.273208      -279.5482
  70   2.0000     -10.272101      -279.5181
  71   2.0000     -10.266696      -279.3710
  72   2.0000     -10.266656      -279.3699
  73   2.0000      -8.062804      -219.4000
  74   2.0000      -8.062005      -219.3783
  75   2.0000      -8.060217      -219.3297
  76   2.0000      -8.058989      -219.2962
  77   2.0000      -8.057590      -219.2582
  78   2.0000      -8.055735      -219.2077
  79   2.0000      -8.055340      -219.1970
  80   2.0000      -8.054870      -219.1842
  81   2.0000      -6.032121      -164.1424
  82   2.0000      -6.031252      -164.1187
  83   2.0000      -6.029375      -164.0676
  84   2.0000      -6.028368      -164.0402
  85   2.0000      -6.027984      -164.0298
  86   2.0000      -6.027222      -164.0090
  87   2.0000      -6.026815      -163.9980
  88   2.0000      -6.025332      -163.9576
  89   2.0000      -6.025016      -163.9490
  90   2.0000      -6.024848      -163.9445
  91   2.0000      -6.024575      -163.9370
  92   2.0000      -6.024311      -163.9298
  93   2.0000      -6.024122      -163.9247
  94   2.0000      -6.024105      -163.9242
  95   2.0000      -6.022889      -163.8911
  96   2.0000      -6.022458      -163.8794
  97   2.0000      -6.021090      -163.8422
  98   2.0000      -6.020862      -163.8360
  99   2.0000      -6.020632      -163.8297
 100   2.0000      -6.020154      -163.8167
 101   2.0000      -6.019745      -163.8056
 102   2.0000      -6.017767      -163.7518
 103   2.0000      -6.017390      -163.7415
 104   2.0000      -6.016925      -163.7288
 105   2.0000      -1.162317       -31.6283
 106   2.0000      -1.160162       -31.5696
 107   2.0000      -1.129025       -30.7223
 108   2.0000      -1.125499       -30.6264
 109   2.0000      -1.122647       -30.5488
 110   2.0000      -1.120144       -30.4807
 111   2.0000      -1.033807       -28.1313
 112   2.0000      -1.031842       -28.0778
 113   2.0000      -1.011913       -27.5355
 114   2.0000      -1.010940       -27.5091
 115   2.0000      -1.008523       -27.4433
 116   2.0000      -1.007197       -27.4072
 117   2.0000      -1.005430       -27.3591
 118   2.0000      -0.991793       -26.9881
 119   2.0000      -0.991641       -26.9839
 120   2.0000      -0.976800       -26.5801
 121   2.0000      -0.974532       -26.5184
 122   2.0000      -0.972506       -26.4632
 123   2.0000      -0.931198       -25.3392
 124   2.0000      -0.922884       -25.1129
 125   2.0000      -0.911007       -24.7898
 126   2.0000      -0.901011       -24.5178
 127   2.0000      -0.898254       -24.4427
 128   2.0000      -0.888108       -24.1666
 129   2.0000      -0.874835       -23.8055
 130   2.0000      -0.866512       -23.5790
 131   2.0000      -0.855010       -23.2660
 132   2.0000      -0.851322       -23.1656
 133   2.0000      -0.848370       -23.0853
 134   2.0000      -0.844052       -22.9678
 135   2.0000      -0.838543       -22.8179
 136   2.0000      -0.833682       -22.6856
 137   2.0000      -0.831302       -22.6209
 138   2.0000      -0.828269       -22.5384
 139   2.0000      -0.825181       -22.4543
 140   2.0000      -0.824298       -22.4303
 141   2.0000      -0.821984       -22.3673
 142   2.0000      -0.813897       -22.1473
 143   2.0000      -0.806209       -21.9381
 144   2.0000      -0.794235       -21.6122
 145   2.0000      -0.785770       -21.3819
 146   2.0000      -0.781195       -21.2574
 147   2.0000      -0.778361       -21.1803
 148   2.0000      -0.778161       -21.1748
 149   2.0000      -0.768364       -20.9083
 150   2.0000      -0.760277       -20.6882
 151   2.0000      -0.750284       -20.4163
 152   2.0000      -0.733962       -19.9721
 153   2.0000      -0.718935       -19.5632
 154   2.0000      -0.713584       -19.4176
 155   2.0000      -0.707597       -19.2547
 156   2.0000      -0.706453       -19.2236
 157   2.0000      -0.703221       -19.1356
 158   2.0000      -0.698078       -18.9957
 159   2.0000      -0.695046       -18.9132
 160   2.0000      -0.684877       -18.6365
 161   2.0000      -0.678042       -18.4505
 162   2.0000      -0.669689       -18.2232
 163   2.0000      -0.666331       -18.1318
 164   2.0000      -0.653633       -17.7862
 165   2.0000      -0.645288       -17.5592
 166   2.0000      -0.641973       -17.4690
 167   2.0000      -0.639206       -17.3937
 168   2.0000      -0.634171       -17.2567
 169   2.0000      -0.630049       -17.1445
 170   2.0000      -0.626890       -17.0586
 171   2.0000      -0.625738       -17.0272
 172   2.0000      -0.620614       -16.8878
 173   2.0000      -0.619102       -16.8466
 174   2.0000      -0.616679       -16.7807
 175   2.0000      -0.614159       -16.7121
 176   2.0000      -0.612663       -16.6714
 177   2.0000      -0.610493       -16.6124
 178   2.0000      -0.603814       -16.4306
 179   2.0000      -0.594413       -16.1748
 180   2.0000      -0.585908       -15.9434
 181   2.0000      -0.585001       -15.9187
 182   2.0000      -0.582554       -15.8521
 183   2.0000      -0.576608       -15.6903
 184   2.0000      -0.571997       -15.5648
 185   2.0000      -0.565119       -15.3777
 186   2.0000      -0.557495       -15.1702
 187   2.0000      -0.553910       -15.0727
 188   2.0000      -0.544959       -14.8291
 189   2.0000      -0.540454       -14.7065
 190   2.0000      -0.537099       -14.6152
 191   2.0000      -0.532548       -14.4914
 192   2.0000      -0.531022       -14.4498
 193   2.0000      -0.530600       -14.4384
 194   2.0000      -0.530451       -14.4343
 195   2.0000      -0.528187       -14.3727
 196   2.0000      -0.527592       -14.3565
 197   2.0000      -0.526904       -14.3378
 198   2.0000      -0.522512       -14.2183
 199   2.0000      -0.519336       -14.1318
 200   2.0000      -0.519140       -14.1265
 201   2.0000      -0.515672       -14.0322
 202   2.0000      -0.514910       -14.0114
 203   2.0000      -0.512219       -13.9382
 204   2.0000      -0.510076       -13.8799
 205   2.0000      -0.508869       -13.8470
 206   2.0000      -0.507094       -13.7987
 207   2.0000      -0.503770       -13.7083
 208   2.0000      -0.501508       -13.6467
 209   2.0000      -0.499331       -13.5875
 210   2.0000      -0.498277       -13.5588
 211   2.0000      -0.496638       -13.5142
 212   2.0000      -0.495981       -13.4963
 213   2.0000      -0.491146       -13.3647
 214   2.0000      -0.491128       -13.3643
 215   2.0000      -0.490674       -13.3519
 216   2.0000      -0.489263       -13.3135
 217   2.0000      -0.487096       -13.2545
 218   2.0000      -0.485654       -13.2153
 219   2.0000      -0.480780       -13.0827
 220   2.0000      -0.480130       -13.0650
 221   2.0000      -0.479213       -13.0400
 222   2.0000      -0.474665       -12.9163
 223   2.0000      -0.473555       -12.8861
 224   2.0000      -0.471763       -12.8373
 225   2.0000      -0.469754       -12.7826
 226   2.0000      -0.466175       -12.6853
 227   2.0000      -0.465823       -12.6757
 228   2.0000      -0.463610       -12.6155
 229   2.0000      -0.461941       -12.5700
 230   2.0000      -0.461262       -12.5516
 231   2.0000      -0.460963       -12.5434
 232   2.0000      -0.459054       -12.4915
 233   2.0000      -0.458943       -12.4885
 234   2.0000      -0.458298       -12.4709
 235   2.0000      -0.457832       -12.4582
 236   2.0000      -0.456387       -12.4189
 237   2.0000      -0.455975       -12.4077
 238   2.0000      -0.454934       -12.3794
 239   2.0000      -0.454659       -12.3719
 240   2.0000      -0.451910       -12.2971
 241   2.0000      -0.450950       -12.2710
 242   2.0000      -0.447432       -12.1752
 243   2.0000      -0.442770       -12.0484
 244   2.0000      -0.441248       -12.0070
 245   2.0000      -0.435023       -11.8376
 246   2.0000      -0.433655       -11.8004
 247   2.0000      -0.430242       -11.7075
 248   2.0000      -0.428692       -11.6653
 249   2.0000      -0.426411       -11.6032
 250   2.0000      -0.420840       -11.4516
 251   2.0000      -0.420202       -11.4343
 252   2.0000      -0.419496       -11.4151
 253   2.0000      -0.412799       -11.2328
 254   2.0000      -0.410825       -11.1791
 255   2.0000      -0.409024       -11.1301
 256   2.0000      -0.404096       -10.9960
 257   2.0000      -0.400128       -10.8880
 258   2.0000      -0.400073       -10.8865
 259   2.0000      -0.386094       -10.5062
 260   2.0000      -0.370169       -10.0728
 261   2.0000      -0.366935        -9.9848
 262   2.0000      -0.364657        -9.9228
 263   2.0000      -0.355956        -9.6861
 264   2.0000      -0.353986        -9.6325
 265   2.0000      -0.350306        -9.5323
 266   2.0000      -0.343662        -9.3515
 267   2.0000      -0.340844        -9.2748
 268   2.0000      -0.340079        -9.2540
 269   2.0000      -0.339278        -9.2322
 270   2.0000      -0.335898        -9.1403
 271   2.0000      -0.332290        -9.0421
 272   2.0000      -0.330873        -9.0035
 273   2.0000      -0.329467        -8.9653
 274   2.0000      -0.329251        -8.9594
 275   2.0000      -0.326724        -8.8906
 276   2.0000      -0.325958        -8.8698
 277   2.0000      -0.325177        -8.8485
 278   2.0000      -0.322527        -8.7764
 279   2.0000      -0.321983        -8.7616
 280   2.0000      -0.320279        -8.7152
 281   2.0000      -0.315896        -8.5960
 282   2.0000      -0.296611        -8.0712
 283   2.0000      -0.276703        -7.5295
 284   2.0000      -0.255963        -6.9651
 285   2.0000      -0.238277        -6.4838
 286   2.0000      -0.215551        -5.8654
 287   0.0000      -0.082878        -2.2552
 288   0.0000      -0.078273        -2.1299
 289   0.0000      -0.059252        -1.6123
 290   0.0000      -0.037976        -1.0334
 291   0.0000      -0.017753        -0.4831

MULLIKEN ATOMIC CHARGES
-----------------------
   0 C :    0.187500
   1 O :   -0.222929
   2 N :   -0.274903
   3 C :    0.142377
   4 C :    0.212292
   5 O :   -0.228162
   6 N :   -0.285979
   7 C :    0.144516
   8 C :    0.208443
   9 O :   -0.218565
  10 C :   -0.182620
  11 C :    0.096313
  12 C :   -0.104852
  13 S :    0.137413
  14 C :   -0.019564
  15 C :   -0.014742
  16 C :    0.056778
  17 C :   -0.043912
  18 C :    0.009126
  19 C :   -0.004596
  20 C :   -0.027014
  21 S :    0.139086
  22 C :   -0.046674
  23 S :    0.111343
  24 C :   -0.038058
  25 C :    0.010206
  26 C :    0.005562
  27 C :    0.006730
  28 C :    0.007308
  29 C :   -0.049076
  30 S :    0.124748
  31 C :   -0.081256
  32 C :    0.018083
  33 C :   -0.048955
  34 C :   -0.112479
  35 C :    0.106198
  36 C :    0.106349
  37 C :    0.007055
  38 C :   -0.089131
  39 S :    0.141915
  40 C :   -0.082700
  41 C :   -0.037565
  42 C :    0.048726
  43 C :    0.052503
  44 C :   -0.069720
  45 S :    0.121255
  46 C :   -0.052514
  47 C :   -0.006278
  48 C :    0.007258
  49 C :   -0.022263
  50 C :   -0.012886
  51 C :   -0.003272
  52 C :   -0.036644
  53 S :    0.117969
  54 C :   -0.036741
  55 S :    0.137701
  56 C :   -0.093139
  57 C :    0.040911
  58 C :   -0.015039
  59 C :    0.093809
  60 C :   -0.003162
  61 C :    0.012135
  62 C :   -0.140106
  63 C :    0.204302
  64 O :   -0.220327
  65 N :   -0.289460
  66 C :    0.218540
  67 O :   -0.227185
  68 N :   -0.279300
  69 C :    0.183293
  70 O :   -0.218075
  71 C :    0.146557
  72 C :    0.143893
  73 H :    0.055258
  74 H :    0.035453
  75 H :    0.035963
  76 H :    0.034737
  77 H :    0.035626
  78 H :    0.051808
  79 H :    0.030758
  80 H :   -0.016198
  81 H :    0.021513
  82 H :   -0.012437
  83 H :   -0.017977
  84 H :   -0.017809
  85 H :   -0.018307
  86 H :   -0.006675
  87 H :   -0.006545
  88 H :   -0.025585
  89 H :    0.009997
  90 H :    0.022375
  91 H :    0.008876
  92 H :    0.009939
  93 H :    0.008778
  94 H :    0.022741
  95 H :   -0.026474
  96 H :   -0.020453
  97 H :   -0.022174
  98 H :   -0.011292
  99 H :   -0.017483
 100 H :   -0.010323
 101 H :   -0.008137
 102 H :    0.003878
 103 H :   -0.005160
 104 H :   -0.005050
 105 H :    0.029954
 106 H :    0.018407
 107 H :    0.053083
 108 H :    0.034095
 109 H :    0.033563
 110 H :    0.052754
 111 H :    0.035319
 112 H :    0.034854
Sum of atomic charges:   -0.0000000

LOEWDIN ATOMIC CHARGES
----------------------
   0 C :    0.085717
   1 O :   -0.202148
   2 N :   -0.038254
   3 C :    0.040976
   4 C :    0.091563
   5 O :   -0.198280
   6 N :   -0.040955
   7 C :    0.040196
   8 C :    0.092306
   9 O :   -0.191456
  10 C :   -0.157177
  11 C :    0.070192
  12 C :   -0.189609
  13 S :    0.442610
  14 C :   -0.155995
  15 C :   -0.064311
  16 C :    0.003368
  17 C :   -0.198059
  18 C :   -0.035313
  19 C :   -0.057082
  20 C :   -0.170725
  21 S :    0.432493
  22 C :   -0.189573
  23 S :    0.422109
  24 C :   -0.159643
  25 C :   -0.057098
  26 C :   -0.047997
  27 C :   -0.055286
  28 C :   -0.040096
  29 C :   -0.164505
  30 S :    0.428551
  31 C :   -0.191802
  32 C :   -0.041486
  33 C :   -0.051252
  34 C :   -0.034125
  35 C :   -0.024055
  36 C :   -0.024116
  37 C :   -0.035346
  38 C :   -0.198753
  39 S :    0.434939
  40 C :   -0.166506
  41 C :   -0.052636
  42 C :   -0.035553
  43 C :   -0.048384
  44 C :   -0.161883
  45 S :    0.431506
  46 C :   -0.192483
  47 C :   -0.054752
  48 C :   -0.058214
  49 C :   -0.170498
  50 C :   -0.064224
  51 C :   -0.048865
  52 C :   -0.190195
  53 S :    0.437474
  54 C :   -0.165903
  55 S :    0.443322
  56 C :   -0.185563
  57 C :   -0.019749
  58 C :   -0.064537
  59 C :    0.017251
  60 C :   -0.042313
  61 C :    0.090345
  62 C :   -0.152647
  63 C :    0.090500
  64 O :   -0.196798
  65 N :   -0.041436
  66 C :    0.094660
  67 O :   -0.200506
  68 N :   -0.040204
  69 C :    0.081388
  70 O :   -0.198893
  71 C :    0.041002
  72 C :    0.039838
  73 H :    0.033626
  74 H :    0.029879
  75 H :    0.030200
  76 H :    0.029695
  77 H :    0.030023
  78 H :    0.031606
  79 H :    0.044907
  80 H :    0.030635
  81 H :    0.037458
  82 H :    0.032804
  83 H :    0.030750
  84 H :    0.030864
  85 H :    0.029663
  86 H :    0.027442
  87 H :    0.029475
  88 H :    0.029774
  89 H :    0.023508
  90 H :    0.030576
  91 H :    0.023041
  92 H :    0.023530
  93 H :    0.023005
  94 H :    0.030666
  95 H :    0.027821
  96 H :    0.026652
  97 H :    0.025651
  98 H :    0.026561
  99 H :    0.028646
 100 H :    0.028152
 101 H :    0.028933
 102 H :    0.039299
 103 H :    0.028573
 104 H :    0.032807
 105 H :    0.031753
 106 H :    0.042515
 107 H :    0.033400
 108 H :    0.029937
 109 H :    0.029794
 110 H :    0.031889
 111 H :    0.029784
 112 H :    0.029639

  Mayer bond orders larger than 0.100000
B(  0-C ,  1-O ) :   2.0894 B(  0-C ,  2-N ) :   1.0761 B(  0-C , 10-C ) :   0.9558
B(  2-N ,  3-C ) :   0.9360 B(  2-N ,  4-C ) :   1.0684 B(  3-C , 73-H ) :   0.9548
B(  3-C , 74-H ) :   0.9772 B(  3-C , 75-H ) :   0.9750 B(  4-C ,  5-O ) :   2.0857
B(  4-C ,  6-N ) :   1.0653 B(  6-N ,  7-C ) :   0.9384 B(  6-N ,  8-C ) :   1.0781
B(  7-C , 76-H ) :   0.9768 B(  7-C , 77-H ) :   0.9752 B(  7-C , 78-H ) :   0.9544
B(  8-C ,  9-O ) :   2.0436 B(  8-C , 10-C ) :   0.9745 B( 10-C , 11-C ) :   1.6613
B( 11-C , 12-C ) :   1.1879 B( 11-C , 79-H ) :   0.9162 B( 12-C , 13-S ) :   1.0794
B( 12-C , 14-C ) :   0.1017 B( 12-C , 16-C ) :   1.4244 B( 13-S , 14-C ) :   1.1705
B( 14-C , 15-C ) :   1.4394 B( 14-C , 17-C ) :   1.1261 B( 15-C , 16-C ) :   1.3103
B( 15-C , 80-H ) :   0.9984 B( 16-C , 81-H ) :   0.9765 B( 17-C , 18-C ) :   1.4971
B( 17-C , 20-C ) :   0.1118 B( 17-C , 21-S ) :   1.1071 B( 18-C , 19-C ) :   1.2858
B( 18-C , 82-H ) :   0.9958 B( 19-C , 20-C ) :   1.4972 B( 19-C , 83-H ) :   0.9960
B( 20-C , 21-S ) :   1.1314 B( 20-C , 22-C ) :   1.1267 B( 22-C , 23-S ) :   1.1099
B( 22-C , 24-C ) :   0.1013 B( 22-C , 26-C ) :   1.5105 B( 23-S , 24-C ) :   1.1110
B( 24-C , 25-C ) :   1.4619 B( 24-C , 27-C ) :   1.1774 B( 25-C , 26-C ) :   1.2702
B( 25-C , 84-H ) :   1.0005 B( 26-C , 85-H ) :   0.9955 B( 27-C , 28-C ) :   1.6200
B( 27-C , 86-H ) :   0.9707 B( 28-C , 29-C ) :   1.1816 B( 28-C , 87-H ) :   0.9741
B( 29-C , 30-S ) :   1.0944 B( 29-C , 33-C ) :   1.4301 B( 30-S , 31-C ) :   1.0800
B( 31-C , 32-C ) :   1.5291 B( 31-C , 38-C ) :   1.1839 B( 32-C , 33-C ) :   1.2975
B( 32-C , 34-C ) :   0.9409 B( 33-C , 88-H ) :   1.0117 B( 34-C , 35-C ) :   1.0359
B( 34-C , 36-C ) :   1.0352 B( 34-C , 37-C ) :   0.9430 B( 35-C , 89-H ) :   0.9644
B( 35-C , 90-H ) :   0.9644 B( 35-C , 91-H ) :   0.9642 B( 36-C , 92-H ) :   0.9643
B( 36-C , 93-H ) :   0.9642 B( 36-C , 94-H ) :   0.9645 B( 37-C , 38-C ) :   1.5150
B( 37-C , 41-C ) :   1.3287 B( 38-C , 39-S ) :   1.0854 B( 39-S , 40-C ) :   1.1035
B( 40-C , 41-C ) :   1.4482 B( 40-C , 42-C ) :   1.1364 B( 41-C , 95-H ) :   0.9993
B( 42-C , 43-C ) :   1.7013 B( 42-C , 96-H ) :   0.9553 B( 43-C , 44-C ) :   1.1260
B( 43-C , 97-H ) :   0.9604 B( 44-C , 45-S ) :   1.1154 B( 44-C , 48-C ) :   1.4897
B( 45-S , 46-C ) :   1.1207 B( 46-C , 47-C ) :   1.4811 B( 46-C , 49-C ) :   1.1613
B( 47-C , 48-C ) :   1.2904 B( 47-C , 98-H ) :   0.9908 B( 48-C , 99-H ) :   0.9918
B( 49-C , 50-C ) :   1.4925 B( 49-C , 53-S ) :   1.1276 B( 50-C , 51-C ) :   1.2763
B( 50-C ,100-H ) :   0.9937 B( 51-C , 52-C ) :   1.4938 B( 51-C ,101-H ) :   0.9932
B( 52-C , 53-S ) :   1.1107 B( 52-C , 54-C ) :   1.1654 B( 54-C , 55-S ) :   1.1520
B( 54-C , 58-C ) :   1.4500 B( 55-S , 56-C ) :   1.0926 B( 56-C , 57-C ) :   1.4602
B( 56-C , 59-C ) :   1.1377 B( 57-C , 58-C ) :   1.3136 B( 57-C ,102-H ) :   0.9927
B( 58-C ,103-H ) :   0.9918 B( 59-C , 60-C ) :   1.5878 B( 59-C ,104-H ) :   0.9707
B( 60-C , 61-C ) :   1.1747 B( 60-C ,105-H ) :   0.9592 B( 61-C , 62-C ) :   1.6072
B( 61-C ,106-H ) :   0.9683 B( 62-C , 63-C ) :   0.9717 B( 62-C , 69-C ) :   0.9542
B( 63-C , 64-O ) :   2.0592 B( 63-C , 65-N ) :   1.0752 B( 65-N , 66-C ) :   1.0641
B( 65-N , 72-C ) :   0.9375 B( 66-C , 67-O ) :   2.0780 B( 66-C , 68-N ) :   1.0696
B( 68-N , 69-C ) :   1.0704 B( 68-N , 71-C ) :   0.9396 B( 69-C , 70-O ) :   2.1214
B( 71-C ,107-H ) :   0.9561 B( 71-C ,108-H ) :   0.9753 B( 71-C ,109-H ) :   0.9762
B( 72-C ,110-H ) :   0.9538 B( 72-C ,111-H ) :   0.9762 B( 72-C ,112-H ) :   0.9761

-----------------------------------------------------------------------------
         ABSORPTION SPECTRUM VIA TRANSITION ELECTRIC DIPOLE MOMENTS
-----------------------------------------------------------------------------
State   Energy  Wavelength   fosc         T2         TX        TY        TZ
        (cm-1)    (nm)                  (au**2)     (au)      (au)      (au)
-----------------------------------------------------------------------------
   0   16264.2    614.8   4.236503846  85.75336  -6.13945  -5.67020  -3.98866
   1   18731.2    533.9   0.119043135   2.09226   0.88962   1.03394  -0.48144
   2   22229.9    449.8   0.315674852   4.67496   0.53730   0.40791  -2.05423
   3   23571.9    424.2   0.077879243   1.08768  -0.63292  -0.66510   0.49471
   4   24830.6    402.7   0.693251544   9.19134  -1.54706  -1.45386  -2.16431
   5   26574.8    376.3   0.164295200   2.03531   0.54806   0.50085  -1.21823
   6   27881.7    358.7   0.034644162   0.40906  -0.28046  -0.28416   0.49966
   7   28977.2    345.1   0.010701162   0.12158   0.04335   0.05561   0.34147
   8   30109.1    332.1   0.023183413   0.25349   0.34528   0.33574  -0.14678
   9   30224.7    330.9   0.000005005   0.00005  -0.00599  -0.00141   0.00408
  10   30781.5    324.9   0.085330848   0.91262   0.18482   0.23600  -0.90706
  11   31502.7    317.4   0.206924345   2.16242  -0.38956  -0.36269  -1.37081
  12   33254.3    300.7   0.000072041   0.00071  -0.02107   0.00565   0.01540
  13   33954.8    294.5   0.072137005   0.69941   0.28736   0.23738   0.74866
  14   33983.6    294.3   0.011611384   0.11248   0.23870   0.22793   0.05960
  15   35126.6    284.7   0.037527489   0.35171  -0.42877  -0.39820   0.09647
  16   35580.4    281.1   0.069011258   0.63854  -0.58392  -0.54547  -0.00614
  17   37554.5    266.3   0.008148827   0.07143   0.18824   0.18968   0.00492
  18   37942.0    263.6   0.009178485   0.07964   0.12209   0.09413   0.23638
  19   38671.8    258.6   0.025760973   0.21930   0.08944   0.12783  -0.44154
  20   39047.0    256.1   0.071113815   0.59957  -0.08624  -0.02246  -0.76918
  21   39484.3    253.3   0.002428219   0.02025   0.11501   0.07867   0.02879
  22   39607.0    252.5   0.041075788   0.34142  -0.24241  -0.20686  -0.48976

FINAL SINGLE POINT ENERGY     -5971.457678309848

DIPOLE MOMENT
-------------
                                X             Y             Z
Electronic contribution:    -15.59420     -15.80737       4.03181
Nuclear contribution   :     14.44237      14.65282      -3.35625
                        -----------------------------------------
Total Dipole Moment    :     -1.15183      -1.15455       0.67556
                        -----------------------------------------
Magnitude (a.u.)       :      1.76524
Magnitude (Debye)      :      4.48688

Rotational constants in cm-1:     0.002993     0.000075     0.000073
Rotational constants in MHz :    89.734759     2.238061     2.185264

                             ****ORCA TERMINATED NORMALLY****
TOTAL RUN TIME: 0 days 0 hours 9 minutes 55 seconds 160 msec
