                         Program Version 4.2.0 -  RELEASE  -
|  1> # ORCA input file
|  2> # SCF done       -190.878290405124          0.000677711288
|  3> ! CAM-B3LYP def2-SVP def2/J RIJCOSX Grid4 TightSCF
|  4> %maxcore 5000
|  5> %tddft
|  6>     Mode sTDDFT
|  7>     Ethresh 5.0
|  8>     maxcore 5000
|  9> end
| 10>
| 11> %pal
| 12>   nprocs 6
| 13>   end
| 14> * xyz 0 1
| 15>    C       -1.03539        -3.06894         4.22796
| 16>    O       -0.60884        -3.46145         5.29547
| 17>    N       -2.30539        -2.54215         4.12281
| 18>    C       -3.12475        -2.44873         5.32074
| 19>    C       -2.89236        -2.08082         2.96123
| 20>    O       -4.00805        -1.61851         2.96350
| 21>    N       -2.13761        -2.18909         1.81066
| 22>    C       -2.74675        -1.76475         0.55978
| 23>    C       -0.85320        -2.69391         1.72315
| 24>    O       -0.32959        -2.78755         0.63067
| 25>    C       -0.23841        -3.10222         2.98584
| 26>    C        1.03501        -3.57774         3.15171
| 27>    C        2.14656        -3.71140         2.29599
| 28>    C        2.41006        -3.27015         1.00472
| 29>    C        3.68920        -3.60674         0.58583
| 30>    C        4.42195        -4.33047         1.55659
| 31>    S        3.53917        -4.56245         2.98729
| 32>    C        5.69059        -4.65442         1.02217
| 33>    C        5.76635        -4.12928        -0.28680
| 34>    C        4.51960        -3.44354        -0.59529
| 35>    C        4.21852        -2.76991        -1.74158
| 36>    C        5.13044        -2.69415        -2.81652
| 37>    N        5.87204        -2.63565        -3.68905
| 38>    C        3.00192        -2.07963        -1.93721
| 39>    N        2.03662        -1.49000        -2.12112
| 40>    C        6.98129        -4.39704        -0.90186
| 41>    C        7.82405        -5.12417        -0.06866
| 42>    S        7.11109        -5.47919         1.49699
| 43>    C        9.12183        -5.58872        -0.33876
| 44>    C        9.90408        -6.33531         0.54982
| 45>    C       11.19203        -6.69016         0.02484
| 46>    N       12.07258        -7.35255         0.77931
| 47>    C       11.69257        -7.67844         1.99521
| 48>    C       12.69988        -8.35567         2.85512
| 49>    O       13.85920        -8.47569         2.52853
| 50>    C       12.18512        -8.83924         4.14974
| 51>    C       10.95073        -8.58812         4.59759
| 52>    C        9.95228        -7.80775         3.84627
| 53>    O        8.85780        -7.54207         4.29536
| 54>    C       10.38557        -7.37525         2.49318
| 55>    N        9.51695        -6.70148         1.77061
| 56>    C       11.38760        -6.22044        -1.28235
| 57>    S        9.98968        -5.33128        -1.81676
| 58>    C       12.52757        -6.41407        -2.08488
| 59>    C       13.58531        -7.27620        -1.81308
| 60>    C       14.54453        -7.24006        -2.81633
| 61>    C       14.23522        -6.32497        -3.84510
| 62>    S       12.73807        -5.54185        -3.59648
| 63>    C       15.28621        -6.32871        -4.78716
| 64>    C       16.26415        -7.26193        -4.36809
| 65>    C       15.81964        -7.87444        -3.12640
| 66>    C       16.43364        -8.86503        -2.42122
| 67>    C       17.69603        -9.39285        -2.77469
| 68>    N       18.72735        -9.82829        -3.01925
| 69>    C       15.83669        -9.47524        -1.29454
| 70>    N       15.34934       -10.01963        -0.41186
| 71>    C       17.33327        -7.36159        -5.24766
| 72>    C       17.20516        -6.50411        -6.33371
| 73>    S       15.70659        -5.56198        -6.24307
| 74>    C       18.02503        -6.21752        -7.44293
| 75>    C       19.17979        -6.76061        -7.93945
| 76>    C       19.86108        -7.95773        -7.44997
| 77>    O       19.46598        -8.66349        -6.54337
| 78>    N       21.03116        -8.29977        -8.10481
| 79>    C       21.59708        -7.63549        -9.17438
| 80>    O       22.63314        -7.99709        -9.68022
| 81>    N       20.90274        -6.53447        -9.63612
| 82>    C       19.72217        -6.05144        -9.11350
| 83>    O       19.18873        -5.07993        -9.61034
| 84>    C       21.44886        -5.81380       -10.77513
| 85>    C       21.70994        -9.48940        -7.61372
| 86>    H       -2.53388        -2.81557         6.15612
| 87>    H       -4.02503        -3.05005         5.19894
| 88>    H       -3.41594        -1.41182         5.48399
| 89>    H       -3.70516        -1.30682         0.78814
| 90>    H       -2.88463        -2.62696        -0.09284
| 91>    H       -2.08859        -1.05427         0.06125
| 92>    H        1.22508        -3.90913         4.17119
| 93>    H        1.67895        -2.74422         0.41836
| 94>    H        7.26403        -4.09797        -1.89530
| 95>    H       12.89455        -9.40295         4.74034
| 96>    H       10.61968        -8.94239         5.56454
| 97>    H       13.61745        -7.87244        -0.91886
| 98>    H       18.17487        -8.02123        -5.13784
| 99>    H       17.67669        -5.37448        -8.03757
|100>    H       22.39598        -6.27308       -11.04452
|101>    H       21.59249        -4.76791       -10.50551
|102>    H       20.74971        -5.86551       -11.60964
|103>    H       21.88883        -9.38694        -6.54385
|104>    H       22.64789        -9.59193        -8.15245
|105>    H       21.08051       -10.36435        -7.77773
|106> *
|107>
|108>                          ****END OF INPUT****

CARTESIAN COORDINATES (ANGSTROEM)
---------------------------------
  C     -1.035390   -3.068940    4.227960
  O     -0.608840   -3.461450    5.295470
  N     -2.305390   -2.542150    4.122810
  C     -3.124750   -2.448730    5.320740
  C     -2.892360   -2.080820    2.961230
  O     -4.008050   -1.618510    2.963500
  N     -2.137610   -2.189090    1.810660
  C     -2.746750   -1.764750    0.559780
  C     -0.853200   -2.693910    1.723150
  O     -0.329590   -2.787550    0.630670
  C     -0.238410   -3.102220    2.985840
  C      1.035010   -3.577740    3.151710
  C      2.146560   -3.711400    2.295990
  C      2.410060   -3.270150    1.004720
  C      3.689200   -3.606740    0.585830
  C      4.421950   -4.330470    1.556590
  S      3.539170   -4.562450    2.987290
  C      5.690590   -4.654420    1.022170
  C      5.766350   -4.129280   -0.286800
  C      4.519600   -3.443540   -0.595290
  C      4.218520   -2.769910   -1.741580
  C      5.130440   -2.694150   -2.816520
  N      5.872040   -2.635650   -3.689050
  C      3.001920   -2.079630   -1.937210
  N      2.036620   -1.490000   -2.121120
  C      6.981290   -4.397040   -0.901860
  C      7.824050   -5.124170   -0.068660
  S      7.111090   -5.479190    1.496990
  C      9.121830   -5.588720   -0.338760
  C      9.904080   -6.335310    0.549820
  C     11.192030   -6.690160    0.024840
  N     12.072580   -7.352550    0.779310
  C     11.692570   -7.678440    1.995210
  C     12.699880   -8.355670    2.855120
  O     13.859200   -8.475690    2.528530
  C     12.185120   -8.839240    4.149740
  C     10.950730   -8.588120    4.597590
  C      9.952280   -7.807750    3.846270
  O      8.857800   -7.542070    4.295360
  C     10.385570   -7.375250    2.493180
  N      9.516950   -6.701480    1.770610
  C     11.387600   -6.220440   -1.282350
  S      9.989680   -5.331280   -1.816760
  C     12.527570   -6.414070   -2.084880
  C     13.585310   -7.276200   -1.813080
  C     14.544530   -7.240060   -2.816330
  C     14.235220   -6.324970   -3.845100
  S     12.738070   -5.541850   -3.596480
  C     15.286210   -6.328710   -4.787160
  C     16.264150   -7.261930   -4.368090
  C     15.819640   -7.874440   -3.126400
  C     16.433640   -8.865030   -2.421220
  C     17.696030   -9.392850   -2.774690
  N     18.727350   -9.828290   -3.019250
  C     15.836690   -9.475240   -1.294540
  N     15.349340  -10.019630   -0.411860
  C     17.333270   -7.361590   -5.247660
  C     17.205160   -6.504110   -6.333710
  S     15.706590   -5.561980   -6.243070
  C     18.025030   -6.217520   -7.442930
  C     19.179790   -6.760610   -7.939450
  C     19.861080   -7.957730   -7.449970
  O     19.465980   -8.663490   -6.543370
  N     21.031160   -8.299770   -8.104810
  C     21.597080   -7.635490   -9.174380
  O     22.633140   -7.997090   -9.680220
  N     20.902740   -6.534470   -9.636120
  C     19.722170   -6.051440   -9.113500
  O     19.188730   -5.079930   -9.610340
  C     21.448860   -5.813800  -10.775130
  C     21.709940   -9.489400   -7.613720
  H     -2.533880   -2.815570    6.156120
  H     -4.025030   -3.050050    5.198940
  H     -3.415940   -1.411820    5.483990
  H     -3.705160   -1.306820    0.788140
  H     -2.884630   -2.626960   -0.092840
  H     -2.088590   -1.054270    0.061250
  H      1.225080   -3.909130    4.171190
  H      1.678950   -2.744220    0.418360
  H      7.264030   -4.097970   -1.895300
  H     12.894550   -9.402950    4.740340
  H     10.619680   -8.942390    5.564540
  H     13.617450   -7.872440   -0.918860
  H     18.174870   -8.021230   -5.137840
  H     17.676690   -5.374480   -8.037570
  H     22.395980   -6.273080  -11.044520
  H     21.592490   -4.767910  -10.505510
  H     20.749710   -5.865510  -11.609640
  H     21.888830   -9.386940   -6.543850
  H     22.647890   -9.591930   -8.152450
  H     21.080510  -10.364350   -7.777730

 Total Charge           Charge          ....    0
 Multiplicity           Mult            ....    1
 Number of Electrons    NEL             ....  522
 Basis Dimension        Dim             .... 1114

ORBITAL ENERGIES
----------------

  NO   OCC          E(Eh)            E(eV)
   0   2.0000     -89.014870     -2422.2178
   1   2.0000     -89.003772     -2421.9158
   2   2.0000     -88.997513     -2421.7454
   3   2.0000     -88.996500     -2421.7179
   4   2.0000     -88.996379     -2421.7146
   5   2.0000     -19.238670      -523.5108
   6   2.0000     -19.236180      -523.4431
   7   2.0000     -19.203556      -522.5553
   8   2.0000     -19.202547      -522.5279
   9   2.0000     -19.198671      -522.4224
  10   2.0000     -19.198048      -522.4054
  11   2.0000     -19.197838      -522.3997
  12   2.0000     -19.197607      -522.3934
  13   2.0000     -14.466544      -393.6547
  14   2.0000     -14.464081      -393.5877
  15   2.0000     -14.463658      -393.5761
  16   2.0000     -14.463602      -393.5746
  17   2.0000     -14.462998      -393.5582
  18   2.0000     -14.462634      -393.5483
  19   2.0000     -14.436549      -392.8385
  20   2.0000     -14.431229      -392.6937
  21   2.0000     -14.431153      -392.6916
  22   2.0000     -14.430665      -392.6784
  23   2.0000     -10.419240      -283.5219
  24   2.0000     -10.416754      -283.4543
  25   2.0000     -10.394242      -282.8417
  26   2.0000     -10.393466      -282.8206
  27   2.0000     -10.390982      -282.7530
  28   2.0000     -10.389505      -282.7128
  29   2.0000     -10.388408      -282.6829
  30   2.0000     -10.384886      -282.5871
  31   2.0000     -10.371030      -282.2101
  32   2.0000     -10.370368      -282.1920
  33   2.0000     -10.357505      -281.8421
  34   2.0000     -10.356876      -281.8249
  35   2.0000     -10.356121      -281.8044
  36   2.0000     -10.354600      -281.7630
  37   2.0000     -10.351367      -281.6750
  38   2.0000     -10.350019      -281.6383
  39   2.0000     -10.349385      -281.6211
  40   2.0000     -10.348168      -281.5880
  41   2.0000     -10.347487      -281.5694
  42   2.0000     -10.346647      -281.5466
  43   2.0000     -10.345295      -281.5098
  44   2.0000     -10.343583      -281.4632
  45   2.0000     -10.343120      -281.4506
  46   2.0000     -10.336898      -281.2813
  47   2.0000     -10.336028      -281.2576
  48   2.0000     -10.330505      -281.1073
  49   2.0000     -10.330028      -281.0943
  50   2.0000     -10.329440      -281.0784
  51   2.0000     -10.329387      -281.0769
  52   2.0000     -10.328001      -281.0392
  53   2.0000     -10.324809      -280.9523
  54   2.0000     -10.324092      -280.9328
  55   2.0000     -10.318598      -280.7833
  56   2.0000     -10.317750      -280.7603
  57   2.0000     -10.317188      -280.7450
  58   2.0000     -10.315673      -280.7037
  59   2.0000     -10.315207      -280.6911
  60   2.0000     -10.310927      -280.5746
  61   2.0000     -10.309793      -280.5437
  62   2.0000     -10.309625      -280.5392
  63   2.0000     -10.306589      -280.4565
  64   2.0000     -10.306033      -280.4414
  65   2.0000     -10.297656      -280.2135
  66   2.0000     -10.297000      -280.1956
  67   2.0000     -10.296010      -280.1687
  68   2.0000     -10.295237      -280.1476
  69   2.0000     -10.293908      -280.1115
  70   2.0000     -10.293851      -280.1099
  71   2.0000      -8.109207      -220.6628
  72   2.0000      -8.098542      -220.3725
  73   2.0000      -8.092347      -220.2040
  74   2.0000      -8.091295      -220.1753
  75   2.0000      -8.089608      -220.1294
  76   2.0000      -6.078291      -165.3987
  77   2.0000      -6.074176      -165.2867
  78   2.0000      -6.071871      -165.2240
  79   2.0000      -6.067853      -165.1147
  80   2.0000      -6.063677      -165.0010
  81   2.0000      -6.061444      -164.9403
  82   2.0000      -6.060749      -164.9214
  83   2.0000      -6.060325      -164.9098
  84   2.0000      -6.059018      -164.8743
  85   2.0000      -6.057317      -164.8280
  86   2.0000      -6.056221      -164.7982
  87   2.0000      -6.054899      -164.7622
  88   2.0000      -6.054525      -164.7520
  89   2.0000      -6.053938      -164.7360
  90   2.0000      -6.051897      -164.6805
  91   2.0000      -1.172967       -31.9181
  92   2.0000      -1.172230       -31.8980
  93   2.0000      -1.155726       -31.4489
  94   2.0000      -1.150255       -31.3000
  95   2.0000      -1.140582       -31.0368
  96   2.0000      -1.139761       -31.0145
  97   2.0000      -1.134415       -30.8690
  98   2.0000      -1.133738       -30.8506
  99   2.0000      -1.116141       -30.3718
 100   2.0000      -1.054401       -28.6917
 101   2.0000      -1.052769       -28.6473
 102   2.0000      -1.045023       -28.4365
 103   2.0000      -1.044208       -28.4144
 104   2.0000      -1.043368       -28.3915
 105   2.0000      -1.028477       -27.9863
 106   2.0000      -1.025671       -27.9099
 107   2.0000      -1.022757       -27.8306
 108   2.0000      -1.020088       -27.7580
 109   2.0000      -1.019959       -27.7545
 110   2.0000      -1.010789       -27.5050
 111   2.0000      -1.008206       -27.4347
 112   2.0000      -1.006472       -27.3875
 113   2.0000      -0.998821       -27.1793
 114   2.0000      -0.968043       -26.3418
 115   2.0000      -0.963755       -26.2251
 116   2.0000      -0.950093       -25.8533
 117   2.0000      -0.932160       -25.3654
 118   2.0000      -0.928541       -25.2669
 119   2.0000      -0.913445       -24.8561
 120   2.0000      -0.904674       -24.6174
 121   2.0000      -0.890444       -24.2302
 122   2.0000      -0.886405       -24.1203
 123   2.0000      -0.876931       -23.8625
 124   2.0000      -0.870411       -23.6851
 125   2.0000      -0.864482       -23.5237
 126   2.0000      -0.861822       -23.4514
 127   2.0000      -0.844149       -22.9705
 128   2.0000      -0.836477       -22.7617
 129   2.0000      -0.816338       -22.2137
 130   2.0000      -0.813287       -22.1307
 131   2.0000      -0.805780       -21.9264
 132   2.0000      -0.800997       -21.7962
 133   2.0000      -0.795166       -21.6376
 134   2.0000      -0.788592       -21.4587
 135   2.0000      -0.787775       -21.4365
 136   2.0000      -0.783426       -21.3181
 137   2.0000      -0.779567       -21.2131
 138   2.0000      -0.770591       -20.9688
 139   2.0000      -0.751793       -20.4573
 140   2.0000      -0.746184       -20.3047
 141   2.0000      -0.724418       -19.7124
 142   2.0000      -0.719541       -19.5797
 143   2.0000      -0.717684       -19.5292
 144   2.0000      -0.716875       -19.5072
 145   2.0000      -0.702102       -19.1052
 146   2.0000      -0.698315       -19.0021
 147   2.0000      -0.693037       -18.8585
 148   2.0000      -0.690341       -18.7851
 149   2.0000      -0.688237       -18.7279
 150   2.0000      -0.680898       -18.5282
 151   2.0000      -0.678319       -18.4580
 152   2.0000      -0.665334       -18.1046
 153   2.0000      -0.661753       -18.0072
 154   2.0000      -0.645419       -17.5627
 155   2.0000      -0.639600       -17.4044
 156   2.0000      -0.634816       -17.2742
 157   2.0000      -0.634130       -17.2556
 158   2.0000      -0.628224       -17.0948
 159   2.0000      -0.626034       -17.0352
 160   2.0000      -0.621442       -16.9103
 161   2.0000      -0.617826       -16.8119
 162   2.0000      -0.609557       -16.5869
 163   2.0000      -0.594852       -16.1868
 164   2.0000      -0.593916       -16.1613
 165   2.0000      -0.593862       -16.1598
 166   2.0000      -0.592091       -16.1116
 167   2.0000      -0.582670       -15.8552
 168   2.0000      -0.578217       -15.7341
 169   2.0000      -0.575720       -15.6661
 170   2.0000      -0.570024       -15.5111
 171   2.0000      -0.566359       -15.4114
 172   2.0000      -0.555667       -15.1205
 173   2.0000      -0.554541       -15.0898
 174   2.0000      -0.552252       -15.0276
 175   2.0000      -0.546901       -14.8819
 176   2.0000      -0.543968       -14.8021
 177   2.0000      -0.542656       -14.7664
 178   2.0000      -0.541264       -14.7285
 179   2.0000      -0.539665       -14.6850
 180   2.0000      -0.536156       -14.5895
 181   2.0000      -0.535197       -14.5635
 182   2.0000      -0.534384       -14.5413
 183   2.0000      -0.529995       -14.4219
 184   2.0000      -0.529432       -14.4066
 185   2.0000      -0.528474       -14.3805
 186   2.0000      -0.523890       -14.2558
 187   2.0000      -0.522906       -14.2290
 188   2.0000      -0.522126       -14.2078
 189   2.0000      -0.518811       -14.1176
 190   2.0000      -0.515191       -14.0191
 191   2.0000      -0.512904       -13.9568
 192   2.0000      -0.509984       -13.8774
 193   2.0000      -0.509316       -13.8592
 194   2.0000      -0.508957       -13.8494
 195   2.0000      -0.506853       -13.7922
 196   2.0000      -0.503998       -13.7145
 197   2.0000      -0.503215       -13.6932
 198   2.0000      -0.501248       -13.6397
 199   2.0000      -0.498280       -13.5589
 200   2.0000      -0.496693       -13.5157
 201   2.0000      -0.491479       -13.3738
 202   2.0000      -0.488862       -13.3026
 203   2.0000      -0.485887       -13.2216
 204   2.0000      -0.484058       -13.1719
 205   2.0000      -0.480064       -13.0632
 206   2.0000      -0.474921       -12.9232
 207   2.0000      -0.470734       -12.8093
 208   2.0000      -0.470492       -12.8027
 209   2.0000      -0.469392       -12.7728
 210   2.0000      -0.467365       -12.7177
 211   2.0000      -0.466843       -12.7035
 212   2.0000      -0.466570       -12.6960
 213   2.0000      -0.465889       -12.6775
 214   2.0000      -0.465461       -12.6658
 215   2.0000      -0.464427       -12.6377
 216   2.0000      -0.463630       -12.6160
 217   2.0000      -0.463061       -12.6005
 218   2.0000      -0.462165       -12.5761
 219   2.0000      -0.460408       -12.5283
 220   2.0000      -0.457303       -12.4438
 221   2.0000      -0.455325       -12.3900
 222   2.0000      -0.454796       -12.3756
 223   2.0000      -0.451598       -12.2886
 224   2.0000      -0.448408       -12.2018
 225   2.0000      -0.447512       -12.1774
 226   2.0000      -0.443666       -12.0728
 227   2.0000      -0.442246       -12.0341
 228   2.0000      -0.440201       -11.9785
 229   2.0000      -0.438691       -11.9374
 230   2.0000      -0.429609       -11.6902
 231   2.0000      -0.427259       -11.6263
 232   2.0000      -0.426168       -11.5966
 233   2.0000      -0.420693       -11.4476
 234   2.0000      -0.413307       -11.2466
 235   2.0000      -0.402690       -10.9577
 236   2.0000      -0.399268       -10.8646
 237   2.0000      -0.382700       -10.4138
 238   2.0000      -0.377159       -10.2630
 239   2.0000      -0.376373       -10.2416
 240   2.0000      -0.376068       -10.2333
 241   2.0000      -0.375827       -10.2268
 242   2.0000      -0.367323        -9.9954
 243   2.0000      -0.366694        -9.9783
 244   2.0000      -0.364693        -9.9238
 245   2.0000      -0.358729        -9.7615
 246   2.0000      -0.357125        -9.7179
 247   2.0000      -0.355377        -9.6703
 248   2.0000      -0.354131        -9.6364
 249   2.0000      -0.351698        -9.5702
 250   2.0000      -0.349892        -9.5210
 251   2.0000      -0.348319        -9.4783
 252   2.0000      -0.342357        -9.3160
 253   2.0000      -0.340349        -9.2614
 254   2.0000      -0.333323        -9.0702
 255   2.0000      -0.332739        -9.0543
 256   2.0000      -0.328799        -8.9471
 257   2.0000      -0.327396        -8.9089
 258   2.0000      -0.314829        -8.5669
 259   2.0000      -0.285314        -7.7638
 260   2.0000      -0.248593        -6.7646
 261   0.0000      -0.129358        -3.5200
 262   0.0000      -0.112360        -3.0575
 263   0.0000      -0.100081        -2.7233
 264   0.0000      -0.096394        -2.6230
 265   0.0000      -0.071282        -1.9397

MULLIKEN ATOMIC CHARGES
-----------------------
   0 C :    0.192676
   1 O :   -0.217218
   2 N :   -0.283875
   3 C :    0.143721
   4 C :    0.225910
   5 O :   -0.219703
   6 N :   -0.286718
   7 C :    0.145437
   8 C :    0.200663
   9 O :   -0.214904
  10 C :   -0.161943
  11 C :    0.074928
  12 C :   -0.099056
  13 C :    0.000777
  14 C :   -0.002386
  15 C :   -0.081999
  16 S :    0.206454
  17 C :   -0.088783
  18 C :    0.031377
  19 C :    0.309340
  20 C :   -0.301165
  21 C :   -0.187689
  22 N :    0.168466
  23 C :   -0.191058
  24 N :    0.194646
  25 C :   -0.082450
  26 C :   -0.070658
  27 S :    0.246982
  28 C :   -0.115805
  29 C :    0.019591
  30 C :    0.036691
  31 N :    0.068778
  32 C :   -0.112535
  33 C :    0.138301
  34 O :   -0.090568
  35 C :   -0.012025
  36 C :   -0.018783
  37 C :    0.143789
  38 O :   -0.105590
  39 C :   -0.115660
  40 N :    0.031869
  41 C :   -0.126581
  42 S :    0.226148
  43 C :   -0.087129
  44 C :   -0.055357
  45 C :    0.033418
  46 C :   -0.097351
  47 S :    0.191009
  48 C :   -0.082559
  49 C :   -0.003453
  50 C :    0.306701
  51 C :   -0.293464
  52 C :   -0.192169
  53 N :    0.196273
  54 C :   -0.195883
  55 N :    0.192813
  56 C :    0.000873
  57 C :   -0.097281
  58 S :    0.197660
  59 C :    0.070403
  60 C :   -0.148352
  61 C :    0.199399
  62 O :   -0.211034
  63 N :   -0.292316
  64 C :    0.233097
  65 O :   -0.217621
  66 N :   -0.284042
  67 C :    0.182609
  68 O :   -0.219287
  69 C :    0.144342
  70 C :    0.146491
  71 H :    0.055239
  72 H :    0.037497
  73 H :    0.038750
  74 H :    0.056040
  75 H :    0.036074
  76 H :    0.042526
  77 H :    0.032217
  78 H :    0.039555
  79 H :    0.009296
  80 H :    0.025653
  81 H :    0.020753
  82 H :    0.030648
  83 H :    0.041475
  84 H :    0.030844
  85 H :    0.056935
  86 H :    0.037148
  87 H :    0.037134
  88 H :    0.041697
  89 H :    0.056529
  90 H :    0.036813
Sum of atomic charges:    0.0000000

LOEWDIN ATOMIC CHARGES
----------------------
   0 C :    0.085514
   1 O :   -0.196139
   2 N :   -0.038034
   3 C :    0.042367
   4 C :    0.096492
   5 O :   -0.191687
   6 N :   -0.038587
   7 C :    0.041882
   8 C :    0.088266
   9 O :   -0.179948
  10 C :   -0.143291
  11 C :    0.061797
  12 C :   -0.178939
  13 C :    0.019558
  14 C :   -0.075335
  15 C :   -0.161363
  16 S :    0.497176
  17 C :   -0.188912
  18 C :   -0.057266
  19 C :    0.076813
  20 C :   -0.096791
  21 C :   -0.014029
  22 N :   -0.036059
  23 C :   -0.022488
  24 N :   -0.016191
  25 C :   -0.030349
  26 C :   -0.175662
  27 S :    0.534401
  28 C :   -0.191301
  29 C :   -0.053253
  30 C :   -0.041044
  31 N :    0.011092
  32 C :   -0.036261
  33 C :    0.055171
  34 O :   -0.085483
  35 C :   -0.007320
  36 C :   -0.014454
  37 C :    0.056229
  38 O :   -0.102240
  39 C :   -0.035527
  40 N :   -0.011649
  41 C :   -0.190655
  42 S :    0.511524
  43 C :   -0.178046
  44 C :   -0.008637
  45 C :   -0.051812
  46 C :   -0.185395
  47 S :    0.468089
  48 C :   -0.164419
  49 C :   -0.072811
  50 C :    0.071260
  51 C :   -0.085468
  52 C :   -0.021779
  53 N :   -0.013340
  54 C :   -0.021180
  55 N :   -0.015595
  56 C :    0.018703
  57 C :   -0.177393
  58 S :    0.489155
  59 C :    0.060199
  60 C :   -0.142148
  61 C :    0.088612
  62 O :   -0.177717
  63 N :   -0.038787
  64 C :    0.098729
  65 O :   -0.193076
  66 N :   -0.037743
  67 C :    0.083212
  68 O :   -0.194671
  69 C :    0.042364
  70 C :    0.041916
  71 H :    0.034076
  72 H :    0.031023
  73 H :    0.031490
  74 H :    0.034670
  75 H :    0.031065
  76 H :    0.033265
  77 H :    0.045672
  78 H :    0.044317
  79 H :    0.037425
  80 H :    0.048488
  81 H :    0.046918
  82 H :    0.045047
  83 H :    0.044648
  84 H :    0.045288
  85 H :    0.034785
  86 H :    0.031263
  87 H :    0.031146
  88 H :    0.033173
  89 H :    0.034656
  90 H :    0.031338

  Mayer bond orders larger than 0.100000
B(  0-C ,  1-O ) :   2.0996 B(  0-C ,  2-N ) :   1.0815 B(  0-C , 10-C ) :   0.9447
B(  2-N ,  3-C ) :   0.9350 B(  2-N ,  4-C ) :   1.0579 B(  3-C , 71-H ) :   0.9554
B(  3-C , 72-H ) :   0.9770 B(  3-C , 73-H ) :   0.9749 B(  4-C ,  5-O ) :   2.0860
B(  4-C ,  6-N ) :   1.0622 B(  6-N ,  7-C ) :   0.9352 B(  6-N ,  8-C ) :   1.0852
B(  7-C , 74-H ) :   0.9554 B(  7-C , 75-H ) :   0.9774 B(  7-C , 76-H ) :   0.9731
B(  8-C ,  9-O ) :   2.0497 B(  8-C , 10-C ) :   0.9549 B( 10-C , 11-C ) :   1.7075
B( 11-C , 12-C ) :   1.1482 B( 11-C , 77-H ) :   0.9167 B( 12-C , 13-C ) :   1.4084
B( 12-C , 16-S ) :   1.0769 B( 13-C , 14-C ) :   1.3077 B( 13-C , 78-H ) :   0.9728
B( 14-C , 15-C ) :   1.3746 B( 14-C , 19-C ) :   0.9961 B( 15-C , 16-S ) :   1.1698
B( 15-C , 17-C ) :   1.2054 B( 17-C , 18-C ) :   1.4081 B( 17-C , 27-S ) :   1.0909
B( 18-C , 19-C ) :   0.9899 B( 18-C , 25-C ) :   1.3277 B( 19-C , 20-C ) :   1.7178
B( 20-C , 21-C ) :   1.1335 B( 20-C , 23-C ) :   1.1372 B( 21-C , 22-N ) :   2.9903
B( 23-C , 24-N ) :   2.9962 B( 25-C , 26-C ) :   1.3828 B( 25-C , 79-H ) :   0.9940
B( 26-C , 27-S ) :   1.1233 B( 26-C , 28-C ) :   1.2398 B( 28-C , 29-C ) :   1.3163
B( 28-C , 41-C ) :   0.1339 B( 28-C , 42-S ) :   1.1598 B( 29-C , 30-C ) :   1.1894
B( 29-C , 40-N ) :   1.4144 B( 30-C , 31-N ) :   1.4414 B( 30-C , 41-C ) :   1.3648
B( 31-N , 32-C ) :   1.7164 B( 32-C , 33-C ) :   0.8901 B( 32-C , 39-C ) :   1.0980
B( 33-C , 34-O ) :   2.2471 B( 33-C , 35-C ) :   1.0213 B( 35-C , 36-C ) :   1.6856
B( 35-C , 80-H ) :   0.9953 B( 36-C , 37-C ) :   1.0242 B( 36-C , 81-H ) :   0.9969
B( 37-C , 38-O ) :   2.2492 B( 37-C , 39-C ) :   0.8913 B( 39-C , 40-N ) :   1.7026
B( 41-C , 42-S ) :   1.1542 B( 41-C , 43-C ) :   1.1867 B( 43-C , 44-C ) :   1.4470
B( 43-C , 47-S ) :   1.0908 B( 44-C , 45-C ) :   1.2823 B( 44-C , 82-H ) :   0.9872
B( 45-C , 46-C ) :   1.4168 B( 45-C , 50-C ) :   0.9872 B( 46-C , 47-S ) :   1.1134
B( 46-C , 48-C ) :   1.2127 B( 48-C , 49-C ) :   1.3799 B( 48-C , 58-S ) :   1.1613
B( 49-C , 50-C ) :   0.9984 B( 49-C , 56-C ) :   1.3029 B( 50-C , 51-C ) :   1.7227
B( 51-C , 52-C ) :   1.1358 B( 51-C , 54-C ) :   1.1350 B( 52-C , 53-N ) :   2.9967
B( 54-C , 55-N ) :   2.9972 B( 56-C , 57-C ) :   1.4098 B( 56-C , 83-H ) :   0.9727
B( 57-C , 58-S ) :   1.0756 B( 57-C , 59-C ) :   1.1473 B( 59-C , 60-C ) :   1.7072
B( 59-C , 84-H ) :   0.9164 B( 60-C , 61-C ) :   0.9578 B( 60-C , 67-C ) :   0.9469
B( 61-C , 62-O ) :   2.0501 B( 61-C , 63-N ) :   1.0852 B( 63-N , 64-C ) :   1.0601
B( 63-N , 70-C ) :   0.9346 B( 64-C , 65-O ) :   2.0812 B( 64-C , 66-N ) :   1.0585
B( 66-N , 67-C ) :   1.0823 B( 66-N , 69-C ) :   0.9363 B( 67-C , 68-O ) :   2.1020
B( 69-C , 85-H ) :   0.9558 B( 69-C , 86-H ) :   0.9747 B( 69-C , 87-H ) :   0.9767
B( 70-C , 88-H ) :   0.9731 B( 70-C , 89-H ) :   0.9554 B( 70-C , 90-H ) :   0.9774

-----------------------------------------------------------------------------
         ABSORPTION SPECTRUM VIA TRANSITION ELECTRIC DIPOLE MOMENTS
-----------------------------------------------------------------------------
State   Energy  Wavelength   fosc         T2         TX        TY        TZ
        (cm-1)    (nm)                  (au**2)     (au)      (au)      (au)
-----------------------------------------------------------------------------
   0   10699.9    934.6   0.971190708  29.88142  -4.82846   1.18949   2.26992
   1   13434.0    744.4   0.038148119   0.93485  -0.12094  -0.29497   0.91281
   2   14994.8    666.9   0.047333664   1.03922   0.93226  -0.38948  -0.13568
   3   17868.7    559.6   0.122296030   2.25317  -0.05048   0.54453  -1.39789
   4   20053.7    498.7   0.043031076   0.70642   0.42469  -0.38862   0.61240
   5   22480.8    444.8   0.574375617   8.41125  -2.48838   0.47856   1.41075
   6   24342.1    410.8   1.335728884  18.06491   3.62166  -0.57399  -2.14920
   7   24575.5    406.9   0.002324898   0.03114  -0.05219  -0.12922  -0.10827
   8   24659.1    405.5   0.105309827   1.40594  -0.42405   0.54629  -0.96316
   9   25721.6    388.8   0.000295154   0.00378  -0.05634   0.01353   0.02051
  10   26330.9    379.8   0.004138360   0.05174  -0.17742   0.13650  -0.04041
  11   26590.6    376.1   0.001525135   0.01888  -0.00491  -0.13726   0.00411
  12   27379.7    365.2   0.029292639   0.35221   0.45167  -0.33925   0.18197
  13   28092.3    356.0   0.083808765   0.98215  -0.66791   0.60920  -0.40611
  14   28505.8    350.8   0.022614726   0.26118   0.26126  -0.17945  -0.40090
  15   28703.6    348.4   0.163108158   1.87075  -0.40289   0.88092  -0.96561
  16   29167.5    342.8   0.007496122   0.08461   0.13939  -0.20293   0.15491
  17   29291.9    341.4   0.000611297   0.00687   0.06294  -0.04727   0.02598
  18   30542.4    327.4   0.000096465   0.00104   0.02003   0.01805   0.01768
  19   30938.7    323.2   0.003337429   0.03551   0.06467   0.10417  -0.14310
  20   31134.6    321.2   0.477734911   5.05148  -0.65721   1.38515  -1.64345
  21   31959.4    312.9   0.285592320   2.94187   1.05744   0.04614  -1.34965
  22   32180.3    310.7   0.112684193   1.15278  -0.62136  -0.36409   0.79633
  23   33101.4    302.1   0.116574466   1.15940   0.29607   0.50970  -0.90108
  24   33180.0    301.4   0.039372213   0.39065  -0.16760  -0.18122   0.57421
  25   33349.7    299.9   0.320152957   3.16039   0.14475  -0.69265   1.63085
  26   33496.0    298.5   0.007786160   0.07653   0.21106  -0.14297   0.10743
  27   33549.7    298.1   0.047917638   0.47020  -0.61389   0.17374   0.25131
  28   33878.7    295.2   0.122346536   1.18889  -0.86274   0.63837  -0.19250
  29   33935.0    294.7   0.161015751   1.56205  -1.15234   0.46313  -0.14025
  30   34166.1    292.7   0.195310176   1.88194  -1.10863   0.80732   0.03328
  31   34499.3    289.9   0.004085075   0.03898   0.06854  -0.10539   0.15224
  32   34630.7    288.8   0.158929690   1.51084   1.16186  -0.32960  -0.22866
  33   34811.8    287.3   0.013564974   0.12828   0.19941  -0.18123   0.23595
  34   34857.8    286.9   0.021865610   0.20651   0.35936  -0.26258   0.09176
  35   35048.8    285.3   0.044080564   0.41405  -0.32098   0.36184  -0.42438
  36   35342.8    282.9   0.045957580   0.42809   0.08359   0.20730  -0.61492
  37   35452.9    282.1   0.080987371   0.75204  -0.05263   0.34635  -0.79329
  38   35923.6    278.4   0.019789225   0.18135  -0.20692   0.14395  -0.34324
  39   36021.6    277.6   0.104158906   0.95194   0.47402  -0.64769   0.55475
  40   36351.4    275.1   0.054898158   0.49718   0.60762  -0.11270  -0.33952
  41   36373.9    274.9   0.011616024   0.10513   0.22204  -0.22457  -0.07349
  42   36503.3    273.9   0.008246763   0.07437   0.23098  -0.06760   0.12828
  43   36753.7    272.1   0.010408869   0.09323  -0.14346  -0.01561   0.26909
  44   36879.4    271.2   0.008451279   0.07544  -0.17621   0.04948   0.20480
  45   36976.8    270.4   0.001170758   0.01042   0.01053  -0.05961  -0.08222
  46   37006.3    270.2   0.037825779   0.33650  -0.51177   0.25015  -0.10961
  47   37276.9    268.3   0.251165770   2.21818   0.34382  -0.76551   1.23043
  48   37428.1    267.2   0.029926599   0.26323  -0.04606  -0.24889   0.44628
  49   37807.1    264.5   0.011555366   0.10062  -0.28585   0.12665  -0.05358
  50   38060.6    262.7   0.082425942   0.71296  -0.19691  -0.36889   0.73356
  51   38476.6    259.9   0.002655704   0.02272  -0.12115   0.04385   0.07824
  52   38669.2    258.6   0.018826545   0.16028  -0.25687   0.27438  -0.13790
  53   38839.9    257.5   0.013946661   0.11821   0.07834  -0.18957   0.27593
  54   38915.2    257.0   0.007883127   0.06669   0.21482  -0.14330   0.00229
  55   38974.1    256.6   0.019565395   0.16527  -0.12964   0.25214  -0.29136
  56   39061.3    256.0   0.001034866   0.00872  -0.07134  -0.02626   0.05425
  57   39194.1    255.1   0.002681831   0.02253  -0.04645   0.02146  -0.14110
  58   39298.2    254.5   0.031237659   0.26169  -0.26464  -0.04489   0.43548
  59   39638.9    252.3   0.017225486   0.14306   0.18149  -0.23200   0.23728
  60   39831.0    251.1   0.017917619   0.14809   0.04698   0.24323  -0.29450
  61   40213.6    248.7   0.025101938   0.20550   0.10384  -0.24876   0.36446

FINAL SINGLE POINT ENERGY     -4977.134355873854

DIPOLE MOMENT
-------------
                                X             Y             Z
Electronic contribution:      5.02545      -4.30057      11.30545
Nuclear contribution   :     -4.99509       4.29381     -10.34189
                        -----------------------------------------
Total Dipole Moment    :      0.03035      -0.00677       0.96356
                        -----------------------------------------
Magnitude (a.u.)       :      0.96406
Magnitude (Debye)      :      2.45044

Rotational constants in cm-1:     0.002045     0.000230     0.000208
Rotational constants in MHz :    61.313478     6.900224     6.229943

                             ****ORCA TERMINATED NORMALLY****
TOTAL RUN TIME: 0 days 0 hours 7 minutes 43 seconds 795 msec
