                         Program Version 4.2.0 -  RELEASE  -
|  1> # ORCA input file
|  2> # SCF done       -186.034126987412          0.000739716187
|  3> ! CAM-B3LYP def2-SVP def2/J RIJCOSX Grid4 TightSCF
|  4> %maxcore 5000
|  5> %tddft
|  6>     Mode sTDDFT
|  7>     Ethresh 5.0
|  8>     maxcore 5000
|  9> end
| 10>
| 11> %pal
| 12>   nprocs 6
| 13>   end
| 14> * xyz 0 1
| 15>    C       -1.10784        -2.14558         2.82265
| 16>    O       -1.49383        -1.42035         1.92927
| 17>    N       -1.89710        -2.39291         3.93279
| 18>    C       -3.20420        -1.76017         4.01191
| 19>    C       -1.55925        -3.19933         4.99682
| 20>    O       -2.30784        -3.36215         5.93025
| 21>    N       -0.31754        -3.81176         4.93556
| 22>    C        0.07161        -4.67322         6.03972
| 23>    C        0.58645        -3.67174         3.90881
| 24>    O        1.65530        -4.26839         3.96833
| 25>    C        0.20037        -2.81100         2.81204
| 26>    C        0.99448        -2.55245         1.72117
| 27>    C        2.27784        -2.98013         1.35876
| 28>    C        2.89274        -2.54706         0.17707
| 29>    C        4.15588        -3.07966         0.01168
| 30>    C        4.51738        -3.93902         1.07869
| 31>    S        3.31048        -4.07925         2.27111
| 32>    C        5.82301        -4.42893         0.81849
| 33>    C        6.28029        -3.88348        -0.39656
| 34>    C        5.25080        -3.01816        -0.94369
| 35>    C        5.31285        -2.30033        -2.10216
| 36>    C        6.45023        -2.32341        -2.93696
| 37>    N        7.37379        -2.33514        -3.61709
| 38>    C        4.24900        -1.48395        -2.54052
| 39>    N        3.39059        -0.81730        -2.90563
| 40>    C        7.56180        -4.30546        -0.73391
| 41>    C        8.08632        -5.16834         0.21370
| 42>    S        6.97263        -5.46114         1.53856
| 43>    C        9.38500        -5.76346         0.15741
| 44>    C        9.89518        -6.63699         1.11121
| 45>    F        9.13582        -6.97288         2.17082
| 46>    C       11.17417        -7.20170         1.04348
| 47>    F       11.52849        -8.03123         2.04314
| 48>    C       12.07890        -6.94638         0.01913
| 49>    C       11.58518        -6.06327        -0.97439
| 50>    C       10.28015        -5.49342        -0.90890
| 51>    N       10.13509        -4.71865        -1.99326
| 52>    N       11.26187        -4.83165        -2.63416
| 53>    N       12.16003        -5.60393        -2.09472
| 54>    C       11.49033        -4.15862        -3.87458
| 55>    C       13.39463        -7.50034        -0.05735
| 56>    C       14.33363        -7.20265        -1.03131
| 57>    C       15.52321        -7.89583        -0.83450
| 58>    C       15.48617        -8.73452         0.29500
| 59>    S       13.99342        -8.65772         1.11646
| 60>    C       16.73410        -9.39646         0.40157
| 61>    C       17.56595        -8.96562        -0.65796
| 62>    C       16.82578        -8.01464        -1.47152
| 63>    C       17.24189        -7.36891        -2.59794
| 64>    C       18.51739        -7.55746        -3.17446
| 65>    N       19.53732        -7.69351        -3.67888
| 66>    C       16.40754        -6.45996        -3.28455
| 67>    N       15.73710        -5.71868        -3.84674
| 68>    C       18.82765        -9.54353        -0.63204
| 69>    C       18.98136       -10.42835         0.42794
| 70>    S       17.50419       -10.52594         1.40589
| 71>    C       20.03204       -11.26528         0.84944
| 72>    C       21.33187       -11.44479         0.45440
| 73>    C       22.05111       -10.66179        -0.54871
| 74>    O       21.58508        -9.71137        -1.14618
| 75>    N       23.35765       -11.05245        -0.79028
| 76>    C       24.03603       -12.07568        -0.16063
| 77>    O       25.17989       -12.34049        -0.44493
| 78>    N       23.33682       -12.76782         0.80783
| 79>    C       22.03200       -12.52251         1.17759
| 80>    O       21.51183       -13.18823         2.05062
| 81>    C       24.02144       -13.84391         1.50558
| 82>    C       24.12416       -10.32054        -1.78732
| 83>    H       -3.34787        -1.18519         3.10057
| 84>    H       -3.24551        -1.10779         4.88349
| 85>    H       -3.97575        -2.52293         4.10844
| 86>    H       -0.73522        -4.67283         6.76765
| 87>    H        0.99084        -4.29754         6.48850
| 88>    H        0.25088        -5.68252         5.66986
| 89>    H        0.53274        -1.87857         1.00327
| 90>    H        2.40941        -1.87116        -0.50584
| 91>    H        8.11117        -4.01954        -1.61113
| 92>    H       10.76859        -3.34956        -3.96357
| 93>    H       11.36031        -4.85456        -4.70513
| 94>    H       12.51108        -3.78052        -3.89414
| 95>    H       14.12741        -6.51267        -1.82792
| 96>    H       19.62017        -9.34555        -1.33032
| 97>    H       19.75735       -11.92913         1.66795
| 98>    H       25.01394       -13.94768         1.07550
| 99>    H       23.45470       -14.76737         1.39079
|100>    H       24.08934       -13.60658         2.56714
|101>    H       23.46362        -9.58971        -2.24684
|102>    H       24.50582       -11.01554        -2.53388
|103>    H       24.96719        -9.82098        -1.31082
|104> *
|105>
|106>                          ****END OF INPUT****

CARTESIAN COORDINATES (ANGSTROEM)
---------------------------------
  C     -1.107840   -2.145580    2.822650
  O     -1.493830   -1.420350    1.929270
  N     -1.897100   -2.392910    3.932790
  C     -3.204200   -1.760170    4.011910
  C     -1.559250   -3.199330    4.996820
  O     -2.307840   -3.362150    5.930250
  N     -0.317540   -3.811760    4.935560
  C      0.071610   -4.673220    6.039720
  C      0.586450   -3.671740    3.908810
  O      1.655300   -4.268390    3.968330
  C      0.200370   -2.811000    2.812040
  C      0.994480   -2.552450    1.721170
  C      2.277840   -2.980130    1.358760
  C      2.892740   -2.547060    0.177070
  C      4.155880   -3.079660    0.011680
  C      4.517380   -3.939020    1.078690
  S      3.310480   -4.079250    2.271110
  C      5.823010   -4.428930    0.818490
  C      6.280290   -3.883480   -0.396560
  C      5.250800   -3.018160   -0.943690
  C      5.312850   -2.300330   -2.102160
  C      6.450230   -2.323410   -2.936960
  N      7.373790   -2.335140   -3.617090
  C      4.249000   -1.483950   -2.540520
  N      3.390590   -0.817300   -2.905630
  C      7.561800   -4.305460   -0.733910
  C      8.086320   -5.168340    0.213700
  S      6.972630   -5.461140    1.538560
  C      9.385000   -5.763460    0.157410
  C      9.895180   -6.636990    1.111210
  F      9.135820   -6.972880    2.170820
  C     11.174170   -7.201700    1.043480
  F     11.528490   -8.031230    2.043140
  C     12.078900   -6.946380    0.019130
  C     11.585180   -6.063270   -0.974390
  C     10.280150   -5.493420   -0.908900
  N     10.135090   -4.718650   -1.993260
  N     11.261870   -4.831650   -2.634160
  N     12.160030   -5.603930   -2.094720
  C     11.490330   -4.158620   -3.874580
  C     13.394630   -7.500340   -0.057350
  C     14.333630   -7.202650   -1.031310
  C     15.523210   -7.895830   -0.834500
  C     15.486170   -8.734520    0.295000
  S     13.993420   -8.657720    1.116460
  C     16.734100   -9.396460    0.401570
  C     17.565950   -8.965620   -0.657960
  C     16.825780   -8.014640   -1.471520
  C     17.241890   -7.368910   -2.597940
  C     18.517390   -7.557460   -3.174460
  N     19.537320   -7.693510   -3.678880
  C     16.407540   -6.459960   -3.284550
  N     15.737100   -5.718680   -3.846740
  C     18.827650   -9.543530   -0.632040
  C     18.981360  -10.428350    0.427940
  S     17.504190  -10.525940    1.405890
  C     20.032040  -11.265280    0.849440
  C     21.331870  -11.444790    0.454400
  C     22.051110  -10.661790   -0.548710
  O     21.585080   -9.711370   -1.146180
  N     23.357650  -11.052450   -0.790280
  C     24.036030  -12.075680   -0.160630
  O     25.179890  -12.340490   -0.444930
  N     23.336820  -12.767820    0.807830
  C     22.032000  -12.522510    1.177590
  O     21.511830  -13.188230    2.050620
  C     24.021440  -13.843910    1.505580
  C     24.124160  -10.320540   -1.787320
  H     -3.347870   -1.185190    3.100570
  H     -3.245510   -1.107790    4.883490
  H     -3.975750   -2.522930    4.108440
  H     -0.735220   -4.672830    6.767650
  H      0.990840   -4.297540    6.488500
  H      0.250880   -5.682520    5.669860
  H      0.532740   -1.878570    1.003270
  H      2.409410   -1.871160   -0.505840
  H      8.111170   -4.019540   -1.611130
  H     10.768590   -3.349560   -3.963570
  H     11.360310   -4.854560   -4.705130
  H     12.511080   -3.780520   -3.894140
  H     14.127410   -6.512670   -1.827920
  H     19.620170   -9.345550   -1.330320
  H     19.757350  -11.929130    1.667950
  H     25.013940  -13.947680    1.075500
  H     23.454700  -14.767370    1.390790
  H     24.089340  -13.606580    2.567140
  H     23.463620   -9.589710   -2.246840
  H     24.505820  -11.015540   -2.533880
  H     24.967190   -9.820980   -1.310820

 Total Charge           Charge          ....    0
 Multiplicity           Mult            ....    1
 Number of Electrons    NEL             ....  498
 Basis Dimension        Dim             .... 1073

ORBITAL ENERGIES
----------------

  NO   OCC          E(Eh)            E(eV)
   0   2.0000     -88.995918     -2421.7020
   1   2.0000     -88.995417     -2421.6884
   2   2.0000     -88.994813     -2421.6720
   3   2.0000     -88.990805     -2421.5629
   4   2.0000     -24.819669      -675.3775
   5   2.0000     -24.819045      -675.3605
   6   2.0000     -19.212471      -522.7979
   7   2.0000     -19.202143      -522.5169
   8   2.0000     -19.201740      -522.5059
   9   2.0000     -19.198987      -522.4310
  10   2.0000     -19.196677      -522.3681
  11   2.0000     -19.196012      -522.3500
  12   2.0000     -14.563204      -396.2849
  13   2.0000     -14.469400      -393.7324
  14   2.0000     -14.466033      -393.6408
  15   2.0000     -14.465362      -393.6225
  16   2.0000     -14.464611      -393.6021
  17   2.0000     -14.462085      -393.5333
  18   2.0000     -14.462033      -393.5319
  19   2.0000     -14.433727      -392.7617
  20   2.0000     -14.433453      -392.7542
  21   2.0000     -14.432408      -392.7258
  22   2.0000     -14.429092      -392.6356
  23   2.0000     -10.420853      -283.5658
  24   2.0000     -10.415668      -283.4247
  25   2.0000     -10.399229      -282.9774
  26   2.0000     -10.394820      -282.8574
  27   2.0000     -10.394644      -282.8527
  28   2.0000     -10.394275      -282.8426
  29   2.0000     -10.392419      -282.7921
  30   2.0000     -10.387722      -282.6643
  31   2.0000     -10.367839      -282.1232
  32   2.0000     -10.366590      -282.0892
  33   2.0000     -10.355371      -281.7840
  34   2.0000     -10.354597      -281.7629
  35   2.0000     -10.346315      -281.5375
  36   2.0000     -10.336517      -281.2709
  37   2.0000     -10.335598      -281.2459
  38   2.0000     -10.335465      -281.2423
  39   2.0000     -10.334219      -281.2084
  40   2.0000     -10.334179      -281.2073
  41   2.0000     -10.333984      -281.2020
  42   2.0000     -10.333655      -281.1930
  43   2.0000     -10.332885      -281.1721
  44   2.0000     -10.332672      -281.1663
  45   2.0000     -10.332329      -281.1570
  46   2.0000     -10.331356      -281.1305
  47   2.0000     -10.331233      -281.1272
  48   2.0000     -10.329468      -281.0791
  49   2.0000     -10.328338      -281.0484
  50   2.0000     -10.326774      -281.0058
  51   2.0000     -10.325851      -280.9807
  52   2.0000     -10.325381      -280.9679
  53   2.0000     -10.323409      -280.9142
  54   2.0000     -10.314276      -280.6657
  55   2.0000     -10.310103      -280.5522
  56   2.0000     -10.308757      -280.5155
  57   2.0000     -10.307856      -280.4910
  58   2.0000     -10.306064      -280.4423
  59   2.0000     -10.304675      -280.4045
  60   2.0000     -10.301572      -280.3200
  61   2.0000     -10.301252      -280.3113
  62   2.0000     -10.300499      -280.2908
  63   2.0000     -10.297239      -280.2021
  64   2.0000     -10.295703      -280.1603
  65   2.0000     -10.295464      -280.1538
  66   2.0000     -10.294863      -280.1375
  67   2.0000     -10.292404      -280.0705
  68   2.0000      -8.090299      -220.1482
  69   2.0000      -8.090056      -220.1416
  70   2.0000      -8.088849      -220.1088
  71   2.0000      -8.082585      -219.9383
  72   2.0000      -6.059374      -164.8839
  73   2.0000      -6.059347      -164.8832
  74   2.0000      -6.058105      -164.8494
  75   2.0000      -6.055243      -164.7716
  76   2.0000      -6.054965      -164.7640
  77   2.0000      -6.053726      -164.7303
  78   2.0000      -6.052903      -164.7079
  79   2.0000      -6.052483      -164.6964
  80   2.0000      -6.052007      -164.6835
  81   2.0000      -6.051380      -164.6664
  82   2.0000      -6.047154      -164.5514
  83   2.0000      -6.045362      -164.5027
  84   2.0000      -1.341729       -36.5103
  85   2.0000      -1.324544       -36.0427
  86   2.0000      -1.243333       -33.8328
  87   2.0000      -1.176622       -32.0175
  88   2.0000      -1.171201       -31.8700
  89   2.0000      -1.145906       -31.1817
  90   2.0000      -1.138719       -30.9861
  91   2.0000      -1.135971       -30.9113
  92   2.0000      -1.132567       -30.8187
  93   2.0000      -1.050118       -28.5752
  94   2.0000      -1.049617       -28.5615
  95   2.0000      -1.047618       -28.5071
  96   2.0000      -1.043063       -28.3832
  97   2.0000      -1.025253       -27.8986
  98   2.0000      -1.024701       -27.8835
  99   2.0000      -1.024029       -27.8652
 100   2.0000      -1.019007       -27.7286
 101   2.0000      -1.018109       -27.7042
 102   2.0000      -1.016378       -27.6571
 103   2.0000      -1.010308       -27.4919
 104   2.0000      -1.007894       -27.4262
 105   2.0000      -1.001335       -27.2477
 106   2.0000      -0.995786       -27.0967
 107   2.0000      -0.964905       -26.2564
 108   2.0000      -0.962784       -26.1987
 109   2.0000      -0.945721       -25.7344
 110   2.0000      -0.931343       -25.3431
 111   2.0000      -0.927303       -25.2332
 112   2.0000      -0.915547       -24.9133
 113   2.0000      -0.903229       -24.5781
 114   2.0000      -0.890601       -24.2345
 115   2.0000      -0.874287       -23.7905
 116   2.0000      -0.869930       -23.6720
 117   2.0000      -0.860393       -23.4125
 118   2.0000      -0.859235       -23.3810
 119   2.0000      -0.849522       -23.1167
 120   2.0000      -0.837012       -22.7762
 121   2.0000      -0.832951       -22.6657
 122   2.0000      -0.814605       -22.1665
 123   2.0000      -0.805563       -21.9205
 124   2.0000      -0.795685       -21.6517
 125   2.0000      -0.793661       -21.5966
 126   2.0000      -0.787720       -21.4350
 127   2.0000      -0.782954       -21.3053
 128   2.0000      -0.777784       -21.1646
 129   2.0000      -0.768558       -20.9135
 130   2.0000      -0.757336       -20.6082
 131   2.0000      -0.755842       -20.5675
 132   2.0000      -0.734465       -19.9858
 133   2.0000      -0.731182       -19.8965
 134   2.0000      -0.721739       -19.6395
 135   2.0000      -0.716259       -19.4904
 136   2.0000      -0.712506       -19.3883
 137   2.0000      -0.706273       -19.2187
 138   2.0000      -0.694713       -18.9041
 139   2.0000      -0.691863       -18.8266
 140   2.0000      -0.686407       -18.6781
 141   2.0000      -0.683426       -18.5970
 142   2.0000      -0.675256       -18.3747
 143   2.0000      -0.669682       -18.2230
 144   2.0000      -0.661958       -18.0128
 145   2.0000      -0.655634       -17.8407
 146   2.0000      -0.651476       -17.7276
 147   2.0000      -0.639943       -17.4137
 148   2.0000      -0.636060       -17.3081
 149   2.0000      -0.632109       -17.2006
 150   2.0000      -0.630747       -17.1635
 151   2.0000      -0.625424       -17.0186
 152   2.0000      -0.621369       -16.9083
 153   2.0000      -0.619857       -16.8672
 154   2.0000      -0.616964       -16.7884
 155   2.0000      -0.603683       -16.4270
 156   2.0000      -0.598819       -16.2947
 157   2.0000      -0.598306       -16.2807
 158   2.0000      -0.593448       -16.1485
 159   2.0000      -0.592673       -16.1275
 160   2.0000      -0.586822       -15.9682
 161   2.0000      -0.580039       -15.7837
 162   2.0000      -0.574697       -15.6383
 163   2.0000      -0.567668       -15.4470
 164   2.0000      -0.562243       -15.2994
 165   2.0000      -0.551915       -15.0184
 166   2.0000      -0.551585       -15.0094
 167   2.0000      -0.550390       -14.9769
 168   2.0000      -0.547947       -14.9104
 169   2.0000      -0.545904       -14.8548
 170   2.0000      -0.545610       -14.8468
 171   2.0000      -0.541078       -14.7235
 172   2.0000      -0.539698       -14.6859
 173   2.0000      -0.536753       -14.6058
 174   2.0000      -0.532474       -14.4893
 175   2.0000      -0.531573       -14.4648
 176   2.0000      -0.528008       -14.3678
 177   2.0000      -0.526267       -14.3204
 178   2.0000      -0.526219       -14.3191
 179   2.0000      -0.521453       -14.1895
 180   2.0000      -0.521163       -14.1816
 181   2.0000      -0.515085       -14.0162
 182   2.0000      -0.513386       -13.9699
 183   2.0000      -0.511012       -13.9053
 184   2.0000      -0.509195       -13.8559
 185   2.0000      -0.508239       -13.8299
 186   2.0000      -0.506745       -13.7892
 187   2.0000      -0.504669       -13.7327
 188   2.0000      -0.504344       -13.7239
 189   2.0000      -0.502144       -13.6640
 190   2.0000      -0.500867       -13.6293
 191   2.0000      -0.495605       -13.4861
 192   2.0000      -0.490317       -13.3422
 193   2.0000      -0.488951       -13.3050
 194   2.0000      -0.488356       -13.2889
 195   2.0000      -0.486007       -13.2249
 196   2.0000      -0.482341       -13.1252
 197   2.0000      -0.477661       -12.9978
 198   2.0000      -0.474898       -12.9226
 199   2.0000      -0.471835       -12.8393
 200   2.0000      -0.471387       -12.8271
 201   2.0000      -0.469450       -12.7744
 202   2.0000      -0.468482       -12.7480
 203   2.0000      -0.467853       -12.7309
 204   2.0000      -0.465494       -12.6667
 205   2.0000      -0.464846       -12.6491
 206   2.0000      -0.464662       -12.6441
 207   2.0000      -0.463624       -12.6159
 208   2.0000      -0.462899       -12.5961
 209   2.0000      -0.459689       -12.5088
 210   2.0000      -0.456051       -12.4098
 211   2.0000      -0.454907       -12.3787
 212   2.0000      -0.448408       -12.2018
 213   2.0000      -0.444336       -12.0910
 214   2.0000      -0.443521       -12.0688
 215   2.0000      -0.442795       -12.0491
 216   2.0000      -0.441628       -12.0173
 217   2.0000      -0.441606       -12.0167
 218   2.0000      -0.440854       -11.9962
 219   2.0000      -0.439113       -11.9489
 220   2.0000      -0.432376       -11.7656
 221   2.0000      -0.426159       -11.5964
 222   2.0000      -0.422440       -11.4952
 223   2.0000      -0.417906       -11.3718
 224   2.0000      -0.414062       -11.2672
 225   2.0000      -0.412076       -11.2132
 226   2.0000      -0.397251       -10.8097
 227   2.0000      -0.395635       -10.7658
 228   2.0000      -0.392258       -10.6739
 229   2.0000      -0.379708       -10.3324
 230   2.0000      -0.374965       -10.2033
 231   2.0000      -0.367365        -9.9965
 232   2.0000      -0.365739        -9.9523
 233   2.0000      -0.365573        -9.9478
 234   2.0000      -0.359484        -9.7821
 235   2.0000      -0.353738        -9.6257
 236   2.0000      -0.351391        -9.5618
 237   2.0000      -0.349909        -9.5215
 238   2.0000      -0.348628        -9.4867
 239   2.0000      -0.343845        -9.3565
 240   2.0000      -0.341765        -9.2999
 241   2.0000      -0.339375        -9.2349
 242   2.0000      -0.336189        -9.1482
 243   2.0000      -0.331588        -9.0230
 244   2.0000      -0.326674        -8.8892
 245   2.0000      -0.324080        -8.8187
 246   2.0000      -0.315082        -8.5738
 247   2.0000      -0.282002        -7.6737
 248   2.0000      -0.255692        -6.9577
 249   0.0000      -0.115527        -3.1436
 250   0.0000      -0.107455        -2.9240
 251   0.0000      -0.081961        -2.2303
 252   0.0000      -0.070352        -1.9144
 253   0.0000      -0.054955        -1.4954

MULLIKEN ATOMIC CHARGES
-----------------------
   0 C :    0.194177
   1 O :   -0.209633
   2 N :   -0.288015
   3 C :    0.141044
   4 C :    0.227999
   5 O :   -0.218583
   6 N :   -0.283914
   7 C :    0.148007
   8 C :    0.220592
   9 O :   -0.262935
  10 C :   -0.162031
  11 C :    0.005813
  12 C :   -0.033775
  13 C :   -0.052203
  14 C :    0.038895
  15 C :   -0.071475
  16 S :    0.252405
  17 C :   -0.096538
  18 C :    0.035276
  19 C :    0.313316
  20 C :   -0.303829
  21 C :   -0.185504
  22 N :    0.169542
  23 C :   -0.194779
  24 N :    0.176152
  25 C :   -0.068619
  26 C :   -0.130487
  27 S :    0.218772
  28 C :    0.096698
  29 C :    0.110425
  30 F :   -0.176913
  31 C :    0.112385
  32 F :   -0.177304
  33 C :    0.097776
  34 C :   -0.032741
  35 C :   -0.032726
  36 N :   -0.059818
  37 N :   -0.054217
  38 N :   -0.060702
  39 C :    0.135791
  40 C :   -0.128086
  41 C :   -0.072706
  42 C :    0.039285
  43 C :   -0.094651
  44 S :    0.214810
  45 C :   -0.086662
  46 C :   -0.007108
  47 C :    0.318778
  48 C :   -0.301585
  49 C :   -0.195157
  50 N :    0.194901
  51 C :   -0.187757
  52 N :    0.167508
  53 C :    0.002562
  54 C :   -0.099171
  55 S :    0.198761
  56 C :    0.069172
  57 C :   -0.162344
  58 C :    0.208320
  59 O :   -0.208675
  60 N :   -0.290221
  61 C :    0.222910
  62 O :   -0.219357
  63 N :   -0.277852
  64 C :    0.184865
  65 O :   -0.220742
  66 C :    0.145005
  67 C :    0.141373
  68 H :    0.057744
  69 H :    0.038854
  70 H :    0.039432
  71 H :    0.059456
  72 H :    0.035541
  73 H :    0.036239
  74 H :    0.038778
  75 H :    0.018945
  76 H :    0.020876
  77 H :    0.070176
  78 H :    0.062168
  79 H :    0.067183
  80 H :    0.019999
  81 H :    0.041339
  82 H :    0.031573
  83 H :    0.055896
  84 H :    0.037187
  85 H :    0.036131
  86 H :    0.062201
  87 H :    0.039023
  88 H :    0.036759
Sum of atomic charges:    0.0000000

LOEWDIN ATOMIC CHARGES
----------------------
   0 C :    0.085735
   1 O :   -0.192790
   2 N :   -0.038734
   3 C :    0.042406
   4 C :    0.097639
   5 O :   -0.191309
   6 N :   -0.034890
   7 C :    0.042014
   8 C :    0.089768
   9 O :   -0.222661
  10 C :   -0.159939
  11 C :    0.078800
  12 C :   -0.189548
  13 C :    0.012107
  14 C :   -0.080292
  15 C :   -0.168484
  16 S :    0.556625
  17 C :   -0.187956
  18 C :   -0.060971
  19 C :    0.081014
  20 C :   -0.105415
  21 C :   -0.013233
  22 N :   -0.038032
  23 C :   -0.018782
  24 N :   -0.031350
  25 C :   -0.019462
  26 C :   -0.161247
  27 S :    0.498959
  28 C :   -0.062736
  29 C :    0.057198
  30 F :   -0.052414
  31 C :    0.058182
  32 F :   -0.052658
  33 C :   -0.064399
  34 C :   -0.040967
  35 C :   -0.042499
  36 N :   -0.075076
  37 N :    0.167208
  38 N :   -0.077364
  39 C :    0.036430
  40 C :   -0.160203
  41 C :   -0.019630
  42 C :   -0.058066
  43 C :   -0.192255
  44 S :    0.495345
  45 C :   -0.159895
  46 C :   -0.076831
  47 C :    0.077299
  48 C :   -0.095883
  49 C :   -0.023067
  50 N :   -0.017013
  51 C :   -0.012967
  52 N :   -0.035727
  53 C :    0.020199
  54 C :   -0.179841
  55 S :    0.491647
  56 C :    0.062079
  57 C :   -0.145100
  58 C :    0.091203
  59 O :   -0.180388
  60 N :   -0.039184
  61 C :    0.095889
  62 O :   -0.192564
  63 N :   -0.037580
  64 C :    0.083074
  65 O :   -0.196448
  66 C :    0.042251
  67 C :    0.041797
  68 H :    0.035033
  69 H :    0.031331
  70 H :    0.031570
  71 H :    0.036201
  72 H :    0.030861
  73 H :    0.031013
  74 H :    0.057160
  75 H :    0.045284
  76 H :    0.037557
  77 H :    0.048827
  78 H :    0.045641
  79 H :    0.048208
  80 H :    0.037772
  81 H :    0.044478
  82 H :    0.045268
  83 H :    0.034706
  84 H :    0.031196
  85 H :    0.030865
  86 H :    0.035713
  87 H :    0.031647
  88 H :    0.030654

  Mayer bond orders larger than 0.100000
B(  0-C ,  1-O ) :   2.1172 B(  0-C ,  2-N ) :   1.0705 B(  0-C , 10-C ) :   0.9486
B(  2-N ,  3-C ) :   0.9333 B(  2-N ,  4-C ) :   1.0695 B(  3-C , 68-H ) :   0.9547
B(  3-C , 69-H ) :   0.9771 B(  3-C , 70-H ) :   0.9754 B(  4-C ,  5-O ) :   2.0880
B(  4-C ,  6-N ) :   1.0474 B(  6-N ,  7-C ) :   0.9347 B(  6-N ,  8-C ) :   1.1155
B(  7-C , 71-H ) :   0.9552 B(  7-C , 72-H ) :   0.9754 B(  7-C , 73-H ) :   0.9757
B(  8-C ,  9-O ) :   1.9595 B(  8-C , 10-C ) :   1.0028 B(  9-O , 16-S ) :   0.1035
B( 10-C , 11-C ) :   1.6037 B( 11-C , 12-C ) :   1.2113 B( 11-C , 74-H ) :   0.9484
B( 12-C , 13-C ) :   1.3299 B( 12-C , 16-S ) :   1.0716 B( 13-C , 14-C ) :   1.3362
B( 13-C , 75-H ) :   1.0086 B( 14-C , 15-C ) :   1.3580 B( 14-C , 19-C ) :   0.9805
B( 15-C , 16-S ) :   1.1303 B( 15-C , 17-C ) :   1.1972 B( 17-C , 18-C ) :   1.4246
B( 17-C , 27-S ) :   1.1078 B( 18-C , 19-C ) :   1.0027 B( 18-C , 25-C ) :   1.2516
B( 19-C , 20-C ) :   1.7098 B( 20-C , 21-C ) :   1.1370 B( 20-C , 23-C ) :   1.1354
B( 21-C , 22-N ) :   2.9893 B( 23-C , 24-N ) :   2.9950 B( 25-C , 26-C ) :   1.4673
B( 25-C , 76-H ) :   0.9787 B( 26-C , 27-S ) :   1.1021 B( 26-C , 28-C ) :   1.1456
B( 28-C , 29-C ) :   1.3608 B( 28-C , 33-C ) :   0.1303 B( 28-C , 35-C ) :   1.1748
B( 29-C , 30-F ) :   1.1365 B( 29-C , 31-C ) :   1.2051 B( 31-C , 32-F ) :   1.1358
B( 31-C , 33-C ) :   1.3599 B( 33-C , 34-C ) :   1.1750 B( 33-C , 40-C ) :   1.1425
B( 34-C , 35-C ) :   1.2237 B( 34-C , 38-N ) :   1.4698 B( 35-C , 36-N ) :   1.4690
B( 36-N , 37-N ) :   1.2448 B( 36-N , 38-N ) :   0.1568 B( 37-N , 38-N ) :   1.2343
B( 37-N , 39-C ) :   0.9458 B( 39-C , 77-H ) :   0.9637 B( 39-C , 78-H ) :   0.9685
B( 39-C , 79-H ) :   0.9659 B( 40-C , 41-C ) :   1.4670 B( 40-C , 44-S ) :   1.1032
B( 41-C , 42-C ) :   1.2549 B( 41-C , 80-H ) :   0.9789 B( 42-C , 43-C ) :   1.4283
B( 42-C , 47-C ) :   0.9964 B( 43-C , 44-S ) :   1.1015 B( 43-C , 45-C ) :   1.1954
B( 45-C , 46-C ) :   1.3879 B( 45-C , 55-S ) :   1.1703 B( 46-C , 47-C ) :   0.9914
B( 46-C , 53-C ) :   1.2991 B( 47-C , 48-C ) :   1.7132 B( 48-C , 49-C ) :   1.1347
B( 48-C , 51-C ) :   1.1403 B( 49-C , 50-N ) :   2.9989 B( 51-C , 52-N ) :   2.9843
B( 53-C , 54-C ) :   1.4094 B( 53-C , 81-H ) :   0.9732 B( 54-C , 55-S ) :   1.0741
B( 54-C , 56-C ) :   1.1513 B( 56-C , 57-C ) :   1.6995 B( 56-C , 82-H ) :   0.9171
B( 57-C , 58-C ) :   0.9604 B( 57-C , 64-C ) :   0.9461 B( 58-C , 59-O ) :   2.0454
B( 58-C , 60-N ) :   1.0852 B( 60-N , 61-C ) :   1.0601 B( 60-N , 67-C ) :   0.9331
B( 61-C , 62-O ) :   2.0869 B( 61-C , 63-N ) :   1.0613 B( 63-N , 64-C ) :   1.0832
B( 63-N , 66-C ) :   0.9366 B( 64-C , 65-O ) :   2.1003 B( 66-C , 83-H ) :   0.9557
B( 66-C , 84-H ) :   0.9747 B( 66-C , 85-H ) :   0.9769 B( 67-C , 86-H ) :   0.9544
B( 67-C , 87-H ) :   0.9742 B( 67-C , 88-H ) :   0.9777

-----------------------------------------------------------------------------
         ABSORPTION SPECTRUM VIA TRANSITION ELECTRIC DIPOLE MOMENTS
-----------------------------------------------------------------------------
State   Energy  Wavelength   fosc         T2         TX        TY        TZ
        (cm-1)    (nm)                  (au**2)     (au)      (au)      (au)
-----------------------------------------------------------------------------
   0   14136.1    707.4   0.661591908  15.40766  -3.61305   1.49213   0.35648
   1   15024.5    665.6   0.013345222   0.29242   0.36437   0.03314  -0.39818
   2   21324.0    469.0   2.142177354  33.07221  -5.30714   2.11560   0.65630
   3   23227.8    430.5   0.023312304   0.33041  -0.52832   0.22550  -0.02093
   4   25166.1    397.4   0.239464890   3.13257  -1.63209   0.49497   0.47315
   5   25759.2    388.2   0.226313901   2.89238  -0.37992   0.91130  -1.38476
   6   28443.5    351.6   0.085856943   0.99373   0.90227  -0.26341  -0.33205
   7   29955.8    333.8   0.101181661   1.11198   0.19332   0.56986  -0.86595
   8   30297.2    330.1   0.097501778   1.05946  -0.16632  -0.51296   0.87674
   9   30495.6    327.9   0.079356796   0.85669   0.04208   0.42119  -0.82311
  10   30711.3    325.6   0.000927463   0.00994  -0.01699  -0.06071  -0.07725
  11   31000.8    322.6   0.384107133   4.07901  -0.37149  -0.95879   1.73831
  12   31295.2    319.5   0.241248371   2.53783  -0.63658  -0.67111   1.29700
  13   31997.8    312.5   0.136556460   1.40497   0.48601   0.50397  -0.95644
  14   33133.6    301.8   0.472807473   4.69776   1.90602  -1.01409   0.19099
  15   33337.4    300.0   0.324637553   3.20584   1.33864   0.09246  -1.18547
  16   33468.6    298.8   0.110991209   1.09176   0.66526  -0.67222   0.44419
  17   33957.0    294.5   0.115798654   1.12266  -0.72795  -0.09991   0.76339
  18   34586.9    289.1   0.009914836   0.09437  -0.24683  -0.06795   0.16979
  19   35230.6    283.8   0.134329455   1.25524   0.07857  -0.65006   0.90912
  20   35283.8    283.4   0.142643734   1.33092   0.00611   0.63181  -0.96525
  21   35631.9    280.6   0.049669531   0.45891  -0.49839  -0.07338   0.45291
  22   35729.0    279.9   0.004905977   0.04520  -0.18813   0.09486  -0.02849
  23   35975.0    278.0   0.020581108   0.18834   0.21962  -0.24453   0.28339
  24   36318.3    275.3   0.070104517   0.63547   0.43737   0.23255  -0.62458
  25   36773.9    271.9   0.018725289   0.16763  -0.40510   0.05789   0.01337
  26   36880.7    271.1   0.000387716   0.00346   0.00865  -0.05647  -0.01405
  27   37132.2    269.3   0.003065710   0.02718   0.06116  -0.12785   0.08422
  28   37650.2    265.6   0.007990693   0.06987  -0.03955  -0.10314   0.24014
  29   37776.9    264.7   0.012402927   0.10809  -0.26857  -0.03230   0.18685
  30   37874.6    264.0   0.029023142   0.25227  -0.45995   0.02775   0.19987
  31   38322.1    260.9   0.037338763   0.32076   0.22459   0.23639  -0.46308
  32   39334.8    254.2   0.036007878   0.30137  -0.05072   0.30869  -0.45112
  33   39462.6    253.4   0.021948077   0.18310   0.09884   0.20213  -0.36397
  34   39602.9    252.5   0.030786554   0.25592  -0.28710  -0.01133   0.41637
  35   39624.5    252.4   0.028256891   0.23477   0.33063   0.11119  -0.33628
  36   39729.3    251.7   0.025107186   0.20805  -0.04035  -0.29503   0.34551

FINAL SINGLE POINT ENERGY     -4569.391247437315

DIPOLE MOMENT
-------------
                                X             Y             Z
Electronic contribution:     -6.85616       0.93928      -1.40318
Nuclear contribution   :      6.21431      -1.66740       2.64247
                        -----------------------------------------
Total Dipole Moment    :     -0.64185      -0.72812       1.23929
                        -----------------------------------------
Magnitude (a.u.)       :      1.57416
Magnitude (Debye)      :      4.00119

Rotational constants in cm-1:     0.002832     0.000226     0.000209
Rotational constants in MHz :    84.895711     6.770075     6.278425

                             ****ORCA TERMINATED NORMALLY****
TOTAL RUN TIME: 0 days 0 hours 8 minutes 12 seconds 220 msec
