                         Program Version 4.2.0 -  RELEASE  -
|  1> # ORCA input file
|  2> # SCF done       -169.060277858516          0.000301746909
|  3> ! CAM-B3LYP def2-SVP def2/J RIJCOSX Grid4 TightSCF
|  4> %maxcore 5000
|  5> %tddft
|  6>     Mode sTDDFT
|  7>     Ethresh 5.0
|  8>     maxcore 5000
|  9> end
| 10>
| 11> %pal
| 12>   nprocs 6
| 13>   end
| 14> * xyz 0 1
| 15>    C        0.29094        -8.87104         1.88268
| 16>    C       -0.31234        -9.08805         0.66831
| 17>    C       -0.78785       -10.30004         0.16105
| 18>    N       -1.17853       -11.29260        -0.26148
| 19>    S       -0.44838        -7.62746        -0.26015
| 20>    C        0.31490        -6.70670         0.99195
| 21>    C        0.64945        -7.52539         2.07280
| 22>    C        1.28249        -7.08468         3.25341
| 23>    N        1.78845        -6.86336         4.25755
| 24>    C        0.58656        -5.31117         0.94817
| 25>    N        1.20496        -4.77623         1.99189
| 26>    C        1.35610        -3.46967         1.70420
| 27>    C        0.80134        -3.14843         0.38741
| 28>    C        0.98317        -1.71946         0.09324
| 29>    O        0.66423        -1.09938        -0.90218
| 30>    C        1.65818        -1.21943         1.30431
| 31>    C        1.87091        -2.32130         2.26356
| 32>    N        2.48944        -1.87229         3.38022
| 33>    C        2.66821        -0.58851         3.18065
| 34>    C        2.17106        -0.11401         1.90381
| 35>    C        0.29131        -4.32687        -0.11605
| 36>    C       -0.37239        -4.58963        -1.34528
| 37>    C       -0.58113        -3.63674        -2.28368
| 38>    C       -1.23867        -3.80480        -3.54827
| 39>    C       -1.30842        -2.70817        -4.39132
| 40>    C       -1.92917        -2.80920        -5.64570
| 41>    C       -2.11384        -1.87690        -6.66885
| 42>    C       -1.67979        -0.45563        -6.72395
| 43>    C       -2.12376         0.35181        -5.48622
| 44>    N       -2.39334         1.71920        -5.88728
| 45>    C       -0.15298        -0.37047        -6.92908
| 46>    N        0.18678        -0.91864        -8.22894
| 47>    C       -2.79587        -2.56231        -7.73781
| 48>    C       -3.16262        -2.14320        -8.96519
| 49>    C       -3.88225        -3.04347        -9.90081
| 50>    C       -4.02679        -4.45886        -9.43243
| 51>    C       -3.65149        -4.85965        -8.19896
| 52>    C       -3.03165        -3.95048        -7.31681
| 53>    C       -2.50027        -4.08668        -6.04467
| 54>    C       -2.42858        -5.18847        -5.16551
| 55>    C       -1.81577        -5.04837        -3.96082
| 56>    C       -5.31635        -2.60007       -10.02826
| 57>    C       -6.01342        -2.66698       -11.17393
| 58>    C       -7.38971        -2.29778       -11.24448
| 59>    N       -8.03958        -1.79268       -10.20462
| 60>    C       -9.29184        -1.55142       -10.63203
| 61>    C       -9.46033        -1.93481       -12.04430
| 62>    C      -10.83822        -1.66740       -12.49303
| 63>    O      -11.32403        -1.86678       -13.58543
| 64>    C      -11.46430        -1.10415       -11.28579
| 65>    C      -10.48968        -1.05340       -10.17519
| 66>    N      -11.06143        -0.53889        -9.06111
| 67>    C      -12.30019        -0.27214        -9.40402
| 68>    C      -12.61871        -0.59977       -10.77682
| 69>    C       -8.24338        -2.41665       -12.45091
| 70>    C       -7.81698        -2.95412       -13.69992
| 71>    C       -8.61415        -3.07877       -14.78176
| 72>    C       -8.19502        -3.64152       -16.03259
| 73>    C       -9.04606        -3.72436       -17.12519
| 74>    C      -10.37379        -3.29497       -17.20332
| 75>    N      -11.46450        -2.95526       -17.30933
| 76>    S       -8.30203        -4.45317       -18.51545
| 77>    C       -6.84503        -4.65737       -17.65201
| 78>    C       -6.91117        -4.19390       -16.36348
| 79>    C       -5.79171        -4.29253       -15.51726
| 80>    N       -4.85208        -4.39709       -14.86597
| 81>    H        0.46897        -9.64694         2.60607
| 82>    H        3.14850         0.01602         3.93014
| 83>    H        2.21972         0.89772         1.55224
| 84>    H       -0.71354        -5.60097        -1.51038
| 85>    H       -0.21860        -2.63729        -2.08068
| 86>    H       -0.87373        -1.77388        -4.07164
| 87>    H       -2.14703         0.01874        -7.59072
| 88>    H       -1.36242         0.27256        -4.69465
| 89>    H       -3.05727        -0.06748        -5.10152
| 90>    H       -1.53809         2.19058        -6.16058
| 91>    H       -2.81193         2.24287        -5.12784
| 92>    H        0.34990        -0.87999        -6.09072
| 93>    H        0.15099         0.67939        -6.92516
| 94>    H        0.00515        -1.91689        -8.24893
| 95>    H        1.16761        -0.77180        -8.43670
| 96>    H       -2.97971        -1.13359        -9.30325
| 97>    H       -3.41075        -3.01376       -10.89047
| 98>    H       -4.49247        -5.14014       -10.12684
| 99>    H       -3.79040        -5.88505        -7.88875
|100>    H       -2.86054        -6.13348        -5.45986
|101>    H       -1.76294        -5.89352        -3.29264
|102>    H       -5.81345        -2.28283        -9.12365
|103>    H       -5.53597        -3.00515       -12.08358
|104>    H      -12.98090         0.15348        -8.68719
|105>    H      -13.57086        -0.45898       -11.24870
|106>    H       -6.79044        -3.28271       -13.75248
|107>    H       -9.64348        -2.74463       -14.73666
|108>    H       -5.99654        -5.11173       -18.12675
|109> *
|110>
|111>                          ****END OF INPUT****

CARTESIAN COORDINATES (ANGSTROEM)
---------------------------------
  C      0.290940   -8.871040    1.882680
  C     -0.312340   -9.088050    0.668310
  C     -0.787850  -10.300040    0.161050
  N     -1.178530  -11.292600   -0.261480
  S     -0.448380   -7.627460   -0.260150
  C      0.314900   -6.706700    0.991950
  C      0.649450   -7.525390    2.072800
  C      1.282490   -7.084680    3.253410
  N      1.788450   -6.863360    4.257550
  C      0.586560   -5.311170    0.948170
  N      1.204960   -4.776230    1.991890
  C      1.356100   -3.469670    1.704200
  C      0.801340   -3.148430    0.387410
  C      0.983170   -1.719460    0.093240
  O      0.664230   -1.099380   -0.902180
  C      1.658180   -1.219430    1.304310
  C      1.870910   -2.321300    2.263560
  N      2.489440   -1.872290    3.380220
  C      2.668210   -0.588510    3.180650
  C      2.171060   -0.114010    1.903810
  C      0.291310   -4.326870   -0.116050
  C     -0.372390   -4.589630   -1.345280
  C     -0.581130   -3.636740   -2.283680
  C     -1.238670   -3.804800   -3.548270
  C     -1.308420   -2.708170   -4.391320
  C     -1.929170   -2.809200   -5.645700
  C     -2.113840   -1.876900   -6.668850
  C     -1.679790   -0.455630   -6.723950
  C     -2.123760    0.351810   -5.486220
  N     -2.393340    1.719200   -5.887280
  C     -0.152980   -0.370470   -6.929080
  N      0.186780   -0.918640   -8.228940
  C     -2.795870   -2.562310   -7.737810
  C     -3.162620   -2.143200   -8.965190
  C     -3.882250   -3.043470   -9.900810
  C     -4.026790   -4.458860   -9.432430
  C     -3.651490   -4.859650   -8.198960
  C     -3.031650   -3.950480   -7.316810
  C     -2.500270   -4.086680   -6.044670
  C     -2.428580   -5.188470   -5.165510
  C     -1.815770   -5.048370   -3.960820
  C     -5.316350   -2.600070  -10.028260
  C     -6.013420   -2.666980  -11.173930
  C     -7.389710   -2.297780  -11.244480
  N     -8.039580   -1.792680  -10.204620
  C     -9.291840   -1.551420  -10.632030
  C     -9.460330   -1.934810  -12.044300
  C    -10.838220   -1.667400  -12.493030
  O    -11.324030   -1.866780  -13.585430
  C    -11.464300   -1.104150  -11.285790
  C    -10.489680   -1.053400  -10.175190
  N    -11.061430   -0.538890   -9.061110
  C    -12.300190   -0.272140   -9.404020
  C    -12.618710   -0.599770  -10.776820
  C     -8.243380   -2.416650  -12.450910
  C     -7.816980   -2.954120  -13.699920
  C     -8.614150   -3.078770  -14.781760
  C     -8.195020   -3.641520  -16.032590
  C     -9.046060   -3.724360  -17.125190
  C    -10.373790   -3.294970  -17.203320
  N    -11.464500   -2.955260  -17.309330
  S     -8.302030   -4.453170  -18.515450
  C     -6.845030   -4.657370  -17.652010
  C     -6.911170   -4.193900  -16.363480
  C     -5.791710   -4.292530  -15.517260
  N     -4.852080   -4.397090  -14.865970
  H      0.468970   -9.646940    2.606070
  H      3.148500    0.016020    3.930140
  H      2.219720    0.897720    1.552240
  H     -0.713540   -5.600970   -1.510380
  H     -0.218600   -2.637290   -2.080680
  H     -0.873730   -1.773880   -4.071640
  H     -2.147030    0.018740   -7.590720
  H     -1.362420    0.272560   -4.694650
  H     -3.057270   -0.067480   -5.101520
  H     -1.538090    2.190580   -6.160580
  H     -2.811930    2.242870   -5.127840
  H      0.349900   -0.879990   -6.090720
  H      0.150990    0.679390   -6.925160
  H      0.005150   -1.916890   -8.248930
  H      1.167610   -0.771800   -8.436700
  H     -2.979710   -1.133590   -9.303250
  H     -3.410750   -3.013760  -10.890470
  H     -4.492470   -5.140140  -10.126840
  H     -3.790400   -5.885050   -7.888750
  H     -2.860540   -6.133480   -5.459860
  H     -1.762940   -5.893520   -3.292640
  H     -5.813450   -2.282830   -9.123650
  H     -5.535970   -3.005150  -12.083580
  H    -12.980900    0.153480   -8.687190
  H    -13.570860   -0.458980  -11.248700
  H     -6.790440   -3.282710  -13.752480
  H     -9.643480   -2.744630  -14.736660
  H     -5.996540   -5.111730  -18.126750

 Total Charge           Charge          ....    0
 Multiplicity           Mult            ....    1
 Number of Electrons    NEL             ....  458
 Basis Dimension        Dim             .... 1072

ORBITAL ENERGIES
----------------

  NO   OCC          E(Eh)            E(eV)
   0   2.0000     -89.013071     -2422.1688
   1   2.0000     -89.002391     -2421.8782
   2   2.0000     -19.216392      -522.9046
   3   2.0000     -19.211505      -522.7716
   4   2.0000     -14.431548      -392.7024
   5   2.0000     -14.429358      -392.6428
   6   2.0000     -14.422148      -392.4466
   7   2.0000     -14.417262      -392.3136
   8   2.0000     -14.409344      -392.0982
   9   2.0000     -14.406549      -392.0221
  10   2.0000     -14.406134      -392.0108
  11   2.0000     -14.402632      -391.9156
  12   2.0000     -14.380135      -391.3034
  13   2.0000     -14.377429      -391.2297
  14   2.0000     -10.376499      -282.3589
  15   2.0000     -10.371231      -282.2155
  16   2.0000     -10.365069      -282.0479
  17   2.0000     -10.361523      -281.9514
  18   2.0000     -10.354760      -281.7673
  19   2.0000     -10.349990      -281.6375
  20   2.0000     -10.346597      -281.5452
  21   2.0000     -10.344692      -281.4934
  22   2.0000     -10.342901      -281.4446
  23   2.0000     -10.339453      -281.3508
  24   2.0000     -10.338208      -281.3169
  25   2.0000     -10.332294      -281.1560
  26   2.0000     -10.331909      -281.1455
  27   2.0000     -10.331740      -281.1409
  28   2.0000     -10.331281      -281.1284
  29   2.0000     -10.330629      -281.1107
  30   2.0000     -10.330006      -281.0937
  31   2.0000     -10.329784      -281.0877
  32   2.0000     -10.321412      -280.8599
  33   2.0000     -10.320697      -280.8404
  34   2.0000     -10.317978      -280.7665
  35   2.0000     -10.315248      -280.6922
  36   2.0000     -10.312701      -280.6228
  37   2.0000     -10.310461      -280.5619
  38   2.0000     -10.309425      -280.5337
  39   2.0000     -10.305750      -280.4337
  40   2.0000     -10.305328      -280.4222
  41   2.0000     -10.298456      -280.2352
  42   2.0000     -10.296380      -280.1787
  43   2.0000     -10.295888      -280.1654
  44   2.0000     -10.293301      -280.0949
  45   2.0000     -10.292933      -280.0849
  46   2.0000     -10.290613      -280.0218
  47   2.0000     -10.288560      -279.9659
  48   2.0000     -10.286682      -279.9149
  49   2.0000     -10.286472      -279.9091
  50   2.0000     -10.286321      -279.9050
  51   2.0000     -10.286040      -279.8974
  52   2.0000     -10.285759      -279.8897
  53   2.0000     -10.284063      -279.8436
  54   2.0000     -10.282337      -279.7966
  55   2.0000     -10.281761      -279.7809
  56   2.0000     -10.281582      -279.7761
  57   2.0000     -10.281090      -279.7627
  58   2.0000     -10.280228      -279.7392
  59   2.0000     -10.277184      -279.6564
  60   2.0000     -10.274911      -279.5945
  61   2.0000     -10.272333      -279.5244
  62   2.0000     -10.270894      -279.4852
  63   2.0000     -10.270586      -279.4769
  64   2.0000     -10.270200      -279.4663
  65   2.0000     -10.263238      -279.2769
  66   2.0000      -8.107190      -220.6079
  67   2.0000      -8.097989      -220.3575
  68   2.0000      -6.076571      -165.3519
  69   2.0000      -6.072158      -165.2318
  70   2.0000      -6.069499      -165.1595
  71   2.0000      -6.067247      -165.0982
  72   2.0000      -6.062777      -164.9766
  73   2.0000      -6.060370      -164.9111
  74   2.0000      -1.129848       -30.7447
  75   2.0000      -1.126033       -30.6409
  76   2.0000      -1.090032       -29.6613
  77   2.0000      -1.076476       -29.2924
  78   2.0000      -1.067116       -29.0377
  79   2.0000      -1.056606       -28.7517
  80   2.0000      -1.039734       -28.2926
  81   2.0000      -1.037238       -28.2247
  82   2.0000      -1.011054       -27.5122
  83   2.0000      -1.009671       -27.4746
  84   2.0000      -0.994172       -27.0528
  85   2.0000      -0.992303       -27.0019
  86   2.0000      -0.987548       -26.8725
  87   2.0000      -0.968348       -26.3501
  88   2.0000      -0.957999       -26.0685
  89   2.0000      -0.952651       -25.9230
  90   2.0000      -0.943958       -25.6864
  91   2.0000      -0.938292       -25.5322
  92   2.0000      -0.932206       -25.3666
  93   2.0000      -0.928622       -25.2691
  94   2.0000      -0.912007       -24.8170
  95   2.0000      -0.900420       -24.5017
  96   2.0000      -0.894896       -24.3513
  97   2.0000      -0.891460       -24.2579
  98   2.0000      -0.888557       -24.1789
  99   2.0000      -0.883808       -24.0496
 100   2.0000      -0.873914       -23.7804
 101   2.0000      -0.862278       -23.4638
 102   2.0000      -0.856327       -23.3019
 103   2.0000      -0.847448       -23.0602
 104   2.0000      -0.841517       -22.8988
 105   2.0000      -0.832233       -22.6462
 106   2.0000      -0.828342       -22.5403
 107   2.0000      -0.810050       -22.0426
 108   2.0000      -0.802640       -21.8409
 109   2.0000      -0.776395       -21.1268
 110   2.0000      -0.769162       -20.9300
 111   2.0000      -0.764383       -20.7999
 112   2.0000      -0.757294       -20.6070
 113   2.0000      -0.750130       -20.4121
 114   2.0000      -0.748350       -20.3636
 115   2.0000      -0.737032       -20.0557
 116   2.0000      -0.731428       -19.9032
 117   2.0000      -0.727496       -19.7962
 118   2.0000      -0.723160       -19.6782
 119   2.0000      -0.711269       -19.3546
 120   2.0000      -0.708060       -19.2673
 121   2.0000      -0.705416       -19.1953
 122   2.0000      -0.693474       -18.8704
 123   2.0000      -0.679817       -18.4988
 124   2.0000      -0.671043       -18.2600
 125   2.0000      -0.665935       -18.1210
 126   2.0000      -0.656281       -17.8583
 127   2.0000      -0.653525       -17.7833
 128   2.0000      -0.651484       -17.7278
 129   2.0000      -0.647071       -17.6077
 130   2.0000      -0.631448       -17.1826
 131   2.0000      -0.629955       -17.1420
 132   2.0000      -0.622188       -16.9306
 133   2.0000      -0.620795       -16.8927
 134   2.0000      -0.612870       -16.6770
 135   2.0000      -0.611765       -16.6470
 136   2.0000      -0.598574       -16.2880
 137   2.0000      -0.592711       -16.1285
 138   2.0000      -0.589127       -16.0310
 139   2.0000      -0.584230       -15.8977
 140   2.0000      -0.581905       -15.8345
 141   2.0000      -0.579044       -15.7566
 142   2.0000      -0.574882       -15.6433
 143   2.0000      -0.571296       -15.5458
 144   2.0000      -0.566090       -15.4041
 145   2.0000      -0.564624       -15.3642
 146   2.0000      -0.558198       -15.1893
 147   2.0000      -0.556393       -15.1402
 148   2.0000      -0.549080       -14.9412
 149   2.0000      -0.548186       -14.9169
 150   2.0000      -0.545286       -14.8380
 151   2.0000      -0.542420       -14.7600
 152   2.0000      -0.539473       -14.6798
 153   2.0000      -0.536643       -14.6028
 154   2.0000      -0.535425       -14.5697
 155   2.0000      -0.532453       -14.4888
 156   2.0000      -0.530902       -14.4466
 157   2.0000      -0.529066       -14.3966
 158   2.0000      -0.526104       -14.3160
 159   2.0000      -0.524635       -14.2760
 160   2.0000      -0.523570       -14.2471
 161   2.0000      -0.519425       -14.1343
 162   2.0000      -0.514224       -13.9927
 163   2.0000      -0.511027       -13.9057
 164   2.0000      -0.508106       -13.8263
 165   2.0000      -0.505716       -13.7612
 166   2.0000      -0.502664       -13.6782
 167   2.0000      -0.497466       -13.5367
 168   2.0000      -0.496976       -13.5234
 169   2.0000      -0.494442       -13.4545
 170   2.0000      -0.490914       -13.3584
 171   2.0000      -0.486788       -13.2462
 172   2.0000      -0.483245       -13.1498
 173   2.0000      -0.481876       -13.1125
 174   2.0000      -0.479962       -13.0604
 175   2.0000      -0.478188       -13.0122
 176   2.0000      -0.476208       -12.9583
 177   2.0000      -0.472484       -12.8569
 178   2.0000      -0.472003       -12.8439
 179   2.0000      -0.471849       -12.8397
 180   2.0000      -0.469633       -12.7794
 181   2.0000      -0.468141       -12.7388
 182   2.0000      -0.465325       -12.6621
 183   2.0000      -0.462960       -12.5978
 184   2.0000      -0.457833       -12.4583
 185   2.0000      -0.456950       -12.4342
 186   2.0000      -0.456221       -12.4144
 187   2.0000      -0.454792       -12.3755
 188   2.0000      -0.446432       -12.1480
 189   2.0000      -0.443618       -12.0715
 190   2.0000      -0.443159       -12.0590
 191   2.0000      -0.439180       -11.9507
 192   2.0000      -0.437171       -11.8960
 193   2.0000      -0.434530       -11.8242
 194   2.0000      -0.432060       -11.7569
 195   2.0000      -0.431484       -11.7413
 196   2.0000      -0.430210       -11.7066
 197   2.0000      -0.423853       -11.5336
 198   2.0000      -0.421240       -11.4625
 199   2.0000      -0.419683       -11.4202
 200   2.0000      -0.418809       -11.3964
 201   2.0000      -0.417447       -11.3593
 202   2.0000      -0.412592       -11.2272
 203   2.0000      -0.399710       -10.8766
 204   2.0000      -0.395574       -10.7641
 205   2.0000      -0.395017       -10.7490
 206   2.0000      -0.387043       -10.5320
 207   2.0000      -0.374981       -10.2038
 208   2.0000      -0.371226       -10.1016
 209   2.0000      -0.363750        -9.8981
 210   2.0000      -0.360449        -9.8083
 211   2.0000      -0.358509        -9.7555
 212   2.0000      -0.357252        -9.7213
 213   2.0000      -0.355628        -9.6771
 214   2.0000      -0.351184        -9.5562
 215   2.0000      -0.345046        -9.3892
 216   2.0000      -0.338800        -9.2192
 217   2.0000      -0.338666        -9.2156
 218   2.0000      -0.333919        -9.0864
 219   2.0000      -0.331712        -9.0264
 220   2.0000      -0.330490        -8.9931
 221   2.0000      -0.329035        -8.9535
 222   2.0000      -0.310890        -8.4597
 223   2.0000      -0.307079        -8.3560
 224   2.0000      -0.305547        -8.3143
 225   2.0000      -0.299439        -8.1481
 226   2.0000      -0.286067        -7.7843
 227   2.0000      -0.278429        -7.5764
 228   2.0000      -0.227312        -6.1855
 229   0.0000      -0.128306        -3.4914
 230   0.0000      -0.113427        -3.0865
 231   0.0000      -0.082671        -2.2496
 232   0.0000      -0.063677        -1.7327
 233   0.0000      -0.055021        -1.4972

MULLIKEN ATOMIC CHARGES
-----------------------
   0 C :    0.072953
   1 C :   -0.229057
   2 C :   -0.119555
   3 N :    0.156577
   4 S :    0.206121
   5 C :   -0.078199
   6 C :   -0.066676
   7 C :   -0.153771
   8 N :    0.188150
   9 C :    0.021886
  10 N :   -0.032742
  11 C :    0.076776
  12 C :   -0.190428
  13 C :    0.222042
  14 O :   -0.150404
  15 C :   -0.004116
  16 C :   -0.028781
  17 N :   -0.043451
  18 C :    0.094421
  19 C :   -0.098908
  20 C :    0.080296
  21 C :   -0.047623
  22 C :    0.004455
  23 C :    0.125400
  24 C :   -0.097680
  25 C :    0.058992
  26 C :   -0.063781
  27 C :   -0.017752
  28 C :    0.119132
  29 N :   -0.211631
  30 C :    0.149723
  31 N :   -0.232674
  32 C :    0.095388
  33 C :   -0.113564
  34 C :    0.116948
  35 C :   -0.031071
  36 C :    0.022380
  37 C :    0.017719
  38 C :    0.037011
  39 C :   -0.001529
  40 C :   -0.013651
  41 C :    0.009030
  42 C :   -0.043052
  43 C :    0.041162
  44 N :   -0.037804
  45 C :    0.077515
  46 C :   -0.158434
  47 C :    0.218287
  48 O :   -0.132424
  49 C :   -0.010306
  50 C :   -0.043681
  51 N :   -0.054669
  52 C :    0.089649
  53 C :   -0.097694
  54 C :    0.051604
  55 C :   -0.028271
  56 C :   -0.013404
  57 C :    0.277090
  58 C :   -0.333948
  59 C :   -0.184336
  60 N :    0.159140
  61 S :    0.235713
  62 C :   -0.044298
  63 C :   -0.137500
  64 C :   -0.149260
  65 N :    0.118561
  66 H :    0.023872
  67 H :    0.013824
  68 H :   -0.003565
  69 H :   -0.030293
  70 H :   -0.004092
  71 H :   -0.025219
  72 H :   -0.016352
  73 H :   -0.001805
  74 H :    0.006223
  75 H :    0.086732
  76 H :    0.093445
  77 H :   -0.013430
  78 H :   -0.016000
  79 H :    0.098970
  80 H :    0.093804
  81 H :    0.013715
  82 H :    0.039880
  83 H :   -0.000105
  84 H :   -0.029647
  85 H :   -0.035938
  86 H :   -0.034224
  87 H :    0.046517
  88 H :    0.004033
  89 H :    0.008875
  90 H :   -0.005013
  91 H :   -0.029867
  92 H :    0.020018
  93 H :    0.047649
Sum of atomic charges:   -0.0000000

LOEWDIN ATOMIC CHARGES
----------------------
   0 C :    0.016179
   1 C :   -0.204078
   2 C :   -0.054346
   3 N :   -0.025352
   4 S :    0.524665
   5 C :   -0.155327
   6 C :   -0.060143
   7 C :   -0.034245
   8 N :   -0.025552
   9 C :    0.047228
  10 N :   -0.068492
  11 C :    0.046520
  12 C :   -0.063263
  13 C :    0.071525
  14 O :   -0.147062
  15 C :   -0.038808
  16 C :    0.032010
  17 N :   -0.089905
  18 C :    0.079893
  19 C :   -0.030320
  20 C :   -0.017708
  21 C :   -0.073494
  22 C :    0.039289
  23 C :   -0.034717
  24 C :    0.009697
  25 C :   -0.026161
  26 C :   -0.020762
  27 C :   -0.041076
  28 C :    0.027853
  29 N :   -0.115017
  30 C :    0.029501
  31 N :   -0.120389
  32 C :   -0.019404
  33 C :    0.080502
  34 C :   -0.030154
  35 C :   -0.025178
  36 C :   -0.010121
  37 C :   -0.037438
  38 C :   -0.027512
  39 C :   -0.004876
  40 C :   -0.026151
  41 C :    0.093244
  42 C :   -0.071612
  43 C :    0.078059
  44 N :   -0.108796
  45 C :    0.047856
  46 C :   -0.033228
  47 C :    0.066777
  48 O :   -0.134736
  49 C :   -0.040809
  50 C :    0.019669
  51 N :   -0.096573
  52 C :    0.072511
  53 C :   -0.036483
  54 C :   -0.033505
  55 C :   -0.014649
  56 C :    0.003454
  57 C :   -0.003125
  58 C :   -0.217032
  59 C :   -0.060206
  60 N :   -0.025502
  61 S :    0.515513
  62 C :   -0.125485
  63 C :   -0.104200
  64 C :   -0.022284
  65 N :   -0.060995
  66 H :    0.054224
  67 H :    0.025532
  68 H :    0.035026
  69 H :    0.003219
  70 H :    0.033524
  71 H :    0.028317
  72 H :    0.028752
  73 H :    0.001104
  74 H :    0.022335
  75 H :    0.049270
  76 H :    0.055929
  77 H :    0.000343
  78 H :    0.012236
  79 H :    0.052527
  80 H :    0.055526
  81 H :    0.038284
  82 H :    0.057394
  83 H :    0.028801
  84 H :    0.032624
  85 H :    0.028400
  86 H :    0.023185
  87 H :    0.044072
  88 H :    0.033256
  89 H :    0.023402
  90 H :    0.034694
  91 H :    0.031087
  92 H :    0.040560
  93 H :    0.040705

  Mayer bond orders larger than 0.100000
B(  0-C ,  1-C ) :   1.5129 B(  0-C ,  6-C ) :   1.2943 B(  0-C , 66-H ) :   1.0104
B(  1-C ,  2-C ) :   1.1450 B(  1-C ,  4-S ) :   1.1496 B(  1-C ,  5-C ) :   0.1060
B(  2-C ,  3-N ) :   3.0248 B(  4-S ,  5-C ) :   1.1569 B(  5-C ,  6-C ) :   1.4581
B(  5-C ,  9-C ) :   1.0767 B(  6-C ,  7-C ) :   1.1217 B(  7-C ,  8-N ) :   3.0212
B(  9-C , 10-N ) :   1.6362 B(  9-C , 11-C ) :   0.1261 B(  9-C , 20-C ) :   1.0298
B( 10-N , 11-C ) :   1.3448 B( 11-C , 12-C ) :   1.0660 B( 11-C , 16-C ) :   1.4170
B( 12-C , 13-C ) :   0.9017 B( 12-C , 20-C ) :   1.5243 B( 13-C , 14-O ) :   2.1644
B( 13-C , 15-C ) :   0.9337 B( 14-O , 70-H ) :   0.1136 B( 15-C , 16-C ) :   1.0650
B( 15-C , 19-C ) :   1.6078 B( 16-C , 17-N ) :   1.3099 B( 17-N , 18-C ) :   1.6600
B( 18-C , 19-C ) :   1.0553 B( 18-C , 67-H ) :   0.9896 B( 19-C , 68-H ) :   1.0123
B( 20-C , 21-C ) :   1.1276 B( 21-C , 22-C ) :   1.6321 B( 21-C , 69-H ) :   0.9463
B( 22-C , 23-C ) :   1.0859 B( 22-C , 70-H ) :   0.9725 B( 23-C , 24-C ) :   1.4732
B( 23-C , 40-C ) :   1.1214 B( 24-C , 25-C ) :   1.1193 B( 24-C , 71-H ) :   1.0044
B( 25-C , 26-C ) :   1.4307 B( 25-C , 38-C ) :   1.1267 B( 26-C , 27-C ) :   1.0434
B( 26-C , 32-C ) :   1.1273 B( 27-C , 28-C ) :   1.0254 B( 27-C , 30-C ) :   1.0321
B( 27-C , 72-H ) :   0.8716 B( 28-C , 29-N ) :   1.1081 B( 28-C , 73-H ) :   0.9283
B( 28-C , 74-H ) :   0.9485 B( 29-N , 75-H ) :   0.9708 B( 29-N , 76-H ) :   0.9679
B( 30-C , 31-N ) :   1.0929 B( 30-C , 77-H ) :   0.9346 B( 30-C , 78-H ) :   0.9357
B( 31-N , 79-H ) :   0.9688 B( 31-N , 80-H ) :   0.9667 B( 32-C , 33-C ) :   1.6549
B( 32-C , 37-C ) :   1.0376 B( 33-C , 34-C ) :   0.9622 B( 33-C , 81-H ) :   0.9773
B( 34-C , 35-C ) :   0.9841 B( 34-C , 41-C ) :   0.9321 B( 34-C , 82-H ) :   0.8848
B( 35-C , 36-C ) :   1.6937 B( 35-C , 83-H ) :   0.9663 B( 36-C , 37-C ) :   1.1464
B( 36-C , 84-H ) :   0.9896 B( 37-C , 38-C ) :   1.4240 B( 38-C , 39-C ) :   1.1458
B( 39-C , 40-C ) :   1.6186 B( 39-C , 85-H ) :   0.9893 B( 40-C , 86-H ) :   0.9829
B( 41-C , 42-C ) :   1.7299 B( 41-C , 87-H ) :   0.9637 B( 42-C , 43-C ) :   1.1275
B( 42-C , 88-H ) :   0.9581 B( 43-C , 44-N ) :   1.5966 B( 43-C , 45-C ) :   0.1117
B( 43-C , 54-C ) :   1.0010 B( 44-N , 45-C ) :   1.3639 B( 45-C , 46-C ) :   1.0490
B( 45-C , 50-C ) :   1.4037 B( 46-C , 47-C ) :   0.8901 B( 46-C , 54-C ) :   1.5639
B( 47-C , 48-O ) :   2.1926 B( 47-C , 49-C ) :   0.9304 B( 48-O , 92-H ) :   0.1021
B( 49-C , 50-C ) :   1.0724 B( 49-C , 53-C ) :   1.5915 B( 50-C , 51-N ) :   1.3216
B( 51-N , 52-C ) :   1.6457 B( 52-C , 53-C ) :   1.0790 B( 52-C , 89-H ) :   0.9891
B( 53-C , 90-H ) :   1.0115 B( 54-C , 55-C ) :   1.1176 B( 55-C , 56-C ) :   1.6774
B( 55-C , 91-H ) :   0.9472 B( 56-C , 57-C ) :   1.1213 B( 56-C , 92-H ) :   0.9399
B( 57-C , 58-C ) :   1.4437 B( 57-C , 63-C ) :   1.1998 B( 58-C , 59-C ) :   1.2078
B( 58-C , 61-S ) :   1.1442 B( 59-C , 60-N ) :   3.0001 B( 61-S , 62-C ) :   1.2031
B( 62-C , 63-C ) :   1.5610 B( 62-C , 93-H ) :   0.9710 B( 63-C , 64-C ) :   1.0938
B( 64-C , 65-N ) :   2.9976

-----------------------------------------------------------------------------
         ABSORPTION SPECTRUM VIA TRANSITION ELECTRIC DIPOLE MOMENTS
-----------------------------------------------------------------------------
State   Energy  Wavelength   fosc         T2         TX        TY        TZ
        (cm-1)    (nm)                  (au**2)     (au)      (au)      (au)
-----------------------------------------------------------------------------
   0    8898.0   1123.8   0.090039194   3.33130  -0.94009  -0.02724  -1.56422
   1   11961.4    836.0   0.174316971   4.79770  -1.67588   0.77005  -1.18159
   2   13877.4    720.6   0.085704228   2.03315  -1.04744  -0.86435  -0.43466
   3   16400.9    609.7   0.008616766   0.17296   0.09952   0.28927   0.28175
   4   19565.2    511.1   0.077900030   1.31078   0.55697  -0.44290  -0.89689
   5   20566.3    486.2   0.000533528   0.00854  -0.07881   0.01439   0.04607
   6   21638.2    462.1   0.438317971   6.66874  -1.23432   0.56190  -2.19760
   7   21963.2    455.3   0.000591083   0.00886  -0.03422   0.08473   0.02257
   8   23524.0    425.1   0.620350684   8.68164  -1.13549  -2.57335  -0.87761
   9   23950.0    417.5   0.001747810   0.02403   0.04253   0.14479   0.03540
  10   24307.9    411.4   0.005518913   0.07474   0.09901   0.08662  -0.23967
  11   24547.2    407.4   0.434249833   5.82390  -1.49549   1.80315  -0.57968
  12   24590.1    406.7   0.259736888   3.47735  -1.59016  -0.88838  -0.39940
  13   25148.9    397.6   0.451979672   5.91665   0.80832   0.11540   2.29128
  14   25621.1    390.3   0.057319498   0.73651  -0.63659   0.56779   0.09426
  15   25798.7    387.6   0.020487157   0.26143  -0.47150  -0.11982  -0.15735
  16   25876.5    386.5   0.167792532   2.13473   1.36358  -0.12053   0.51073
  17   26164.9    382.2   0.000420130   0.00529   0.01414  -0.05770  -0.04191
  18   26254.4    380.9   0.201158289   2.52238  -0.80437   0.86585   1.06098
  19   26720.1    374.3   0.223627012   2.75526   0.08744   0.05382  -1.65672
  20   27262.5    366.8   0.071509773   0.86353  -0.41402  -0.21872  -0.80267
  21   27575.7    362.6   0.003517668   0.04200  -0.11575  -0.11543   0.12359
  22   28074.2    356.2   0.007425945   0.08708   0.01335   0.07823   0.28422
  23   28927.9    345.7   0.023036715   0.26217   0.16397  -0.12268   0.46929
  24   29154.8    343.0   0.001278440   0.01444   0.10354  -0.03883  -0.04700
  25   29773.8    335.9   0.046423313   0.51331   0.08729   0.68981   0.17275
  26   30059.6    332.7   0.480137284   5.25845   0.40612  -0.70359  -2.14441
  27   30543.2    327.4   0.016963809   0.18285  -0.11369   0.19466   0.36336
  28   30754.9    325.2   0.000070040   0.00075   0.02563   0.00423   0.00866
  29   30872.9    323.9   0.035479309   0.37833   0.02944  -0.05049  -0.61230
  30   30925.9    323.4   0.000679861   0.00724   0.07529   0.03049  -0.02527
  31   31003.2    322.5   0.029191437   0.30997  -0.15189  -0.21692  -0.48974
  32   31106.7    321.5   0.254665375   2.69520   0.43646   0.54597   1.48547
  33   31606.5    316.4   0.054805312   0.57085   0.37289   0.27300   0.59772
  34   32136.7    311.2   0.141901803   1.45366  -0.53614  -0.18295  -1.06430
  35   32345.3    309.2   0.175645799   1.78773   0.63397   0.35598   1.12209
  36   33134.7    301.8   0.055451707   0.55094   0.09188  -0.69998   0.22919
  37   33275.2    300.5   0.007984169   0.07899   0.01227  -0.01436  -0.28042
  38   33584.4    297.8   0.019094786   0.18718   0.09590  -0.26164   0.33094
  39   33787.4    296.0   0.007845033   0.07644   0.03890   0.26740  -0.05850
  40   34441.3    290.3   0.073346031   0.70109   0.74872   0.36104   0.10079
  41   34642.8    288.7   0.205843014   1.95613  -0.69146   1.20922   0.12577
  42   34734.1    287.9   0.006902749   0.06542   0.02197  -0.18439   0.17590
  43   34819.0    287.2   0.243017346   2.29772  -0.40573  -1.41843   0.34809
  44   35218.6    283.9   0.236466427   2.21041  -0.55905  -0.14769  -1.36969
  45   35851.7    278.9   0.146061686   1.34123   1.08615  -0.33844   0.21669
  46   36298.1    275.5   0.024782432   0.22477   0.17827   0.42732   0.10192
  47   36373.3    274.9   0.009770159   0.08843   0.05618  -0.15188   0.24941
  48   36466.3    274.2   0.028534499   0.25761  -0.40601  -0.25421  -0.16775
  49   37133.9    269.3   0.215239391   1.90821   1.20561  -0.67368  -0.02960
  50   37506.2    266.6   0.068581610   0.60198   0.50089  -0.31149  -0.50404
  51   37672.3    265.4   0.000262548   0.00229   0.00476   0.02714   0.03918
  52   38107.2    262.4   0.024031227   0.20761  -0.03390   0.09323  -0.44471
  53   38196.6    261.8   0.000598056   0.00515   0.06580  -0.02869  -0.00141
  54   38476.6    259.9   0.264341980   2.26175   0.85024  -0.34448   1.19171
  55   38787.5    257.8   0.059632531   0.50614   0.17555  -0.09782   0.68246
  56   39129.8    255.6   0.079588921   0.66961   0.66489  -0.11914   0.46188
  57   39258.7    254.7   0.002992619   0.02510   0.03061   0.13089   0.08382
  58   39733.1    251.7   0.000240919   0.00200  -0.04013   0.01803  -0.00780
  59   39829.1    251.1   0.051588660   0.42641  -0.45554  -0.46070   0.08156
  60   40310.6    248.1   0.001281098   0.01046   0.09312  -0.03893   0.01661

FINAL SINGLE POINT ENERGY     -3488.764485155186

DIPOLE MOMENT
-------------
                                X             Y             Z
Electronic contribution:    -16.99328     -33.11876       4.43005
Nuclear contribution   :     18.20502      33.79754      -6.56812
                        -----------------------------------------
Total Dipole Moment    :      1.21175       0.67878      -2.13807
                        -----------------------------------------
Magnitude (a.u.)       :      2.54959
Magnitude (Debye)      :      6.48055

Rotational constants in cm-1:     0.001882     0.000290     0.000280
Rotational constants in MHz :    56.407702     8.682721     8.397513

                             ****ORCA TERMINATED NORMALLY****
TOTAL RUN TIME: 0 days 0 hours 8 minutes 47 seconds 758 msec
