                         Program Version 4.2.0 -  RELEASE  -
|  1> # ORCA input file
|  2> # SCF done       -175.660445279259          0.000590942718
|  3> ! CAM-B3LYP def2-SVP def2/J RIJCOSX Grid4 TightSCF
|  4> %maxcore 5000
|  5> %tddft
|  6>     Mode sTDDFT
|  7>     Ethresh 5.0
|  8>     maxcore 5000
|  9> end
| 10>
| 11> %pal
| 12>   nprocs 6
| 13>   end
| 14> * xyz 0 1
| 15>    C        2.36047         0.11069         6.53162
| 16>    C        2.18166         1.38885         6.07595
| 17>    C        0.96910         2.03874         5.83719
| 18>    N       -0.02982         2.57016         5.64600
| 19>    S        3.70015         2.19382         5.78314
| 20>    C        4.59076         0.80353         6.28802
| 21>    C        3.72407        -0.22667         6.65259
| 22>    C        4.16600        -1.51227         6.99668
| 23>    N        4.51048        -2.58143         7.23799
| 24>    C        6.02006         0.70970         6.38528
| 25>    C        6.63697        -0.01953         7.37776
| 26>    C        8.03807        -0.10546         7.08819
| 27>    C        8.96072        -0.78523         7.88194
| 28>    N        9.69160        -1.40514         8.51869
| 29>    C        8.26804         0.51424         5.87941
| 30>    C        7.03284         1.05511         5.40163
| 31>    C        6.90103         1.71138         4.17482
| 32>    C        7.70178         1.38451         2.95917
| 33>    C        7.46787         2.38611         2.03702
| 34>    C        6.52406         3.28670         2.59010
| 35>    C        6.15225         2.84855         3.86687
| 36>    C        6.04639         4.44115         1.95932
| 37>    N        5.65572         5.38609         1.43632
| 38>    C        8.39504         0.18488         2.70990
| 39>    C        8.26900        -0.95788         3.44795
| 40>    C        9.02900        -2.15834         3.33785
| 41>    C        8.91467        -3.07445         4.38044
| 42>    C        9.64568        -4.26225         4.35546
| 43>    C        9.71698        -5.30962         5.28092
| 44>    C        9.15930        -5.39572         6.65148
| 45>    C       10.05264        -4.54614         7.59866
| 46>    N        9.77406        -4.88919         8.97371
| 47>    C        7.65645        -5.04635         6.78121
| 48>    N        7.37972        -3.62562         6.88651
| 49>    C       10.58508        -6.30771         4.69742
| 50>    C       10.95342        -7.52555         5.14087
| 51>    C       11.85361        -8.40561         4.34574
| 52>    C       12.31685        -7.81486         3.05610
| 53>    C       11.93177        -6.60077         2.62032
| 54>    C       11.05743        -5.80802         3.40229
| 55>    C       10.48712        -4.56236         3.20827
| 56>    C       10.59599        -3.61384         2.16648
| 57>    C        9.90744        -2.44412         2.24433
| 58>    C       12.97996        -8.86213         5.24917
| 59>    C       14.25143        -8.49393         5.11755
| 60>    C       15.30205        -8.94274         6.00595
| 61>    C       15.21107        -9.13858         7.34640
| 62>    C       16.52410        -9.50526         7.85619
| 63>    C       16.79963        -9.83197         9.18918
| 64>    N       17.02680       -10.10394        10.28127
| 65>    C       17.41905        -9.48411         6.82627
| 66>    C       16.70684        -9.14568         5.61839
| 67>    C       17.21682        -9.13840         4.34270
| 68>    C       18.63792        -9.08513         3.93655
| 69>    C       18.69803        -9.40011         2.60935
| 70>    C       17.35413        -9.61122         2.12438
| 71>    C       16.46711        -9.40331         3.15130
| 72>    C       17.02025        -9.96458         0.81071
| 73>    N       16.73703       -10.24385        -0.26629
| 74>    C       19.74004        -8.62610         4.72254
| 75>    C       19.61022        -7.79741         5.77955
| 76>    C       20.65696        -7.33623         6.64153
| 77>    C       20.36459        -6.60661         7.78782
| 78>    C       19.08162        -6.26045         8.21185
| 79>    N       18.00975        -5.99545         8.52816
| 80>    S       21.77690        -6.17830         8.69932
| 81>    C       22.77180        -6.96498         7.55736
| 82>    C       22.07006        -7.53637         6.52718
| 83>    C       22.72926        -8.22080         5.48909
| 84>    N       23.30197        -8.76921         4.66061
| 85>    H        1.55230        -0.56128         6.76043
| 86>    H        6.16839        -0.43736         8.24915
| 87>    H        9.22166         0.65455         5.40758
| 88>    H        7.87425         2.45212         1.04525
| 89>    H        5.52763         3.40280         4.53973
| 90>    H        9.03507         0.19238         1.83589
| 91>    H        7.51930        -0.98137         4.22568
| 92>    H        8.27140        -2.87579         5.22811
| 93>    H        9.26215        -6.43017         6.99347
| 94>    H        9.91073        -3.48331         7.36099
| 95>    H       11.09619        -4.80119         7.39279
| 96>    H        8.91040        -4.46624         9.29234
| 97>    H       10.51837        -4.57550         9.58298
| 98>    H        7.27517        -5.60845         7.64736
| 99>    H        7.14112        -5.41715         5.89030
|100>    H        7.71465        -3.25472         7.76891
|101>    H        6.37719        -3.45944         6.84892
|102>    H       10.61745        -7.91297         6.09278
|103>    H       11.27686        -9.31548         4.10268
|104>    H       12.96856        -8.43489         2.45865
|105>    H       12.27808        -6.22043         1.67058
|106>    H       11.22722        -3.82667         1.31627
|107>    H        9.99441        -1.72029         1.44869
|108>    H       12.68636        -9.52816         6.04835
|109>    H       14.54726        -7.83228         4.31440
|110>    H       14.34151        -9.01940         7.96463
|111>    H       18.44896        -9.77923         6.87577
|112>    H       19.57852        -9.44040         1.99586
|113>    H       15.40765        -9.56582         3.10845
|114>    H       20.72040        -8.93251         4.38407
|115>    H       18.62654        -7.43431         6.04956
|116>    H       23.83663        -6.97593         7.68982
|117> *
|118>
|119>                          ****END OF INPUT****

CARTESIAN COORDINATES (ANGSTROEM)
---------------------------------
  C      2.360470    0.110690    6.531620
  C      2.181660    1.388850    6.075950
  C      0.969100    2.038740    5.837190
  N     -0.029820    2.570160    5.646000
  S      3.700150    2.193820    5.783140
  C      4.590760    0.803530    6.288020
  C      3.724070   -0.226670    6.652590
  C      4.166000   -1.512270    6.996680
  N      4.510480   -2.581430    7.237990
  C      6.020060    0.709700    6.385280
  C      6.636970   -0.019530    7.377760
  C      8.038070   -0.105460    7.088190
  C      8.960720   -0.785230    7.881940
  N      9.691600   -1.405140    8.518690
  C      8.268040    0.514240    5.879410
  C      7.032840    1.055110    5.401630
  C      6.901030    1.711380    4.174820
  C      7.701780    1.384510    2.959170
  C      7.467870    2.386110    2.037020
  C      6.524060    3.286700    2.590100
  C      6.152250    2.848550    3.866870
  C      6.046390    4.441150    1.959320
  N      5.655720    5.386090    1.436320
  C      8.395040    0.184880    2.709900
  C      8.269000   -0.957880    3.447950
  C      9.029000   -2.158340    3.337850
  C      8.914670   -3.074450    4.380440
  C      9.645680   -4.262250    4.355460
  C      9.716980   -5.309620    5.280920
  C      9.159300   -5.395720    6.651480
  C     10.052640   -4.546140    7.598660
  N      9.774060   -4.889190    8.973710
  C      7.656450   -5.046350    6.781210
  N      7.379720   -3.625620    6.886510
  C     10.585080   -6.307710    4.697420
  C     10.953420   -7.525550    5.140870
  C     11.853610   -8.405610    4.345740
  C     12.316850   -7.814860    3.056100
  C     11.931770   -6.600770    2.620320
  C     11.057430   -5.808020    3.402290
  C     10.487120   -4.562360    3.208270
  C     10.595990   -3.613840    2.166480
  C      9.907440   -2.444120    2.244330
  C     12.979960   -8.862130    5.249170
  C     14.251430   -8.493930    5.117550
  C     15.302050   -8.942740    6.005950
  C     15.211070   -9.138580    7.346400
  C     16.524100   -9.505260    7.856190
  C     16.799630   -9.831970    9.189180
  N     17.026800  -10.103940   10.281270
  C     17.419050   -9.484110    6.826270
  C     16.706840   -9.145680    5.618390
  C     17.216820   -9.138400    4.342700
  C     18.637920   -9.085130    3.936550
  C     18.698030   -9.400110    2.609350
  C     17.354130   -9.611220    2.124380
  C     16.467110   -9.403310    3.151300
  C     17.020250   -9.964580    0.810710
  N     16.737030  -10.243850   -0.266290
  C     19.740040   -8.626100    4.722540
  C     19.610220   -7.797410    5.779550
  C     20.656960   -7.336230    6.641530
  C     20.364590   -6.606610    7.787820
  C     19.081620   -6.260450    8.211850
  N     18.009750   -5.995450    8.528160
  S     21.776900   -6.178300    8.699320
  C     22.771800   -6.964980    7.557360
  C     22.070060   -7.536370    6.527180
  C     22.729260   -8.220800    5.489090
  N     23.301970   -8.769210    4.660610
  H      1.552300   -0.561280    6.760430
  H      6.168390   -0.437360    8.249150
  H      9.221660    0.654550    5.407580
  H      7.874250    2.452120    1.045250
  H      5.527630    3.402800    4.539730
  H      9.035070    0.192380    1.835890
  H      7.519300   -0.981370    4.225680
  H      8.271400   -2.875790    5.228110
  H      9.262150   -6.430170    6.993470
  H      9.910730   -3.483310    7.360990
  H     11.096190   -4.801190    7.392790
  H      8.910400   -4.466240    9.292340
  H     10.518370   -4.575500    9.582980
  H      7.275170   -5.608450    7.647360
  H      7.141120   -5.417150    5.890300
  H      7.714650   -3.254720    7.768910
  H      6.377190   -3.459440    6.848920
  H     10.617450   -7.912970    6.092780
  H     11.276860   -9.315480    4.102680
  H     12.968560   -8.434890    2.458650
  H     12.278080   -6.220430    1.670580
  H     11.227220   -3.826670    1.316270
  H      9.994410   -1.720290    1.448690
  H     12.686360   -9.528160    6.048350
  H     14.547260   -7.832280    4.314400
  H     14.341510   -9.019400    7.964630
  H     18.448960   -9.779230    6.875770
  H     19.578520   -9.440400    1.995860
  H     15.407650   -9.565820    3.108450
  H     20.720400   -8.932510    4.384070
  H     18.626540   -7.434310    6.049560
  H     23.836630   -6.975930    7.689820

 Total Charge           Charge          ....    0
 Multiplicity           Mult            ....    1
 Number of Electrons    NEL             ....  482
 Basis Dimension        Dim             .... 1148

ORBITAL ENERGIES
----------------

  NO   OCC          E(Eh)            E(eV)
   0   2.0000     -89.010767     -2422.1061
   1   2.0000     -88.996827     -2421.7268
   2   2.0000     -14.431668      -392.7057
   3   2.0000     -14.430775      -392.6814
   4   2.0000     -14.425317      -392.5328
   5   2.0000     -14.422037      -392.4436
   6   2.0000     -14.417698      -392.3255
   7   2.0000     -14.416261      -392.2864
   8   2.0000     -14.414436      -392.2368
   9   2.0000     -14.406669      -392.0254
  10   2.0000     -14.381994      -391.3540
  11   2.0000     -14.376452      -391.2031
  12   2.0000     -10.357850      -281.8514
  13   2.0000     -10.353634      -281.7367
  14   2.0000     -10.350745      -281.6581
  15   2.0000     -10.346660      -281.5469
  16   2.0000     -10.346054      -281.5304
  17   2.0000     -10.341211      -281.3987
  18   2.0000     -10.337925      -281.3092
  19   2.0000     -10.336083      -281.2591
  20   2.0000     -10.335098      -281.2323
  21   2.0000     -10.332962      -281.1742
  22   2.0000     -10.332083      -281.1503
  23   2.0000     -10.330294      -281.1016
  24   2.0000     -10.330105      -281.0965
  25   2.0000     -10.328116      -281.0423
  26   2.0000     -10.326596      -281.0010
  27   2.0000     -10.321534      -280.8632
  28   2.0000     -10.321080      -280.8509
  29   2.0000     -10.320152      -280.8256
  30   2.0000     -10.318778      -280.7882
  31   2.0000     -10.318431      -280.7788
  32   2.0000     -10.315924      -280.7106
  33   2.0000     -10.314347      -280.6677
  34   2.0000     -10.313375      -280.6412
  35   2.0000     -10.312134      -280.6074
  36   2.0000     -10.311621      -280.5935
  37   2.0000     -10.311480      -280.5896
  38   2.0000     -10.311105      -280.5794
  39   2.0000     -10.310168      -280.5539
  40   2.0000     -10.309477      -280.5351
  41   2.0000     -10.308966      -280.5212
  42   2.0000     -10.308715      -280.5144
  43   2.0000     -10.308006      -280.4951
  44   2.0000     -10.306598      -280.4568
  45   2.0000     -10.305702      -280.4324
  46   2.0000     -10.305564      -280.4287
  47   2.0000     -10.304116      -280.3892
  48   2.0000     -10.303651      -280.3766
  49   2.0000     -10.302390      -280.3423
  50   2.0000     -10.300088      -280.2796
  51   2.0000     -10.299193      -280.2553
  52   2.0000     -10.296895      -280.1928
  53   2.0000     -10.295662      -280.1592
  54   2.0000     -10.290310      -280.0136
  55   2.0000     -10.288972      -279.9772
  56   2.0000     -10.288693      -279.9696
  57   2.0000     -10.287940      -279.9491
  58   2.0000     -10.285396      -279.8799
  59   2.0000     -10.282988      -279.8143
  60   2.0000     -10.282357      -279.7971
  61   2.0000     -10.282308      -279.7958
  62   2.0000     -10.281730      -279.7801
  63   2.0000     -10.280791      -279.7546
  64   2.0000     -10.279827      -279.7283
  65   2.0000     -10.279427      -279.7174
  66   2.0000     -10.275979      -279.6236
  67   2.0000     -10.275274      -279.6044
  68   2.0000     -10.274537      -279.5844
  69   2.0000     -10.271166      -279.4926
  70   2.0000      -8.106272      -220.5829
  71   2.0000      -8.091656      -220.1851
  72   2.0000      -6.075598      -165.3254
  73   2.0000      -6.071037      -165.2013
  74   2.0000      -6.068626      -165.1357
  75   2.0000      -6.061004      -164.9283
  76   2.0000      -6.056537      -164.8068
  77   2.0000      -6.053923      -164.7356
  78   2.0000      -1.045712       -28.4553
  79   2.0000      -1.034036       -28.1376
  80   2.0000      -1.026428       -27.9305
  81   2.0000      -1.016103       -27.6496
  82   2.0000      -1.011396       -27.5215
  83   2.0000      -1.010876       -27.5073
  84   2.0000      -1.007651       -27.4196
  85   2.0000      -1.005340       -27.3567
  86   2.0000      -1.000567       -27.2268
  87   2.0000      -0.998410       -27.1681
  88   2.0000      -0.997941       -27.1554
  89   2.0000      -0.993049       -27.0222
  90   2.0000      -0.988315       -26.8934
  91   2.0000      -0.988235       -26.8913
  92   2.0000      -0.975975       -26.5576
  93   2.0000      -0.972554       -26.4645
  94   2.0000      -0.960976       -26.1495
  95   2.0000      -0.948434       -25.8082
  96   2.0000      -0.936978       -25.4965
  97   2.0000      -0.935345       -25.4520
  98   2.0000      -0.906621       -24.6704
  99   2.0000      -0.900789       -24.5117
 100   2.0000      -0.897204       -24.4142
 101   2.0000      -0.895664       -24.3723
 102   2.0000      -0.891826       -24.2678
 103   2.0000      -0.883883       -24.0517
 104   2.0000      -0.883749       -24.0480
 105   2.0000      -0.877350       -23.8739
 106   2.0000      -0.868689       -23.6382
 107   2.0000      -0.852397       -23.1949
 108   2.0000      -0.844695       -22.9853
 109   2.0000      -0.839868       -22.8540
 110   2.0000      -0.830216       -22.5913
 111   2.0000      -0.826302       -22.4848
 112   2.0000      -0.820451       -22.3256
 113   2.0000      -0.809356       -22.0237
 114   2.0000      -0.800031       -21.7700
 115   2.0000      -0.793642       -21.5961
 116   2.0000      -0.768134       -20.9020
 117   2.0000      -0.767797       -20.8928
 118   2.0000      -0.753291       -20.4981
 119   2.0000      -0.749089       -20.3838
 120   2.0000      -0.738972       -20.1084
 121   2.0000      -0.735265       -20.0076
 122   2.0000      -0.733923       -19.9711
 123   2.0000      -0.733075       -19.9480
 124   2.0000      -0.726339       -19.7647
 125   2.0000      -0.721499       -19.6330
 126   2.0000      -0.716600       -19.4997
 127   2.0000      -0.709551       -19.3079
 128   2.0000      -0.693074       -18.8595
 129   2.0000      -0.692490       -18.8436
 130   2.0000      -0.680379       -18.5141
 131   2.0000      -0.669562       -18.2197
 132   2.0000      -0.667198       -18.1554
 133   2.0000      -0.659294       -17.9403
 134   2.0000      -0.649818       -17.6825
 135   2.0000      -0.647993       -17.6328
 136   2.0000      -0.643097       -17.4996
 137   2.0000      -0.639431       -17.3998
 138   2.0000      -0.633512       -17.2388
 139   2.0000      -0.628822       -17.1111
 140   2.0000      -0.612460       -16.6659
 141   2.0000      -0.608746       -16.5648
 142   2.0000      -0.607044       -16.5185
 143   2.0000      -0.605542       -16.4776
 144   2.0000      -0.597869       -16.2688
 145   2.0000      -0.591779       -16.1031
 146   2.0000      -0.591197       -16.0873
 147   2.0000      -0.587755       -15.9936
 148   2.0000      -0.577962       -15.7271
 149   2.0000      -0.575924       -15.6717
 150   2.0000      -0.565795       -15.3961
 151   2.0000      -0.564574       -15.3628
 152   2.0000      -0.562745       -15.3131
 153   2.0000      -0.555220       -15.1083
 154   2.0000      -0.550365       -14.9762
 155   2.0000      -0.546928       -14.8827
 156   2.0000      -0.545011       -14.8305
 157   2.0000      -0.543045       -14.7770
 158   2.0000      -0.540014       -14.6945
 159   2.0000      -0.535716       -14.5776
 160   2.0000      -0.534131       -14.5344
 161   2.0000      -0.532175       -14.4812
 162   2.0000      -0.527389       -14.3510
 163   2.0000      -0.524941       -14.2844
 164   2.0000      -0.523095       -14.2341
 165   2.0000      -0.522324       -14.2132
 166   2.0000      -0.520181       -14.1549
 167   2.0000      -0.518240       -14.1020
 168   2.0000      -0.517358       -14.0780
 169   2.0000      -0.515873       -14.0376
 170   2.0000      -0.512933       -13.9576
 171   2.0000      -0.509430       -13.8623
 172   2.0000      -0.507711       -13.8155
 173   2.0000      -0.505315       -13.7503
 174   2.0000      -0.504425       -13.7261
 175   2.0000      -0.503541       -13.7020
 176   2.0000      -0.501053       -13.6344
 177   2.0000      -0.497556       -13.5392
 178   2.0000      -0.497079       -13.5262
 179   2.0000      -0.492733       -13.4079
 180   2.0000      -0.491403       -13.3718
 181   2.0000      -0.489307       -13.3147
 182   2.0000      -0.488370       -13.2892
 183   2.0000      -0.480951       -13.0873
 184   2.0000      -0.479149       -13.0383
 185   2.0000      -0.476634       -12.9699
 186   2.0000      -0.475727       -12.9452
 187   2.0000      -0.473544       -12.8858
 188   2.0000      -0.468119       -12.7382
 189   2.0000      -0.466985       -12.7073
 190   2.0000      -0.464544       -12.6409
 191   2.0000      -0.459374       -12.5002
 192   2.0000      -0.457694       -12.4545
 193   2.0000      -0.457572       -12.4512
 194   2.0000      -0.454404       -12.3650
 195   2.0000      -0.453075       -12.3288
 196   2.0000      -0.451764       -12.2931
 197   2.0000      -0.449269       -12.2252
 198   2.0000      -0.448170       -12.1953
 199   2.0000      -0.446525       -12.1506
 200   2.0000      -0.444882       -12.1058
 201   2.0000      -0.443969       -12.0810
 202   2.0000      -0.442455       -12.0398
 203   2.0000      -0.441193       -12.0055
 204   2.0000      -0.440736       -11.9930
 205   2.0000      -0.439102       -11.9486
 206   2.0000      -0.436848       -11.8872
 207   2.0000      -0.433830       -11.8051
 208   2.0000      -0.430821       -11.7232
 209   2.0000      -0.429054       -11.6752
 210   2.0000      -0.428326       -11.6553
 211   2.0000      -0.427022       -11.6199
 212   2.0000      -0.421589       -11.4720
 213   2.0000      -0.421462       -11.4686
 214   2.0000      -0.417072       -11.3491
 215   2.0000      -0.416471       -11.3328
 216   2.0000      -0.413060       -11.2399
 217   2.0000      -0.412409       -11.2222
 218   2.0000      -0.410549       -11.1716
 219   2.0000      -0.408432       -11.1140
 220   2.0000      -0.406495       -11.0613
 221   2.0000      -0.406271       -11.0552
 222   2.0000      -0.395190       -10.7537
 223   2.0000      -0.383113       -10.4250
 224   2.0000      -0.380925       -10.3655
 225   2.0000      -0.372327       -10.1315
 226   2.0000      -0.359512        -9.7828
 227   2.0000      -0.356583        -9.7031
 228   2.0000      -0.345627        -9.4050
 229   2.0000      -0.342805        -9.3282
 230   2.0000      -0.341250        -9.2859
 231   2.0000      -0.335910        -9.1406
 232   2.0000      -0.329782        -8.9738
 233   2.0000      -0.316422        -8.6103
 234   2.0000      -0.308365        -8.3910
 235   2.0000      -0.304750        -8.2927
 236   2.0000      -0.297511        -8.0957
 237   2.0000      -0.289786        -7.8855
 238   2.0000      -0.289195        -7.8694
 239   2.0000      -0.268241        -7.2992
 240   2.0000      -0.229329        -6.2404
 241   0.0000      -0.136350        -3.7103
 242   0.0000      -0.133287        -3.6269
 243   0.0000      -0.081677        -2.2225
 244   0.0000      -0.064796        -1.7632
 245   0.0000      -0.047186        -1.2840

MULLIKEN ATOMIC CHARGES
-----------------------
   0 C :    0.082751
   1 C :   -0.258616
   2 C :   -0.125143
   3 N :    0.144184
   4 S :    0.216884
   5 C :   -0.073986
   6 C :   -0.078152
   7 C :   -0.145120
   8 N :    0.109876
   9 C :    0.054160
  10 C :   -0.044484
  11 C :   -0.115579
  12 C :   -0.097457
  13 N :    0.096128
  14 C :   -0.049435
  15 C :    0.013125
  16 C :    0.053042
  17 C :    0.097890
  18 C :   -0.051682
  19 C :   -0.083325
  20 C :   -0.059306
  21 C :   -0.126706
  22 N :    0.147443
  23 C :    0.003167
  24 C :    0.012189
  25 C :    0.093159
  26 C :   -0.037692
  27 C :    0.025697
  28 C :   -0.001296
  29 C :   -0.006242
  30 C :    0.100766
  31 N :   -0.204812
  32 C :    0.113805
  33 N :   -0.232294
  34 C :    0.085643
  35 C :   -0.104020
  36 C :    0.181765
  37 C :   -0.074076
  38 C :    0.025199
  39 C :    0.011440
  40 C :    0.045490
  41 C :   -0.003310
  42 C :   -0.006845
  43 C :   -0.110174
  44 C :    0.014550
  45 C :    0.081194
  46 C :   -0.002296
  47 C :   -0.092326
  48 C :   -0.129762
  49 N :    0.146764
  50 C :   -0.033603
  51 C :    0.045173
  52 C :    0.036887
  53 C :    0.074987
  54 C :    0.001150
  55 C :   -0.097643
  56 C :   -0.033150
  57 C :   -0.130001
  58 N :    0.146356
  59 C :   -0.003144
  60 C :   -0.058573
  61 C :    0.258557
  62 C :   -0.329092
  63 C :   -0.180747
  64 N :    0.142886
  65 S :    0.245075
  66 C :   -0.041217
  67 C :   -0.133006
  68 C :   -0.160270
  69 N :    0.134956
  70 H :    0.014441
  71 H :    0.002694
  72 H :    0.002373
  73 H :   -0.017879
  74 H :   -0.004849
  75 H :   -0.004631
  76 H :    0.032185
  77 H :   -0.035695
  78 H :   -0.025941
  79 H :    0.013209
  80 H :   -0.007342
  81 H :    0.084396
  82 H :    0.105225
  83 H :    0.003189
  84 H :    0.004169
  85 H :    0.098038
  86 H :    0.115909
  87 H :    0.004697
  88 H :    0.048374
  89 H :   -0.004866
  90 H :   -0.031946
  91 H :   -0.033542
  92 H :   -0.027848
  93 H :    0.005599
  94 H :    0.023359
  95 H :   -0.003576
  96 H :    0.015167
  97 H :    0.001858
  98 H :    0.002795
  99 H :    0.011235
 100 H :    0.029663
 101 H :    0.051784
Sum of atomic charges:   -0.0000000

LOEWDIN ATOMIC CHARGES
----------------------
   0 C :    0.014297
   1 C :   -0.223541
   2 C :   -0.056379
   3 N :   -0.039298
   4 S :    0.525371
   5 C :   -0.112626
   6 C :   -0.122725
   7 C :   -0.001926
   8 N :   -0.068484
   9 C :   -0.094669
  10 C :    0.035548
  11 C :   -0.108698
  12 C :   -0.018078
  13 N :   -0.080849
  14 C :    0.012995
  15 C :    0.000314
  16 C :    0.034965
  17 C :    0.014032
  18 C :   -0.054632
  19 C :   -0.018732
  20 C :   -0.071305
  21 C :   -0.026262
  22 N :   -0.034509
  23 C :   -0.009198
  24 C :    0.039871
  25 C :   -0.048704
  26 C :    0.055757
  27 C :   -0.034633
  28 C :    0.029751
  29 C :   -0.044205
  30 C :    0.028412
  31 N :   -0.112510
  32 C :    0.028531
  33 N :   -0.091188
  34 C :   -0.023018
  35 C :    0.086046
  36 C :   -0.031026
  37 C :   -0.037042
  38 C :   -0.011128
  39 C :   -0.041317
  40 C :   -0.026583
  41 C :   -0.007756
  42 C :   -0.024608
  43 C :   -0.001049
  44 C :   -0.028419
  45 C :   -0.032054
  46 C :    0.025661
  47 C :   -0.048741
  48 C :   -0.029852
  49 N :   -0.038410
  50 C :    0.002097
  51 C :    0.045877
  52 C :    0.032920
  53 C :   -0.029733
  54 C :    0.016589
  55 C :   -0.051434
  56 C :    0.002099
  57 C :   -0.031608
  58 N :   -0.037670
  59 C :    0.006427
  60 C :   -0.027194
  61 C :   -0.002039
  62 C :   -0.226038
  63 C :   -0.055815
  64 N :   -0.039336
  65 S :    0.520874
  66 C :   -0.122161
  67 C :   -0.102400
  68 C :   -0.028803
  69 N :   -0.045600
  70 H :    0.049567
  71 H :    0.034113
  72 H :    0.034953
  73 H :    0.029682
  74 H :    0.012747
  75 H :    0.037760
  76 H :    0.044235
  77 H :    0.023043
  78 H :    0.025756
  79 H :    0.004698
  80 H :    0.020302
  81 H :    0.048436
  82 H :    0.062075
  83 H :    0.009419
  84 H :    0.021956
  85 H :    0.047156
  86 H :    0.047883
  87 H :    0.033781
  88 H :    0.065623
  89 H :    0.025101
  90 H :    0.032215
  91 H :    0.029068
  92 H :    0.025014
  93 H :    0.026635
  94 H :    0.033991
  95 H :    0.035129
  96 H :    0.036706
  97 H :    0.038135
  98 H :    0.034910
  99 H :    0.043173
 100 H :    0.039775
 101 H :    0.042519

  Mayer bond orders larger than 0.100000
B(  0-C ,  1-C ) :   1.5514 B(  0-C ,  6-C ) :   1.2602 B(  0-C , 70-H ) :   1.0073
B(  1-C ,  2-C ) :   1.1541 B(  1-C ,  4-S ) :   1.1164 B(  1-C ,  5-C ) :   0.1039
B(  2-C ,  3-N ) :   3.0234 B(  4-S ,  5-C ) :   1.1932 B(  5-C ,  6-C ) :   1.4874
B(  5-C ,  9-C ) :   1.0121 B(  6-C ,  7-C ) :   1.1227 B(  7-C ,  8-N ) :   2.9058
B(  9-C , 10-C ) :   1.4897 B(  9-C , 15-C ) :   1.1926 B( 10-C , 11-C ) :   1.1810
B( 10-C , 71-H ) :   1.0126 B( 11-C , 12-C ) :   1.0776 B( 11-C , 14-C ) :   1.5159
B( 12-C , 13-N ) :   2.9414 B( 14-C , 15-C ) :   1.1565 B( 14-C , 72-H ) :   1.0102
B( 15-C , 16-C ) :   1.2520 B( 16-C , 17-C ) :   1.0129 B( 16-C , 20-C ) :   1.3365
B( 17-C , 18-C ) :   1.3965 B( 17-C , 23-C ) :   1.2729 B( 18-C , 19-C ) :   1.2702
B( 18-C , 73-H ) :   1.0245 B( 19-C , 20-C ) :   1.3862 B( 19-C , 21-C ) :   1.0595
B( 20-C , 74-H ) :   0.9997 B( 21-C , 22-N ) :   3.0327 B( 23-C , 24-C ) :   1.4374
B( 23-C , 75-H ) :   0.9600 B( 24-C , 25-C ) :   1.1940 B( 24-C , 76-H ) :   0.9584
B( 25-C , 26-C ) :   1.3606 B( 25-C , 42-C ) :   1.1136 B( 26-C , 27-C ) :   1.1967
B( 26-C , 77-H ) :   0.9536 B( 27-C , 28-C ) :   1.4073 B( 27-C , 40-C ) :   1.1066
B( 28-C , 29-C ) :   1.0543 B( 28-C , 34-C ) :   1.1104 B( 29-C , 30-C ) :   1.0227
B( 29-C , 32-C ) :   1.0149 B( 29-C , 78-H ) :   0.8680 B( 30-C , 31-N ) :   1.1272
B( 30-C , 79-H ) :   0.9265 B( 30-C , 80-H ) :   0.9372 B( 31-N , 81-H ) :   0.9750
B( 31-N , 82-H ) :   0.9658 B( 32-C , 33-N ) :   1.0824 B( 32-C , 83-H ) :   0.9413
B( 32-C , 84-H ) :   0.9501 B( 33-N , 77-H ) :   0.1813 B( 33-N , 85-H ) :   0.9495
B( 33-N , 86-H ) :   0.9246 B( 34-C , 35-C ) :   1.6890 B( 34-C , 39-C ) :   1.0486
B( 35-C , 36-C ) :   0.9618 B( 35-C , 87-H ) :   0.9635 B( 36-C , 37-C ) :   1.0032
B( 36-C , 43-C ) :   0.9454 B( 36-C , 88-H ) :   0.8452 B( 37-C , 38-C ) :   1.7235
B( 37-C , 89-H ) :   0.9681 B( 38-C , 39-C ) :   1.1206 B( 38-C , 90-H ) :   0.9920
B( 39-C , 40-C ) :   1.4520 B( 40-C , 41-C ) :   1.1356 B( 41-C , 42-C ) :   1.6263
B( 41-C , 91-H ) :   0.9898 B( 42-C , 92-H ) :   0.9831 B( 43-C , 44-C ) :   1.8931
B( 43-C , 93-H ) :   0.9741 B( 44-C , 45-C ) :   1.0098 B( 44-C , 94-H ) :   0.9300
B( 45-C , 46-C ) :   1.6545 B( 45-C , 51-C ) :   1.0665 B( 46-C , 47-C ) :   1.0693
B( 46-C , 95-H ) :   1.0167 B( 47-C , 48-C ) :   1.0635 B( 47-C , 50-C ) :   1.6574
B( 48-C , 49-N ) :   3.0398 B( 50-C , 51-C ) :   1.0763 B( 50-C , 96-H ) :   1.0081
B( 51-C , 52-C ) :   1.4831 B( 52-C , 53-C ) :   1.0357 B( 52-C , 56-C ) :   1.1068
B( 53-C , 54-C ) :   1.5828 B( 53-C , 59-C ) :   1.0987 B( 54-C , 55-C ) :   1.1031
B( 54-C , 97-H ) :   1.0232 B( 55-C , 56-C ) :   1.6047 B( 55-C , 57-C ) :   1.0603
B( 56-C , 98-H ) :   1.0154 B( 57-C , 58-N ) :   3.0418 B( 59-C , 60-C ) :   1.6684
B( 59-C , 99-H ) :   0.9570 B( 60-C , 61-C ) :   1.1523 B( 60-C ,100-H ) :   0.9336
B( 61-C , 62-C ) :   1.4438 B( 61-C , 67-C ) :   1.2192 B( 62-C , 63-C ) :   1.2102
B( 62-C , 65-S ) :   1.1464 B( 63-C , 64-N ) :   2.9748 B( 65-S , 66-C ) :   1.2039
B( 66-C , 67-C ) :   1.5556 B( 66-C ,101-H ) :   0.9709 B( 67-C , 68-C ) :   1.0975
B( 68-C , 69-N ) :   2.9835

-----------------------------------------------------------------------------
         ABSORPTION SPECTRUM VIA TRANSITION ELECTRIC DIPOLE MOMENTS
-----------------------------------------------------------------------------
State   Energy  Wavelength   fosc         T2         TX        TY        TZ
        (cm-1)    (nm)                  (au**2)     (au)      (au)      (au)
-----------------------------------------------------------------------------
   0    4756.0   2102.6   0.103855365   7.18890  -1.37269   2.20919   0.65125
   1    8677.8   1152.4   0.001784127   0.06769  -0.08872   0.10075   0.22285
   2   10364.1    964.9   0.041580849   1.32080  -0.22592  -0.55027   0.98334
   3   13599.2    735.3   0.048810466   1.18161  -1.06364  -0.00254   0.22420
   4   13798.5    724.7   0.022781856   0.54354  -0.33579  -0.38781  -0.52952
   5   14611.7    684.4   0.077115298   1.73746  -0.86633   0.85688   0.50269
   6   16412.3    609.3   0.005302890   0.10637   0.05503   0.31106   0.08113
   7   18106.7    552.3   0.018850375   0.34273  -0.21920  -0.21471   0.49858
   8   20080.3    498.0   0.006990972   0.11462   0.16641  -0.29177   0.04236
   9   20858.0    479.4   0.018836659   0.29731   0.12310  -0.07774   0.52546
  10   23012.1    434.6   0.142203820   2.03438  -0.65851   0.60359   1.11194
  11   23614.0    423.5   0.408257398   5.69167   0.87133  -2.03772   0.88326
  12   24417.4    409.5   0.001513529   0.02041   0.08943  -0.11047   0.01434
  13   24856.6    402.3   0.015848311   0.20990   0.13503  -0.24652   0.36180
  14   25247.9    396.1   0.005902317   0.07696   0.11957   0.24908  -0.02494
  15   25577.4    391.0   0.209349692   2.69458   0.10214  -1.46373   0.73596
  16   26020.4    384.3   0.000325077   0.00411   0.04530  -0.00840  -0.04461
  17   26279.0    380.5   0.000146202   0.00183   0.02929  -0.02053   0.02350
  18   26568.7    376.4   0.064568119   0.80006   0.64271   0.25300  -0.56831
  19   27077.5    369.3   0.264466630   3.21542   0.96808   0.03926  -1.50887
  20   27580.2    362.6   0.014745203   0.17601  -0.06009   0.12628   0.39554
  21   27961.3    357.6   0.015804656   0.18608  -0.23177   0.36045   0.04942
  22   28420.8    351.9   0.665213098   7.70550   1.30502  -2.31959   0.78861
  23   28528.0    350.5   0.032058948   0.36996  -0.49098  -0.35495  -0.05398
  24   28598.8    349.7   0.490253331   5.64350   0.16217  -2.08060   1.13504
  25   29186.7    342.6   0.092726363   1.04591   0.15602  -0.86617   0.52088
  26   30123.5    332.0   0.038502201   0.42078  -0.57195   0.24196  -0.18739
  27   30183.6    331.3   0.027614550   0.30119   0.18784  -0.47451   0.20185
  28   30255.4    330.5   0.002842297   0.03093   0.01976  -0.12956   0.11727
  29   30937.9    323.2   0.114796405   1.22155   0.71306  -0.84303   0.04888
  30   31032.4    322.2   0.085165594   0.90349  -0.67917   0.11040  -0.65577
  31   31248.4    320.0   0.075648284   0.79698   0.63322   0.42110   0.46765
  32   31496.8    317.5   0.029715807   0.31060  -0.14226   0.49214   0.21945
  33   31783.0    314.6   0.226715693   2.34834   1.52596  -0.13109   0.05092
  34   32580.4    306.9   0.053865204   0.54429   0.48445  -0.52185  -0.19305
  35   32793.3    304.9   0.529411041   5.31475  -0.15589   0.47615   2.25027
  36   33160.9    301.6   0.018861017   0.18725  -0.28592  -0.24275  -0.21580
  37   33558.9    298.0   0.290952691   2.85424   1.59770  -0.49569   0.23643
  38   34138.1    292.9   0.048931415   0.47187   0.37269  -0.53296  -0.22119
  39   34572.9    289.2   0.116168060   1.10618  -0.48311  -0.23274  -0.90478
  40   34869.5    286.8   0.103601785   0.97813  -0.31730  -0.13395  -0.92710
  41   34956.6    286.1   0.137072758   1.29091  -0.02419   0.74298   0.85925
  42   35333.3    283.0   0.063009727   0.58708  -0.44390   0.32247  -0.53484
  43   35412.9    282.4   0.104342066   0.97000  -0.53595   0.55089  -0.61585
  44   35706.7    280.1   0.067043935   0.61814   0.30293  -0.53048   0.49494
  45   36409.7    274.7   0.001064973   0.00963   0.04111   0.06135   0.06461
  46   36815.7    271.6   0.423892104   3.79051  -0.72765  -0.69310  -1.66753
  47   36826.9    271.5   0.036185772   0.32348  -0.39888   0.33326  -0.23090
  48   36968.1    270.5   0.268653581   2.39244   0.50364  -1.17775   0.86700
  49   37552.9    266.3   0.111316765   0.97587  -0.55492   0.74631  -0.33311
  50   38058.0    262.8   0.023613531   0.20426  -0.01028   0.43367   0.12683
  51   38196.3    261.8   0.060230267   0.51912  -0.28535   0.66065  -0.03531
  52   38417.2    260.3   0.000314089   0.00269   0.00762   0.01874   0.04777
  53   38543.6    259.4   0.002439408   0.02084  -0.09187   0.08901  -0.06688
  54   39008.2    256.4   0.003018795   0.02548   0.08148  -0.01506   0.13642
  55   39187.5    255.2   0.049522580   0.41604   0.36586  -0.35569   0.39455
  56   39293.7    254.5   0.015134667   0.12680  -0.35544   0.01799   0.01171
  57   39640.8    252.3   0.096373721   0.80037   0.45549  -0.64328   0.42319
  58   39894.5    250.7   0.002819614   0.02327  -0.08133   0.09821  -0.08371
  59   40139.4    249.1   0.111213636   0.91214   0.29817  -0.89877  -0.12431

FINAL SINGLE POINT ENERGY     -3569.133621149569

DIPOLE MOMENT
-------------
                                X             Y             Z
Electronic contribution:     17.13987      19.37804       1.72642
Nuclear contribution   :    -14.37478     -21.29402      -1.21886
                        -----------------------------------------
Total Dipole Moment    :      2.76509      -1.91598       0.50756
                        -----------------------------------------
Magnitude (a.u.)       :      3.40211
Magnitude (Debye)      :      8.64747

Rotational constants in cm-1:     0.001848     0.000315     0.000313
Rotational constants in MHz :    55.399707     9.449812     9.387582

                             ****ORCA TERMINATED NORMALLY****
TOTAL RUN TIME: 0 days 0 hours 12 minutes 58 seconds 349 msec
