                         Program Version 4.2.0 -  RELEASE  -
|  1> # ORCA input file
|  2> # SCF done       -162.280602289171          0.000368734897
|  3> ! CAM-B3LYP def2-SVP def2/J RIJCOSX Grid4 TightSCF
|  4> %maxcore 5000
|  5> %tddft
|  6>     Mode sTDDFT
|  7>     Ethresh 5.0
|  8>     maxcore 5000
|  9> end
| 10>
| 11> %pal
| 12>   nprocs 6
| 13>   end
| 14> * xyz 0 1
| 15>    C        5.84487        -1.15621        -9.99122
| 16>    C        4.48815        -1.30135        -9.86941
| 17>    C        3.52652        -1.07111       -10.85680
| 18>    N        2.74240        -0.87973       -11.67201
| 19>    S        4.02805        -1.83205        -8.27568
| 20>    C        5.68805        -1.85884        -7.76500
| 21>    C        6.53395        -1.47011        -8.80223
| 22>    C        7.93392        -1.39234        -8.70991
| 23>    N        9.07819        -1.31893        -8.67629
| 24>    C        6.01577        -2.24614        -6.43931
| 25>    C        5.11635        -2.64866        -5.46464
| 26>    C        5.75298        -2.96745        -4.26932
| 27>    C        7.15074        -2.80299        -4.33457
| 28>    S        7.67819        -2.26014        -5.86296
| 29>    C        7.71080        -3.15496        -3.08197
| 30>    C        6.66082        -3.54647        -2.22364
| 31>    C        5.39957        -3.43794        -2.94056
| 32>    C        4.15168        -3.71795        -2.46757
| 33>    C        2.99857        -3.56868        -3.26710
| 34>    N        2.06387        -3.44661        -3.91959
| 35>    C        3.93511        -4.17345        -1.14957
| 36>    N        3.76042        -4.54454        -0.07914
| 37>    C        7.10769        -3.92297        -0.96388
| 38>    C        8.48956        -3.81698        -0.86267
| 39>    S        9.24783        -3.24190        -2.34074
| 40>    C        9.30753        -4.11672         0.23973
| 41>    C       10.69880        -3.97622         0.26429
| 42>    C       11.28308        -4.37244         1.51206
| 43>    N       12.59733        -4.30167         1.71600
| 44>    C       13.33020        -3.85310         0.71833
| 45>    C       14.79395        -3.76306         0.94665
| 46>    O       15.30918        -4.06703         2.00174
| 47>    C       15.57437        -3.27326        -0.20253
| 48>    C       15.03107        -2.91486        -1.37064
| 49>    C       13.58599        -2.96691        -1.65073
| 50>    O       13.11623        -2.62924        -2.71653
| 51>    C       12.74718        -3.46405        -0.53112
| 52>    N       11.44937        -3.52889        -0.74186
| 53>    C       10.33943        -4.81984         2.44367
| 54>    S        8.74103        -4.73346         1.76489
| 55>    C       10.64492        -5.28724         3.73268
| 56>    C        9.77324        -5.73838         4.71657
| 57>    C       10.45756        -6.13735         5.85717
| 58>    C       11.85522        -5.99072         5.73343
| 59>    S       12.33222        -5.35417         4.22286
| 60>    C       12.45400        -6.43542         6.93921
| 61>    C       11.44313        -6.85553         7.82211
| 62>    C       10.15583        -6.69374         7.16887
| 63>    C        8.92741        -7.01802         7.66311
| 64>    C        7.74612        -6.80917         6.91950
| 65>    N        6.78888        -6.63860         6.31217
| 66>    C        8.75355        -7.60685         8.93447
| 67>    N        8.60409        -8.10681         9.95484
| 68>    C       11.94391        -7.29979         9.04700
| 69>    C       13.32228        -7.23645         9.09013
| 70>    S       14.01478        -6.61380         7.59938
| 71>    C       14.16815        -7.61564        10.18576
| 72>    C       15.48868        -8.02140        10.07362
| 73>    C       16.24225        -8.17779         8.90895
| 74>    N       16.88048        -8.33048         7.96678
| 75>    S       16.19950        -8.42040        11.61006
| 76>    C       14.74341        -8.03816        12.41014
| 77>    C       13.75286        -7.62876        11.55695
| 78>    C       12.49625        -7.20109        12.02845
| 79>    N       11.49346        -6.83289        12.44305
| 80>    H        6.33193        -0.83785       -10.89584
| 81>    H        4.05573        -2.70294        -5.63544
| 82>    H        6.48955        -4.25913        -0.15073
| 83>    H       16.64199        -3.21725        -0.03800
| 84>    H       15.64158        -2.55768        -2.18898
| 85>    H        8.70684        -5.76375         4.58061
| 86>    H       11.34068        -7.66588         9.85764
| 87>    H       14.67591        -8.12045        13.47771
| 88> *
| 89>
| 90>                          ****END OF INPUT****

CARTESIAN COORDINATES (ANGSTROEM)
---------------------------------
  C      5.844870   -1.156210   -9.991220
  C      4.488150   -1.301350   -9.869410
  C      3.526520   -1.071110  -10.856800
  N      2.742400   -0.879730  -11.672010
  S      4.028050   -1.832050   -8.275680
  C      5.688050   -1.858840   -7.765000
  C      6.533950   -1.470110   -8.802230
  C      7.933920   -1.392340   -8.709910
  N      9.078190   -1.318930   -8.676290
  C      6.015770   -2.246140   -6.439310
  C      5.116350   -2.648660   -5.464640
  C      5.752980   -2.967450   -4.269320
  C      7.150740   -2.802990   -4.334570
  S      7.678190   -2.260140   -5.862960
  C      7.710800   -3.154960   -3.081970
  C      6.660820   -3.546470   -2.223640
  C      5.399570   -3.437940   -2.940560
  C      4.151680   -3.717950   -2.467570
  C      2.998570   -3.568680   -3.267100
  N      2.063870   -3.446610   -3.919590
  C      3.935110   -4.173450   -1.149570
  N      3.760420   -4.544540   -0.079140
  C      7.107690   -3.922970   -0.963880
  C      8.489560   -3.816980   -0.862670
  S      9.247830   -3.241900   -2.340740
  C      9.307530   -4.116720    0.239730
  C     10.698800   -3.976220    0.264290
  C     11.283080   -4.372440    1.512060
  N     12.597330   -4.301670    1.716000
  C     13.330200   -3.853100    0.718330
  C     14.793950   -3.763060    0.946650
  O     15.309180   -4.067030    2.001740
  C     15.574370   -3.273260   -0.202530
  C     15.031070   -2.914860   -1.370640
  C     13.585990   -2.966910   -1.650730
  O     13.116230   -2.629240   -2.716530
  C     12.747180   -3.464050   -0.531120
  N     11.449370   -3.528890   -0.741860
  C     10.339430   -4.819840    2.443670
  S      8.741030   -4.733460    1.764890
  C     10.644920   -5.287240    3.732680
  C      9.773240   -5.738380    4.716570
  C     10.457560   -6.137350    5.857170
  C     11.855220   -5.990720    5.733430
  S     12.332220   -5.354170    4.222860
  C     12.454000   -6.435420    6.939210
  C     11.443130   -6.855530    7.822110
  C     10.155830   -6.693740    7.168870
  C      8.927410   -7.018020    7.663110
  C      7.746120   -6.809170    6.919500
  N      6.788880   -6.638600    6.312170
  C      8.753550   -7.606850    8.934470
  N      8.604090   -8.106810    9.954840
  C     11.943910   -7.299790    9.047000
  C     13.322280   -7.236450    9.090130
  S     14.014780   -6.613800    7.599380
  C     14.168150   -7.615640   10.185760
  C     15.488680   -8.021400   10.073620
  C     16.242250   -8.177790    8.908950
  N     16.880480   -8.330480    7.966780
  S     16.199500   -8.420400   11.610060
  C     14.743410   -8.038160   12.410140
  C     13.752860   -7.628760   11.556950
  C     12.496250   -7.201090   12.028450
  N     11.493460   -6.832890   12.443050
  H      6.331930   -0.837850  -10.895840
  H      4.055730   -2.702940   -5.635440
  H      6.489550   -4.259130   -0.150730
  H     16.641990   -3.217250   -0.038000
  H     15.641580   -2.557680   -2.188980
  H      8.706840   -5.763750    4.580610
  H     11.340680   -7.665880    9.857640
  H     14.675910   -8.120450   13.477710

 Total Charge           Charge          ....    0
 Multiplicity           Mult            ....    1
 Number of Electrons    NEL             ....  482
 Basis Dimension        Dim             ....  978

ORBITAL ENERGIES
----------------

  NO   OCC          E(Eh)            E(eV)
   0   2.0000     -89.011943     -2422.1381
   1   2.0000     -89.008026     -2422.0315
   2   2.0000     -89.003015     -2421.8952
   3   2.0000     -89.000761     -2421.8338
   4   2.0000     -88.998083     -2421.7610
   5   2.0000     -88.995337     -2421.6862
   6   2.0000     -88.993467     -2421.6354
   7   2.0000     -19.238060      -523.4942
   8   2.0000     -19.237718      -523.4849
   9   2.0000     -14.465948      -393.6385
  10   2.0000     -14.465684      -393.6313
  11   2.0000     -14.438257      -392.8849
  12   2.0000     -14.437665      -392.8688
  13   2.0000     -14.433933      -392.7673
  14   2.0000     -14.431064      -392.6892
  15   2.0000     -14.429405      -392.6441
  16   2.0000     -14.424465      -392.5096
  17   2.0000     -14.424345      -392.5064
  18   2.0000     -14.420278      -392.3957
  19   2.0000     -10.387772      -282.6657
  20   2.0000     -10.387537      -282.6592
  21   2.0000     -10.373285      -282.2714
  22   2.0000     -10.368751      -282.1480
  23   2.0000     -10.360871      -281.9336
  24   2.0000     -10.360686      -281.9286
  25   2.0000     -10.357046      -281.8295
  26   2.0000     -10.356422      -281.8126
  27   2.0000     -10.355917      -281.7988
  28   2.0000     -10.355649      -281.7915
  29   2.0000     -10.351953      -281.6910
  30   2.0000     -10.350807      -281.6598
  31   2.0000     -10.348233      -281.5897
  32   2.0000     -10.346743      -281.5492
  33   2.0000     -10.346320      -281.5377
  34   2.0000     -10.345590      -281.5178
  35   2.0000     -10.345332      -281.5108
  36   2.0000     -10.345275      -281.5092
  37   2.0000     -10.344368      -281.4846
  38   2.0000     -10.342650      -281.4378
  39   2.0000     -10.340649      -281.3834
  40   2.0000     -10.340637      -281.3830
  41   2.0000     -10.338362      -281.3211
  42   2.0000     -10.338170      -281.3159
  43   2.0000     -10.337697      -281.3030
  44   2.0000     -10.336329      -281.2658
  45   2.0000     -10.336183      -281.2618
  46   2.0000     -10.336150      -281.2609
  47   2.0000     -10.334346      -281.2119
  48   2.0000     -10.334094      -281.2050
  49   2.0000     -10.331152      -281.1249
  50   2.0000     -10.330521      -281.1078
  51   2.0000     -10.325419      -280.9689
  52   2.0000     -10.324638      -280.9477
  53   2.0000     -10.324378      -280.9406
  54   2.0000     -10.322346      -280.8853
  55   2.0000     -10.319472      -280.8071
  56   2.0000     -10.319345      -280.8036
  57   2.0000     -10.318773      -280.7881
  58   2.0000     -10.314846      -280.6812
  59   2.0000     -10.314042      -280.6594
  60   2.0000     -10.313531      -280.6455
  61   2.0000     -10.312772      -280.6248
  62   2.0000     -10.311388      -280.5871
  63   2.0000     -10.310459      -280.5619
  64   2.0000     -10.309392      -280.5328
  65   2.0000      -8.105895      -220.5726
  66   2.0000      -8.103503      -220.5075
  67   2.0000      -8.096862      -220.3268
  68   2.0000      -8.095875      -220.3000
  69   2.0000      -8.092293      -220.2025
  70   2.0000      -8.088606      -220.1022
  71   2.0000      -8.086750      -220.0517
  72   2.0000      -6.075032      -165.3100
  73   2.0000      -6.072847      -165.2506
  74   2.0000      -6.070906      -165.1978
  75   2.0000      -6.068510      -165.1325
  76   2.0000      -6.068298      -165.1268
  77   2.0000      -6.066171      -165.0689
  78   2.0000      -6.065819      -165.0593
  79   2.0000      -6.065363      -165.0469
  80   2.0000      -6.061792      -164.9497
  81   2.0000      -6.061561      -164.9434
  82   2.0000      -6.061004      -164.9283
  83   2.0000      -6.059278      -164.8813
  84   2.0000      -6.058030      -164.8474
  85   2.0000      -6.057734      -164.8393
  86   2.0000      -6.057198      -164.8247
  87   2.0000      -6.056151      -164.7962
  88   2.0000      -6.054757      -164.7583
  89   2.0000      -6.053488      -164.7238
  90   2.0000      -6.051648      -164.6737
  91   2.0000      -6.050911      -164.6537
  92   2.0000      -6.049076      -164.6037
  93   2.0000      -1.155794       -31.4508
  94   2.0000      -1.150843       -31.3160
  95   2.0000      -1.116308       -30.3763
  96   2.0000      -1.055763       -28.7288
  97   2.0000      -1.052889       -28.6506
  98   2.0000      -1.045778       -28.4571
  99   2.0000      -1.042817       -28.3765
 100   2.0000      -1.038474       -28.2583
 101   2.0000      -1.029823       -28.0229
 102   2.0000      -1.025510       -27.9055
 103   2.0000      -1.022080       -27.8122
 104   2.0000      -1.015616       -27.6363
 105   2.0000      -1.012089       -27.5403
 106   2.0000      -1.009932       -27.4817
 107   2.0000      -1.007951       -27.4277
 108   2.0000      -1.005551       -27.3624
 109   2.0000      -1.001852       -27.2618
 110   2.0000      -0.998634       -27.1742
 111   2.0000      -0.994113       -27.0512
 112   2.0000      -0.968064       -26.3424
 113   2.0000      -0.962850       -26.2005
 114   2.0000      -0.950806       -25.8727
 115   2.0000      -0.930047       -25.3079
 116   2.0000      -0.923608       -25.1326
 117   2.0000      -0.902430       -24.5564
 118   2.0000      -0.898111       -24.4389
 119   2.0000      -0.893748       -24.3201
 120   2.0000      -0.890900       -24.2426
 121   2.0000      -0.888242       -24.1703
 122   2.0000      -0.883254       -24.0346
 123   2.0000      -0.871899       -23.7256
 124   2.0000      -0.866222       -23.5711
 125   2.0000      -0.862666       -23.4743
 126   2.0000      -0.860863       -23.4253
 127   2.0000      -0.821939       -22.3661
 128   2.0000      -0.815468       -22.1900
 129   2.0000      -0.804487       -21.8912
 130   2.0000      -0.796021       -21.6608
 131   2.0000      -0.788606       -21.4591
 132   2.0000      -0.782541       -21.2940
 133   2.0000      -0.770896       -20.9771
 134   2.0000      -0.765794       -20.8383
 135   2.0000      -0.751447       -20.4479
 136   2.0000      -0.746554       -20.3148
 137   2.0000      -0.730339       -19.8735
 138   2.0000      -0.729253       -19.8440
 139   2.0000      -0.712507       -19.3883
 140   2.0000      -0.706367       -19.2212
 141   2.0000      -0.697149       -18.9704
 142   2.0000      -0.696341       -18.9484
 143   2.0000      -0.692021       -18.8308
 144   2.0000      -0.687963       -18.7204
 145   2.0000      -0.682210       -18.5639
 146   2.0000      -0.673085       -18.3156
 147   2.0000      -0.662759       -18.0346
 148   2.0000      -0.643022       -17.4975
 149   2.0000      -0.640821       -17.4376
 150   2.0000      -0.636143       -17.3103
 151   2.0000      -0.633497       -17.2383
 152   2.0000      -0.626478       -17.0473
 153   2.0000      -0.623700       -16.9717
 154   2.0000      -0.617944       -16.8151
 155   2.0000      -0.615550       -16.7500
 156   2.0000      -0.609778       -16.5929
 157   2.0000      -0.595908       -16.2155
 158   2.0000      -0.587003       -15.9732
 159   2.0000      -0.583083       -15.8665
 160   2.0000      -0.577942       -15.7266
 161   2.0000      -0.574481       -15.6324
 162   2.0000      -0.570414       -15.5218
 163   2.0000      -0.566520       -15.4158
 164   2.0000      -0.558194       -15.1892
 165   2.0000      -0.555069       -15.1042
 166   2.0000      -0.554563       -15.0904
 167   2.0000      -0.548610       -14.9284
 168   2.0000      -0.547183       -14.8896
 169   2.0000      -0.543423       -14.7873
 170   2.0000      -0.538614       -14.6564
 171   2.0000      -0.537123       -14.6159
 172   2.0000      -0.536651       -14.6030
 173   2.0000      -0.533276       -14.5112
 174   2.0000      -0.526174       -14.3179
 175   2.0000      -0.521601       -14.1935
 176   2.0000      -0.519537       -14.1373
 177   2.0000      -0.514097       -13.9893
 178   2.0000      -0.509977       -13.8772
 179   2.0000      -0.506813       -13.7911
 180   2.0000      -0.506750       -13.7894
 181   2.0000      -0.505654       -13.7596
 182   2.0000      -0.504193       -13.7198
 183   2.0000      -0.502534       -13.6746
 184   2.0000      -0.499752       -13.5989
 185   2.0000      -0.497155       -13.5283
 186   2.0000      -0.495975       -13.4962
 187   2.0000      -0.491366       -13.3707
 188   2.0000      -0.487159       -13.2563
 189   2.0000      -0.480413       -13.0727
 190   2.0000      -0.475393       -12.9361
 191   2.0000      -0.473112       -12.8740
 192   2.0000      -0.472573       -12.8594
 193   2.0000      -0.468651       -12.7526
 194   2.0000      -0.468149       -12.7390
 195   2.0000      -0.465262       -12.6604
 196   2.0000      -0.464039       -12.6272
 197   2.0000      -0.463763       -12.6196
 198   2.0000      -0.462238       -12.5781
 199   2.0000      -0.461926       -12.5696
 200   2.0000      -0.459119       -12.4933
 201   2.0000      -0.457241       -12.4421
 202   2.0000      -0.456363       -12.4183
 203   2.0000      -0.454470       -12.3667
 204   2.0000      -0.450960       -12.2713
 205   2.0000      -0.450563       -12.2604
 206   2.0000      -0.450040       -12.2462
 207   2.0000      -0.448012       -12.1910
 208   2.0000      -0.447519       -12.1776
 209   2.0000      -0.446207       -12.1419
 210   2.0000      -0.442428       -12.0391
 211   2.0000      -0.441428       -12.0119
 212   2.0000      -0.437411       -11.9026
 213   2.0000      -0.436446       -11.8763
 214   2.0000      -0.435330       -11.8459
 215   2.0000      -0.430146       -11.7049
 216   2.0000      -0.429865       -11.6972
 217   2.0000      -0.424073       -11.5396
 218   2.0000      -0.421459       -11.4685
 219   2.0000      -0.420355       -11.4384
 220   2.0000      -0.417200       -11.3526
 221   2.0000      -0.416058       -11.3215
 222   2.0000      -0.407419       -11.0864
 223   2.0000      -0.399650       -10.8750
 224   2.0000      -0.392808       -10.6889
 225   2.0000      -0.383518       -10.4360
 226   2.0000      -0.376022       -10.2321
 227   2.0000      -0.371050       -10.0968
 228   2.0000      -0.363282        -9.8854
 229   2.0000      -0.358465        -9.7543
 230   2.0000      -0.357589        -9.7305
 231   2.0000      -0.356137        -9.6910
 232   2.0000      -0.353289        -9.6135
 233   2.0000      -0.348229        -9.4758
 234   2.0000      -0.347454        -9.4547
 235   2.0000      -0.341986        -9.3059
 236   2.0000      -0.331498        -9.0205
 237   2.0000      -0.326381        -8.8813
 238   2.0000      -0.312324        -8.4988
 239   2.0000      -0.282660        -7.6916
 240   2.0000      -0.245024        -6.6675
 241   0.0000      -0.125724        -3.4211
 242   0.0000      -0.112142        -3.0515
 243   0.0000      -0.100685        -2.7398
 244   0.0000      -0.097289        -2.6474
 245   0.0000      -0.070654        -1.9226

MULLIKEN ATOMIC CHARGES
-----------------------
   0 C :    0.089714
   1 C :   -0.252091
   2 C :   -0.130449
   3 N :    0.144463
   4 S :    0.220711
   5 C :   -0.037559
   6 C :   -0.049817
   7 C :   -0.243407
   8 N :    0.161119
   9 C :   -0.084341
  10 C :   -0.062932
  11 C :    0.028972
  12 C :   -0.085949
  13 S :    0.227408
  14 C :   -0.087574
  15 C :    0.029336
  16 C :    0.299211
  17 C :   -0.292643
  18 C :   -0.188958
  19 N :    0.175614
  20 C :   -0.191830
  21 N :    0.181611
  22 C :   -0.079880
  23 C :   -0.073280
  24 S :    0.248707
  25 C :   -0.126294
  26 C :    0.029993
  27 C :    0.021205
  28 N :    0.039065
  29 C :   -0.111114
  30 C :    0.139374
  31 O :   -0.104319
  32 C :   -0.019929
  33 C :   -0.014722
  34 C :    0.137090
  35 O :   -0.102589
  36 C :   -0.113197
  37 N :    0.036946
  38 C :   -0.116924
  39 S :    0.239832
  40 C :   -0.074822
  41 C :   -0.085538
  42 C :    0.032644
  43 C :   -0.085615
  44 S :    0.245563
  45 C :   -0.086276
  46 C :    0.014490
  47 C :    0.301672
  48 C :   -0.293388
  49 C :   -0.190117
  50 N :    0.172634
  51 C :   -0.191558
  52 N :    0.189385
  53 C :   -0.027312
  54 C :   -0.166532
  55 S :    0.221920
  56 C :    0.342202
  57 C :   -0.357314
  58 C :   -0.228864
  59 N :    0.159147
  60 S :    0.239789
  61 C :   -0.048980
  62 C :   -0.128623
  63 C :   -0.191077
  64 N :    0.166299
  65 H :    0.017567
  66 H :    0.020847
  67 H :    0.011939
  68 H :    0.022889
  69 H :    0.022133
  70 H :    0.012273
  71 H :    0.028212
  72 H :    0.053837
Sum of atomic charges:   -0.0000000

LOEWDIN ATOMIC CHARGES
----------------------
   0 C :    0.018233
   1 C :   -0.218324
   2 C :   -0.056213
   3 N :   -0.036093
   4 S :    0.501643
   5 C :   -0.135158
   6 C :   -0.121052
   7 C :   -0.052484
   8 N :   -0.041198
   9 C :   -0.196871
  10 C :   -0.019557
  11 C :   -0.070003
  12 C :   -0.167004
  13 S :    0.523310
  14 C :   -0.186362
  15 C :   -0.063896
  16 C :    0.079798
  17 C :   -0.099424
  18 C :   -0.017018
  19 N :   -0.029250
  20 C :   -0.017648
  21 N :   -0.027467
  22 C :   -0.029727
  23 C :   -0.176989
  24 S :    0.534520
  25 C :   -0.193267
  26 C :   -0.053979
  27 C :   -0.055923
  28 N :   -0.007779
  29 C :   -0.038748
  30 C :    0.055342
  31 O :   -0.100655
  32 C :   -0.010896
  33 C :   -0.011013
  34 C :    0.055320
  35 O :   -0.099361
  36 C :   -0.036339
  37 N :   -0.009957
  38 C :   -0.186526
  39 S :    0.524128
  40 C :   -0.181877
  41 C :   -0.026608
  42 C :   -0.064795
  43 C :   -0.182748
  44 S :    0.533292
  45 C :   -0.170509
  46 C :   -0.069752
  47 C :    0.078164
  48 C :   -0.097024
  49 C :   -0.015982
  50 N :   -0.031150
  51 C :   -0.021072
  52 N :   -0.019267
  53 C :   -0.009745
  54 C :   -0.178760
  55 S :    0.515819
  56 C :   -0.014688
  57 C :   -0.235747
  58 C :   -0.076997
  59 N :   -0.034834
  60 S :    0.517877
  61 C :   -0.123390
  62 C :   -0.099676
  63 C :   -0.035816
  64 N :   -0.031890
  65 H :    0.051502
  66 H :    0.037815
  67 H :    0.038413
  68 H :    0.047649
  69 H :    0.047667
  70 H :    0.038470
  71 H :    0.046382
  72 H :    0.043164

  Mayer bond orders larger than 0.100000
B(  0-C ,  1-C ) :   1.5564 B(  0-C ,  6-C ) :   1.2665 B(  0-C , 65-H ) :   1.0062
B(  1-C ,  2-C ) :   1.1580 B(  1-C ,  4-S ) :   1.1092 B(  1-C ,  5-C ) :   0.1018
B(  2-C ,  3-N ) :   3.0225 B(  4-S ,  5-C ) :   1.1692 B(  5-C ,  6-C ) :   1.4553
B(  5-C ,  9-C ) :   1.1790 B(  6-C ,  7-C ) :   1.0927 B(  7-C ,  8-N ) :   3.0191
B(  9-C , 10-C ) :   1.4263 B(  9-C , 13-S ) :   1.0992 B( 10-C , 11-C ) :   1.3241
B( 10-C , 66-H ) :   0.9851 B( 11-C , 12-C ) :   1.4126 B( 11-C , 16-C ) :   0.9893
B( 12-C , 13-S ) :   1.1422 B( 12-C , 14-C ) :   1.1974 B( 14-C , 15-C ) :   1.4084
B( 14-C , 24-S ) :   1.0976 B( 15-C , 16-C ) :   0.9936 B( 15-C , 22-C ) :   1.3223
B( 16-C , 17-C ) :   1.7178 B( 17-C , 18-C ) :   1.1342 B( 17-C , 20-C ) :   1.1334
B( 18-C , 19-N ) :   2.9891 B( 20-C , 21-N ) :   2.9948 B( 22-C , 23-C ) :   1.3911
B( 22-C , 67-H ) :   0.9939 B( 23-C , 24-S ) :   1.1205 B( 23-C , 25-C ) :   1.2351
B( 25-C , 26-C ) :   1.3255 B( 25-C , 38-C ) :   0.1186 B( 25-C , 39-S ) :   1.1532
B( 26-C , 27-C ) :   1.1869 B( 26-C , 37-N ) :   1.4132 B( 27-C , 28-N ) :   1.4207
B( 27-C , 38-C ) :   1.3181 B( 28-N , 29-C ) :   1.6972 B( 29-C , 30-C ) :   0.8976
B( 29-C , 36-C ) :   1.1058 B( 30-C , 31-O ) :   2.2479 B( 30-C , 32-C ) :   1.0223
B( 32-C , 33-C ) :   1.6757 B( 32-C , 68-H ) :   0.9991 B( 33-C , 34-C ) :   1.0233
B( 33-C , 69-H ) :   0.9978 B( 34-C , 35-O ) :   2.2500 B( 34-C , 36-C ) :   0.8957
B( 36-C , 37-N ) :   1.7028 B( 38-C , 39-S ) :   1.1601 B( 38-C , 40-C ) :   1.2374
B( 40-C , 41-C ) :   1.3871 B( 40-C , 44-S ) :   1.1157 B( 41-C , 42-C ) :   1.3231
B( 41-C , 70-H ) :   0.9959 B( 42-C , 43-C ) :   1.4105 B( 42-C , 47-C ) :   0.9875
B( 43-C , 44-S ) :   1.1026 B( 43-C , 45-C ) :   1.1896 B( 45-C , 46-C ) :   1.4238
B( 45-C , 55-S ) :   1.1431 B( 46-C , 47-C ) :   0.9915 B( 46-C , 53-C ) :   1.2962
B( 47-C , 48-C ) :   1.7190 B( 48-C , 49-C ) :   1.1346 B( 48-C , 51-C ) :   1.1336
B( 49-C , 50-N ) :   2.9914 B( 51-C , 52-N ) :   2.9905 B( 53-C , 54-C ) :   1.4711
B( 53-C , 71-H ) :   0.9808 B( 54-C , 55-S ) :   1.1038 B( 54-C , 56-C ) :   1.0709
B( 56-C , 57-C ) :   1.4666 B( 56-C , 62-C ) :   1.2563 B( 57-C , 58-C ) :   1.2274
B( 57-C , 60-S ) :   1.1427 B( 58-C , 59-N ) :   2.9965 B( 60-S , 61-C ) :   1.2061
B( 61-C , 62-C ) :   1.5497 B( 61-C , 72-H ) :   0.9721 B( 62-C , 63-C ) :   1.0964
B( 63-C , 64-N ) :   3.0203

-----------------------------------------------------------------------------
         ABSORPTION SPECTRUM VIA TRANSITION ELECTRIC DIPOLE MOMENTS
-----------------------------------------------------------------------------
State   Energy  Wavelength   fosc         T2         TX        TY        TZ
        (cm-1)    (nm)                  (au**2)     (au)      (au)      (au)
-----------------------------------------------------------------------------
   0   10183.0    982.0   0.723748238  23.39857   2.01570  -1.34182   4.18749
   1   12469.3    802.0   0.041856056   1.10508  -0.05089   0.44128  -0.95276
   2   14097.4    709.4   0.039152792   0.91432   0.53287  -0.20310   0.76754
   3   16686.7    599.3   0.101384287   2.00021  -1.31928  -0.33415   0.38477
   4   19919.0    502.0   0.012125922   0.20041   0.35575   0.20390  -0.17967
   5   22341.8    447.6   0.200354318   2.95227   0.80741  -0.40113   1.46269
   6   23979.5    417.0   1.222018777  16.77694  -1.43075   1.14368  -3.66359
   7   24689.3    405.0   0.002350120   0.03134   0.00132   0.08116   0.15732
   8   24893.5    401.7   0.199950052   2.64430   0.34350  -0.62629   1.46084
   9   25588.6    390.8   0.000002620   0.00003   0.00576   0.00047   0.00054
  10   26499.5    377.4   0.001603092   0.01992   0.08506  -0.11260   0.00149
  11   26678.7    374.8   0.266998098   3.29472  -1.32468   0.51366  -1.12964
  12   27036.3    369.9   0.002610725   0.03179   0.16761  -0.03316   0.05097
  13   27486.0    363.8   0.034080494   0.40820  -0.62811   0.01820   0.11552
  14   28737.7    348.0   0.055978866   0.64128  -0.70579  -0.23736   0.29462
  15   29218.1    342.3   0.070619335   0.79570   0.86633   0.13364  -0.16525
  16   30335.7    329.6   0.002294546   0.02490   0.04041   0.00804  -0.15233
  17   30538.7    327.5   0.076248007   0.82197   0.40922  -0.16933   0.79109
  18   30708.9    325.6   0.000324853   0.00348  -0.04703   0.00823  -0.03469
  19   32142.5    311.1   0.107087435   1.09682  -0.41565   0.32028  -0.90635
  20   32425.4    308.4   0.760039196   7.71661   2.60479   0.46905  -0.84361
  21   32649.6    306.3   0.408853191   4.12254  -0.16170  -0.63835   1.92065
  22   33007.9    303.0   0.095416899   0.95166  -0.80736  -0.27604   0.47290
  23   33261.1    300.7   0.267497956   2.64765   1.19818   0.54942  -0.95402
  24   33374.6    299.6   0.305482840   3.01332  -1.71096  -0.18796  -0.22499
  25   33743.6    296.4   0.001140559   0.01113   0.09783   0.02407  -0.03126
  26   33968.7    294.4   0.037805098   0.36639  -0.59394  -0.07168   0.09215
  27   34278.8    291.7   0.064291683   0.61745  -0.70164   0.16718  -0.31177
  28   34493.2    289.9   0.027943545   0.26670   0.49642   0.13841   0.03330
  29   34559.6    289.4   0.000430588   0.00410  -0.05694  -0.00887  -0.02795
  30   34962.6    286.0   0.003371931   0.03175   0.11484  -0.09141   0.10102
  31   35129.0    284.7   0.389670593   3.65180   0.95027   0.63084  -1.53324
  32   35514.4    281.6   0.011434038   0.10599   0.32103   0.05293  -0.01133
  33   35957.8    278.1   0.014307476   0.13099  -0.28013  -0.18062   0.14105
  34   36239.3    275.9   0.292120366   2.65374   1.46455  -0.23717   0.67274
  35   36515.6    273.9   0.024566802   0.22149  -0.44675   0.14540  -0.02756
  36   36558.7    273.5   0.038770738   0.34913   0.56348  -0.01543   0.17715
  37   36753.3    272.1   0.000018794   0.00017   0.00980   0.00398  -0.00752
  38   37144.9    269.2   0.056018306   0.49649   0.62120  -0.01932   0.33200
  39   37184.0    268.9   0.077258926   0.68402  -0.80431  -0.18509   0.05331
  40   37567.4    266.2   0.062177769   0.54488  -0.64499  -0.15224   0.32510
  41   37592.2    266.0   0.008483758   0.07430   0.19381  -0.01341  -0.19119
  42   37728.6    265.1   0.087601530   0.76439   0.54324   0.26670  -0.63100
  43   38112.7    262.4   0.052232336   0.45118  -0.60886   0.04760  -0.27963
  44   39123.5    255.6   0.003465667   0.02916   0.12776  -0.01883  -0.11174
  45   39469.6    253.4   0.009159454   0.07640   0.27286   0.04260  -0.01137
  46   39696.8    251.9   0.000703214   0.00583  -0.06509   0.00427  -0.03972
  47   39904.1    250.6   0.012244693   0.10102   0.21443   0.12228  -0.20022
  48   40041.3    249.7   0.019530758   0.16058  -0.36808  -0.02477   0.15646

FINAL SINGLE POINT ENERGY     -5238.869267252752

DIPOLE MOMENT
-------------
                                X             Y             Z
Electronic contribution:     -1.35702      -1.55349       1.93229
Nuclear contribution   :      4.90873       1.55190      -0.66644
                        -----------------------------------------
Total Dipole Moment    :      3.55171      -0.00159       1.26584
                        -----------------------------------------
Magnitude (a.u.)       :      3.77054
Magnitude (Debye)      :      9.58396

Rotational constants in cm-1:     0.002432     0.000307     0.000274
Rotational constants in MHz :    72.903302     9.218392     8.223256

                             ****ORCA TERMINATED NORMALLY****
TOTAL RUN TIME: 0 days 0 hours 6 minutes 39 seconds 768 msec
