                         Program Version 4.2.0 -  RELEASE  -
|  1> # ORCA input file
|  2> # SCF done       -197.264092874367          0.000495204395
|  3> ! CAM-B3LYP def2-SVP def2/J RIJCOSX Grid4 TightSCF
|  4> %maxcore 5000
|  5> %tddft
|  6>     Mode sTDDFT
|  7>     Ethresh 5.0
|  8>     maxcore 5000
|  9> end
| 10>
| 11> %pal
| 12>   nprocs 6
| 13>   end
| 14> * xyz 0 1
| 15>    C       -0.01021        -2.73886         2.34967
| 16>    O        0.40041        -3.63660         1.64238
| 17>    C        0.81782        -1.63058         2.87423
| 18>    C        0.03473        -0.79103         3.68155
| 19>    C        0.61559         0.32465         4.26835
| 20>    C        1.96042         0.57609         4.04128
| 21>    C        2.71519        -0.27309         3.24315
| 22>    C        2.15685        -1.39330         2.64376
| 23>   Br        4.55507         0.11067         2.96369
| 24>    C       -1.32485        -1.32651         3.72798
| 25>    C       -2.33585        -0.80744         4.49537
| 26>    C       -2.20061         0.34054         5.30559
| 27>    N       -2.16512         1.26816         5.98095
| 28>    C       -3.64257        -1.32401         4.63139
| 29>    N       -4.72030        -1.67254         4.82294
| 30>    C       -1.37271        -2.49603         2.86480
| 31>    C       -2.53569        -3.16748         2.57092
| 32>    C       -2.79590        -4.28417         1.76247
| 33>    C       -1.97631        -5.14041         1.02652
| 34>    C       -2.66258        -6.12310         0.33827
| 35>    C       -4.05701        -6.02961         0.55037
| 36>    S       -4.48992        -4.74734         1.59415
| 37>    C       -4.84306        -6.97282        -0.14014
| 38>    C       -4.12818        -7.87579        -0.95371
| 39>   Si       -2.28595        -7.54444        -0.82589
| 40>    C       -1.51679        -6.98851        -2.43821
| 41>    C       -1.34910        -8.93667         0.00277
| 42>    C       -4.99010        -8.73433        -1.61545
| 43>    C       -6.33632        -8.51737        -1.32696
| 44>    S       -6.54664        -7.21180        -0.18717
| 45>    C       -7.45219        -9.20740        -1.86273
| 46>    C       -8.76945        -8.90816        -1.44211
| 47>    C       -9.92496        -9.57211        -1.98588
| 48>    N      -11.14164        -9.25060        -1.53563
| 49>    C      -11.28048        -8.33297        -0.60934
| 50>    C      -10.13178        -7.66577        -0.07508
| 51>    N       -8.93034        -7.97140        -0.50172
| 52>    C      -10.28012        -6.67190         0.92374
| 53>    N      -10.43423        -5.87416         1.73081
| 54>    C      -12.57929        -8.01449        -0.14175
| 55>    N      -13.61660        -7.73740         0.25665
| 56>    C       -9.83077       -10.55982        -2.99499
| 57>    C       -8.51294       -10.87396        -3.40913
| 58>    C       -7.34971       -10.21750        -2.85074
| 59>    N       -6.22234       -10.67862        -3.39156
| 60>    S       -6.57277       -11.80818        -4.47665
| 61>    N       -8.17032       -11.77821        -4.32611
| 62>    C      -10.99059       -11.16625        -3.53696
| 63>    C      -11.05157       -12.11274        -4.55868
| 64>    C      -12.33827       -12.51482        -4.87579
| 65>    C      -13.28571       -11.85490        -4.06607
| 66>    S      -12.58175       -10.75445        -2.94752
| 67>    C      -14.62967       -12.20044        -4.30592
| 68>    C      -14.84371       -13.16339        -5.31429
| 69>   Si      -13.20456       -13.66454        -6.07719
| 70>    C      -13.07802       -13.11468        -7.86021
| 71>    C      -12.77784       -15.46748        -5.80839
| 72>    C      -16.19276       -13.39782        -5.50424
| 73>    C      -17.02351       -12.65182        -4.66756
| 74>    S      -16.08030       -11.64538        -3.58780
| 75>    C      -18.42300       -12.66224        -4.54678
| 76>    C      -19.36808       -13.14695        -5.41044
| 77>    C      -20.71621       -13.47171        -4.87916
| 78>    O      -21.16228       -13.18145        -3.79382
| 79>    C      -21.36754       -14.27138        -5.94257
| 80>    C      -20.52913       -14.31859        -7.07091
| 81>    C      -19.33814       -13.51002        -6.80615
| 82>    C      -18.50868       -13.00132        -7.77476
| 83>    C      -18.58074       -13.35242        -9.13743
| 84>    N      -18.57262       -13.62254       -10.25351
| 85>    C      -17.53393       -12.01131        -7.54262
| 86>    N      -16.74617       -11.18462        -7.42395
| 87>    C      -20.92066       -15.04012        -8.18825
| 88>    C      -22.14173       -15.69758        -8.16333
| 89>    C      -22.95933       -15.62823        -7.04324
| 90>    C      -22.58691       -14.91459        -5.91127
| 91>   Br      -24.62693       -16.53813        -7.06020
| 92>    H        0.05182         0.99986         4.88999
| 93>    H        2.42591         1.44053         4.48931
| 94>    H        2.73585        -2.05755         2.02108
| 95>    H       -3.43307        -2.75947         3.02076
| 96>    H       -0.90886        -5.02341         1.00595
| 97>    H       -2.08590        -6.19272        -2.91542
| 98>    H       -1.44680        -7.80525        -3.15385
| 99>    H       -0.50723        -6.61166        -2.28740
|100>    H       -1.81642        -9.25254         0.93382
|101>    H       -0.32903        -8.64298         0.24192
|102>    H       -1.28444        -9.81494        -0.63643
|103>    H       -4.68053        -9.50422        -2.29758
|104>    H      -10.16191       -12.47701        -5.03806
|105>    H      -13.44642       -12.09944        -7.99805
|106>    H      -13.66268       -13.75377        -8.51930
|107>    H      -12.05253       -13.13832        -8.22353
|108>    H      -12.87736       -15.76722        -4.76668
|109>    H      -11.75360       -15.68293        -6.10550
|110>    H      -13.41974       -16.12371        -6.39274
|111>    H      -16.57637       -14.12561        -6.19741
|112>    H      -18.82275       -12.30263        -3.60308
|113>    H      -20.29720       -15.11021        -9.06472
|114>    H      -22.46098       -16.26827        -9.02181
|115>    H      -23.21910       -14.85902        -5.03875
|116> *
|117>
|118>                          ****END OF INPUT****

CARTESIAN COORDINATES (ANGSTROEM)
---------------------------------
  C     -0.010210   -2.738860    2.349670
  O      0.400410   -3.636600    1.642380
  C      0.817820   -1.630580    2.874230
  C      0.034730   -0.791030    3.681550
  C      0.615590    0.324650    4.268350
  C      1.960420    0.576090    4.041280
  C      2.715190   -0.273090    3.243150
  C      2.156850   -1.393300    2.643760
  Br     4.555070    0.110670    2.963690
  C     -1.324850   -1.326510    3.727980
  C     -2.335850   -0.807440    4.495370
  C     -2.200610    0.340540    5.305590
  N     -2.165120    1.268160    5.980950
  C     -3.642570   -1.324010    4.631390
  N     -4.720300   -1.672540    4.822940
  C     -1.372710   -2.496030    2.864800
  C     -2.535690   -3.167480    2.570920
  C     -2.795900   -4.284170    1.762470
  C     -1.976310   -5.140410    1.026520
  C     -2.662580   -6.123100    0.338270
  C     -4.057010   -6.029610    0.550370
  S     -4.489920   -4.747340    1.594150
  C     -4.843060   -6.972820   -0.140140
  C     -4.128180   -7.875790   -0.953710
  Si    -2.285950   -7.544440   -0.825890
  C     -1.516790   -6.988510   -2.438210
  C     -1.349100   -8.936670    0.002770
  C     -4.990100   -8.734330   -1.615450
  C     -6.336320   -8.517370   -1.326960
  S     -6.546640   -7.211800   -0.187170
  C     -7.452190   -9.207400   -1.862730
  C     -8.769450   -8.908160   -1.442110
  C     -9.924960   -9.572110   -1.985880
  N    -11.141640   -9.250600   -1.535630
  C    -11.280480   -8.332970   -0.609340
  C    -10.131780   -7.665770   -0.075080
  N     -8.930340   -7.971400   -0.501720
  C    -10.280120   -6.671900    0.923740
  N    -10.434230   -5.874160    1.730810
  C    -12.579290   -8.014490   -0.141750
  N    -13.616600   -7.737400    0.256650
  C     -9.830770  -10.559820   -2.994990
  C     -8.512940  -10.873960   -3.409130
  C     -7.349710  -10.217500   -2.850740
  N     -6.222340  -10.678620   -3.391560
  S     -6.572770  -11.808180   -4.476650
  N     -8.170320  -11.778210   -4.326110
  C    -10.990590  -11.166250   -3.536960
  C    -11.051570  -12.112740   -4.558680
  C    -12.338270  -12.514820   -4.875790
  C    -13.285710  -11.854900   -4.066070
  S    -12.581750  -10.754450   -2.947520
  C    -14.629670  -12.200440   -4.305920
  C    -14.843710  -13.163390   -5.314290
  Si   -13.204560  -13.664540   -6.077190
  C    -13.078020  -13.114680   -7.860210
  C    -12.777840  -15.467480   -5.808390
  C    -16.192760  -13.397820   -5.504240
  C    -17.023510  -12.651820   -4.667560
  S    -16.080300  -11.645380   -3.587800
  C    -18.423000  -12.662240   -4.546780
  C    -19.368080  -13.146950   -5.410440
  C    -20.716210  -13.471710   -4.879160
  O    -21.162280  -13.181450   -3.793820
  C    -21.367540  -14.271380   -5.942570
  C    -20.529130  -14.318590   -7.070910
  C    -19.338140  -13.510020   -6.806150
  C    -18.508680  -13.001320   -7.774760
  C    -18.580740  -13.352420   -9.137430
  N    -18.572620  -13.622540  -10.253510
  C    -17.533930  -12.011310   -7.542620
  N    -16.746170  -11.184620   -7.423950
  C    -20.920660  -15.040120   -8.188250
  C    -22.141730  -15.697580   -8.163330
  C    -22.959330  -15.628230   -7.043240
  C    -22.586910  -14.914590   -5.911270
  Br   -24.626930  -16.538130   -7.060200
  H      0.051820    0.999860    4.889990
  H      2.425910    1.440530    4.489310
  H      2.735850   -2.057550    2.021080
  H     -3.433070   -2.759470    3.020760
  H     -0.908860   -5.023410    1.005950
  H     -2.085900   -6.192720   -2.915420
  H     -1.446800   -7.805250   -3.153850
  H     -0.507230   -6.611660   -2.287400
  H     -1.816420   -9.252540    0.933820
  H     -0.329030   -8.642980    0.241920
  H     -1.284440   -9.814940   -0.636430
  H     -4.680530   -9.504220   -2.297580
  H    -10.161910  -12.477010   -5.038060
  H    -13.446420  -12.099440   -7.998050
  H    -13.662680  -13.753770   -8.519300
  H    -12.052530  -13.138320   -8.223530
  H    -12.877360  -15.767220   -4.766680
  H    -11.753600  -15.682930   -6.105500
  H    -13.419740  -16.123710   -6.392740
  H    -16.576370  -14.125610   -6.197410
  H    -18.822750  -12.302630   -3.603080
  H    -20.297200  -15.110210   -9.064720
  H    -22.460980  -16.268270   -9.021810
  H    -23.219100  -14.859020   -5.038750

 Total Charge           Charge          ....    0
 Multiplicity           Mult            ....    1
 Number of Electrons    NEL             ....  624
 Basis Dimension        Dim             .... 1262

ORBITAL ENERGIES
----------------

  NO   OCC          E(Eh)            E(eV)
   0   2.0000    -482.871954    -13139.6139
   1   2.0000    -482.870591    -13139.5768
   2   2.0000     -89.056887     -2423.3611
   3   2.0000     -88.978406     -2421.2255
   4   2.0000     -88.975634     -2421.1501
   5   2.0000     -88.972752     -2421.0717
   6   2.0000     -88.972502     -2421.0649
   7   2.0000     -66.205872     -1801.5534
   8   2.0000     -66.205422     -1801.5411
   9   2.0000     -62.549689     -1702.0636
  10   2.0000     -62.548300     -1702.0258
  11   2.0000     -56.383526     -1534.2737
  12   2.0000     -56.382130     -1534.2358
  13   2.0000     -56.380997     -1534.2049
  14   2.0000     -56.380996     -1534.2049
  15   2.0000     -56.379616     -1534.1673
  16   2.0000     -56.379609     -1534.1672
  17   2.0000     -19.220210      -523.0085
  18   2.0000     -19.217236      -522.9276
  19   2.0000     -14.475503      -393.8985
  20   2.0000     -14.474988      -393.8844
  21   2.0000     -14.466937      -393.6654
  22   2.0000     -14.466484      -393.6530
  23   2.0000     -14.437142      -392.8546
  24   2.0000     -14.436887      -392.8477
  25   2.0000     -14.417827      -392.3290
  26   2.0000     -14.417736      -392.3265
  27   2.0000     -14.414339      -392.2341
  28   2.0000     -14.411071      -392.1452
  29   2.0000     -10.393635      -282.8252
  30   2.0000     -10.393081      -282.8101
  31   2.0000     -10.370950      -282.2079
  32   2.0000     -10.368116      -282.1308
  33   2.0000     -10.357633      -281.8455
  34   2.0000     -10.357362      -281.8381
  35   2.0000     -10.356816      -281.8233
  36   2.0000     -10.356590      -281.8171
  37   2.0000     -10.344969      -281.5009
  38   2.0000     -10.344723      -281.4942
  39   2.0000     -10.344282      -281.4822
  40   2.0000     -10.342460      -281.4327
  41   2.0000     -10.340105      -281.3686
  42   2.0000     -10.339498      -281.3521
  43   2.0000     -10.330396      -281.1044
  44   2.0000     -10.330255      -281.1005
  45   2.0000     -10.329988      -281.0933
  46   2.0000     -10.329874      -281.0902
  47   2.0000     -10.329235      -281.0728
  48   2.0000     -10.328677      -281.0576
  49   2.0000     -10.323540      -280.9178
  50   2.0000     -10.322392      -280.8866
  51   2.0000     -10.321549      -280.8636
  52   2.0000     -10.321276      -280.8562
  53   2.0000     -10.320868      -280.8451
  54   2.0000     -10.319177      -280.7991
  55   2.0000     -10.318783      -280.7884
  56   2.0000     -10.317111      -280.7429
  57   2.0000     -10.316807      -280.7346
  58   2.0000     -10.316160      -280.7170
  59   2.0000     -10.315538      -280.7000
  60   2.0000     -10.314537      -280.6728
  61   2.0000     -10.311314      -280.5851
  62   2.0000     -10.307178      -280.4726
  63   2.0000     -10.304674      -280.4044
  64   2.0000     -10.304275      -280.3936
  65   2.0000     -10.303409      -280.3700
  66   2.0000     -10.301831      -280.3271
  67   2.0000     -10.300980      -280.3039
  68   2.0000     -10.300839      -280.3001
  69   2.0000     -10.299422      -280.2615
  70   2.0000     -10.299420      -280.2615
  71   2.0000     -10.297038      -280.1967
  72   2.0000     -10.296898      -280.1928
  73   2.0000     -10.295815      -280.1634
  74   2.0000     -10.289190      -279.9831
  75   2.0000     -10.288789      -279.9722
  76   2.0000     -10.287945      -279.9492
  77   2.0000     -10.271888      -279.5123
  78   2.0000     -10.269434      -279.4455
  79   2.0000     -10.269334      -279.4428
  80   2.0000     -10.269290      -279.4416
  81   2.0000     -10.260833      -279.2115
  82   2.0000     -10.259240      -279.1681
  83   2.0000     -10.258942      -279.1600
  84   2.0000     -10.255661      -279.0707
  85   2.0000      -8.778988      -238.8884
  86   2.0000      -8.777578      -238.8500
  87   2.0000      -8.148276      -221.7259
  88   2.0000      -8.073812      -219.6996
  89   2.0000      -8.071102      -219.6258
  90   2.0000      -8.066232      -219.4933
  91   2.0000      -8.065972      -219.4862
  92   2.0000      -6.614852      -179.9993
  93   2.0000      -6.613396      -179.9597
  94   2.0000      -6.601076      -179.6244
  95   2.0000      -6.600670      -179.6134
  96   2.0000      -6.599678      -179.5864
  97   2.0000      -6.599291      -179.5758
  98   2.0000      -6.119407      -166.5175
  99   2.0000      -6.111502      -166.3024
 100   2.0000      -6.111038      -166.2898
 101   2.0000      -6.042884      -164.4352
 102   2.0000      -6.040079      -164.3589
 103   2.0000      -6.038847      -164.3254
 104   2.0000      -6.036246      -164.2546
 105   2.0000      -6.036141      -164.2517
 106   2.0000      -6.035704      -164.2399
 107   2.0000      -6.035415      -164.2320
 108   2.0000      -6.033554      -164.1813
 109   2.0000      -6.031082      -164.1141
 110   2.0000      -6.030843      -164.1076
 111   2.0000      -6.028542      -164.0450
 112   2.0000      -6.028294      -164.0382
 113   2.0000      -5.372310      -146.1880
 114   2.0000      -5.371850      -146.1755
 115   2.0000      -3.735915      -101.6594
 116   2.0000      -3.735396      -101.6453
 117   2.0000      -3.734397      -101.6181
 118   2.0000      -3.733916      -101.6050
 119   2.0000      -3.733191      -101.5853
 120   2.0000      -3.732810      -101.5749
 121   2.0000      -2.730730       -74.3069
 122   2.0000      -2.729348       -74.2693
 123   2.0000      -2.727039       -74.2065
 124   2.0000      -2.726710       -74.1976
 125   2.0000      -2.725596       -74.1673
 126   2.0000      -2.725245       -74.1577
 127   2.0000      -2.715760       -73.8996
 128   2.0000      -2.715757       -73.8995
 129   2.0000      -2.714379       -73.8620
 130   2.0000      -2.714368       -73.8617
 131   2.0000      -1.154684       -31.4205
 132   2.0000      -1.135078       -30.8870
 133   2.0000      -1.134716       -30.8772
 134   2.0000      -1.132710       -30.8226
 135   2.0000      -1.063097       -28.9283
 136   2.0000      -1.023253       -27.8441
 137   2.0000      -1.022410       -27.8212
 138   2.0000      -1.017911       -27.6988
 139   2.0000      -1.015702       -27.6387
 140   2.0000      -1.012067       -27.5397
 141   2.0000      -1.010197       -27.4888
 142   2.0000      -1.007263       -27.4090
 143   2.0000      -1.002650       -27.2835
 144   2.0000      -0.999629       -27.2013
 145   2.0000      -0.997516       -27.1438
 146   2.0000      -0.994929       -27.0734
 147   2.0000      -0.991151       -26.9706
 148   2.0000      -0.984301       -26.7842
 149   2.0000      -0.974238       -26.5104
 150   2.0000      -0.964207       -26.2374
 151   2.0000      -0.961424       -26.1617
 152   2.0000      -0.921141       -25.0655
 153   2.0000      -0.920188       -25.0396
 154   2.0000      -0.912553       -24.8318
 155   2.0000      -0.910356       -24.7720
 156   2.0000      -0.907316       -24.6893
 157   2.0000      -0.901223       -24.5235
 158   2.0000      -0.887997       -24.1636
 159   2.0000      -0.881887       -23.9974
 160   2.0000      -0.867677       -23.6107
 161   2.0000      -0.860243       -23.4084
 162   2.0000      -0.857123       -23.3235
 163   2.0000      -0.853770       -23.2323
 164   2.0000      -0.852366       -23.1941
 165   2.0000      -0.845735       -23.0136
 166   2.0000      -0.843660       -22.9572
 167   2.0000      -0.838188       -22.8082
 168   2.0000      -0.835571       -22.7370
 169   2.0000      -0.815530       -22.1917
 170   2.0000      -0.810839       -22.0640
 171   2.0000      -0.802902       -21.8481
 172   2.0000      -0.802278       -21.8311
 173   2.0000      -0.795137       -21.6368
 174   2.0000      -0.780783       -21.2462
 175   2.0000      -0.777724       -21.1629
 176   2.0000      -0.776707       -21.1353
 177   2.0000      -0.768409       -20.9095
 178   2.0000      -0.766942       -20.8696
 179   2.0000      -0.753596       -20.5064
 180   2.0000      -0.748771       -20.3751
 181   2.0000      -0.731411       -19.9027
 182   2.0000      -0.718639       -19.5552
 183   2.0000      -0.711388       -19.3578
 184   2.0000      -0.710869       -19.3437
 185   2.0000      -0.704248       -19.1636
 186   2.0000      -0.696933       -18.9645
 187   2.0000      -0.692380       -18.8406
 188   2.0000      -0.688060       -18.7231
 189   2.0000      -0.683134       -18.5890
 190   2.0000      -0.680969       -18.5301
 191   2.0000      -0.677985       -18.4489
 192   2.0000      -0.664875       -18.0922
 193   2.0000      -0.664312       -18.0769
 194   2.0000      -0.651187       -17.7197
 195   2.0000      -0.645145       -17.5553
 196   2.0000      -0.636053       -17.3079
 197   2.0000      -0.633119       -17.2280
 198   2.0000      -0.627144       -17.0655
 199   2.0000      -0.622805       -16.9474
 200   2.0000      -0.618802       -16.8385
 201   2.0000      -0.616902       -16.7867
 202   2.0000      -0.614550       -16.7228
 203   2.0000      -0.610844       -16.6219
 204   2.0000      -0.606663       -16.5081
 205   2.0000      -0.597462       -16.2578
 206   2.0000      -0.592824       -16.1316
 207   2.0000      -0.588867       -16.0239
 208   2.0000      -0.581994       -15.8369
 209   2.0000      -0.574633       -15.6365
 210   2.0000      -0.573325       -15.6010
 211   2.0000      -0.569571       -15.4988
 212   2.0000      -0.565519       -15.3886
 213   2.0000      -0.554835       -15.0978
 214   2.0000      -0.551411       -15.0047
 215   2.0000      -0.548877       -14.9357
 216   2.0000      -0.544020       -14.8035
 217   2.0000      -0.541897       -14.7458
 218   2.0000      -0.540509       -14.7080
 219   2.0000      -0.538954       -14.6657
 220   2.0000      -0.537735       -14.6325
 221   2.0000      -0.533694       -14.5225
 222   2.0000      -0.530847       -14.4451
 223   2.0000      -0.530110       -14.4250
 224   2.0000      -0.526258       -14.3202
 225   2.0000      -0.524613       -14.2755
 226   2.0000      -0.520213       -14.1557
 227   2.0000      -0.516763       -14.0618
 228   2.0000      -0.513549       -13.9744
 229   2.0000      -0.513244       -13.9661
 230   2.0000      -0.504232       -13.7209
 231   2.0000      -0.500680       -13.6242
 232   2.0000      -0.499758       -13.5991
 233   2.0000      -0.499338       -13.5877
 234   2.0000      -0.498254       -13.5582
 235   2.0000      -0.497057       -13.5256
 236   2.0000      -0.496145       -13.5008
 237   2.0000      -0.495384       -13.4801
 238   2.0000      -0.494635       -13.4597
 239   2.0000      -0.494121       -13.4457
 240   2.0000      -0.490678       -13.3520
 241   2.0000      -0.484705       -13.1895
 242   2.0000      -0.481846       -13.1117
 243   2.0000      -0.480726       -13.0812
 244   2.0000      -0.479797       -13.0559
 245   2.0000      -0.479540       -13.0489
 246   2.0000      -0.478671       -13.0253
 247   2.0000      -0.476928       -12.9779
 248   2.0000      -0.474971       -12.9246
 249   2.0000      -0.473620       -12.8879
 250   2.0000      -0.472748       -12.8641
 251   2.0000      -0.471229       -12.8228
 252   2.0000      -0.466683       -12.6991
 253   2.0000      -0.465160       -12.6577
 254   2.0000      -0.464709       -12.6454
 255   2.0000      -0.463310       -12.6073
 256   2.0000      -0.461684       -12.5631
 257   2.0000      -0.459880       -12.5140
 258   2.0000      -0.457605       -12.4521
 259   2.0000      -0.455115       -12.3843
 260   2.0000      -0.451323       -12.2811
 261   2.0000      -0.450593       -12.2613
 262   2.0000      -0.450291       -12.2531
 263   2.0000      -0.448450       -12.2029
 264   2.0000      -0.447065       -12.1653
 265   2.0000      -0.445930       -12.1344
 266   2.0000      -0.442784       -12.0488
 267   2.0000      -0.441214       -12.0060
 268   2.0000      -0.437784       -11.9127
 269   2.0000      -0.434047       -11.8110
 270   2.0000      -0.432424       -11.7669
 271   2.0000      -0.429835       -11.6964
 272   2.0000      -0.427518       -11.6333
 273   2.0000      -0.425758       -11.5855
 274   2.0000      -0.424967       -11.5639
 275   2.0000      -0.423633       -11.5276
 276   2.0000      -0.421836       -11.4787
 277   2.0000      -0.420657       -11.4466
 278   2.0000      -0.418470       -11.3871
 279   2.0000      -0.417969       -11.3735
 280   2.0000      -0.414607       -11.2820
 281   2.0000      -0.407751       -11.0955
 282   2.0000      -0.405981       -11.0473
 283   2.0000      -0.404342       -11.0027
 284   2.0000      -0.400280       -10.8922
 285   2.0000      -0.398299       -10.8383
 286   2.0000      -0.394966       -10.7476
 287   2.0000      -0.394003       -10.7214
 288   2.0000      -0.390605       -10.6289
 289   2.0000      -0.390144       -10.6164
 290   2.0000      -0.374902       -10.2016
 291   2.0000      -0.373319       -10.1585
 292   2.0000      -0.368881       -10.0378
 293   2.0000      -0.366711        -9.9787
 294   2.0000      -0.365318        -9.9408
 295   2.0000      -0.360764        -9.8169
 296   2.0000      -0.353618        -9.6224
 297   2.0000      -0.351869        -9.5748
 298   2.0000      -0.351133        -9.5548
 299   2.0000      -0.348905        -9.4942
 300   2.0000      -0.340844        -9.2748
 301   2.0000      -0.339781        -9.2459
 302   2.0000      -0.338476        -9.2104
 303   2.0000      -0.338195        -9.2028
 304   2.0000      -0.335222        -9.1218
 305   2.0000      -0.334184        -9.0936
 306   2.0000      -0.330805        -9.0017
 307   2.0000      -0.311262        -8.4699
 308   2.0000      -0.308074        -8.3831
 309   2.0000      -0.298447        -8.1212
 310   2.0000      -0.269884        -7.3439
 311   2.0000      -0.236883        -6.4459
 312   0.0000      -0.139806        -3.8043
 313   0.0000      -0.093083        -2.5329
 314   0.0000      -0.089309        -2.4302
 315   0.0000      -0.067601        -1.8395
 316   0.0000      -0.065002        -1.7688

MULLIKEN ATOMIC CHARGES
-----------------------
   0 C :    0.155925
   1 O :   -0.160067
   2 C :   -0.018348
   3 C :    0.031769
   4 C :   -0.027010
   5 C :    0.047088
   6 C :   -0.000397
   7 C :   -0.018015
   8 Br:   -0.023948
   9 C :    0.312147
  10 C :   -0.357233
  11 C :   -0.190578
  12 N :    0.150055
  13 C :   -0.188659
  14 N :    0.156431
  15 C :   -0.096399
  16 C :    0.057400
  17 C :   -0.110373
  18 C :   -0.012059
  19 C :   -0.128004
  20 C :   -0.072787
  21 S :    0.184098
  22 C :   -0.053476
  23 C :   -0.095449
  24 Si:    0.532277
  25 C :   -0.201415
  26 C :   -0.199430
  27 C :   -0.042119
  28 C :   -0.178284
  29 S :    0.182310
  30 C :    0.201946
  31 C :   -0.066788
  32 C :   -0.065819
  33 N :    0.009035
  34 C :   -0.106567
  35 C :   -0.098282
  36 N :    0.008721
  37 C :   -0.240753
  38 N :    0.253772
  39 C :   -0.239964
  40 N :    0.253976
  41 C :    0.206244
  42 C :   -0.018760
  43 C :   -0.016404
  44 N :   -0.285689
  45 S :    0.550620
  46 N :   -0.286813
  47 C :   -0.178434
  48 C :   -0.038250
  49 C :   -0.099294
  50 C :   -0.045149
  51 S :    0.179876
  52 C :   -0.076714
  53 C :   -0.125264
  54 Si:    0.525943
  55 C :   -0.198901
  56 C :   -0.197437
  57 C :    0.011712
  58 C :   -0.110812
  59 S :    0.193959
  60 C :    0.091355
  61 C :   -0.143951
  62 C :    0.136176
  63 O :   -0.138103
  64 C :   -0.006932
  65 C :    0.017626
  66 C :    0.271621
  67 C :   -0.345547
  68 C :   -0.179963
  69 N :    0.152390
  70 C :   -0.206424
  71 N :    0.172928
  72 C :   -0.029478
  73 C :    0.049492
  74 C :   -0.004262
  75 C :   -0.015888
  76 Br:   -0.021205
  77 H :    0.008742
  78 H :    0.004508
  79 H :   -0.000531
  80 H :    0.001788
  81 H :    0.012349
  82 H :    0.056202
  83 H :    0.044725
  84 H :    0.051516
  85 H :    0.055391
  86 H :    0.050062
  87 H :    0.044076
  88 H :   -0.006201
  89 H :   -0.006398
  90 H :    0.069270
  91 H :    0.047742
  92 H :    0.042845
  93 H :    0.054411
  94 H :    0.044678
  95 H :    0.046516
  96 H :   -0.000167
  97 H :    0.025286
  98 H :    0.008714
  99 H :    0.004832
 100 H :    0.004645
Sum of atomic charges:   -0.0000000

LOEWDIN ATOMIC CHARGES
----------------------
   0 C :    0.088317
   1 O :   -0.145624
   2 C :   -0.036959
   3 C :   -0.016066
   4 C :    0.007779
   5 C :   -0.014766
   6 C :   -0.099091
   7 C :   -0.002681
   8 Br:    0.112083
   9 C :    0.076173
  10 C :   -0.142623
  11 C :   -0.018185
  12 N :   -0.054793
  13 C :   -0.025688
  14 N :   -0.048654
  15 C :   -0.108898
  16 C :    0.047415
  17 C :   -0.181855
  18 C :   -0.004182
  19 C :   -0.200962
  20 C :   -0.165424
  21 S :    0.471999
  22 C :   -0.194407
  23 C :   -0.191017
  24 Si:    0.666622
  25 C :   -0.242439
  26 C :   -0.241986
  27 C :   -0.033590
  28 C :   -0.165318
  29 S :    0.484716
  30 C :   -0.042412
  31 C :   -0.013955
  32 C :   -0.015383
  33 N :   -0.013190
  34 C :   -0.022501
  35 C :   -0.020151
  36 N :   -0.014252
  37 C :   -0.039601
  38 N :    0.004822
  39 C :   -0.039194
  40 N :    0.001875
  41 C :   -0.037682
  42 C :   -0.036671
  43 C :   -0.035724
  44 N :   -0.275398
  45 S :    0.673509
  46 N :   -0.274241
  47 C :   -0.167665
  48 C :   -0.029182
  49 C :   -0.193264
  50 C :   -0.187878
  51 S :    0.484634
  52 C :   -0.166286
  53 C :   -0.190148
  54 Si:    0.666327
  55 C :   -0.240653
  56 C :   -0.243134
  57 C :   -0.008682
  58 C :   -0.185906
  59 S :    0.477332
  60 C :    0.051504
  61 C :   -0.106334
  62 C :    0.082412
  63 O :   -0.138847
  64 C :   -0.038827
  65 C :   -0.014008
  66 C :    0.066355
  67 C :   -0.146744
  68 C :   -0.022078
  69 N :   -0.055445
  70 C :   -0.017563
  71 N :   -0.045064
  72 C :    0.003763
  73 C :   -0.013792
  74 C :   -0.099556
  75 C :    0.000280
  76 Br:    0.114203
  77 H :    0.042924
  78 H :    0.039935
  79 H :    0.042280
  80 H :    0.042776
  81 H :    0.032553
  82 H :    0.042707
  83 H :    0.037393
  84 H :    0.040453
  85 H :    0.042576
  86 H :    0.039823
  87 H :    0.037235
  88 H :    0.027284
  89 H :    0.027536
  90 H :    0.048378
  91 H :    0.039446
  92 H :    0.037053
  93 H :    0.041962
  94 H :    0.037835
  95 H :    0.038043
  96 H :    0.033038
  97 H :    0.046933
  98 H :    0.041985
  99 H :    0.039849
 100 H :    0.044502

  Mayer bond orders larger than 0.100000
B(  0-C ,  1-O ) :   2.1552 B(  0-C ,  2-C ) :   0.9534 B(  0-C , 15-C ) :   0.9527
B(  2-C ,  3-C ) :   1.3363 B(  2-C ,  7-C ) :   1.3779 B(  3-C ,  4-C ) :   1.3633
B(  3-C ,  9-C ) :   0.9836 B(  4-C ,  5-C ) :   1.3828 B(  4-C , 77-H ) :   0.9836
B(  5-C ,  6-C ) :   1.3897 B(  5-C , 78-H ) :   0.9848 B(  6-C ,  7-C ) :   1.3345
B(  6-C ,  8-Br) :   0.9897 B(  7-C , 79-H ) :   1.0079 B(  9-C , 10-C ) :   1.6137
B(  9-C , 15-C ) :   1.0964 B( 10-C , 11-C ) :   1.1486 B( 10-C , 13-C ) :   1.1385
B( 11-C , 12-N ) :   2.9714 B( 13-C , 14-N ) :   2.9671 B( 15-C , 16-C ) :   1.5490
B( 16-C , 17-C ) :   1.2611 B( 16-C , 80-H ) :   0.9071 B( 17-C , 18-C ) :   1.3757
B( 17-C , 21-S ) :   1.0759 B( 18-C , 19-C ) :   1.3148 B( 18-C , 81-H ) :   0.9799
B( 19-C , 20-C ) :   1.4123 B( 19-C , 24-Si) :   0.8706 B( 20-C , 21-S ) :   1.1637
B( 20-C , 22-C ) :   1.1919 B( 22-C , 23-C ) :   1.4428 B( 22-C , 29-S ) :   1.0786
B( 23-C , 24-Si) :   0.8753 B( 23-C , 27-C ) :   1.2831 B( 24-Si, 25-C ) :   1.0626
B( 24-Si, 26-C ) :   1.0620 B( 25-C , 82-H ) :   0.9489 B( 25-C , 83-H ) :   0.9528
B( 25-C , 84-H ) :   0.9533 B( 26-C , 85-H ) :   0.9490 B( 26-C , 86-H ) :   0.9534
B( 26-C , 87-H ) :   0.9536 B( 27-C , 28-C ) :   1.4085 B( 27-C , 88-H ) :   0.9878
B( 28-C , 29-S ) :   1.1062 B( 28-C , 30-C ) :   1.2116 B( 30-C , 31-C ) :   1.2441
B( 30-C , 41-C ) :   0.1151 B( 30-C , 43-C ) :   1.1939 B( 31-C , 32-C ) :   1.1091
B( 31-C , 36-N ) :   1.4115 B( 32-C , 33-N ) :   1.4146 B( 32-C , 41-C ) :   1.2417
B( 33-N , 34-C ) :   1.6946 B( 34-C , 35-C ) :   1.2189 B( 34-C , 39-C ) :   1.1676
B( 35-C , 36-N ) :   1.6983 B( 35-C , 37-C ) :   1.1645 B( 37-C , 38-N ) :   3.0407
B( 39-C , 40-N ) :   3.0412 B( 41-C , 42-C ) :   1.1893 B( 41-C , 47-C ) :   1.2200
B( 42-C , 43-C ) :   1.0987 B( 42-C , 46-N ) :   1.5220 B( 43-C , 44-N ) :   1.5230
B( 44-N , 45-S ) :   1.2743 B( 44-N , 46-N ) :   0.1481 B( 45-S , 46-N ) :   1.2764
B( 47-C , 48-C ) :   1.4039 B( 47-C , 51-S ) :   1.1011 B( 48-C , 49-C ) :   1.2871
B( 48-C , 89-H ) :   0.9873 B( 49-C , 50-C ) :   1.4419 B( 49-C , 54-Si) :   0.8758
B( 50-C , 51-S ) :   1.0806 B( 50-C , 52-C ) :   1.1941 B( 52-C , 53-C ) :   1.4380
B( 52-C , 59-S ) :   1.1535 B( 53-C , 54-Si) :   0.8658 B( 53-C , 57-C ) :   1.3648
B( 54-Si, 55-C ) :   1.0698 B( 54-Si, 56-C ) :   1.0580 B( 55-C , 90-H ) :   0.9461
B( 55-C , 91-H ) :   0.9512 B( 55-C , 92-H ) :   0.9530 B( 56-C , 93-H ) :   0.9496
B( 56-C , 94-H ) :   0.9539 B( 56-C , 95-H ) :   0.9529 B( 57-C , 58-C ) :   1.3753
B( 57-C , 96-H ) :   0.9870 B( 58-C , 59-S ) :   1.0883 B( 58-C , 60-C ) :   1.1797
B( 60-C , 61-C ) :   1.6152 B( 60-C , 97-H ) :   0.9273 B( 61-C , 62-C ) :   0.9559
B( 61-C , 66-C ) :   1.0622 B( 62-C , 63-O ) :   2.2672 B( 62-C , 64-C ) :   0.9152
B( 64-C , 65-C ) :   1.3351 B( 64-C , 75-C ) :   1.3870 B( 65-C , 66-C ) :   1.0022
B( 65-C , 72-C ) :   1.3718 B( 66-C , 67-C ) :   1.6256 B( 67-C , 68-C ) :   1.1290
B( 67-C , 70-C ) :   1.1712 B( 68-C , 69-N ) :   2.9892 B( 70-C , 71-N ) :   2.9946
B( 72-C , 73-C ) :   1.3778 B( 72-C , 98-H ) :   0.9855 B( 73-C , 74-C ) :   1.3934
B( 73-C , 99-H ) :   0.9850 B( 74-C , 75-C ) :   1.3375 B( 74-C , 76-Br) :   0.9908
B( 75-C ,100-H ) :   1.0072

-----------------------------------------------------------------------------
         ABSORPTION SPECTRUM VIA TRANSITION ELECTRIC DIPOLE MOMENTS
-----------------------------------------------------------------------------
State   Energy  Wavelength   fosc         T2         TX        TY        TZ
        (cm-1)    (nm)                  (au**2)     (au)      (au)      (au)
-----------------------------------------------------------------------------
   0    6526.6   1532.2   0.701613356  35.39060   4.64752   2.85743   2.37198
   1   15163.5    659.5   0.032275011   0.70072   0.59428  -0.58952   0.00410
   2   17651.5    566.5   0.964252649  17.98398  -3.40292  -1.56036  -1.99233
   3   18634.9    536.6   0.747747835  13.21003  -2.02076  -2.56068  -1.60297
   4   21684.0    461.2   0.122418113   1.85858  -0.99020  -0.67410  -0.65091
   5   22508.3    444.3   0.127263187   1.86138  -0.12204  -1.20436  -0.62929
   6   23436.3    426.7   0.027561474   0.38716   0.45763  -0.24136  -0.34566
   7   24085.9    415.2   0.004518974   0.06177   0.20340   0.13363  -0.05038
   8   24384.9    410.1   0.231597585   3.12672   1.74443   0.19369  -0.21483
   9   24629.4    406.0   0.006575026   0.08789   0.26595   0.11284   0.06650
  10   24828.6    402.8   0.005313452   0.07045  -0.22295  -0.14401   0.00255
  11   25043.1    399.3   0.019492941   0.25625   0.24351  -0.33031  -0.29640
  12   26273.3    380.6   0.033305176   0.41732  -0.35349   0.53848  -0.04903
  13   26900.5    371.7   0.033951634   0.41550   0.06665  -0.15065  -0.62319
  14   27243.4    367.1   0.252718565   3.05388   1.68191   0.47435   0.00740
  15   27569.8    362.7   0.093238382   1.11336  -0.30112  -0.94249  -0.36662
  16   29174.8    342.8   0.017330013   0.19555  -0.31050   0.23628   0.20813
  17   29283.9    341.5   0.000712467   0.00801  -0.00959  -0.07705  -0.04451
  18   29674.5    337.0   0.009534996   0.10578   0.20622   0.14274   0.20708
  19   29743.0    336.2   0.003644862   0.04034  -0.17504  -0.03900  -0.09045
  20   29995.5    333.4   0.042709177   0.46875  -0.23784  -0.57170  -0.29214
  21   30221.8    330.9   0.080064276   0.87216  -0.72166  -0.53387  -0.25759
  22   31042.8    322.1   0.453791303   4.81250  -1.25136   1.27522   1.27295
  23   31248.4    320.0   0.014491445   0.15267  -0.12043   0.07579   0.36390
  24   31279.7    319.7   0.001662435   0.01750  -0.04145   0.07969  -0.09710
  25   31455.4    317.9   0.005199418   0.05442   0.10442  -0.17096  -0.11953
  26   32090.0    311.6   0.031921746   0.32749  -0.15126   0.22231   0.50516
  27   32134.4    311.2   0.195160146   1.99938  -1.21314  -0.21506   0.69384
  28   32305.0    309.5   0.082481462   0.84055   0.75518   0.49620  -0.15504
  29   32573.9    307.0   0.071809769   0.72575   0.62512  -0.43959  -0.37649
  30   32860.6    304.3   0.023965074   0.24009  -0.39317  -0.29120   0.02670
  31   32893.8    304.0   0.011635343   0.11645   0.28260   0.07325  -0.17669
  32   33116.4    302.0   0.035938211   0.35726  -0.38410   0.17120   0.42476
  33   33869.9    295.2   0.143356921   1.39341   0.89399  -0.51362  -0.57479
  34   34217.6    292.2   0.188471097   1.81330   1.20011   0.59084  -0.15474
  35   34473.4    290.1   0.393226235   3.75521  -1.83638  -0.02909   0.61812
  36   34922.9    286.3   0.258389673   2.43580   1.44918  -0.09600  -0.57136
  37   34953.4    286.1   0.139189719   1.31097  -0.84634  -0.73177   0.24331
  38   35063.6    285.2   0.104468036   0.98085  -0.41528  -0.75611  -0.48650
  39   35225.7    283.9   0.007461423   0.06973   0.09694  -0.13303  -0.20649
  40   36020.5    277.6   0.002647151   0.02419  -0.08602  -0.11239  -0.06452
  41   36142.6    276.7   0.049796642   0.45358   0.54184   0.36441  -0.16492
  42   36512.2    273.9   0.121647412   1.09683  -0.87786   0.26937   0.50362
  43   36827.2    271.5   0.210412855   1.88096  -1.14681  -0.31956   0.68093
  44   36865.6    271.3   0.035942984   0.32097  -0.44711   0.26668   0.22349
  45   36964.1    270.5   0.037492532   0.33392  -0.53132   0.15950   0.16179
  46   37498.0    266.7   0.050261284   0.44127  -0.06956  -0.57488  -0.32549
  47   38036.8    262.9   0.086905870   0.75218  -0.81500  -0.25624   0.14929
  48   38218.7    261.7   0.037292700   0.32124   0.35380   0.25485   0.36209
  49   38429.4    260.2   0.008385440   0.07184  -0.21949   0.07317   0.13529
  50   38598.6    259.1   0.297829191   2.54022  -0.95548   0.73789   1.04058
  51   38997.4    256.4   0.020723802   0.17495   0.34385  -0.13460  -0.19647
  52   39054.3    256.1   0.084977552   0.71633  -0.63125   0.29036   0.48326
  53   39370.7    254.0   0.044303829   0.37046  -0.55418  -0.19121  -0.16365
  54   39814.5    251.2   0.001637502   0.01354  -0.06803   0.06728  -0.06622
  55   39871.2    250.8   0.046110212   0.38073   0.55817  -0.16920  -0.20136
  56   40161.4    249.0   0.050023766   0.41006   0.12306   0.24525  -0.57859

FINAL SINGLE POINT ENERGY    -10559.779236470158

DIPOLE MOMENT
-------------
                                X             Y             Z
Electronic contribution:    -32.98009      30.76031      21.01647
Nuclear contribution   :     36.09672     -35.18155     -23.99861
                        -----------------------------------------
Total Dipole Moment    :      3.11662      -4.42124      -2.98214
                        -----------------------------------------
Magnitude (a.u.)       :      6.17688
Magnitude (Debye)      :     15.70039

Rotational constants in cm-1:     0.002109     0.000125     0.000120
Rotational constants in MHz :    63.234102     3.756160     3.599437

                             ****ORCA TERMINATED NORMALLY****
TOTAL RUN TIME: 0 days 0 hours 12 minutes 34 seconds 334 msec
