                         Program Version 4.2.0 -  RELEASE  -
|  1> # ORCA input file
|  2> # SCF done       -181.420174799766          0.000991191307
|  3> ! CAM-B3LYP def2-SVP def2/J RIJCOSX Grid4 TightSCF
|  4> %maxcore 5000
|  5> %tddft
|  6>     Mode sTDDFT
|  7>     Ethresh 5.0
|  8>     maxcore 5000
|  9> end
| 10>
| 11> %pal
| 12>   nprocs 6
| 13>   end
| 14> * xyz 0 1
| 15>    C        2.23578        -6.77038        -8.05075
| 16>    O        1.28066        -6.78205        -8.78818
| 17>    C        3.65565        -6.87508        -8.43838
| 18>    C        4.47705        -6.67664        -7.31324
| 19>    C        5.85772        -6.74988        -7.45600
| 20>    C        6.38625        -7.01234        -8.70897
| 21>    C        5.55498        -7.19629        -9.80969
| 22>    C        4.17279        -7.12939        -9.69225
| 23>   Br        6.32989        -7.54706       -11.50337
| 24>    C        3.63894        -6.40872        -6.15173
| 25>    C        4.09184        -6.04845        -4.91267
| 26>    C        5.45971        -5.92108        -4.57687
| 27>    N        6.54712        -5.79461        -4.23511
| 28>    C        3.29925        -5.70333        -3.79768
| 29>    N        2.75177        -5.38640        -2.83902
| 30>    C        2.24683        -6.56347        -6.56855
| 31>    C        1.16856        -6.47094        -5.75730
| 32>    C       -0.21553        -6.70564        -6.08000
| 33>    C       -0.67696        -7.64119        -6.94303
| 34>    C       -2.05311        -7.93639        -7.19112
| 35>    C       -2.37367        -8.94946        -8.09025
| 36>    C       -3.69295        -9.37062        -8.33059
| 37>    N       -4.75572        -9.76522        -8.51236
| 38>    C       -1.38414        -9.66539        -8.78517
| 39>    N       -0.57703       -10.26538        -9.34048
| 40>    C       -3.08473        -7.25316        -6.48771
| 41>    C       -2.87115        -6.30468        -5.53485
| 42>    S       -1.27847        -5.71083        -5.09953
| 43>    C       -3.91924        -5.75397        -4.74113
| 44>    C       -5.30409        -5.92012        -4.84998
| 45>    C       -6.02701        -5.34866        -3.74205
| 46>    N       -7.35325        -5.48627        -3.64393
| 47>    C       -7.96404        -6.11148        -4.62352
| 48>    C       -9.43356        -6.32434        -4.48149
| 49>    O      -10.03748        -6.01338        -3.48204
| 50>    C      -10.08306        -6.96832        -5.63893
| 51>    C       -9.43152        -7.34714        -6.74270
| 52>    C       -7.98440        -7.14889        -6.94720
| 53>    O       -7.43033        -7.38929        -7.99354
| 54>    C       -7.25806        -6.58443        -5.77280
| 55>    N       -5.95108        -6.50742        -5.86175
| 56>    C       -5.18833        -4.71718        -2.81806
| 57>    S       -3.54352        -4.83222        -3.33264
| 58>    C       -5.47885        -4.18746        -1.53038
| 59>    C       -6.68799        -4.26365        -0.91637
| 60>    C       -6.89659        -3.95770         0.46234
| 61>    C       -8.18051        -3.85073         0.97677
| 62>    C       -8.41625        -3.62470         2.34461
| 63>    N       -8.60671        -3.44689         3.46299
| 64>    C       -9.33325        -3.87743         0.17001
| 65>    N      -10.29288        -3.86575        -0.45887
| 66>    C       -5.77049        -3.86221         1.34572
| 67>    C       -4.48158        -3.74209         0.94916
| 68>    S       -4.07115        -3.47827        -0.74051
| 69>    C       -3.37685        -3.72729         1.87061
| 70>    C       -2.09546        -4.09866         1.65266
| 71>    C       -1.03713        -3.64545         2.61629
| 72>    O       -1.21489        -3.22155         3.72888
| 73>    C        0.22981        -3.77684         1.86953
| 74>    C       -0.01109        -4.40744         0.63204
| 75>    C       -1.41979        -4.76724         0.55001
| 76>    C       -1.94583        -5.72990        -0.26729
| 77>    C       -1.23862        -6.36267        -1.31093
| 78>    N       -0.74264        -6.88817        -2.20293
| 79>    C       -3.25670        -6.23565        -0.12943
| 80>    N       -4.30339        -6.69621        -0.03017
| 81>    C        1.03774        -4.61408        -0.25254
| 82>    C        2.30745        -4.19762         0.11221
| 83>    C        2.52907        -3.58934         1.34265
| 84>    C        1.49355        -3.36603         2.24245
| 85>   Br        4.28765        -3.04681         1.80228
| 86>    H        6.52291        -6.61167        -6.61982
| 87>    H        7.45609        -7.07449        -8.83588
| 88>    H        3.51905        -7.27476       -10.53825
| 89>    H        1.32225        -6.17105        -4.72726
| 90>    H        0.04453        -8.25215        -7.46662
| 91>    H       -4.11119        -7.53047        -6.69308
| 92>    H      -11.14899        -7.11940        -5.53414
| 93>    H       -9.94839        -7.81312        -7.57062
| 94>    H       -7.52211        -4.64735        -1.49043
| 95>    H       -5.97026        -3.95389         2.40572
| 96>    H       -3.58302        -3.31792         2.85506
| 97>    H        0.89571        -5.07467        -1.21617
| 98>    H        3.12718        -4.35165        -0.57233
| 99>    H        1.66177        -2.89284         3.19739
|100> *
|101>
|102>                          ****END OF INPUT****

CARTESIAN COORDINATES (ANGSTROEM)
---------------------------------
  C      2.235780   -6.770380   -8.050750
  O      1.280660   -6.782050   -8.788180
  C      3.655650   -6.875080   -8.438380
  C      4.477050   -6.676640   -7.313240
  C      5.857720   -6.749880   -7.456000
  C      6.386250   -7.012340   -8.708970
  C      5.554980   -7.196290   -9.809690
  C      4.172790   -7.129390   -9.692250
  Br     6.329890   -7.547060  -11.503370
  C      3.638940   -6.408720   -6.151730
  C      4.091840   -6.048450   -4.912670
  C      5.459710   -5.921080   -4.576870
  N      6.547120   -5.794610   -4.235110
  C      3.299250   -5.703330   -3.797680
  N      2.751770   -5.386400   -2.839020
  C      2.246830   -6.563470   -6.568550
  C      1.168560   -6.470940   -5.757300
  C     -0.215530   -6.705640   -6.080000
  C     -0.676960   -7.641190   -6.943030
  C     -2.053110   -7.936390   -7.191120
  C     -2.373670   -8.949460   -8.090250
  C     -3.692950   -9.370620   -8.330590
  N     -4.755720   -9.765220   -8.512360
  C     -1.384140   -9.665390   -8.785170
  N     -0.577030  -10.265380   -9.340480
  C     -3.084730   -7.253160   -6.487710
  C     -2.871150   -6.304680   -5.534850
  S     -1.278470   -5.710830   -5.099530
  C     -3.919240   -5.753970   -4.741130
  C     -5.304090   -5.920120   -4.849980
  C     -6.027010   -5.348660   -3.742050
  N     -7.353250   -5.486270   -3.643930
  C     -7.964040   -6.111480   -4.623520
  C     -9.433560   -6.324340   -4.481490
  O    -10.037480   -6.013380   -3.482040
  C    -10.083060   -6.968320   -5.638930
  C     -9.431520   -7.347140   -6.742700
  C     -7.984400   -7.148890   -6.947200
  O     -7.430330   -7.389290   -7.993540
  C     -7.258060   -6.584430   -5.772800
  N     -5.951080   -6.507420   -5.861750
  C     -5.188330   -4.717180   -2.818060
  S     -3.543520   -4.832220   -3.332640
  C     -5.478850   -4.187460   -1.530380
  C     -6.687990   -4.263650   -0.916370
  C     -6.896590   -3.957700    0.462340
  C     -8.180510   -3.850730    0.976770
  C     -8.416250   -3.624700    2.344610
  N     -8.606710   -3.446890    3.462990
  C     -9.333250   -3.877430    0.170010
  N    -10.292880   -3.865750   -0.458870
  C     -5.770490   -3.862210    1.345720
  C     -4.481580   -3.742090    0.949160
  S     -4.071150   -3.478270   -0.740510
  C     -3.376850   -3.727290    1.870610
  C     -2.095460   -4.098660    1.652660
  C     -1.037130   -3.645450    2.616290
  O     -1.214890   -3.221550    3.728880
  C      0.229810   -3.776840    1.869530
  C     -0.011090   -4.407440    0.632040
  C     -1.419790   -4.767240    0.550010
  C     -1.945830   -5.729900   -0.267290
  C     -1.238620   -6.362670   -1.310930
  N     -0.742640   -6.888170   -2.202930
  C     -3.256700   -6.235650   -0.129430
  N     -4.303390   -6.696210   -0.030170
  C      1.037740   -4.614080   -0.252540
  C      2.307450   -4.197620    0.112210
  C      2.529070   -3.589340    1.342650
  C      1.493550   -3.366030    2.242450
  Br     4.287650   -3.046810    1.802280
  H      6.522910   -6.611670   -6.619820
  H      7.456090   -7.074490   -8.835880
  H      3.519050   -7.274760  -10.538250
  H      1.322250   -6.171050   -4.727260
  H      0.044530   -8.252150   -7.466620
  H     -4.111190   -7.530470   -6.693080
  H    -11.148990   -7.119400   -5.534140
  H     -9.948390   -7.813120   -7.570620
  H     -7.522110   -4.647350   -1.490430
  H     -5.970260   -3.953890    2.405720
  H     -3.583020   -3.317920    2.855060
  H      0.895710   -5.074670   -1.216170
  H      3.127180   -4.351650   -0.572330
  H      1.661770   -2.892840    3.197390

 Total Charge           Charge          ....    0
 Multiplicity           Mult            ....    1
 Number of Electrons    NEL             ....  546
 Basis Dimension        Dim             .... 1112

ORBITAL ENERGIES
----------------

  NO   OCC          E(Eh)            E(eV)
   0   2.0000    -482.888237    -13140.0569
   1   2.0000    -482.881661    -13139.8780
   2   2.0000     -89.026427     -2422.5322
   3   2.0000     -88.995169     -2421.6817
   4   2.0000     -88.991183     -2421.5732
   5   2.0000     -62.565942     -1702.5058
   6   2.0000     -62.559365     -1702.3269
   7   2.0000     -56.399808     -1534.7168
   8   2.0000     -56.397249     -1534.6472
   9   2.0000     -56.397212     -1534.6462
  10   2.0000     -56.393220     -1534.5375
  11   2.0000     -56.390668     -1534.4681
  12   2.0000     -56.390663     -1534.4679
  13   2.0000     -19.248007      -523.7649
  14   2.0000     -19.242518      -523.6155
  15   2.0000     -19.238069      -523.4945
  16   2.0000     -19.237508      -523.4792
  17   2.0000     -14.468038      -393.6953
  18   2.0000     -14.467430      -393.6788
  19   2.0000     -14.454663      -393.3314
  20   2.0000     -14.443178      -393.0188
  21   2.0000     -14.442459      -392.9993
  22   2.0000     -14.438453      -392.8903
  23   2.0000     -14.418335      -392.3429
  24   2.0000     -14.413723      -392.2173
  25   2.0000     -14.409199      -392.0942
  26   2.0000     -14.406613      -392.0239
  27   2.0000     -10.399639      -282.9886
  28   2.0000     -10.392844      -282.8037
  29   2.0000     -10.386775      -282.6385
  30   2.0000     -10.386202      -282.6229
  31   2.0000     -10.376352      -282.3549
  32   2.0000     -10.374186      -282.2960
  33   2.0000     -10.370637      -282.1994
  34   2.0000     -10.366465      -282.0859
  35   2.0000     -10.366094      -282.0758
  36   2.0000     -10.365577      -282.0617
  37   2.0000     -10.363143      -281.9955
  38   2.0000     -10.362094      -281.9669
  39   2.0000     -10.360947      -281.9357
  40   2.0000     -10.360681      -281.9285
  41   2.0000     -10.360393      -281.9206
  42   2.0000     -10.360074      -281.9119
  43   2.0000     -10.359708      -281.9020
  44   2.0000     -10.359091      -281.8852
  45   2.0000     -10.359041      -281.8838
  46   2.0000     -10.358229      -281.8617
  47   2.0000     -10.357058      -281.8299
  48   2.0000     -10.352774      -281.7133
  49   2.0000     -10.349205      -281.6162
  50   2.0000     -10.348397      -281.5942
  51   2.0000     -10.346410      -281.5401
  52   2.0000     -10.345073      -281.5037
  53   2.0000     -10.344370      -281.4846
  54   2.0000     -10.344282      -281.4822
  55   2.0000     -10.340669      -281.3839
  56   2.0000     -10.338726      -281.3310
  57   2.0000     -10.336451      -281.2691
  58   2.0000     -10.335444      -281.2417
  59   2.0000     -10.332826      -281.1705
  60   2.0000     -10.330348      -281.1031
  61   2.0000     -10.327737      -281.0320
  62   2.0000     -10.326503      -280.9984
  63   2.0000     -10.325141      -280.9614
  64   2.0000     -10.324818      -280.9526
  65   2.0000     -10.324543      -280.9451
  66   2.0000     -10.323177      -280.9079
  67   2.0000     -10.319191      -280.7995
  68   2.0000     -10.318704      -280.7862
  69   2.0000     -10.317671      -280.7581
  70   2.0000     -10.317424      -280.7514
  71   2.0000     -10.317415      -280.7511
  72   2.0000     -10.316829      -280.7352
  73   2.0000     -10.316701      -280.7317
  74   2.0000     -10.313572      -280.6466
  75   2.0000     -10.312958      -280.6298
  76   2.0000     -10.312534      -280.6183
  77   2.0000     -10.311438      -280.5885
  78   2.0000     -10.307729      -280.4876
  79   2.0000      -8.795242      -239.3307
  80   2.0000      -8.788652      -239.1514
  81   2.0000      -8.120312      -220.9649
  82   2.0000      -8.090749      -220.1605
  83   2.0000      -8.086813      -220.0534
  84   2.0000      -6.631216      -180.4446
  85   2.0000      -6.624534      -180.2627
  86   2.0000      -6.617349      -180.0672
  87   2.0000      -6.616774      -180.0516
  88   2.0000      -6.610779      -179.8884
  89   2.0000      -6.610256      -179.8742
  90   2.0000      -6.089264      -165.6973
  91   2.0000      -6.084921      -165.5791
  92   2.0000      -6.083465      -165.5395
  93   2.0000      -6.060650      -164.9187
  94   2.0000      -6.056873      -164.8159
  95   2.0000      -6.056122      -164.7955
  96   2.0000      -6.052533      -164.6978
  97   2.0000      -6.051768      -164.6770
  98   2.0000      -6.047316      -164.5558
  99   2.0000      -2.747134       -74.7533
 100   2.0000      -2.743351       -74.6504
 101   2.0000      -2.742927       -74.6389
 102   2.0000      -2.740497       -74.5727
 103   2.0000      -2.736693       -74.4692
 104   2.0000      -2.736315       -74.4589
 105   2.0000      -2.731902       -74.3388
 106   2.0000      -2.731892       -74.3386
 107   2.0000      -2.725375       -74.1612
 108   2.0000      -2.725361       -74.1608
 109   2.0000      -1.164739       -31.6942
 110   2.0000      -1.159106       -31.5409
 111   2.0000      -1.157042       -31.4847
 112   2.0000      -1.151828       -31.3428
 113   2.0000      -1.120576       -30.4924
 114   2.0000      -1.051886       -28.6233
 115   2.0000      -1.048131       -28.5211
 116   2.0000      -1.047146       -28.4943
 117   2.0000      -1.041226       -28.3332
 118   2.0000      -1.031991       -28.0819
 119   2.0000      -1.025606       -27.9081
 120   2.0000      -1.023537       -27.8519
 121   2.0000      -1.021813       -27.8050
 122   2.0000      -1.018172       -27.7059
 123   2.0000      -1.016395       -27.6575
 124   2.0000      -1.004336       -27.3294
 125   2.0000      -0.999615       -27.2009
 126   2.0000      -0.992804       -27.0156
 127   2.0000      -0.988585       -26.9008
 128   2.0000      -0.985535       -26.8178
 129   2.0000      -0.981687       -26.7131
 130   2.0000      -0.954457       -25.9721
 131   2.0000      -0.952146       -25.9092
 132   2.0000      -0.949179       -25.8285
 133   2.0000      -0.948084       -25.7987
 134   2.0000      -0.937396       -25.5078
 135   2.0000      -0.931379       -25.3441
 136   2.0000      -0.929616       -25.2961
 137   2.0000      -0.913493       -24.8574
 138   2.0000      -0.906746       -24.6738
 139   2.0000      -0.893775       -24.3209
 140   2.0000      -0.888621       -24.1806
 141   2.0000      -0.882151       -24.0046
 142   2.0000      -0.870813       -23.6960
 143   2.0000      -0.865578       -23.5536
 144   2.0000      -0.861182       -23.4340
 145   2.0000      -0.859433       -23.3864
 146   2.0000      -0.851951       -23.1828
 147   2.0000      -0.814118       -22.1533
 148   2.0000      -0.808977       -22.0134
 149   2.0000      -0.807367       -21.9696
 150   2.0000      -0.803962       -21.8769
 151   2.0000      -0.797226       -21.6936
 152   2.0000      -0.788572       -21.4581
 153   2.0000      -0.785610       -21.3775
 154   2.0000      -0.768982       -20.9251
 155   2.0000      -0.757709       -20.6183
 156   2.0000      -0.753698       -20.5092
 157   2.0000      -0.733058       -19.9475
 158   2.0000      -0.722125       -19.6500
 159   2.0000      -0.720139       -19.5960
 160   2.0000      -0.718829       -19.5603
 161   2.0000      -0.710729       -19.3399
 162   2.0000      -0.704087       -19.1592
 163   2.0000      -0.700648       -19.0656
 164   2.0000      -0.697839       -18.9892
 165   2.0000      -0.690272       -18.7833
 166   2.0000      -0.682718       -18.5777
 167   2.0000      -0.679065       -18.4783
 168   2.0000      -0.670735       -18.2516
 169   2.0000      -0.661413       -17.9980
 170   2.0000      -0.645491       -17.5647
 171   2.0000      -0.644193       -17.5294
 172   2.0000      -0.637029       -17.3344
 173   2.0000      -0.633572       -17.2404
 174   2.0000      -0.632317       -17.2062
 175   2.0000      -0.622009       -16.9257
 176   2.0000      -0.617056       -16.7909
 177   2.0000      -0.610595       -16.6151
 178   2.0000      -0.605994       -16.4899
 179   2.0000      -0.602743       -16.4015
 180   2.0000      -0.600139       -16.3306
 181   2.0000      -0.595149       -16.1948
 182   2.0000      -0.589224       -16.0336
 183   2.0000      -0.588385       -16.0108
 184   2.0000      -0.584419       -15.9028
 185   2.0000      -0.578416       -15.7395
 186   2.0000      -0.571246       -15.5444
 187   2.0000      -0.570175       -15.5153
 188   2.0000      -0.569383       -15.4937
 189   2.0000      -0.568316       -15.4647
 190   2.0000      -0.564082       -15.3494
 191   2.0000      -0.562270       -15.3001
 192   2.0000      -0.558804       -15.2058
 193   2.0000      -0.557712       -15.1761
 194   2.0000      -0.552764       -15.0415
 195   2.0000      -0.551515       -15.0075
 196   2.0000      -0.548690       -14.9306
 197   2.0000      -0.545174       -14.8349
 198   2.0000      -0.540086       -14.6965
 199   2.0000      -0.538488       -14.6530
 200   2.0000      -0.535659       -14.5760
 201   2.0000      -0.530739       -14.4421
 202   2.0000      -0.527314       -14.3489
 203   2.0000      -0.526328       -14.3221
 204   2.0000      -0.525530       -14.3004
 205   2.0000      -0.520129       -14.1534
 206   2.0000      -0.519573       -14.1383
 207   2.0000      -0.518545       -14.1103
 208   2.0000      -0.509774       -13.8717
 209   2.0000      -0.508554       -13.8385
 210   2.0000      -0.501650       -13.6506
 211   2.0000      -0.499846       -13.6015
 212   2.0000      -0.498239       -13.5578
 213   2.0000      -0.492755       -13.4086
 214   2.0000      -0.491128       -13.3643
 215   2.0000      -0.488546       -13.2940
 216   2.0000      -0.488069       -13.2810
 217   2.0000      -0.486455       -13.2371
 218   2.0000      -0.483430       -13.1548
 219   2.0000      -0.480856       -13.0847
 220   2.0000      -0.479166       -13.0388
 221   2.0000      -0.476162       -12.9570
 222   2.0000      -0.475168       -12.9300
 223   2.0000      -0.471069       -12.8184
 224   2.0000      -0.468114       -12.7380
 225   2.0000      -0.467555       -12.7228
 226   2.0000      -0.464803       -12.6479
 227   2.0000      -0.461778       -12.5656
 228   2.0000      -0.460828       -12.5398
 229   2.0000      -0.459425       -12.5016
 230   2.0000      -0.455889       -12.4054
 231   2.0000      -0.451214       -12.2782
 232   2.0000      -0.449423       -12.2294
 233   2.0000      -0.447620       -12.1804
 234   2.0000      -0.445842       -12.1320
 235   2.0000      -0.442418       -12.0388
 236   2.0000      -0.441323       -12.0090
 237   2.0000      -0.438426       -11.9302
 238   2.0000      -0.438123       -11.9219
 239   2.0000      -0.437497       -11.9049
 240   2.0000      -0.435856       -11.8602
 241   2.0000      -0.435444       -11.8490
 242   2.0000      -0.429342       -11.6830
 243   2.0000      -0.426992       -11.6190
 244   2.0000      -0.426405       -11.6031
 245   2.0000      -0.423701       -11.5295
 246   2.0000      -0.422613       -11.4999
 247   2.0000      -0.419137       -11.4053
 248   2.0000      -0.415807       -11.3147
 249   2.0000      -0.412889       -11.2353
 250   2.0000      -0.405772       -11.0416
 251   2.0000      -0.403659       -10.9841
 252   2.0000      -0.394641       -10.7387
 253   2.0000      -0.391842       -10.6626
 254   2.0000      -0.390457       -10.6249
 255   2.0000      -0.382136       -10.3984
 256   2.0000      -0.381243       -10.3742
 257   2.0000      -0.377321       -10.2674
 258   2.0000      -0.376272       -10.2389
 259   2.0000      -0.372520       -10.1368
 260   2.0000      -0.368426       -10.0254
 261   2.0000      -0.366189        -9.9645
 262   2.0000      -0.364503        -9.9186
 263   2.0000      -0.363478        -9.8908
 264   2.0000      -0.356515        -9.7013
 265   2.0000      -0.354831        -9.6554
 266   2.0000      -0.350744        -9.5442
 267   2.0000      -0.348063        -9.4713
 268   2.0000      -0.331016        -9.0074
 269   2.0000      -0.323583        -8.8051
 270   2.0000      -0.313701        -8.5362
 271   2.0000      -0.290898        -7.9157
 272   2.0000      -0.275574        -7.4988
 273   0.0000      -0.137397        -3.7388
 274   0.0000      -0.124228        -3.3804
 275   0.0000      -0.113614        -3.0916
 276   0.0000      -0.097945        -2.6652
 277   0.0000      -0.091700        -2.4953

MULLIKEN ATOMIC CHARGES
-----------------------
   0 C :    0.142281
   1 O :   -0.113735
   2 C :   -0.027522
   3 C :    0.036123
   4 C :   -0.020144
   5 C :    0.052659
   6 C :   -0.007096
   7 C :    0.002608
   8 Br:    0.004416
   9 C :    0.302656
  10 C :   -0.334532
  11 C :   -0.193761
  12 N :    0.170573
  13 C :   -0.172309
  14 N :    0.163247
  15 C :   -0.047744
  16 C :   -0.001735
  17 C :   -0.041798
  18 C :    0.002740
  19 C :    0.240216
  20 C :   -0.333370
  21 C :   -0.161674
  22 N :    0.156283
  23 C :   -0.165069
  24 N :    0.134045
  25 C :   -0.131078
  26 C :    0.019358
  27 S :    0.130778
  28 C :   -0.117550
  29 C :    0.038450
  30 C :    0.054416
  31 N :    0.068729
  32 C :   -0.108827
  33 C :    0.142797
  34 O :   -0.081691
  35 C :   -0.011785
  36 C :   -0.011065
  37 C :    0.144764
  38 O :   -0.081364
  39 C :   -0.116602
  40 N :    0.063510
  41 C :   -0.097954
  42 S :    0.210515
  43 C :   -0.007103
  44 C :   -0.094448
  45 C :    0.245800
  46 C :   -0.314929
  47 C :   -0.169865
  48 N :    0.150296
  49 C :   -0.165035
  50 N :    0.172410
  51 C :   -0.014248
  52 C :   -0.072031
  53 S :    0.090434
  54 C :    0.043248
  55 C :   -0.108436
  56 C :    0.138205
  57 O :   -0.117607
  58 C :   -0.012723
  59 C :    0.038804
  60 C :    0.262669
  61 C :   -0.327791
  62 C :   -0.175899
  63 N :    0.164780
  64 C :   -0.197203
  65 N :    0.180676
  66 C :   -0.031434
  67 C :    0.052313
  68 C :   -0.004171
  69 C :   -0.004650
  70 Br:   -0.005531
  71 H :    0.014543
  72 H :    0.014198
  73 H :    0.016971
  74 H :    0.041480
  75 H :    0.031608
  76 H :    0.044933
  77 H :    0.027340
  78 H :    0.027803
  79 H :    0.051272
  80 H :    0.039237
  81 H :    0.046509
  82 H :    0.006088
  83 H :    0.010771
  84 H :    0.007958
Sum of atomic charges:   -0.0000000

LOEWDIN ATOMIC CHARGES
----------------------
   0 C :    0.084193
   1 O :   -0.108193
   2 C :   -0.036744
   3 C :   -0.017916
   4 C :    0.011997
   5 C :   -0.005616
   6 C :   -0.092485
   7 C :    0.008800
   8 Br:    0.135112
   9 C :    0.078774
  10 C :   -0.128115
  11 C :   -0.020062
  12 N :   -0.034432
  13 C :    0.000585
  14 N :   -0.043344
  15 C :   -0.062147
  16 C :    0.045790
  17 C :   -0.138143
  18 C :    0.017630
  19 C :    0.036397
  20 C :   -0.140164
  21 C :   -0.031045
  22 N :   -0.042238
  23 C :   -0.027234
  24 N :   -0.057070
  25 C :   -0.013049
  26 C :   -0.141504
  27 S :    0.435687
  28 C :   -0.194036
  29 C :   -0.031095
  30 C :   -0.029800
  31 N :    0.008918
  32 C :   -0.026995
  33 C :    0.055225
  34 O :   -0.077954
  35 C :   -0.010865
  36 C :   -0.008737
  37 C :    0.055612
  38 O :   -0.076040
  39 C :   -0.026461
  40 N :    0.008156
  41 C :   -0.189582
  42 S :    0.541142
  43 C :   -0.137130
  44 C :   -0.008689
  45 C :    0.038827
  46 C :   -0.120123
  47 C :   -0.028218
  48 N :   -0.043385
  49 C :   -0.031160
  50 N :   -0.025894
  51 C :    0.005504
  52 C :   -0.137045
  53 S :    0.408823
  54 C :    0.041311
  55 C :   -0.064195
  56 C :    0.087746
  57 O :   -0.116514
  58 C :   -0.044166
  59 C :   -0.016322
  60 C :    0.060189
  61 C :   -0.135234
  62 C :   -0.021585
  63 N :   -0.056219
  64 C :   -0.039143
  65 N :   -0.044887
  66 C :    0.012308
  67 C :    0.001578
  68 C :   -0.096456
  69 C :    0.003738
  70 Br:    0.126116
  71 H :    0.044747
  72 H :    0.043787
  73 H :    0.049731
  74 H :    0.045344
  75 H :    0.048887
  76 H :    0.050120
  77 H :    0.049367
  78 H :    0.049617
  79 H :    0.052478
  80 H :    0.054118
  81 H :    0.057248
  82 H :    0.036615
  83 H :    0.039251
  84 H :    0.045965

  Mayer bond orders larger than 0.100000
B(  0-C ,  1-O ) :   2.2641 B(  0-C ,  2-C ) :   0.9378 B(  0-C , 15-C ) :   0.9070
B(  2-C ,  3-C ) :   1.3181 B(  2-C ,  7-C ) :   1.3800 B(  3-C ,  4-C ) :   1.3476
B(  3-C ,  9-C ) :   1.0118 B(  4-C ,  5-C ) :   1.3988 B(  4-C , 71-H ) :   0.9836
B(  5-C ,  6-C ) :   1.3730 B(  5-C , 72-H ) :   0.9846 B(  6-C ,  7-C ) :   1.3408
B(  6-C ,  8-Br) :   1.0087 B(  7-C , 73-H ) :   1.0064 B(  9-C , 10-C ) :   1.6469
B(  9-C , 15-C ) :   1.0460 B( 10-C , 11-C ) :   1.1357 B( 10-C , 13-C ) :   1.1393
B( 11-C , 12-N ) :   2.9830 B( 13-C , 14-N ) :   2.9424 B( 15-C , 16-C ) :   1.7455
B( 16-C , 17-C ) :   1.0428 B( 16-C , 74-H ) :   0.9147 B( 17-C , 18-C ) :   1.6450
B( 17-C , 27-S ) :   1.0528 B( 18-C , 19-C ) :   1.1357 B( 18-C , 75-H ) :   0.9500
B( 19-C , 20-C ) :   1.5294 B( 19-C , 25-C ) :   1.1149 B( 20-C , 21-C ) :   1.1309
B( 20-C , 23-C ) :   1.1308 B( 21-C , 22-N ) :   3.0013 B( 23-C , 24-N ) :   2.9928
B( 25-C , 26-C ) :   1.6115 B( 25-C , 76-H ) :   0.9539 B( 26-C , 27-S ) :   1.0393
B( 26-C , 28-C ) :   1.1311 B( 28-C , 29-C ) :   1.3573 B( 28-C , 41-C ) :   0.1443
B( 28-C , 42-S ) :   1.1763 B( 29-C , 30-C ) :   1.2077 B( 29-C , 40-N ) :   1.4290
B( 30-C , 31-N ) :   1.4351 B( 30-C , 41-C ) :   1.3544 B( 31-N , 32-C ) :   1.7201
B( 32-C , 33-C ) :   0.8781 B( 32-C , 39-C ) :   1.0920 B( 33-C , 34-O ) :   2.2530
B( 33-C , 35-C ) :   1.0265 B( 35-C , 36-C ) :   1.6874 B( 35-C , 77-H ) :   0.9951
B( 36-C , 37-C ) :   1.0207 B( 36-C , 78-H ) :   0.9942 B( 37-C , 38-O ) :   2.2575
B( 37-C , 39-C ) :   0.8784 B( 39-C , 40-N ) :   1.7201 B( 41-C , 42-S ) :   1.1821
B( 41-C , 43-C ) :   1.1343 B( 43-C , 44-C ) :   1.6524 B( 43-C , 53-S ) :   1.0006
B( 44-C , 45-C ) :   1.1070 B( 44-C , 79-H ) :   0.9486 B( 45-C , 46-C ) :   1.5603
B( 45-C , 51-C ) :   1.0775 B( 46-C , 47-C ) :   1.1299 B( 46-C , 49-C ) :   1.1282
B( 47-C , 48-N ) :   3.0029 B( 49-C , 50-N ) :   3.0132 B( 51-C , 52-C ) :   1.6374
B( 51-C , 80-H ) :   0.9747 B( 52-C , 53-S ) :   1.0481 B( 52-C , 54-C ) :   1.0443
B( 54-C , 55-C ) :   1.7453 B( 54-C , 81-H ) :   0.9444 B( 55-C , 56-C ) :   0.9147
B( 55-C , 60-C ) :   0.9956 B( 56-C , 57-O ) :   2.2871 B( 56-C , 58-C ) :   0.9270
B( 58-C , 59-C ) :   1.3149 B( 58-C , 69-C ) :   1.3812 B( 59-C , 60-C ) :   1.0278
B( 59-C , 66-C ) :   1.3360 B( 60-C , 61-C ) :   1.6708 B( 61-C , 62-C ) :   1.1419
B( 61-C , 64-C ) :   1.1548 B( 62-C , 63-N ) :   2.9652 B( 64-C , 65-N ) :   2.9907
B( 66-C , 67-C ) :   1.3963 B( 66-C , 82-H ) :   0.9836 B( 67-C , 68-C ) :   1.3645
B( 67-C , 83-H ) :   0.9800 B( 68-C , 69-C ) :   1.3419 B( 68-C , 70-Br) :   1.0082
B( 69-C , 84-H ) :   1.0060

-----------------------------------------------------------------------------
         ABSORPTION SPECTRUM VIA TRANSITION ELECTRIC DIPOLE MOMENTS
-----------------------------------------------------------------------------
State   Energy  Wavelength   fosc         T2         TX        TY        TZ
        (cm-1)    (nm)                  (au**2)     (au)      (au)      (au)
-----------------------------------------------------------------------------
   0   15291.4    654.0   0.474560067  10.21692  -1.54265   1.44341   2.39869
   1   17537.2    570.2   0.089646604   1.68286  -0.69502  -0.84020  -0.70276
   2   18171.7    550.3   0.210472069   3.81307   1.75597   0.12415  -0.84512
   3   19141.4    522.4   0.008877211   0.15268  -0.30467  -0.17338  -0.17261
   4   21136.9    473.1   0.046225594   0.71997  -0.37834  -0.15050  -0.74443
   5   22195.8    450.5   0.204946028   3.03979  -1.72901   0.19831   0.10479
   6   23156.7    431.8   0.074974247   1.06589   0.16551  -0.54037  -0.86400
   7   23384.9    427.6   0.004961556   0.06985  -0.15445   0.21122   0.03715
   8   23684.9    422.2   0.166467205   2.31384  -1.51754  -0.10351  -0.01422
   9   24402.7    409.8   0.005628468   0.07593  -0.16799   0.21764   0.01860
  10   24896.0    401.7   0.032878282   0.43477  -0.08149  -0.60973  -0.23738
  11   25441.2    393.1   0.000144959   0.00188   0.04243   0.00272   0.00827
  12   25996.5    384.7   0.167463854   2.12071   1.21813   0.31784   0.73202
  13   26280.9    380.5   0.007669987   0.09608  -0.27792   0.04890  -0.12825
  14   27071.6    369.4   0.038984441   0.47408   0.32309  -0.25938  -0.54992
  15   27325.7    366.0   0.083201176   1.00238  -0.39438   0.48900   0.77957
  16   27508.1    363.5   0.165771463   1.98392  -0.93307   0.35853   0.99236
  17   27879.9    358.7   0.138672417   1.63747   0.12521  -0.29620  -1.23857
  18   28409.0    352.0   0.006878702   0.07971   0.00552  -0.24480  -0.14055
  19   28565.3    350.1   0.256985745   2.96173   0.83337  -0.83790  -1.25105
  20   29028.5    344.5   0.075494250   0.85618  -0.73718  -0.44143  -0.34334
  21   29330.4    340.9   0.165771070   1.86065   0.17500  -0.92254  -0.98942
  22   29443.2    339.6   0.014748135   0.16490   0.14299  -0.23083  -0.30195
  23   30159.3    331.6   0.274886416   3.00060  -1.72380  -0.04471   0.16466
  24   30545.6    327.4   0.233873942   2.52063   1.57038  -0.12136  -0.19949
  25   30928.7    323.3   0.023077130   0.24564   0.10918   0.29779   0.38084
  26   31115.9    321.4   0.141151576   1.49341   1.17804   0.08519  -0.31367
  27   31377.2    318.7   0.070021938   0.73468  -0.78932  -0.31964   0.09737
  28   31560.1    316.9   0.102148284   1.06554   0.05386   1.00914   0.21043
  29   32106.6    311.5   0.023459587   0.24055  -0.23875  -0.38216  -0.19366
  30   32486.6    307.8   0.012261991   0.12426   0.13741   0.20640   0.25056
  31   32745.6    305.4   0.141418040   1.42176   0.51672   0.50073   0.95081
  32   32759.6    305.3   0.013336889   0.13403   0.29383   0.21480   0.03941
  33   32877.6    304.2   0.003095621   0.03100  -0.07813   0.12945  -0.09020
  34   33193.5    301.3   0.337620726   3.34851  -0.49688   0.40434   1.71410
  35   33234.6    300.9   0.252737353   2.50354   1.17341   0.59219   0.88088
  36   33721.2    296.5   0.083240952   0.81266  -0.88143   0.18588  -0.03437
  37   33767.2    296.1   0.002796792   0.02727   0.05772  -0.14367  -0.05739
  38   34111.9    293.2   0.062732710   0.60543  -0.20095  -0.44942  -0.60255
  39   34263.3    291.9   0.090618087   0.87069   0.89345   0.06416  -0.26137
  40   34579.4    289.2   0.164259649   1.56383   1.20050   0.20513   0.28381
  41   34824.7    287.2   0.485308433   4.58782   1.81518   0.93243   0.65077
  42   35095.8    284.9   0.148161448   1.38981   0.62426  -0.17174  -0.98520
  43   35307.0    283.2   0.022598748   0.21072   0.18674   0.02838  -0.41838
  44   35421.7    282.3   0.324972524   3.02032   0.82974   0.55264   1.42353
  45   35545.1    281.3   0.162292615   1.50312  -0.87888  -0.49084  -0.69983
  46   36042.9    277.4   0.077875384   0.71131  -0.57672   0.29798   0.53842
  47   36175.6    276.4   0.017861239   0.16254   0.40243   0.00564  -0.02370
  48   36499.6    274.0   0.003382429   0.03051   0.15981   0.03916   0.05862
  49   36583.1    273.4   0.027436393   0.24690   0.38079   0.26053   0.18446
  50   36667.8    272.7   0.076794636   0.68948   0.50036   0.42714   0.50662
  51   36921.4    270.8   0.003956362   0.03528  -0.00431   0.04905  -0.18125
  52   37185.0    268.9   0.037795211   0.33461   0.56796   0.10848  -0.01648
  53   37393.9    267.4   0.034940400   0.30761   0.43113   0.11595   0.32908
  54   37527.7    266.5   0.009611211   0.08431   0.20069  -0.14094  -0.15548
  55   37838.6    264.3   0.026260123   0.22847   0.27062  -0.14972  -0.36444
  56   37941.1    263.6   0.045011685   0.39056   0.04037   0.35507   0.51270
  57   38067.7    262.7   0.013571968   0.11737  -0.13602  -0.02285  -0.31360
  58   38268.6    261.3   0.023128875   0.19897   0.15792   0.33760   0.24506
  59   38332.5    260.9   0.023263229   0.19979   0.23857  -0.26358  -0.27093
  60   38497.2    259.8   0.008115863   0.06940  -0.18265   0.00679  -0.18972
  61   38537.1    259.5   0.050840919   0.43432  -0.64647  -0.12722   0.01439
  62   38643.9    258.8   0.070564138   0.60114  -0.55113   0.13216   0.52909
  63   39183.7    255.2   0.044360070   0.37270  -0.60210  -0.05416  -0.08513
  64   39334.1    254.2   0.000748667   0.00627  -0.00083   0.00028  -0.07915
  65   39472.4    253.3   0.001915652   0.01598  -0.05780   0.00139  -0.11240
  66   39577.2    252.7   0.012853024   0.10691   0.26990  -0.05351  -0.17665
  67   39664.9    252.1   0.103875698   0.86215  -0.86964  -0.02850  -0.32413
  68   40004.4    250.0   0.077644463   0.63897  -0.00267   0.37133   0.70786
  69   40032.3    249.8   0.009869683   0.08116   0.13404   0.07548   0.23979
  70   40165.7    249.0   0.007117749   0.05834  -0.19033  -0.05887   0.13656

FINAL SINGLE POINT ENERGY     -9176.700278774812

DIPOLE MOMENT
-------------
                                X             Y             Z
Electronic contribution:    125.61187      11.38660     -21.22877
Nuclear contribution   :   -122.22295      -9.81136      20.32467
                        -----------------------------------------
Total Dipole Moment    :      3.38892       1.57523      -0.90410
                        -----------------------------------------
Magnitude (a.u.)       :      3.84494
Magnitude (Debye)      :      9.77305

Rotational constants in cm-1:     0.000878     0.000510     0.000330
Rotational constants in MHz :    26.313836    15.276912     9.902644

                             ****ORCA TERMINATED NORMALLY****
TOTAL RUN TIME: 0 days 0 hours 10 minutes 24 seconds 835 msec
