                         Program Version 4.2.0 -  RELEASE  -
|  1> # ORCA input file
|  2> # SCF done       -197.559873362487          0.000899693673
|  3> ! CAM-B3LYP def2-SVP def2/J RIJCOSX Grid4 TightSCF
|  4> %maxcore 5000
|  5> %tddft
|  6>     Mode sTDDFT
|  7>     Ethresh 5.0
|  8>     maxcore 5000
|  9> end
| 10>
| 11> %pal
| 12>   nprocs 6
| 13>   end
| 14> * xyz 0 1
| 15>    C        0.75785        -4.83037         3.94079
| 16>    O       -0.23643        -5.16144         4.54422
| 17>    C        2.09052        -4.61272         4.53545
| 18>    C        2.94321        -4.01923         3.59076
| 19>    C        4.25656        -3.73742         3.94254
| 20>    C        4.68827        -4.06530         5.21898
| 21>    C        3.82125        -4.65330         6.13141
| 22>    C        2.49970        -4.92977         5.81403
| 23>   Br        4.47273        -5.11003         7.85249
| 24>    C        2.20064        -3.82665         2.34720
| 25>    C        2.65182        -3.12058         1.26455
| 26>    C        3.91880        -2.50007         1.20391
| 27>    N        4.93185        -1.97264         1.09352
| 28>    C        1.92269        -2.86232         0.08357
| 29>    N        1.39447        -2.59689        -0.90094
| 30>    C        0.90304        -4.47186         2.50474
| 31>    C        0.05042        -4.73905         1.47079
| 32>    C       -1.14000        -5.49655         1.45292
| 33>    C       -1.77838        -6.22051         2.44956
| 34>    C       -2.87199        -6.92182         1.96806
| 35>    C       -3.10333        -6.72439         0.59076
| 36>    S       -1.95773        -5.68632        -0.10634
| 37>    C       -4.20460        -7.54407         0.20980
| 38>    C       -4.66426        -8.22963         1.34256
| 39>    C       -3.83285        -7.88604         2.47628
| 40>    C       -3.83212        -8.46020         3.71591
| 41>    C       -4.77366        -9.44140         4.08376
| 42>    N       -5.52744       -10.26433         4.34958
| 43>    C       -2.79156        -8.21152         4.63390
| 44>    N       -1.89171        -8.08743         5.33321
| 45>    C       -5.67407        -9.15690         1.04287
| 46>    C       -5.96480        -9.17209        -0.29284
| 47>    S       -5.01349        -8.03455        -1.21181
| 48>    C       -6.85230       -10.15004        -1.01058
| 49>    C       -7.63325       -10.95217        -0.02026
| 50>    N       -8.80026       -10.59353         0.46687
| 51>    S       -9.29351       -11.70276         1.54305
| 52>    N       -8.01069       -12.68312         1.40274
| 53>    C       -7.17175       -12.17659         0.52654
| 54>    C       -5.86843       -12.82470         0.15747
| 55>    C       -5.47217       -12.31213        -1.18998
| 56>    C       -5.94869       -11.09765        -1.74512
| 57>    N       -5.46375       -10.86690        -2.94465
| 58>    S       -4.47724       -12.08326        -3.36366
| 59>    N       -4.65264       -12.94473        -2.00118
| 60>    C       -4.83192       -12.49954         1.19721
| 61>    C       -3.79952       -11.60663         1.11420
| 62>    C       -3.06171       -11.55152         2.31124
| 63>    C       -3.56276       -12.42152         3.28729
| 64>    S       -4.92925       -13.28541         2.75024
| 65>    C       -2.75602       -12.30538         4.45655
| 66>    C       -1.76629       -11.33484         4.21704
| 67>    C       -1.92052       -10.83813         2.85724
| 68>    C       -1.15298        -9.90277         2.22287
| 69>    C       -0.08194        -9.22479         2.84144
| 70>    N        0.79650        -8.65294         3.30694
| 71>    C       -1.40126        -9.53737         0.88514
| 72>    N       -1.61371        -9.23239        -0.20054
| 73>    C       -0.91343       -11.15246         5.30202
| 74>    C       -1.22191       -12.00059         6.35495
| 75>    S       -2.61090       -13.01408         5.99059
| 76>    C       -0.49967       -12.23039         7.55388
| 77>    C        0.39921       -11.41537         8.16436
| 78>    C        1.41946       -11.98952         9.08542
| 79>    O        1.41737       -13.09179         9.57789
| 80>    C        2.45505       -10.93854         9.19924
| 81>    C        2.03217        -9.77660         8.52386
| 82>    C        0.68271       -10.00069         8.01450
| 83>    C       -0.25272        -9.03838         7.74203
| 84>    C        0.05223        -7.66397         7.69871
| 85>    N        0.31759        -6.54835         7.67114
| 86>    C       -1.61788        -9.37586         7.62277
| 87>    N       -2.72391        -9.68256         7.62678
| 88>    C        2.86167        -8.66622         8.47944
| 89>    C        4.09268        -8.72534         9.11375
| 90>    C        4.48498        -9.87603         9.78615
| 91>    C        3.67576       -11.00337         9.83970
| 92>   Br        6.17455        -9.90783        10.64982
| 93>    H        4.94724        -3.28378         3.25110
| 94>    H        5.70925        -3.86363         5.50580
| 95>    H        1.80778        -5.37642         6.51443
| 96>    H        0.34341        -4.37808         0.49211
| 97>    H       -1.44509        -6.22070         3.47094
| 98>    H       -6.15977        -9.77845         1.77230
| 99>    H       -7.51130        -9.62562        -1.70844
|100>    H       -5.99906       -13.91207         0.12425
|101>    H       -3.56945       -11.03894         0.23103
|102>    H       -0.08069       -10.47265         5.31479
|103>    H       -0.60192       -13.21948         7.98913
|104>    H        2.57437        -7.76849         7.95804
|105>    H        4.74849        -7.86858         9.08907
|106>    H        3.97912       -11.89795        10.36109
|107> *
|108>
|109>                          ****END OF INPUT****

CARTESIAN COORDINATES (ANGSTROEM)
---------------------------------
  C      0.757850   -4.830370    3.940790
  O     -0.236430   -5.161440    4.544220
  C      2.090520   -4.612720    4.535450
  C      2.943210   -4.019230    3.590760
  C      4.256560   -3.737420    3.942540
  C      4.688270   -4.065300    5.218980
  C      3.821250   -4.653300    6.131410
  C      2.499700   -4.929770    5.814030
  Br     4.472730   -5.110030    7.852490
  C      2.200640   -3.826650    2.347200
  C      2.651820   -3.120580    1.264550
  C      3.918800   -2.500070    1.203910
  N      4.931850   -1.972640    1.093520
  C      1.922690   -2.862320    0.083570
  N      1.394470   -2.596890   -0.900940
  C      0.903040   -4.471860    2.504740
  C      0.050420   -4.739050    1.470790
  C     -1.140000   -5.496550    1.452920
  C     -1.778380   -6.220510    2.449560
  C     -2.871990   -6.921820    1.968060
  C     -3.103330   -6.724390    0.590760
  S     -1.957730   -5.686320   -0.106340
  C     -4.204600   -7.544070    0.209800
  C     -4.664260   -8.229630    1.342560
  C     -3.832850   -7.886040    2.476280
  C     -3.832120   -8.460200    3.715910
  C     -4.773660   -9.441400    4.083760
  N     -5.527440  -10.264330    4.349580
  C     -2.791560   -8.211520    4.633900
  N     -1.891710   -8.087430    5.333210
  C     -5.674070   -9.156900    1.042870
  C     -5.964800   -9.172090   -0.292840
  S     -5.013490   -8.034550   -1.211810
  C     -6.852300  -10.150040   -1.010580
  C     -7.633250  -10.952170   -0.020260
  N     -8.800260  -10.593530    0.466870
  S     -9.293510  -11.702760    1.543050
  N     -8.010690  -12.683120    1.402740
  C     -7.171750  -12.176590    0.526540
  C     -5.868430  -12.824700    0.157470
  C     -5.472170  -12.312130   -1.189980
  C     -5.948690  -11.097650   -1.745120
  N     -5.463750  -10.866900   -2.944650
  S     -4.477240  -12.083260   -3.363660
  N     -4.652640  -12.944730   -2.001180
  C     -4.831920  -12.499540    1.197210
  C     -3.799520  -11.606630    1.114200
  C     -3.061710  -11.551520    2.311240
  C     -3.562760  -12.421520    3.287290
  S     -4.929250  -13.285410    2.750240
  C     -2.756020  -12.305380    4.456550
  C     -1.766290  -11.334840    4.217040
  C     -1.920520  -10.838130    2.857240
  C     -1.152980   -9.902770    2.222870
  C     -0.081940   -9.224790    2.841440
  N      0.796500   -8.652940    3.306940
  C     -1.401260   -9.537370    0.885140
  N     -1.613710   -9.232390   -0.200540
  C     -0.913430  -11.152460    5.302020
  C     -1.221910  -12.000590    6.354950
  S     -2.610900  -13.014080    5.990590
  C     -0.499670  -12.230390    7.553880
  C      0.399210  -11.415370    8.164360
  C      1.419460  -11.989520    9.085420
  O      1.417370  -13.091790    9.577890
  C      2.455050  -10.938540    9.199240
  C      2.032170   -9.776600    8.523860
  C      0.682710  -10.000690    8.014500
  C     -0.252720   -9.038380    7.742030
  C      0.052230   -7.663970    7.698710
  N      0.317590   -6.548350    7.671140
  C     -1.617880   -9.375860    7.622770
  N     -2.723910   -9.682560    7.626780
  C      2.861670   -8.666220    8.479440
  C      4.092680   -8.725340    9.113750
  C      4.484980   -9.876030    9.786150
  C      3.675760  -11.003370    9.839700
  Br     6.174550   -9.907830   10.649820
  H      4.947240   -3.283780    3.251100
  H      5.709250   -3.863630    5.505800
  H      1.807780   -5.376420    6.514430
  H      0.343410   -4.378080    0.492110
  H     -1.445090   -6.220700    3.470940
  H     -6.159770   -9.778450    1.772300
  H     -7.511300   -9.625620   -1.708440
  H     -5.999060  -13.912070    0.124250
  H     -3.569450  -11.038940    0.231030
  H     -0.080690  -10.472650    5.314790
  H     -0.601920  -13.219480    7.989130
  H      2.574370   -7.768490    7.958040
  H      4.748490   -7.868580    9.089070
  H      3.979120  -11.897950   10.361090

 Total Charge           Charge          ....    0
 Multiplicity           Mult            ....    1
 Number of Electrons    NEL             ....  616
 Basis Dimension        Dim             .... 1222

ORBITAL ENERGIES
----------------

  NO   OCC          E(Eh)            E(eV)
   0   2.0000    -482.874024    -13139.6702
   1   2.0000    -482.871415    -13139.5992
   2   2.0000     -89.028745     -2422.5953
   3   2.0000     -89.028266     -2422.5823
   4   2.0000     -88.999494     -2421.7993
   5   2.0000     -88.999035     -2421.7869
   6   2.0000     -88.997897     -2421.7559
   7   2.0000     -88.997438     -2421.7434
   8   2.0000     -62.551378     -1702.1095
   9   2.0000     -62.549185     -1702.0499
  10   2.0000     -56.385166     -1534.3184
  11   2.0000     -56.383018     -1534.2599
  12   2.0000     -56.382760     -1534.2529
  13   2.0000     -56.382728     -1534.2520
  14   2.0000     -56.380499     -1534.1914
  15   2.0000     -56.380493     -1534.1912
  16   2.0000     -19.221345      -523.0394
  17   2.0000     -19.219492      -522.9890
  18   2.0000     -14.457301      -393.4032
  19   2.0000     -14.456821      -393.3901
  20   2.0000     -14.456773      -393.3888
  21   2.0000     -14.456402      -393.3787
  22   2.0000     -14.442592      -393.0029
  23   2.0000     -14.438161      -392.8823
  24   2.0000     -14.438074      -392.8800
  25   2.0000     -14.436760      -392.8442
  26   2.0000     -14.418696      -392.3527
  27   2.0000     -14.417434      -392.3183
  28   2.0000     -14.414366      -392.2348
  29   2.0000     -14.411129      -392.1468
  30   2.0000     -10.372639      -282.2538
  31   2.0000     -10.372248      -282.2432
  32   2.0000     -10.370550      -282.1970
  33   2.0000     -10.370448      -282.1942
  34   2.0000     -10.363106      -281.9945
  35   2.0000     -10.359425      -281.8943
  36   2.0000     -10.348860      -281.6068
  37   2.0000     -10.348276      -281.5909
  38   2.0000     -10.348212      -281.5892
  39   2.0000     -10.347763      -281.5770
  40   2.0000     -10.346834      -281.5517
  41   2.0000     -10.346181      -281.5339
  42   2.0000     -10.345949      -281.5276
  43   2.0000     -10.344262      -281.4817
  44   2.0000     -10.343953      -281.4733
  45   2.0000     -10.343950      -281.4732
  46   2.0000     -10.343839      -281.4702
  47   2.0000     -10.343361      -281.4572
  48   2.0000     -10.341294      -281.4009
  49   2.0000     -10.340783      -281.3870
  50   2.0000     -10.339466      -281.3512
  51   2.0000     -10.339159      -281.3428
  52   2.0000     -10.338714      -281.3307
  53   2.0000     -10.338009      -281.3115
  54   2.0000     -10.337053      -281.2855
  55   2.0000     -10.336935      -281.2823
  56   2.0000     -10.336698      -281.2759
  57   2.0000     -10.335983      -281.2564
  58   2.0000     -10.331427      -281.1324
  59   2.0000     -10.328274      -281.0466
  60   2.0000     -10.327690      -281.0307
  61   2.0000     -10.327646      -281.0295
  62   2.0000     -10.321324      -280.8575
  63   2.0000     -10.320993      -280.8485
  64   2.0000     -10.317396      -280.7506
  65   2.0000     -10.315684      -280.7040
  66   2.0000     -10.315039      -280.6865
  67   2.0000     -10.312635      -280.6211
  68   2.0000     -10.312231      -280.6101
  69   2.0000     -10.312229      -280.6100
  70   2.0000     -10.312205      -280.6094
  71   2.0000     -10.309867      -280.5457
  72   2.0000     -10.309558      -280.5373
  73   2.0000     -10.307979      -280.4944
  74   2.0000     -10.307438      -280.4797
  75   2.0000     -10.305068      -280.4152
  76   2.0000     -10.303781      -280.3801
  77   2.0000     -10.303104      -280.3617
  78   2.0000     -10.302986      -280.3585
  79   2.0000     -10.302684      -280.3503
  80   2.0000     -10.301896      -280.3288
  81   2.0000     -10.300960      -280.3034
  82   2.0000     -10.300900      -280.3017
  83   2.0000     -10.299416      -280.2614
  84   2.0000     -10.293941      -280.1124
  85   2.0000     -10.293451      -280.0990
  86   2.0000      -8.780543      -238.9307
  87   2.0000      -8.778499      -238.8751
  88   2.0000      -8.121502      -220.9973
  89   2.0000      -8.120975      -220.9830
  90   2.0000      -8.094178      -220.2538
  91   2.0000      -8.093508      -220.2356
  92   2.0000      -8.092419      -220.2059
  93   2.0000      -8.092102      -220.1973
  94   2.0000      -6.616119      -180.0337
  95   2.0000      -6.614355      -179.9858
  96   2.0000      -6.602860      -179.6730
  97   2.0000      -6.602305      -179.6579
  98   2.0000      -6.600593      -179.6113
  99   2.0000      -6.600185      -179.6002
 100   2.0000      -6.093101      -165.8017
 101   2.0000      -6.092584      -165.7876
 102   2.0000      -6.085410      -165.5924
 103   2.0000      -6.084875      -165.5779
 104   2.0000      -6.082754      -165.5201
 105   2.0000      -6.082242      -165.5062
 106   2.0000      -6.063281      -164.9903
 107   2.0000      -6.062683      -164.9740
 108   2.0000      -6.061430      -164.9399
 109   2.0000      -6.061250      -164.9350
 110   2.0000      -6.059095      -164.8764
 111   2.0000      -6.058427      -164.8582
 112   2.0000      -6.057353      -164.8289
 113   2.0000      -6.057003      -164.8194
 114   2.0000      -6.056786      -164.8135
 115   2.0000      -6.056066      -164.7939
 116   2.0000      -6.055115      -164.7681
 117   2.0000      -6.054653      -164.7555
 118   2.0000      -2.732153       -74.3457
 119   2.0000      -2.730232       -74.2934
 120   2.0000      -2.728512       -74.2466
 121   2.0000      -2.728085       -74.2350
 122   2.0000      -2.726548       -74.1931
 123   2.0000      -2.726225       -74.1843
 124   2.0000      -2.717538       -73.9480
 125   2.0000      -2.717529       -73.9477
 126   2.0000      -2.715283       -73.8866
 127   2.0000      -2.715272       -73.8863
 128   2.0000      -1.143957       -31.1287
 129   2.0000      -1.138783       -30.9879
 130   2.0000      -1.137098       -30.9420
 131   2.0000      -1.136556       -30.9273
 132   2.0000      -1.057384       -28.7729
 133   2.0000      -1.052510       -28.6402
 134   2.0000      -1.033156       -28.1136
 135   2.0000      -1.030356       -28.0374
 136   2.0000      -1.022615       -27.8268
 137   2.0000      -1.020447       -27.7678
 138   2.0000      -1.018006       -27.7013
 139   2.0000      -1.015817       -27.6418
 140   2.0000      -1.013399       -27.5760
 141   2.0000      -1.011629       -27.5278
 142   2.0000      -1.001147       -27.2426
 143   2.0000      -1.000714       -27.2308
 144   2.0000      -0.998276       -27.1645
 145   2.0000      -0.994654       -27.0659
 146   2.0000      -0.993217       -27.0268
 147   2.0000      -0.992000       -26.9937
 148   2.0000      -0.981198       -26.6997
 149   2.0000      -0.968688       -26.3593
 150   2.0000      -0.964448       -26.2440
 151   2.0000      -0.962505       -26.1911
 152   2.0000      -0.960939       -26.1485
 153   2.0000      -0.928037       -25.2532
 154   2.0000      -0.923908       -25.1408
 155   2.0000      -0.911160       -24.7939
 156   2.0000      -0.910644       -24.7799
 157   2.0000      -0.903411       -24.5831
 158   2.0000      -0.898555       -24.4509
 159   2.0000      -0.889003       -24.1910
 160   2.0000      -0.883457       -24.0401
 161   2.0000      -0.880994       -23.9731
 162   2.0000      -0.879136       -23.9225
 163   2.0000      -0.870163       -23.6783
 164   2.0000      -0.865113       -23.5409
 165   2.0000      -0.862083       -23.4585
 166   2.0000      -0.861373       -23.4392
 167   2.0000      -0.852673       -23.2024
 168   2.0000      -0.849538       -23.1171
 169   2.0000      -0.826187       -22.4817
 170   2.0000      -0.806681       -21.9509
 171   2.0000      -0.803010       -21.8510
 172   2.0000      -0.786416       -21.3995
 173   2.0000      -0.783988       -21.3334
 174   2.0000      -0.769610       -20.9422
 175   2.0000      -0.768110       -20.9013
 176   2.0000      -0.765991       -20.8437
 177   2.0000      -0.764698       -20.8085
 178   2.0000      -0.742094       -20.1934
 179   2.0000      -0.722601       -19.6630
 180   2.0000      -0.720877       -19.6161
 181   2.0000      -0.711096       -19.3499
 182   2.0000      -0.710203       -19.3256
 183   2.0000      -0.706380       -19.2216
 184   2.0000      -0.701936       -19.1006
 185   2.0000      -0.696574       -18.9547
 186   2.0000      -0.691935       -18.8285
 187   2.0000      -0.688573       -18.7370
 188   2.0000      -0.687694       -18.7131
 189   2.0000      -0.684244       -18.6192
 190   2.0000      -0.683938       -18.6109
 191   2.0000      -0.675969       -18.3941
 192   2.0000      -0.669771       -18.2254
 193   2.0000      -0.654646       -17.8138
 194   2.0000      -0.648914       -17.6579
 195   2.0000      -0.641499       -17.4561
 196   2.0000      -0.638645       -17.3784
 197   2.0000      -0.636751       -17.3269
 198   2.0000      -0.627522       -17.0757
 199   2.0000      -0.625974       -17.0336
 200   2.0000      -0.624318       -16.9886
 201   2.0000      -0.617360       -16.7992
 202   2.0000      -0.614833       -16.7305
 203   2.0000      -0.611211       -16.6319
 204   2.0000      -0.605723       -16.4825
 205   2.0000      -0.602129       -16.3848
 206   2.0000      -0.590213       -16.0605
 207   2.0000      -0.585609       -15.9352
 208   2.0000      -0.582747       -15.8574
 209   2.0000      -0.576811       -15.6958
 210   2.0000      -0.572698       -15.5839
 211   2.0000      -0.568300       -15.4642
 212   2.0000      -0.563977       -15.3466
 213   2.0000      -0.557886       -15.1809
 214   2.0000      -0.552994       -15.0477
 215   2.0000      -0.552253       -15.0276
 216   2.0000      -0.546417       -14.8688
 217   2.0000      -0.546081       -14.8596
 218   2.0000      -0.543995       -14.8028
 219   2.0000      -0.540992       -14.7211
 220   2.0000      -0.540214       -14.7000
 221   2.0000      -0.538666       -14.6578
 222   2.0000      -0.537652       -14.6302
 223   2.0000      -0.535628       -14.5752
 224   2.0000      -0.531003       -14.4493
 225   2.0000      -0.528912       -14.3924
 226   2.0000      -0.525767       -14.3069
 227   2.0000      -0.522045       -14.2056
 228   2.0000      -0.518395       -14.1063
 229   2.0000      -0.514408       -13.9978
 230   2.0000      -0.512349       -13.9417
 231   2.0000      -0.511659       -13.9229
 232   2.0000      -0.507704       -13.8153
 233   2.0000      -0.506549       -13.7839
 234   2.0000      -0.505279       -13.7493
 235   2.0000      -0.501680       -13.6514
 236   2.0000      -0.497369       -13.5341
 237   2.0000      -0.497081       -13.5263
 238   2.0000      -0.492072       -13.3900
 239   2.0000      -0.491191       -13.3660
 240   2.0000      -0.489072       -13.3083
 241   2.0000      -0.485717       -13.2170
 242   2.0000      -0.483315       -13.1517
 243   2.0000      -0.480518       -13.0756
 244   2.0000      -0.479205       -13.0398
 245   2.0000      -0.474763       -12.9190
 246   2.0000      -0.474181       -12.9031
 247   2.0000      -0.472570       -12.8593
 248   2.0000      -0.470131       -12.7929
 249   2.0000      -0.468564       -12.7503
 250   2.0000      -0.467529       -12.7221
 251   2.0000      -0.466876       -12.7044
 252   2.0000      -0.465473       -12.6662
 253   2.0000      -0.463279       -12.6065
 254   2.0000      -0.458708       -12.4821
 255   2.0000      -0.457264       -12.4428
 256   2.0000      -0.456244       -12.4150
 257   2.0000      -0.454518       -12.3681
 258   2.0000      -0.451825       -12.2948
 259   2.0000      -0.451406       -12.2834
 260   2.0000      -0.450290       -12.2530
 261   2.0000      -0.449960       -12.2440
 262   2.0000      -0.449226       -12.2241
 263   2.0000      -0.447063       -12.1652
 264   2.0000      -0.445420       -12.1205
 265   2.0000      -0.443522       -12.0688
 266   2.0000      -0.442684       -12.0460
 267   2.0000      -0.439626       -11.9628
 268   2.0000      -0.438395       -11.9293
 269   2.0000      -0.435617       -11.8537
 270   2.0000      -0.433416       -11.7939
 271   2.0000      -0.430450       -11.7131
 272   2.0000      -0.428450       -11.6587
 273   2.0000      -0.425165       -11.5693
 274   2.0000      -0.424288       -11.5455
 275   2.0000      -0.421391       -11.4666
 276   2.0000      -0.419441       -11.4136
 277   2.0000      -0.417613       -11.3638
 278   2.0000      -0.414090       -11.2680
 279   2.0000      -0.412870       -11.2348
 280   2.0000      -0.408977       -11.1288
 281   2.0000      -0.407450       -11.0873
 282   2.0000      -0.407061       -11.0767
 283   2.0000      -0.401184       -10.9168
 284   2.0000      -0.398936       -10.8556
 285   2.0000      -0.391503       -10.6533
 286   2.0000      -0.385373       -10.4865
 287   2.0000      -0.382913       -10.4196
 288   2.0000      -0.375367       -10.2143
 289   2.0000      -0.370465       -10.0809
 290   2.0000      -0.367522       -10.0008
 291   2.0000      -0.366371        -9.9695
 292   2.0000      -0.359670        -9.7871
 293   2.0000      -0.357483        -9.7276
 294   2.0000      -0.356408        -9.6984
 295   2.0000      -0.351228        -9.5574
 296   2.0000      -0.349841        -9.5197
 297   2.0000      -0.346145        -9.4191
 298   2.0000      -0.345490        -9.4013
 299   2.0000      -0.339416        -9.2360
 300   2.0000      -0.338023        -9.1981
 301   2.0000      -0.334333        -9.0977
 302   2.0000      -0.332079        -9.0363
 303   2.0000      -0.320730        -8.7275
 304   2.0000      -0.308826        -8.4036
 305   2.0000      -0.307725        -8.3736
 306   2.0000      -0.277775        -7.5587
 307   2.0000      -0.273879        -7.4526
 308   0.0000      -0.123158        -3.3513
 309   0.0000      -0.109802        -2.9879
 310   0.0000      -0.090202        -2.4545
 311   0.0000      -0.085281        -2.3206
 312   0.0000      -0.063396        -1.7251

MULLIKEN ATOMIC CHARGES
-----------------------
   0 C :    0.161262
   1 O :   -0.142548
   2 C :   -0.003889
   3 C :    0.032884
   4 C :   -0.031562
   5 C :    0.048933
   6 C :   -0.002835
   7 C :    0.012526
   8 Br:   -0.023102
   9 C :    0.297867
  10 C :   -0.353569
  11 C :   -0.187549
  12 N :    0.155535
  13 C :   -0.184694
  14 N :    0.152287
  15 C :   -0.083786
  16 C :    0.058825
  17 C :   -0.127037
  18 C :   -0.016236
  19 C :   -0.031779
  20 C :   -0.067682
  21 S :    0.226942
  22 C :   -0.093872
  23 C :   -0.009903
  24 C :    0.306532
  25 C :   -0.305322
  26 C :   -0.175648
  27 N :    0.163310
  28 C :   -0.148103
  29 N :    0.165605
  30 C :    0.022286
  31 C :   -0.217591
  32 S :    0.241874
  33 C :    0.343626
  34 C :   -0.152028
  35 N :   -0.251824
  36 S :    0.482152
  37 N :   -0.267599
  38 C :   -0.090449
  39 C :    0.350354
  40 C :   -0.162237
  41 C :   -0.085708
  42 N :   -0.271043
  43 S :    0.481090
  44 N :   -0.252179
  45 C :   -0.216004
  46 C :    0.037160
  47 C :   -0.023277
  48 C :   -0.097722
  49 S :    0.245387
  50 C :   -0.068429
  51 C :   -0.045112
  52 C :    0.331105
  53 C :   -0.334964
  54 C :   -0.196402
  55 N :    0.197148
  56 C :   -0.172645
  57 N :    0.154644
  58 C :    0.036963
  59 C :   -0.137180
  60 S :    0.232456
  61 C :    0.085936
  62 C :   -0.132951
  63 C :    0.142899
  64 O :   -0.135737
  65 C :   -0.012673
  66 C :    0.032398
  67 C :    0.215838
  68 C :   -0.300643
  69 C :   -0.113250
  70 N :    0.158571
  71 C :   -0.185260
  72 N :    0.152756
  73 C :   -0.012418
  74 C :    0.058111
  75 C :   -0.007244
  76 C :   -0.012733
  77 Br:   -0.019837
  78 H :    0.008833
  79 H :    0.003496
  80 H :   -0.017969
  81 H :    0.001614
  82 H :    0.047150
  83 H :    0.020230
  84 H :    0.030030
  85 H :    0.033926
  86 H :    0.011917
  87 H :    0.025815
  88 H :    0.023467
  89 H :   -0.007800
  90 H :   -0.005389
  91 H :    0.003676
Sum of atomic charges:   -0.0000000

LOEWDIN ATOMIC CHARGES
----------------------
   0 C :    0.093627
   1 O :   -0.118336
   2 C :   -0.032319
   3 C :   -0.015808
   4 C :    0.006189
   5 C :   -0.014149
   6 C :   -0.100458
   7 C :    0.005739
   8 Br:    0.122429
   9 C :    0.079151
  10 C :   -0.140005
  11 C :   -0.018572
  12 N :   -0.050902
  13 C :   -0.022573
  14 N :   -0.051176
  15 C :   -0.089359
  16 C :    0.043613
  17 C :   -0.179779
  18 C :    0.014661
  19 C :   -0.085267
  20 C :   -0.154717
  21 S :    0.515040
  22 C :   -0.176424
  23 C :   -0.067959
  24 C :    0.080428
  25 C :   -0.107610
  26 C :   -0.010184
  27 N :   -0.041047
  28 C :    0.000153
  29 N :   -0.014266
  30 C :   -0.035261
  31 C :   -0.161264
  32 S :    0.510484
  33 C :   -0.028489
  34 C :   -0.054174
  35 N :   -0.259328
  36 S :    0.609757
  37 N :   -0.268946
  38 C :   -0.057684
  39 C :   -0.032078
  40 C :   -0.053325
  41 C :   -0.058270
  42 N :   -0.272204
  43 S :    0.608746
  44 N :   -0.258667
  45 C :   -0.160605
  46 C :   -0.034604
  47 C :   -0.074312
  48 C :   -0.176457
  49 S :    0.517928
  50 C :   -0.158702
  51 C :   -0.077237
  52 C :    0.080948
  53 C :   -0.112618
  54 C :   -0.019752
  55 N :   -0.032411
  56 C :   -0.008755
  57 N :   -0.047105
  58 C :    0.009179
  59 C :   -0.178524
  60 S :    0.518133
  61 C :    0.044646
  62 C :   -0.087431
  63 C :    0.084668
  64 O :   -0.135342
  65 C :   -0.041537
  66 C :   -0.012182
  67 C :    0.061148
  68 C :   -0.122291
  69 C :    0.004185
  70 N :   -0.042280
  71 C :   -0.016525
  72 N :   -0.056879
  73 C :    0.008597
  74 C :   -0.009924
  75 C :   -0.100082
  76 C :    0.000597
  77 Br:    0.115398
  78 H :    0.042415
  79 H :    0.039370
  80 H :    0.039103
  81 H :    0.042742
  82 H :    0.040862
  83 H :    0.038015
  84 H :    0.059409
  85 H :    0.060682
  86 H :    0.036621
  87 H :    0.043321
  88 H :    0.046433
  89 H :    0.036780
  90 H :    0.030795
  91 H :    0.044165

  Mayer bond orders larger than 0.100000
B(  0-C ,  1-O ) :   2.1584 B(  0-C ,  2-C ) :   0.9407 B(  0-C , 15-C ) :   0.9336
B(  2-C ,  3-C ) :   1.3276 B(  2-C ,  7-C ) :   1.3943 B(  3-C ,  4-C ) :   1.3621
B(  3-C ,  9-C ) :   0.9914 B(  4-C ,  5-C ) :   1.3896 B(  4-C , 78-H ) :   0.9837
B(  5-C ,  6-C ) :   1.3795 B(  5-C , 79-H ) :   0.9844 B(  6-C ,  7-C ) :   1.3349
B(  6-C ,  8-Br) :   0.9952 B(  7-C , 80-H ) :   0.9821 B(  9-C , 10-C ) :   1.6327
B(  9-C , 15-C ) :   1.0771 B( 10-C , 11-C ) :   1.1449 B( 10-C , 13-C ) :   1.1357
B( 11-C , 12-N ) :   2.9802 B( 13-C , 14-N ) :   2.9747 B( 15-C , 16-C ) :   1.6161
B( 16-C , 17-C ) :   1.2091 B( 16-C , 81-H ) :   0.9136 B( 17-C , 18-C ) :   1.3953
B( 17-C , 21-S ) :   1.0888 B( 18-C , 19-C ) :   1.3135 B( 18-C , 82-H ) :   0.9658
B( 19-C , 20-C ) :   1.3979 B( 19-C , 24-C ) :   0.9967 B( 20-C , 21-S ) :   1.1801
B( 20-C , 22-C ) :   1.1730 B( 22-C , 23-C ) :   1.4693 B( 22-C , 32-S ) :   1.1238
B( 23-C , 24-C ) :   1.0257 B( 23-C , 30-C ) :   1.2277 B( 24-C , 25-C ) :   1.6929
B( 25-C , 26-C ) :   1.1539 B( 25-C , 28-C ) :   1.1503 B( 26-C , 27-N ) :   2.9342
B( 28-C , 29-N ) :   2.8787 B( 30-C , 31-C ) :   1.5520 B( 30-C , 83-H ) :   0.9848
B( 31-C , 32-S ) :   1.1460 B( 31-C , 33-C ) :   1.0282 B( 33-C , 34-C ) :   0.9921
B( 33-C , 41-C ) :   0.9788 B( 33-C , 84-H ) :   0.8301 B( 34-C , 35-N ) :   1.6878
B( 34-C , 38-C ) :   1.2360 B( 35-N , 36-S ) :   1.2190 B( 35-N , 37-N ) :   0.1209
B( 36-S , 37-N ) :   1.2157 B( 37-N , 38-C ) :   1.6727 B( 38-C , 39-C ) :   0.9668
B( 39-C , 40-C ) :   0.9800 B( 39-C , 45-C ) :   1.0216 B( 39-C , 85-H ) :   0.8367
B( 40-C , 41-C ) :   1.2334 B( 40-C , 44-N ) :   1.6861 B( 41-C , 42-N ) :   1.6659
B( 42-N , 43-S ) :   1.2137 B( 42-N , 44-N ) :   0.1216 B( 43-S , 44-N ) :   1.2200
B( 45-C , 46-C ) :   1.5536 B( 45-C , 49-S ) :   1.1476 B( 46-C , 47-C ) :   1.2484
B( 46-C , 86-H ) :   0.9788 B( 47-C , 48-C ) :   1.4699 B( 47-C , 52-C ) :   1.0072
B( 48-C , 49-S ) :   1.1336 B( 48-C , 50-C ) :   1.1719 B( 50-C , 51-C ) :   1.4229
B( 50-C , 60-S ) :   1.1709 B( 51-C , 52-C ) :   0.9923 B( 51-C , 58-C ) :   1.3467
B( 52-C , 53-C ) :   1.6981 B( 53-C , 54-C ) :   1.1428 B( 53-C , 56-C ) :   1.1495
B( 54-C , 55-N ) :   2.9782 B( 56-C , 57-N ) :   2.9209 B( 58-C , 59-C ) :   1.4251
B( 58-C , 87-H ) :   0.9857 B( 59-C , 60-S ) :   1.0979 B( 59-C , 61-C ) :   1.1051
B( 61-C , 62-C ) :   1.7043 B( 61-C , 88-H ) :   0.9327 B( 62-C , 63-C ) :   0.9424
B( 62-C , 67-C ) :   1.0270 B( 63-C , 64-O ) :   2.2750 B( 63-C , 65-C ) :   0.9183
B( 65-C , 66-C ) :   1.3314 B( 65-C , 76-C ) :   1.3838 B( 66-C , 67-C ) :   1.0071
B( 66-C , 73-C ) :   1.3687 B( 67-C , 68-C ) :   1.6872 B( 68-C , 69-C ) :   1.1406
B( 68-C , 71-C ) :   1.1544 B( 69-C , 70-N ) :   2.9154 B( 70-N , 80-H ) :   0.1048
B( 71-C , 72-N ) :   2.9781 B( 73-C , 74-C ) :   1.3804 B( 73-C , 89-H ) :   0.9894
B( 74-C , 75-C ) :   1.3891 B( 74-C , 90-H ) :   0.9798 B( 75-C , 76-C ) :   1.3403
B( 75-C , 77-Br) :   0.9946 B( 76-C , 91-H ) :   1.0067

-----------------------------------------------------------------------------
         ABSORPTION SPECTRUM VIA TRANSITION ELECTRIC DIPOLE MOMENTS
-----------------------------------------------------------------------------
State   Energy  Wavelength   fosc         T2         TX        TY        TZ
        (cm-1)    (nm)                  (au**2)     (au)      (au)      (au)
-----------------------------------------------------------------------------
   0   13902.4    719.3   0.063120245   1.49470   0.93006   0.52117   0.59839
   1   14513.7    689.0   0.010846965   0.24604  -0.31322  -0.23497   0.30450
   2   18488.5    540.9   0.052020811   0.92630   0.21127  -0.36375   0.86565
   3   19204.1    520.7   0.090608649   1.55328   0.88508   0.61109   0.62966
   4   22750.2    439.6   0.211821795   3.06522  -0.24156  -0.32650  -1.70302
   5   23593.0    423.9   1.045696054  14.59143  -3.01720  -2.20290  -0.79700
   6   24901.0    401.6   0.254197654   3.36071   1.45444   0.79917   0.77887
   7   26013.7    384.4   0.009061254   0.11467  -0.03035  -0.30659  -0.14054
   8   26705.7    374.5   0.010681421   0.13167   0.14233   0.24231   0.22957
   9   26978.8    370.7   0.021054349   0.25692  -0.15221  -0.36035   0.32233
  10   27413.2    364.8   0.005516810   0.06625  -0.13877  -0.11707  -0.18245
  11   27798.4    359.7   0.008282509   0.09809  -0.08932   0.29191   0.06998
  12   28018.0    356.9   0.012699990   0.14923   0.29960  -0.02247  -0.24282
  13   28181.0    354.8   0.001919619   0.02243   0.07923  -0.12429  -0.02645
  14   28433.9    351.7   0.044120570   0.51084  -0.41093  -0.29733  -0.50355
  15   29361.7    340.6   0.129725479   1.45452   0.79768  -0.33227   0.84132
  16   29624.7    337.6   0.095784776   1.06443   0.79287   0.56744   0.33735
  17   29846.2    335.1   0.162469237   1.79208  -0.06178   0.75022  -1.10699
  18   30303.4    330.0   0.045268215   0.49179   0.37875   0.35666  -0.47025
  19   30449.2    328.4   0.004338276   0.04690  -0.13133   0.04241   0.16691
  20   30670.5    326.0   0.448351232   4.81253  -1.70629  -0.77419  -1.14093
  21   30943.5    323.2   0.025974908   0.27635   0.30764   0.39095  -0.16989
  22   31178.0    320.7   0.612879522   6.47146  -0.66345   0.81892  -2.31531
  23   31800.6    314.5   0.271334061   2.80895   1.37143   0.81695  -0.51063
  24   32125.9    311.3   0.018618869   0.19080   0.27975   0.30634  -0.13673
  25   32385.9    308.8   0.108984893   1.10786  -0.19549   0.56433  -0.86670
  26   32457.1    308.1   0.457618337   4.64161   1.13062   0.05535   1.83310
  27   33039.5    302.7   0.119691850   1.19263   0.90734  -0.49174   0.35714
  28   33135.9    301.8   0.014440789   0.14347  -0.01461  -0.30441   0.22493
  29   33388.8    299.5   0.069260739   0.68291   0.15488  -0.71672   0.38110
  30   33635.7    297.3   0.014937011   0.14620  -0.32665  -0.19737   0.02328
  31   33976.3    294.3   0.060525615   0.58646  -0.36731   0.21746  -0.63581
  32   34119.2    293.1   0.098918769   0.95446  -0.67537  -0.69091   0.14483
  33   34317.9    291.4   0.072799830   0.69837  -0.44569  -0.03710  -0.70594
  34   34393.7    290.8   0.215915069   2.06671   0.35631  -0.42583   1.32605
  35   34438.4    290.4   0.022848765   0.21842   0.20571  -0.32556   0.26479
  36   34609.5    288.9   0.069702430   0.66302  -0.73491   0.06332  -0.34485
  37   34620.3    288.8   0.097809556   0.93009  -0.73381   0.23860  -0.57852
  38   34730.8    287.9   0.109072453   1.03389   0.78247  -0.44744   0.47057
  39   34940.3    286.2   0.053750176   0.50644  -0.51851   0.42951  -0.23046
  40   34969.4    286.0   0.056015373   0.52735   0.18689  -0.59212   0.37657
  41   35108.6    284.8   0.199730269   1.87287   1.08282   0.54491  -0.63518
  42   35177.4    284.3   0.002427229   0.02272   0.14710   0.03050   0.01215
  43   35364.9    282.8   0.022248728   0.20711   0.21847  -0.15313   0.36870
  44   35596.1    280.9   0.007371584   0.06818  -0.12949  -0.15831  -0.16232
  45   35638.2    280.6   0.350708978   3.23971  -0.18439  -0.74816   1.62664
  46   35833.0    279.1   0.012327652   0.11326  -0.03586   0.19625  -0.27103
  47   37129.5    269.3   0.115345605   1.02272   0.84507  -0.06029   0.55221
  48   37231.0    268.6   0.066834892   0.59098   0.43398  -0.56289   0.29291
  49   37400.9    267.4   0.029883850   0.26305   0.24073  -0.22174   0.39488
  50   37511.5    266.6   0.159797131   1.40243  -0.67950  -0.58067   0.77687
  51   38029.6    263.0   0.014926330   0.12921  -0.27274  -0.23131  -0.03636
  52   38217.4    261.7   0.045062041   0.38817  -0.37714  -0.21830  -0.44529
  53   38456.6    260.0   0.013799220   0.11813   0.31058  -0.00921   0.14691
  54   38498.5    259.8   0.003120191   0.02668  -0.14960  -0.04393  -0.04870
  55   38571.6    259.3   0.034036542   0.29051  -0.09182   0.46894  -0.24935
  56   38812.1    257.7   0.003980039   0.03376   0.14331  -0.09102   0.07026
  57   38910.1    257.0   0.009683918   0.08193   0.23367   0.03452  -0.16168
  58   39177.4    255.2   0.018252546   0.15338   0.02795  -0.38633   0.05782
  59   39261.2    254.7   0.042549805   0.35679   0.38710   0.42008  -0.17456
  60   39634.6    252.3   0.009296395   0.07722  -0.12402   0.24862   0.00532
  61   39725.9    251.7   0.010897867   0.09031  -0.11596   0.11567   0.25196
  62   39937.4    250.4   0.016959288   0.13980   0.33140  -0.16633   0.04802
  63   40016.8    249.9   0.002283553   0.01879  -0.06649  -0.09365   0.07480
  64   40159.8    249.0   0.043630896   0.35767  -0.21595  -0.20754   0.51765

FINAL SINGLE POINT ENERGY    -10482.247508508377

DIPOLE MOMENT
-------------
                                X             Y             Z
Electronic contribution:    102.68464      16.62087      92.35814
Nuclear contribution   :   -104.57057     -19.36591     -93.50841
                        -----------------------------------------
Total Dipole Moment    :     -1.88592      -2.74503      -1.15028
                        -----------------------------------------
Magnitude (a.u.)       :      3.52350
Magnitude (Debye)      :      8.95603

Rotational constants in cm-1:     0.001032     0.000447     0.000341
Rotational constants in MHz :    30.932779    13.398737    10.231899

                             ****ORCA TERMINATED NORMALLY****
TOTAL RUN TIME: 0 days 0 hours 26 minutes 39 seconds 233 msec
