                         Program Version 4.2.0 -  RELEASE  -
|  1> # ORCA input file
|  2> # SCF done       -157.949250655049          0.000788162784
|  3> ! CAM-B3LYP def2-SVP def2/J RIJCOSX Grid4 TightSCF
|  4> %maxcore 5000
|  5> %tddft
|  6>     Mode sTDDFT
|  7>     Ethresh 5.0
|  8>     maxcore 5000
|  9> end
| 10>
| 11> %pal
| 12>   nprocs 6
| 13>   end
| 14> * xyz 0 1
| 15>    C       -7.41418        -8.24192        -5.63551
| 16>    O       -7.47178        -8.50650        -4.45791
| 17>    C       -8.39970        -8.60536        -6.67483
| 18>    C       -7.96979        -8.13920        -7.93092
| 19>    C       -8.75991        -8.36306        -9.05134
| 20>    C       -9.95470        -9.04778        -8.89951
| 21>    C      -10.35736        -9.50554        -7.64971
| 22>    C       -9.58722        -9.29073        -6.51488
| 23>   Br      -12.00017       -10.44238        -7.49413
| 24>    C       -6.68585        -7.46834        -7.77473
| 25>    C       -5.87921        -7.02300        -8.78310
| 26>    C       -6.21302        -7.09935       -10.15339
| 27>    N       -6.43583        -7.13634       -11.27800
| 28>    C       -4.59122        -6.47289        -8.59441
| 29>    N       -3.53070        -6.04251        -8.51580
| 30>    C       -6.37721        -7.43799        -6.34879
| 31>    C       -5.45577        -6.66052        -5.73929
| 32>    C       -5.18520        -6.65436        -4.31658
| 33>    N       -5.11331        -5.45152        -3.73648
| 34>    N       -4.88211        -5.32932        -2.48843
| 35>    C       -4.74474        -6.39594        -1.69228
| 36>    C       -4.78507        -7.70155        -2.21490
| 37>    C       -4.97381        -7.82756        -3.57009
| 38>    C       -4.52393        -6.10994        -0.30541
| 39>    C       -4.16289        -6.98850         0.71936
| 40>    C       -4.00818        -6.31568         1.98610
| 41>    N       -3.67490        -6.99572         3.08879
| 42>    C       -3.49480        -8.29092         2.96292
| 43>    C       -3.12798        -9.03935         4.19485
| 44>    O       -3.02150        -8.50198         5.27509
| 45>    C       -2.90443       -10.48440         4.00400
| 46>    C       -3.02984       -11.10432         2.82676
| 47>    C       -3.40948       -10.41892         1.57713
| 48>    O       -3.53697       -11.00783         0.52629
| 49>    C       -3.63227        -8.95450         1.70504
| 50>    N       -3.95801        -8.30532         0.60970
| 51>    C       -4.25991        -4.94502         1.89208
| 52>    S       -4.67235        -4.49778         0.28115
| 53>    C       -4.21761        -3.95087         2.92312
| 54>    N       -4.58707        -2.72109         2.54774
| 55>    N       -4.55602        -1.73737         3.36482
| 56>    C       -4.13665        -1.89979         4.62570
| 57>    C       -3.78310        -3.16927         5.11706
| 58>    C       -3.82576        -4.23025         4.24605
| 59>    C       -4.12484        -0.73106         5.47260
| 60>    C       -3.97946         0.55200         5.08402
| 61>    C       -4.36105         1.65826         6.01481
| 62>    O       -4.52650         1.57662         7.20630
| 63>    C       -4.54520         2.83521         5.14044
| 64>    C       -4.15667         2.51486         3.82480
| 65>    C       -3.64493         1.14892         3.79812
| 66>    C       -2.81163         0.62879         2.85146
| 67>    C       -2.44497         1.31064         1.67089
| 68>    N       -2.11920         1.83035         0.70187
| 69>    C       -2.14229        -0.60701         2.98930
| 70>    N       -1.52722        -1.57131         3.07886
| 71>    C       -4.28083         3.46527         2.82060
| 72>    C       -4.77689         4.71741         3.14589
| 73>    C       -5.13957         5.01901         4.45409
| 74>    C       -5.03312         4.08308         5.47373
| 75>   Br       -5.79975         6.75317         4.85208
| 76>    H       -8.46890        -8.01202       -10.02774
| 77>    H      -10.58183        -9.22835        -9.75899
| 78>    H       -9.89518        -9.64049        -5.54171
| 79>    H       -4.90353        -5.92460        -6.30945
| 80>    H       -4.65292        -8.55117        -1.56419
| 81>    H       -4.94772        -8.78942        -4.05557
| 82>    H       -2.62771       -11.02561         4.89879
| 83>    H       -2.85874       -12.16802         2.72971
| 84>    H       -3.46673        -3.28983         6.14158
| 85>    H       -3.56870        -5.23646         4.53592
| 86>    H       -4.32234        -0.89619         6.52632
| 87>    H       -4.01310         3.24436         1.80016
| 88>    H       -4.88373         5.46869         2.37846
| 89>    H       -5.31866         4.31190         6.48881
| 90> *
| 91>
| 92>                          ****END OF INPUT****

CARTESIAN COORDINATES (ANGSTROEM)
---------------------------------
  C     -7.414180   -8.241920   -5.635510
  O     -7.471780   -8.506500   -4.457910
  C     -8.399700   -8.605360   -6.674830
  C     -7.969790   -8.139200   -7.930920
  C     -8.759910   -8.363060   -9.051340
  C     -9.954700   -9.047780   -8.899510
  C    -10.357360   -9.505540   -7.649710
  C     -9.587220   -9.290730   -6.514880
  Br   -12.000170  -10.442380   -7.494130
  C     -6.685850   -7.468340   -7.774730
  C     -5.879210   -7.023000   -8.783100
  C     -6.213020   -7.099350  -10.153390
  N     -6.435830   -7.136340  -11.278000
  C     -4.591220   -6.472890   -8.594410
  N     -3.530700   -6.042510   -8.515800
  C     -6.377210   -7.437990   -6.348790
  C     -5.455770   -6.660520   -5.739290
  C     -5.185200   -6.654360   -4.316580
  N     -5.113310   -5.451520   -3.736480
  N     -4.882110   -5.329320   -2.488430
  C     -4.744740   -6.395940   -1.692280
  C     -4.785070   -7.701550   -2.214900
  C     -4.973810   -7.827560   -3.570090
  C     -4.523930   -6.109940   -0.305410
  C     -4.162890   -6.988500    0.719360
  C     -4.008180   -6.315680    1.986100
  N     -3.674900   -6.995720    3.088790
  C     -3.494800   -8.290920    2.962920
  C     -3.127980   -9.039350    4.194850
  O     -3.021500   -8.501980    5.275090
  C     -2.904430  -10.484400    4.004000
  C     -3.029840  -11.104320    2.826760
  C     -3.409480  -10.418920    1.577130
  O     -3.536970  -11.007830    0.526290
  C     -3.632270   -8.954500    1.705040
  N     -3.958010   -8.305320    0.609700
  C     -4.259910   -4.945020    1.892080
  S     -4.672350   -4.497780    0.281150
  C     -4.217610   -3.950870    2.923120
  N     -4.587070   -2.721090    2.547740
  N     -4.556020   -1.737370    3.364820
  C     -4.136650   -1.899790    4.625700
  C     -3.783100   -3.169270    5.117060
  C     -3.825760   -4.230250    4.246050
  C     -4.124840   -0.731060    5.472600
  C     -3.979460    0.552000    5.084020
  C     -4.361050    1.658260    6.014810
  O     -4.526500    1.576620    7.206300
  C     -4.545200    2.835210    5.140440
  C     -4.156670    2.514860    3.824800
  C     -3.644930    1.148920    3.798120
  C     -2.811630    0.628790    2.851460
  C     -2.444970    1.310640    1.670890
  N     -2.119200    1.830350    0.701870
  C     -2.142290   -0.607010    2.989300
  N     -1.527220   -1.571310    3.078860
  C     -4.280830    3.465270    2.820600
  C     -4.776890    4.717410    3.145890
  C     -5.139570    5.019010    4.454090
  C     -5.033120    4.083080    5.473730
  Br    -5.799750    6.753170    4.852080
  H     -8.468900   -8.012020  -10.027740
  H    -10.581830   -9.228350   -9.758990
  H     -9.895180   -9.640490   -5.541710
  H     -4.903530   -5.924600   -6.309450
  H     -4.652920   -8.551170   -1.564190
  H     -4.947720   -8.789420   -4.055570
  H     -2.627710  -11.025610    4.898790
  H     -2.858740  -12.168020    2.729710
  H     -3.466730   -3.289830    6.141580
  H     -3.568700   -5.236460    4.535920
  H     -4.322340   -0.896190    6.526320
  H     -4.013100    3.244360    1.800160
  H     -4.883730    5.468690    2.378460
  H     -5.318660    4.311900    6.488810

 Total Charge           Charge          ....    0
 Multiplicity           Mult            ....    1
 Number of Electrons    NEL             ....  466
 Basis Dimension        Dim             ....  964

ORBITAL ENERGIES
----------------

  NO   OCC          E(Eh)            E(eV)
   0   2.0000    -482.881300    -13139.8682
   1   2.0000    -482.875095    -13139.6994
   2   2.0000     -89.001867     -2421.8639
   3   2.0000     -62.559038     -1702.3180
   4   2.0000     -62.552808     -1702.1484
   5   2.0000     -56.392891     -1534.5286
   6   2.0000     -56.390343     -1534.4592
   7   2.0000     -56.390327     -1534.4588
   8   2.0000     -56.386649     -1534.3587
   9   2.0000     -56.384115     -1534.2898
  10   2.0000     -56.384112     -1534.2897
  11   2.0000     -19.237497      -523.4789
  12   2.0000     -19.237194      -523.4707
  13   2.0000     -19.236867      -523.4618
  14   2.0000     -19.227996      -523.2204
  15   2.0000     -14.457999      -393.4222
  16   2.0000     -14.457813      -393.4171
  17   2.0000     -14.455667      -393.3587
  18   2.0000     -14.455156      -393.3448
  19   2.0000     -14.450926      -393.2297
  20   2.0000     -14.449217      -393.1832
  21   2.0000     -14.428421      -392.6173
  22   2.0000     -14.427097      -392.5813
  23   2.0000     -14.419226      -392.3671
  24   2.0000     -14.418608      -392.3503
  25   2.0000     -10.387969      -282.6710
  26   2.0000     -10.386164      -282.6219
  27   2.0000     -10.385903      -282.6148
  28   2.0000     -10.378080      -282.4019
  29   2.0000     -10.360325      -281.9188
  30   2.0000     -10.356160      -281.8054
  31   2.0000     -10.355586      -281.7898
  32   2.0000     -10.350517      -281.6519
  33   2.0000     -10.350113      -281.6409
  34   2.0000     -10.350023      -281.6384
  35   2.0000     -10.348693      -281.6023
  36   2.0000     -10.346095      -281.5316
  37   2.0000     -10.342354      -281.4297
  38   2.0000     -10.342214      -281.4259
  39   2.0000     -10.341900      -281.4174
  40   2.0000     -10.339331      -281.3475
  41   2.0000     -10.335181      -281.2346
  42   2.0000     -10.331665      -281.1389
  43   2.0000     -10.331362      -281.1307
  44   2.0000     -10.331127      -281.1243
  45   2.0000     -10.329981      -281.0931
  46   2.0000     -10.328926      -281.0644
  47   2.0000     -10.328316      -281.0478
  48   2.0000     -10.323832      -280.9258
  49   2.0000     -10.321517      -280.8628
  50   2.0000     -10.320989      -280.8484
  51   2.0000     -10.320727      -280.8413
  52   2.0000     -10.318848      -280.7901
  53   2.0000     -10.318282      -280.7747
  54   2.0000     -10.317574      -280.7555
  55   2.0000     -10.316563      -280.7280
  56   2.0000     -10.316334      -280.7217
  57   2.0000     -10.315437      -280.6973
  58   2.0000     -10.314406      -280.6693
  59   2.0000     -10.313508      -280.6448
  60   2.0000     -10.312530      -280.6182
  61   2.0000     -10.311099      -280.5793
  62   2.0000     -10.310255      -280.5563
  63   2.0000     -10.309429      -280.5338
  64   2.0000     -10.308537      -280.5096
  65   2.0000     -10.307232      -280.4741
  66   2.0000     -10.306711      -280.4599
  67   2.0000     -10.305348      -280.4228
  68   2.0000     -10.301583      -280.3203
  69   2.0000      -8.788353      -239.1432
  70   2.0000      -8.782104      -238.9732
  71   2.0000      -8.094680      -220.2675
  72   2.0000      -6.624278      -180.2558
  73   2.0000      -6.617964      -180.0840
  74   2.0000      -6.610432      -179.8790
  75   2.0000      -6.609970      -179.8664
  76   2.0000      -6.604206      -179.7096
  77   2.0000      -6.603771      -179.6977
  78   2.0000      -6.063385      -164.9931
  79   2.0000      -6.059046      -164.8750
  80   2.0000      -6.058419      -164.8580
  81   2.0000      -2.740162       -74.5636
  82   2.0000      -2.736457       -74.4628
  83   2.0000      -2.736048       -74.4516
  84   2.0000      -2.733913       -74.3936
  85   2.0000      -2.730128       -74.2906
  86   2.0000      -2.729790       -74.2814
  87   2.0000      -2.725073       -74.1530
  88   2.0000      -2.725056       -74.1525
  89   2.0000      -2.718854       -73.9838
  90   2.0000      -2.718850       -73.9837
  91   2.0000      -1.154715       -31.4214
  92   2.0000      -1.153070       -31.3766
  93   2.0000      -1.150418       -31.3045
  94   2.0000      -1.143878       -31.1265
  95   2.0000      -1.140449       -31.0332
  96   2.0000      -1.136609       -30.9287
  97   2.0000      -1.108187       -30.1553
  98   2.0000      -1.035415       -28.1751
  99   2.0000      -1.032882       -28.1062
 100   2.0000      -1.024600       -27.8808
 101   2.0000      -1.013961       -27.5913
 102   2.0000      -1.013440       -27.5771
 103   2.0000      -1.005779       -27.3686
 104   2.0000      -1.005740       -27.3676
 105   2.0000      -0.997535       -27.1443
 106   2.0000      -0.978519       -26.6269
 107   2.0000      -0.972465       -26.4621
 108   2.0000      -0.957986       -26.0681
 109   2.0000      -0.951413       -25.8893
 110   2.0000      -0.944410       -25.6987
 111   2.0000      -0.936414       -25.4811
 112   2.0000      -0.925057       -25.1721
 113   2.0000      -0.923051       -25.1175
 114   2.0000      -0.914243       -24.8778
 115   2.0000      -0.905431       -24.6380
 116   2.0000      -0.899885       -24.4871
 117   2.0000      -0.882423       -24.0120
 118   2.0000      -0.878998       -23.9187
 119   2.0000      -0.872974       -23.7548
 120   2.0000      -0.862324       -23.4650
 121   2.0000      -0.854879       -23.2625
 122   2.0000      -0.844461       -22.9790
 123   2.0000      -0.808847       -22.0098
 124   2.0000      -0.803649       -21.8684
 125   2.0000      -0.796768       -21.6811
 126   2.0000      -0.791233       -21.5306
 127   2.0000      -0.782037       -21.2803
 128   2.0000      -0.775225       -21.0949
 129   2.0000      -0.771895       -21.0043
 130   2.0000      -0.761450       -20.7201
 131   2.0000      -0.754463       -20.5300
 132   2.0000      -0.747610       -20.3435
 133   2.0000      -0.725705       -19.7474
 134   2.0000      -0.710874       -19.3439
 135   2.0000      -0.707352       -19.2480
 136   2.0000      -0.704791       -19.1783
 137   2.0000      -0.698175       -18.9983
 138   2.0000      -0.690530       -18.7903
 139   2.0000      -0.690125       -18.7793
 140   2.0000      -0.685233       -18.6461
 141   2.0000      -0.681101       -18.5337
 142   2.0000      -0.663965       -18.0674
 143   2.0000      -0.649278       -17.6678
 144   2.0000      -0.642678       -17.4882
 145   2.0000      -0.639730       -17.4079
 146   2.0000      -0.631005       -17.1705
 147   2.0000      -0.624938       -17.0054
 148   2.0000      -0.618312       -16.8251
 149   2.0000      -0.618067       -16.8185
 150   2.0000      -0.612310       -16.6618
 151   2.0000      -0.607819       -16.5396
 152   2.0000      -0.598168       -16.2770
 153   2.0000      -0.592312       -16.1176
 154   2.0000      -0.584239       -15.8980
 155   2.0000      -0.578763       -15.7489
 156   2.0000      -0.576779       -15.6950
 157   2.0000      -0.576085       -15.6761
 158   2.0000      -0.568285       -15.4638
 159   2.0000      -0.560826       -15.2609
 160   2.0000      -0.557495       -15.1702
 161   2.0000      -0.556753       -15.1500
 162   2.0000      -0.553553       -15.0630
 163   2.0000      -0.551880       -15.0174
 164   2.0000      -0.549353       -14.9487
 165   2.0000      -0.547979       -14.9113
 166   2.0000      -0.545287       -14.8380
 167   2.0000      -0.543474       -14.7887
 168   2.0000      -0.537617       -14.6293
 169   2.0000      -0.536332       -14.5943
 170   2.0000      -0.533845       -14.5267
 171   2.0000      -0.532080       -14.4786
 172   2.0000      -0.529836       -14.4176
 173   2.0000      -0.522818       -14.2266
 174   2.0000      -0.518096       -14.0981
 175   2.0000      -0.516260       -14.0482
 176   2.0000      -0.513666       -13.9776
 177   2.0000      -0.509737       -13.8707
 178   2.0000      -0.509002       -13.8506
 179   2.0000      -0.508072       -13.8253
 180   2.0000      -0.502027       -13.6608
 181   2.0000      -0.497728       -13.5439
 182   2.0000      -0.497266       -13.5313
 183   2.0000      -0.494901       -13.4669
 184   2.0000      -0.490313       -13.3421
 185   2.0000      -0.484570       -13.1858
 186   2.0000      -0.481304       -13.0969
 187   2.0000      -0.477433       -12.9916
 188   2.0000      -0.469888       -12.7863
 189   2.0000      -0.465096       -12.6559
 190   2.0000      -0.464263       -12.6332
 191   2.0000      -0.459008       -12.4902
 192   2.0000      -0.458888       -12.4870
 193   2.0000      -0.457372       -12.4457
 194   2.0000      -0.454319       -12.3627
 195   2.0000      -0.453462       -12.3393
 196   2.0000      -0.451771       -12.2933
 197   2.0000      -0.446599       -12.1526
 198   2.0000      -0.439252       -11.9527
 199   2.0000      -0.437906       -11.9160
 200   2.0000      -0.436115       -11.8673
 201   2.0000      -0.433841       -11.8054
 202   2.0000      -0.430720       -11.7205
 203   2.0000      -0.427743       -11.6395
 204   2.0000      -0.422937       -11.5087
 205   2.0000      -0.420621       -11.4457
 206   2.0000      -0.419497       -11.4151
 207   2.0000      -0.418321       -11.3831
 208   2.0000      -0.415836       -11.3155
 209   2.0000      -0.408768       -11.1231
 210   2.0000      -0.402912       -10.9638
 211   2.0000      -0.394120       -10.7246
 212   2.0000      -0.390244       -10.6191
 213   2.0000      -0.384737       -10.4692
 214   2.0000      -0.382628       -10.4118
 215   2.0000      -0.375500       -10.2179
 216   2.0000      -0.373613       -10.1665
 217   2.0000      -0.373485       -10.1630
 218   2.0000      -0.369703       -10.0601
 219   2.0000      -0.363208        -9.8834
 220   2.0000      -0.356750        -9.7076
 221   2.0000      -0.356307        -9.6956
 222   2.0000      -0.355878        -9.6839
 223   2.0000      -0.351601        -9.5675
 224   2.0000      -0.349534        -9.5113
 225   2.0000      -0.345492        -9.4013
 226   2.0000      -0.340621        -9.2688
 227   2.0000      -0.330128        -8.9832
 228   2.0000      -0.318806        -8.6752
 229   2.0000      -0.317839        -8.6488
 230   2.0000      -0.306632        -8.3439
 231   2.0000      -0.303009        -8.2453
 232   2.0000      -0.280120        -7.6225
 233   0.0000      -0.113644        -3.0924
 234   0.0000      -0.100385        -2.7316
 235   0.0000      -0.092479        -2.5165
 236   0.0000      -0.087221        -2.3734
 237   0.0000      -0.074313        -2.0222

MULLIKEN ATOMIC CHARGES
-----------------------
   0 C :    0.152939
   1 O :   -0.129766
   2 C :   -0.030701
   3 C :    0.039584
   4 C :   -0.024349
   5 C :    0.054583
   6 C :   -0.004206
   7 C :   -0.006334
   8 Br:   -0.009369
   9 C :    0.285208
  10 C :   -0.316906
  11 C :   -0.185815
  12 N :    0.161478
  13 C :   -0.201894
  14 N :    0.179519
  15 C :   -0.086081
  16 C :    0.026395
  17 C :   -0.035770
  18 N :   -0.052203
  19 N :   -0.078581
  20 C :   -0.018738
  21 C :   -0.009057
  22 C :    0.119466
  23 C :   -0.119486
  24 C :    0.034918
  25 C :    0.034604
  26 N :    0.057631
  27 C :   -0.117428
  28 C :    0.144585
  29 O :   -0.104955
  30 C :   -0.012602
  31 C :   -0.018171
  32 C :    0.144765
  33 O :   -0.104321
  34 C :   -0.117870
  35 N :    0.060226
  36 C :   -0.125771
  37 S :    0.351450
  38 C :   -0.008306
  39 N :   -0.070921
  40 N :   -0.069605
  41 C :   -0.004958
  42 C :    0.064941
  43 C :    0.019379
  44 C :    0.050055
  45 C :   -0.091679
  46 C :    0.135972
  47 O :   -0.128489
  48 C :   -0.014121
  49 C :    0.025088
  50 C :    0.278162
  51 C :   -0.289040
  52 C :   -0.191938
  53 N :    0.163464
  54 C :   -0.185728
  55 N :    0.163596
  56 C :   -0.020557
  57 C :    0.050955
  58 C :   -0.006231
  59 C :   -0.009512
  60 Br:   -0.015343
  61 H :    0.011314
  62 H :    0.010349
  63 H :    0.005783
  64 H :    0.053638
  65 H :    0.015751
  66 H :    0.002498
  67 H :    0.020358
  68 H :    0.021612
  69 H :    0.003924
  70 H :    0.016982
  71 H :    0.024557
  72 H :    0.015020
  73 H :    0.009888
  74 H :    0.006164
Sum of atomic charges:   -0.0000000

LOEWDIN ATOMIC CHARGES
----------------------
   0 C :    0.086938
   1 O :   -0.120499
   2 C :   -0.039577
   3 C :   -0.014657
   4 C :    0.010822
   5 C :   -0.007788
   6 C :   -0.096596
   7 C :    0.003835
   8 Br:    0.123810
   9 C :    0.071345
  10 C :   -0.120122
  11 C :   -0.018231
  12 N :   -0.038594
  13 C :   -0.025100
  14 N :   -0.031642
  15 C :   -0.076237
  16 C :    0.080693
  17 C :   -0.029027
  18 N :   -0.028844
  19 N :   -0.058514
  20 C :   -0.022508
  21 C :    0.007178
  22 C :    0.031846
  23 C :   -0.184036
  24 C :   -0.039625
  25 C :   -0.038818
  26 N :    0.004605
  27 C :   -0.040781
  28 C :    0.058068
  29 O :   -0.100193
  30 C :   -0.011461
  31 C :   -0.011177
  32 C :    0.057902
  33 O :   -0.099475
  34 C :   -0.041698
  35 N :    0.006243
  36 C :   -0.186428
  37 S :    0.631665
  38 C :   -0.018167
  39 N :   -0.050546
  40 N :   -0.029407
  41 C :   -0.026886
  42 C :    0.018191
  43 C :    0.017893
  44 C :    0.055104
  45 C :   -0.054848
  46 C :    0.086662
  47 O :   -0.126875
  48 C :   -0.042426
  49 C :   -0.008349
  50 C :    0.073245
  51 C :   -0.110484
  52 C :   -0.018237
  53 N :   -0.040871
  54 C :   -0.015518
  55 N :   -0.050676
  56 C :    0.009229
  57 C :   -0.007910
  58 C :   -0.099206
  59 C :    0.002297
  60 Br:    0.119285
  61 H :    0.044125
  62 H :    0.042380
  63 H :    0.045317
  64 H :    0.054795
  65 H :    0.041038
  66 H :    0.039704
  67 H :    0.046906
  68 H :    0.047063
  69 H :    0.042663
  70 H :    0.041563
  71 H :    0.048308
  72 H :    0.044601
  73 H :    0.041717
  74 H :    0.045000

  Mayer bond orders larger than 0.100000
B(  0-C ,  1-O ) :   2.2348 B(  0-C ,  2-C ) :   0.9471 B(  0-C , 15-C ) :   0.9238
B(  2-C ,  3-C ) :   1.3259 B(  2-C ,  7-C ) :   1.3765 B(  3-C ,  4-C ) :   1.3546
B(  3-C ,  9-C ) :   1.0099 B(  4-C ,  5-C ) :   1.3930 B(  4-C , 61-H ) :   0.9849
B(  5-C ,  6-C ) :   1.3782 B(  5-C , 62-H ) :   0.9843 B(  6-C ,  7-C ) :   1.3436
B(  6-C ,  8-Br) :   0.9989 B(  7-C , 63-H ) :   1.0073 B(  9-C , 10-C ) :   1.6863
B(  9-C , 15-C ) :   1.0219 B( 10-C , 11-C ) :   1.1320 B( 10-C , 13-C ) :   1.1332
B( 11-C , 12-N ) :   2.9830 B( 13-C , 14-N ) :   3.0040 B( 15-C , 16-C ) :   1.7466
B( 16-C , 17-C ) :   1.0182 B( 16-C , 64-H ) :   0.9463 B( 17-C , 18-N ) :   1.5024
B( 17-C , 22-C ) :   1.3002 B( 18-N , 19-N ) :   1.3779 B( 19-N , 20-C ) :   1.5326
B( 20-C , 21-C ) :   1.3287 B( 20-C , 23-C ) :   1.0889 B( 21-C , 22-C ) :   1.4127
B( 21-C , 65-H ) :   0.9704 B( 22-C , 66-H ) :   0.9759 B( 23-C , 24-C ) :   1.3700
B( 23-C , 36-C ) :   0.1561 B( 23-C , 37-S ) :   1.1979 B( 24-C , 25-C ) :   1.1905
B( 24-C , 35-N ) :   1.4297 B( 25-C , 26-N ) :   1.4261 B( 25-C , 36-C ) :   1.3697
B( 26-N , 27-C ) :   1.7159 B( 27-C , 28-C ) :   0.8917 B( 27-C , 34-C ) :   1.0950
B( 28-C , 29-O ) :   2.2330 B( 28-C , 30-C ) :   1.0268 B( 30-C , 31-C ) :   1.6839
B( 30-C , 67-H ) :   0.9976 B( 31-C , 32-C ) :   1.0258 B( 31-C , 68-H ) :   0.9981
B( 32-C , 33-O ) :   2.2355 B( 32-C , 34-C ) :   0.8911 B( 34-C , 35-N ) :   1.7132
B( 36-C , 37-S ) :   1.1948 B( 36-C , 38-C ) :   1.0998 B( 38-C , 39-N ) :   1.5268
B( 38-C , 43-C ) :   1.3209 B( 39-N , 40-N ) :   1.3765 B( 40-N , 41-C ) :   1.4678
B( 41-C , 42-C ) :   1.2770 B( 41-C , 44-C ) :   1.0232 B( 42-C , 43-C ) :   1.3995
B( 42-C , 69-H ) :   0.9913 B( 43-C , 70-H ) :   0.9658 B( 44-C , 45-C ) :   1.7661
B( 44-C , 71-H ) :   0.9462 B( 45-C , 46-C ) :   0.9250 B( 45-C , 50-C ) :   0.9970
B( 46-C , 47-O ) :   2.2829 B( 46-C , 48-C ) :   0.9222 B( 48-C , 49-C ) :   1.3275
B( 48-C , 59-C ) :   1.3761 B( 49-C , 50-C ) :   1.0132 B( 49-C , 56-C ) :   1.3623
B( 50-C , 51-C ) :   1.7078 B( 51-C , 52-C ) :   1.1314 B( 51-C , 54-C ) :   1.1534
B( 52-C , 53-N ) :   2.9961 B( 54-C , 55-N ) :   3.0048 B( 56-C , 57-C ) :   1.3884
B( 56-C , 72-H ) :   0.9862 B( 57-C , 58-C ) :   1.3800 B( 57-C , 73-H ) :   0.9860
B( 58-C , 59-C ) :   1.3494 B( 58-C , 60-Br) :   0.9964 B( 59-C , 74-H ) :   1.0067

-----------------------------------------------------------------------------
         ABSORPTION SPECTRUM VIA TRANSITION ELECTRIC DIPOLE MOMENTS
-----------------------------------------------------------------------------
State   Energy  Wavelength   fosc         T2         TX        TY        TZ
        (cm-1)    (nm)                  (au**2)     (au)      (au)      (au)
-----------------------------------------------------------------------------
   0   18961.0    527.4   0.602795300  10.46610  -0.57822  -1.90401  -2.55078
   1   19841.6    504.0   0.066430768   1.10222   0.14391   0.60599   0.84515
   2   20770.4    481.5   0.013660633   0.21652   0.02352  -0.00583  -0.46469
   3   22733.8    439.9   0.242937957   3.51803  -0.40036   1.51089  -1.03680
   4   24779.1    403.6   0.019510734   0.25922  -0.02491  -0.34677  -0.37195
   5   25275.4    395.6   0.167233540   2.17822  -0.63932  -0.91525  -0.96531
   6   25431.0    393.2   0.014896614   0.19284   0.03769   0.34972   0.26290
   7   25694.1    389.2   0.100668609   1.28984  -0.24754  -0.67188  -0.88156
   8   26157.8    382.3   0.000504698   0.00635  -0.00419   0.06125  -0.05082
   9   26300.7    380.2   0.156373477   1.95736  -0.13689   0.35329  -1.34678
  10   26888.6    371.9   0.000659674   0.00808   0.07718  -0.02615  -0.03789
  11   28038.4    356.7   0.029965128   0.35183   0.43754  -0.31034  -0.25315
  12   28407.7    352.0   0.012133189   0.14061   0.04180  -0.29831  -0.22332
  13   30178.6    331.4   0.006553381   0.07149  -0.18818  -0.18864   0.02221
  14   30257.1    330.5   0.035796697   0.38949   0.32326   0.51537   0.13923
  15   30432.1    328.6   0.056654496   0.61288   0.02324  -0.72895  -0.28456
  16   30544.4    327.4   0.132675071   1.42999   0.98443   0.52632  -0.42881
  17   31164.1    320.9   0.020863670   0.22040  -0.17688  -0.09704   0.42391
  18   31426.2    318.2   0.092149482   0.96533   0.14505   0.00437   0.97174
  19   31453.4    317.9   0.061367227   0.64231  -0.35350  -0.12887  -0.70763
  20   31937.7    313.1   0.097675008   1.00683  -0.69523   0.63593   0.34508
  21   32097.3    311.6   0.018364566   0.18836  -0.09261   0.03431   0.42262
  22   32202.3    310.5   0.008406767   0.08594   0.07695  -0.28268  -0.01078
  23   32544.2    307.3   0.468592214   4.74021   0.63064  -2.07013  -0.23886
  24   32605.9    306.7   0.038234983   0.38605  -0.43737   0.26454  -0.35323
  25   33205.4    301.2   0.222924928   2.21017  -0.87854   1.15838   0.31064
  26   33707.2    296.7   0.018811008   0.18372   0.09838  -0.12338  -0.39853
  27   33954.8    294.5   0.093802929   0.90948   0.35995   0.54909   0.69168
  28   34347.9    291.1   0.622430472   5.96577   1.86941   1.03591  -1.18235
  29   34382.2    290.8   0.000799489   0.00766   0.07253   0.00375  -0.04879
  30   34912.9    286.4   0.306084766   2.88623   0.35969  -1.58338   0.49975
  31   35049.1    285.3   0.120336607   1.13031   0.55684   0.55356   0.71681
  32   35196.1    284.1   0.019437745   0.18181   0.14754   0.35866   0.17721
  33   35344.2    282.9   0.231012663   2.15176   0.67661  -0.92217  -0.91845
  34   35730.0    279.9   0.022157566   0.20416   0.12546   0.00787  -0.43400
  35   36023.3    277.6   0.000923965   0.00844  -0.02846   0.03838   0.07849
  36   36150.2    276.6   0.015530771   0.14144  -0.15683   0.16493  -0.29940
  37   36318.3    275.3   0.070603824   0.64000   0.16740   0.36489   0.69198
  38   36560.4    273.5   0.041868033   0.37701   0.14963  -0.49377  -0.33287
  39   36971.8    270.5   0.021720873   0.19341  -0.26916   0.01538  -0.34746
  40   37114.5    269.4   0.021694623   0.19244  -0.22482  -0.34603  -0.14884
  41   37374.0    267.6   0.120993626   1.06578   0.03906  -0.82837   0.61486
  42   37849.7    264.2   0.075572949   0.65732   0.39425   0.23730  -0.66752
  43   37940.1    263.6   0.124604912   1.08122   0.57862  -0.53368  -0.67942
  44   38223.9    261.6   0.058557701   0.50434   0.45638   0.54021   0.06500
  45   38430.1    260.2   0.037038649   0.31729  -0.36752  -0.17919   0.38744
  46   38534.2    259.5   0.080898829   0.69115   0.37527   0.19443  -0.71590
  47   39040.6    256.1   0.028688485   0.24192  -0.30194  -0.36771   0.12465
  48   39479.9    253.3   0.014269293   0.11899   0.22320  -0.01359   0.26265
  49   39781.4    251.4   0.077033326   0.63749   0.46887   0.17286   0.62271
  50   39959.4    250.3   0.073335862   0.60419   0.15813   0.09169   0.75550
  51   40206.5    248.7   0.011068540   0.09063  -0.05988  -0.03147  -0.29335

FINAL SINGLE POINT ENERGY     -8076.185221794629

DIPOLE MOMENT
-------------
                                X             Y             Z
Electronic contribution:    -67.44845      52.25792     -18.39434
Nuclear contribution   :     65.54828     -54.23585      20.14845
                        -----------------------------------------
Total Dipole Moment    :     -1.90017      -1.97792       1.75411
                        -----------------------------------------
Magnitude (a.u.)       :      3.25572
Magnitude (Debye)      :      8.27540

Rotational constants in cm-1:     0.001214     0.000337     0.000291
Rotational constants in MHz :    36.389209    10.105962     8.718673

                             ****ORCA TERMINATED NORMALLY****
TOTAL RUN TIME: 0 days 0 hours 6 minutes 26 seconds 653 msec
