                         Program Version 4.2.0 -  RELEASE  -
|  1> # ORCA input file
|  2> # SCF done       -207.030159839714          0.000661118680
|  3> ! CAM-B3LYP def2-SVP def2/J RIJCOSX Grid4 TightSCF
|  4> %maxcore 5000
|  5> %tddft
|  6>     Mode sTDDFT
|  7>     Ethresh 5.0
|  8>     maxcore 5000
|  9> end
| 10>
| 11> %pal
| 12>   nprocs 6
| 13>   end
| 14> * xyz 0 1
| 15>    C       -5.79493         0.35623        -0.87845
| 16>    O       -5.26287        -0.34501        -0.04689
| 17>    C       -5.69468         1.82936        -0.95461
| 18>    C       -6.42105         2.30224        -2.06004
| 19>    C       -6.44845         3.66469        -2.32568
| 20>    C       -5.75797         4.52299        -1.48406
| 21>    C       -5.05150         4.03210        -0.39281
| 22>    C       -5.00541         2.67389        -0.10926
| 23>   Br       -4.12610         5.24929         0.73226
| 24>    C       -7.04018         1.16480        -2.73443
| 25>    C       -7.91698         1.25562        -3.78362
| 26>    C       -8.29222         2.47149        -4.39554
| 27>    N       -8.63340         3.42109        -4.94212
| 28>    C       -8.60021         0.17925        -4.38971
| 29>    N       -9.21015        -0.63296        -4.92574
| 30>    C       -6.61762        -0.04462        -2.04478
| 31>    C       -6.85749        -1.31056        -2.50840
| 32>    C       -6.59415        -2.56996        -1.93712
| 33>    C       -6.19258        -2.96195        -0.66359
| 34>    C       -6.10791        -4.33987        -0.54359
| 35>    C       -6.44103        -5.02720        -1.73736
| 36>    S       -6.87773        -3.96698        -2.98988
| 37>    C       -6.30681        -6.41551        -1.51711
| 38>    C       -5.89122        -6.61245        -0.18156
| 39>    C       -5.76612        -5.32000         0.47432
| 40>    C       -5.42693        -5.09123         1.77448
| 41>    C       -5.12092        -6.14636         2.66177
| 42>    N       -4.87049        -6.99699         3.38866
| 43>    C       -5.37861        -3.79927         2.34340
| 44>    N       -5.35085        -2.76610         2.83843
| 45>    C       -5.73576        -7.95199         0.13925
| 46>    C       -6.03040        -8.78389        -0.93664
| 47>    S       -6.50334        -7.88707        -2.36728
| 48>    C       -5.99516       -10.20375        -0.93914
| 49>    C       -6.34441       -10.95332        -2.08404
| 50>    C       -6.36094       -12.38592        -2.09163
| 51>    N       -6.71683       -13.03520        -3.21786
| 52>    C       -7.03236       -12.36083        -4.27575
| 53>    C       -7.01233       -10.94031        -4.26952
| 54>    N       -6.68089       -10.28441        -3.20494
| 55>    F       -7.33272       -10.24653        -5.35462
| 56>    F       -7.37574       -13.03586        -5.36583
| 57>    C       -6.02315       -13.15568        -0.95651
| 58>    C       -5.64143       -12.41276         0.18660
| 59>    C       -5.62891       -10.96726         0.19540
| 60>    N       -5.24248       -10.49246         1.38083
| 61>    S       -4.92879       -11.70930         2.37221
| 62>    N       -5.26488       -12.90863         1.36667
| 63>    C       -6.08544       -14.57417        -0.97092
| 64>    C       -5.77629       -15.42631         0.08460
| 65>    C       -5.98010       -16.75689        -0.24577
| 66>    C       -6.44753       -16.92838        -1.56838
| 67>    S       -6.62281       -15.44359        -2.39693
| 68>    C       -6.63947       -18.31127        -1.79415
| 69>    C       -6.29915       -19.01214        -0.61494
| 70>    C       -5.85787       -18.05883         0.38744
| 71>    C       -5.39908       -18.34248         1.64025
| 72>    C       -5.31693       -19.67271         2.10380
| 73>    N       -5.26117       -20.76092         2.46138
| 74>    C       -4.98484       -17.33564         2.53770
| 75>    N       -4.65299       -16.52070         3.27239
| 76>    C       -6.45197       -20.38406        -0.73589
| 77>    C       -6.89899       -20.75383        -1.99874
| 78>    S       -7.15910       -19.35397        -3.03419
| 79>    C       -7.20708       -22.04271        -2.48176
| 80>    C       -6.84604       -23.25357        -1.97047
| 81>    C       -7.63920       -24.45542        -2.35585
| 82>    O       -8.43901       -24.53598        -3.25672
| 83>    C       -7.27346       -25.48899        -1.36297
| 84>    C       -6.24187       -25.00312        -0.53834
| 85>    C       -5.85530       -23.67115        -0.99995
| 86>    C       -4.64651       -23.07763        -0.74784
| 87>    C       -3.66524       -23.62561         0.10610
| 88>    N       -2.83436       -24.03183         0.78443
| 89>    C       -4.20084       -21.90230        -1.38416
| 90>    N       -3.79091       -20.96085        -1.89746
| 91>    C       -5.76343       -25.78565         0.50180
| 92>    C       -6.31275       -27.04411         0.69401
| 93>    C       -7.31768       -27.51360        -0.14291
| 94>    C       -7.81895       -26.74363        -1.18460
| 95>   Br       -8.03015       -29.24834         0.15297
| 96>    H       -6.98565         4.06926        -3.16732
| 97>    H       -5.76818         5.58466        -1.67736
| 98>    H       -4.45863         2.28286         0.73475
| 99>    H       -7.31850        -1.37936        -3.48695
|100>    H       -5.97084        -2.25647         0.11648
|101>    H       -5.42905        -8.34224         1.09191
|102>    H       -5.42812       -15.05746         1.03168
|103>    H       -6.29795       -21.08852         0.06081
|104>    H       -7.88277       -22.08972        -3.33042
|105>    H       -4.99180       -25.43231         1.16626
|106>    H       -5.95815       -27.66632         1.50126
|107>    H       -8.60361       -27.10313        -1.83199
|108> *
|109>
|110>                          ****END OF INPUT****

CARTESIAN COORDINATES (ANGSTROEM)
---------------------------------
  C     -5.794930    0.356230   -0.878450
  O     -5.262870   -0.345010   -0.046890
  C     -5.694680    1.829360   -0.954610
  C     -6.421050    2.302240   -2.060040
  C     -6.448450    3.664690   -2.325680
  C     -5.757970    4.522990   -1.484060
  C     -5.051500    4.032100   -0.392810
  C     -5.005410    2.673890   -0.109260
  Br    -4.126100    5.249290    0.732260
  C     -7.040180    1.164800   -2.734430
  C     -7.916980    1.255620   -3.783620
  C     -8.292220    2.471490   -4.395540
  N     -8.633400    3.421090   -4.942120
  C     -8.600210    0.179250   -4.389710
  N     -9.210150   -0.632960   -4.925740
  C     -6.617620   -0.044620   -2.044780
  C     -6.857490   -1.310560   -2.508400
  C     -6.594150   -2.569960   -1.937120
  C     -6.192580   -2.961950   -0.663590
  C     -6.107910   -4.339870   -0.543590
  C     -6.441030   -5.027200   -1.737360
  S     -6.877730   -3.966980   -2.989880
  C     -6.306810   -6.415510   -1.517110
  C     -5.891220   -6.612450   -0.181560
  C     -5.766120   -5.320000    0.474320
  C     -5.426930   -5.091230    1.774480
  C     -5.120920   -6.146360    2.661770
  N     -4.870490   -6.996990    3.388660
  C     -5.378610   -3.799270    2.343400
  N     -5.350850   -2.766100    2.838430
  C     -5.735760   -7.951990    0.139250
  C     -6.030400   -8.783890   -0.936640
  S     -6.503340   -7.887070   -2.367280
  C     -5.995160  -10.203750   -0.939140
  C     -6.344410  -10.953320   -2.084040
  C     -6.360940  -12.385920   -2.091630
  N     -6.716830  -13.035200   -3.217860
  C     -7.032360  -12.360830   -4.275750
  C     -7.012330  -10.940310   -4.269520
  N     -6.680890  -10.284410   -3.204940
  F     -7.332720  -10.246530   -5.354620
  F     -7.375740  -13.035860   -5.365830
  C     -6.023150  -13.155680   -0.956510
  C     -5.641430  -12.412760    0.186600
  C     -5.628910  -10.967260    0.195400
  N     -5.242480  -10.492460    1.380830
  S     -4.928790  -11.709300    2.372210
  N     -5.264880  -12.908630    1.366670
  C     -6.085440  -14.574170   -0.970920
  C     -5.776290  -15.426310    0.084600
  C     -5.980100  -16.756890   -0.245770
  C     -6.447530  -16.928380   -1.568380
  S     -6.622810  -15.443590   -2.396930
  C     -6.639470  -18.311270   -1.794150
  C     -6.299150  -19.012140   -0.614940
  C     -5.857870  -18.058830    0.387440
  C     -5.399080  -18.342480    1.640250
  C     -5.316930  -19.672710    2.103800
  N     -5.261170  -20.760920    2.461380
  C     -4.984840  -17.335640    2.537700
  N     -4.652990  -16.520700    3.272390
  C     -6.451970  -20.384060   -0.735890
  C     -6.898990  -20.753830   -1.998740
  S     -7.159100  -19.353970   -3.034190
  C     -7.207080  -22.042710   -2.481760
  C     -6.846040  -23.253570   -1.970470
  C     -7.639200  -24.455420   -2.355850
  O     -8.439010  -24.535980   -3.256720
  C     -7.273460  -25.488990   -1.362970
  C     -6.241870  -25.003120   -0.538340
  C     -5.855300  -23.671150   -0.999950
  C     -4.646510  -23.077630   -0.747840
  C     -3.665240  -23.625610    0.106100
  N     -2.834360  -24.031830    0.784430
  C     -4.200840  -21.902300   -1.384160
  N     -3.790910  -20.960850   -1.897460
  C     -5.763430  -25.785650    0.501800
  C     -6.312750  -27.044110    0.694010
  C     -7.317680  -27.513600   -0.142910
  C     -7.818950  -26.743630   -1.184600
  Br    -8.030150  -29.248340    0.152970
  H     -6.985650    4.069260   -3.167320
  H     -5.768180    5.584660   -1.677360
  H     -4.458630    2.282860    0.734750
  H     -7.318500   -1.379360   -3.486950
  H     -5.970840   -2.256470    0.116480
  H     -5.429050   -8.342240    1.091910
  H     -5.428120  -15.057460    1.031680
  H     -6.297950  -21.088520    0.060810
  H     -7.882770  -22.089720   -3.330420
  H     -4.991800  -25.432310    1.166260
  H     -5.958150  -27.666320    1.501260
  H     -8.603610  -27.103130   -1.831990

 Total Charge           Charge          ....    0
 Multiplicity           Mult            ....    1
 Number of Electrons    NEL             ....  628
 Basis Dimension        Dim             .... 1250

ORBITAL ENERGIES
----------------

  NO   OCC          E(Eh)            E(eV)
   0   2.0000    -482.874810    -13139.6916
   1   2.0000    -482.873826    -13139.6648
   2   2.0000     -89.057569     -2423.3797
   3   2.0000     -89.001585     -2421.8563
   4   2.0000     -88.999693     -2421.8048
   5   2.0000     -88.995389     -2421.6877
   6   2.0000     -88.995003     -2421.6771
   7   2.0000     -62.552524     -1702.1407
   8   2.0000     -62.551515     -1702.1133
   9   2.0000     -56.386364     -1534.3510
  10   2.0000     -56.385355     -1534.3235
  11   2.0000     -56.383832     -1534.2821
  12   2.0000     -56.383829     -1534.2820
  13   2.0000     -56.382830     -1534.2548
  14   2.0000     -56.382815     -1534.2544
  15   2.0000     -24.838418      -675.8877
  16   2.0000     -24.838174      -675.8811
  17   2.0000     -19.226925      -523.1912
  18   2.0000     -19.225142      -523.1427
  19   2.0000     -14.480652      -394.0386
  20   2.0000     -14.480373      -394.0310
  21   2.0000     -14.465826      -393.6351
  22   2.0000     -14.465378      -393.6230
  23   2.0000     -14.437355      -392.8604
  24   2.0000     -14.435399      -392.8072
  25   2.0000     -14.434536      -392.7837
  26   2.0000     -14.431583      -392.7033
  27   2.0000     -14.424149      -392.5010
  28   2.0000     -14.423119      -392.4730
  29   2.0000     -14.419076      -392.3630
  30   2.0000     -14.419041      -392.3621
  31   2.0000     -10.456081      -284.5244
  32   2.0000     -10.455562      -284.5103
  33   2.0000     -10.377669      -282.3907
  34   2.0000     -10.375977      -282.3447
  35   2.0000     -10.371328      -282.2182
  36   2.0000     -10.370345      -282.1914
  37   2.0000     -10.366030      -282.0740
  38   2.0000     -10.365602      -282.0624
  39   2.0000     -10.358453      -281.8678
  40   2.0000     -10.357843      -281.8512
  41   2.0000     -10.357602      -281.8447
  42   2.0000     -10.356843      -281.8240
  43   2.0000     -10.351539      -281.6797
  44   2.0000     -10.350073      -281.6398
  45   2.0000     -10.349959      -281.6367
  46   2.0000     -10.348802      -281.6052
  47   2.0000     -10.348436      -281.5953
  48   2.0000     -10.348351      -281.5929
  49   2.0000     -10.347879      -281.5801
  50   2.0000     -10.347376      -281.5664
  51   2.0000     -10.337687      -281.3028
  52   2.0000     -10.337513      -281.2980
  53   2.0000     -10.336940      -281.2824
  54   2.0000     -10.336421      -281.2683
  55   2.0000     -10.335501      -281.2433
  56   2.0000     -10.335448      -281.2418
  57   2.0000     -10.335442      -281.2417
  58   2.0000     -10.334582      -281.2183
  59   2.0000     -10.334427      -281.2141
  60   2.0000     -10.333703      -281.1944
  61   2.0000     -10.333625      -281.1922
  62   2.0000     -10.333206      -281.1808
  63   2.0000     -10.331789      -281.1423
  64   2.0000     -10.330771      -281.1146
  65   2.0000     -10.325912      -280.9824
  66   2.0000     -10.325107      -280.9605
  67   2.0000     -10.321999      -280.8759
  68   2.0000     -10.321170      -280.8533
  69   2.0000     -10.318379      -280.7774
  70   2.0000     -10.315697      -280.7044
  71   2.0000     -10.313996      -280.6581
  72   2.0000     -10.313586      -280.6470
  73   2.0000     -10.313189      -280.6361
  74   2.0000     -10.312063      -280.6055
  75   2.0000     -10.311253      -280.5834
  76   2.0000     -10.311168      -280.5812
  77   2.0000     -10.308785      -280.5163
  78   2.0000     -10.307627      -280.4848
  79   2.0000     -10.307478      -280.4807
  80   2.0000     -10.307349      -280.4772
  81   2.0000     -10.306503      -280.4542
  82   2.0000     -10.306449      -280.4527
  83   2.0000     -10.306121      -280.4438
  84   2.0000     -10.305929      -280.4386
  85   2.0000     -10.305266      -280.4205
  86   2.0000     -10.304883      -280.4101
  87   2.0000     -10.304435      -280.3979
  88   2.0000     -10.302025      -280.3323
  89   2.0000      -8.781809      -238.9652
  90   2.0000      -8.780794      -238.9376
  91   2.0000      -8.148590      -221.7344
  92   2.0000      -8.096388      -220.3139
  93   2.0000      -8.094601      -220.2653
  94   2.0000      -8.088260      -220.0927
  95   2.0000      -8.087873      -220.0822
  96   2.0000      -6.617675      -180.0761
  97   2.0000      -6.616644      -180.0480
  98   2.0000      -6.603914      -179.7016
  99   2.0000      -6.603472      -179.6896
 100   2.0000      -6.602914      -179.6744
 101   2.0000      -6.602453      -179.6619
 102   2.0000      -6.119669      -166.5247
 103   2.0000      -6.111712      -166.3081
 104   2.0000      -6.111520      -166.3029
 105   2.0000      -6.065510      -165.0509
 106   2.0000      -6.063660      -165.0006
 107   2.0000      -6.061367      -164.9382
 108   2.0000      -6.059553      -164.8888
 109   2.0000      -6.058893      -164.8709
 110   2.0000      -6.057716      -164.8388
 111   2.0000      -6.057339      -164.8286
 112   2.0000      -6.057151      -164.8234
 113   2.0000      -6.053026      -164.7112
 114   2.0000      -6.052653      -164.7010
 115   2.0000      -6.050733      -164.6488
 116   2.0000      -6.050323      -164.6377
 117   2.0000      -2.733611       -74.3853
 118   2.0000      -2.732599       -74.3578
 119   2.0000      -2.729826       -74.2823
 120   2.0000      -2.729514       -74.2739
 121   2.0000      -2.728814       -74.2548
 122   2.0000      -2.728473       -74.2455
 123   2.0000      -2.718575       -73.9762
 124   2.0000      -2.718560       -73.9758
 125   2.0000      -2.717555       -73.9484
 126   2.0000      -2.717545       -73.9482
 127   2.0000      -1.367480       -37.2110
 128   2.0000      -1.353452       -36.8293
 129   2.0000      -1.155877       -31.4530
 130   2.0000      -1.142832       -31.0980
 131   2.0000      -1.141014       -31.0486
 132   2.0000      -1.139092       -30.9963
 133   2.0000      -1.066787       -29.0287
 134   2.0000      -1.053451       -28.6659
 135   2.0000      -1.051909       -28.6239
 136   2.0000      -1.028645       -27.9909
 137   2.0000      -1.026476       -27.9318
 138   2.0000      -1.026063       -27.9206
 139   2.0000      -1.025147       -27.8957
 140   2.0000      -1.014778       -27.6135
 141   2.0000      -1.013635       -27.5824
 142   2.0000      -1.011992       -27.5377
 143   2.0000      -1.009577       -27.4720
 144   2.0000      -1.007314       -27.4104
 145   2.0000      -1.006605       -27.3911
 146   2.0000      -1.001807       -27.2606
 147   2.0000      -0.999352       -27.1937
 148   2.0000      -0.998550       -27.1719
 149   2.0000      -0.989168       -26.9166
 150   2.0000      -0.971335       -26.4314
 151   2.0000      -0.969180       -26.3727
 152   2.0000      -0.964908       -26.2565
 153   2.0000      -0.961376       -26.1604
 154   2.0000      -0.931247       -25.3405
 155   2.0000      -0.925764       -25.1913
 156   2.0000      -0.915720       -24.9180
 157   2.0000      -0.914751       -24.8916
 158   2.0000      -0.910441       -24.7744
 159   2.0000      -0.905709       -24.6456
 160   2.0000      -0.902056       -24.5462
 161   2.0000      -0.893756       -24.3203
 162   2.0000      -0.883426       -24.0392
 163   2.0000      -0.881725       -23.9930
 164   2.0000      -0.874162       -23.7872
 165   2.0000      -0.868217       -23.6254
 166   2.0000      -0.864087       -23.5130
 167   2.0000      -0.862799       -23.4780
 168   2.0000      -0.857383       -23.3306
 169   2.0000      -0.855003       -23.2658
 170   2.0000      -0.836577       -22.7644
 171   2.0000      -0.823249       -22.4017
 172   2.0000      -0.813046       -22.1241
 173   2.0000      -0.800418       -21.7805
 174   2.0000      -0.792700       -21.5705
 175   2.0000      -0.785249       -21.3677
 176   2.0000      -0.781787       -21.2735
 177   2.0000      -0.773839       -21.0572
 178   2.0000      -0.773579       -21.0502
 179   2.0000      -0.767320       -20.8798
 180   2.0000      -0.764793       -20.8111
 181   2.0000      -0.744422       -20.2568
 182   2.0000      -0.727103       -19.7855
 183   2.0000      -0.720186       -19.5972
 184   2.0000      -0.713886       -19.4258
 185   2.0000      -0.707111       -19.2415
 186   2.0000      -0.702779       -19.1236
 187   2.0000      -0.701744       -19.0954
 188   2.0000      -0.699447       -19.0329
 189   2.0000      -0.697364       -18.9762
 190   2.0000      -0.694278       -18.8923
 191   2.0000      -0.690473       -18.7887
 192   2.0000      -0.689813       -18.7708
 193   2.0000      -0.684643       -18.6301
 194   2.0000      -0.678295       -18.4574
 195   2.0000      -0.676283       -18.4026
 196   2.0000      -0.659685       -17.9509
 197   2.0000      -0.656772       -17.8717
 198   2.0000      -0.648758       -17.6536
 199   2.0000      -0.646170       -17.5832
 200   2.0000      -0.642320       -17.4784
 201   2.0000      -0.641338       -17.4517
 202   2.0000      -0.638445       -17.3730
 203   2.0000      -0.628180       -17.0936
 204   2.0000      -0.625148       -17.0111
 205   2.0000      -0.622889       -16.9497
 206   2.0000      -0.620900       -16.8956
 207   2.0000      -0.618836       -16.8394
 208   2.0000      -0.612584       -16.6693
 209   2.0000      -0.603836       -16.4312
 210   2.0000      -0.596938       -16.2435
 211   2.0000      -0.593894       -16.1607
 212   2.0000      -0.589400       -16.0384
 213   2.0000      -0.587576       -15.9888
 214   2.0000      -0.583194       -15.8695
 215   2.0000      -0.579975       -15.7819
 216   2.0000      -0.570623       -15.5274
 217   2.0000      -0.568096       -15.4587
 218   2.0000      -0.564967       -15.3735
 219   2.0000      -0.557061       -15.1584
 220   2.0000      -0.555006       -15.1025
 221   2.0000      -0.553910       -15.0727
 222   2.0000      -0.551924       -15.0186
 223   2.0000      -0.548115       -14.9150
 224   2.0000      -0.546945       -14.8831
 225   2.0000      -0.545447       -14.8424
 226   2.0000      -0.544003       -14.8031
 227   2.0000      -0.542254       -14.7555
 228   2.0000      -0.540852       -14.7173
 229   2.0000      -0.539885       -14.6910
 230   2.0000      -0.535355       -14.5677
 231   2.0000      -0.534326       -14.5398
 232   2.0000      -0.533079       -14.5058
 233   2.0000      -0.529367       -14.4048
 234   2.0000      -0.522700       -14.2234
 235   2.0000      -0.521719       -14.1967
 236   2.0000      -0.513310       -13.9679
 237   2.0000      -0.512607       -13.9487
 238   2.0000      -0.510613       -13.8945
 239   2.0000      -0.508831       -13.8460
 240   2.0000      -0.507506       -13.8099
 241   2.0000      -0.506405       -13.7800
 242   2.0000      -0.503731       -13.7072
 243   2.0000      -0.499796       -13.6001
 244   2.0000      -0.498507       -13.5651
 245   2.0000      -0.496575       -13.5125
 246   2.0000      -0.494337       -13.4516
 247   2.0000      -0.493052       -13.4166
 248   2.0000      -0.488398       -13.2900
 249   2.0000      -0.483895       -13.1674
 250   2.0000      -0.481632       -13.1059
 251   2.0000      -0.480581       -13.0773
 252   2.0000      -0.479236       -13.0407
 253   2.0000      -0.473996       -12.8981
 254   2.0000      -0.471300       -12.8247
 255   2.0000      -0.469400       -12.7730
 256   2.0000      -0.468561       -12.7502
 257   2.0000      -0.468016       -12.7354
 258   2.0000      -0.467087       -12.7101
 259   2.0000      -0.464646       -12.6437
 260   2.0000      -0.463978       -12.6255
 261   2.0000      -0.459072       -12.4920
 262   2.0000      -0.457978       -12.4622
 263   2.0000      -0.456206       -12.4140
 264   2.0000      -0.455340       -12.3904
 265   2.0000      -0.454804       -12.3759
 266   2.0000      -0.454502       -12.3676
 267   2.0000      -0.453405       -12.3378
 268   2.0000      -0.451975       -12.2989
 269   2.0000      -0.447686       -12.1822
 270   2.0000      -0.446941       -12.1619
 271   2.0000      -0.446186       -12.1413
 272   2.0000      -0.444569       -12.0973
 273   2.0000      -0.442868       -12.0511
 274   2.0000      -0.442287       -12.0352
 275   2.0000      -0.441735       -12.0202
 276   2.0000      -0.433899       -11.8070
 277   2.0000      -0.433579       -11.7983
 278   2.0000      -0.433140       -11.7863
 279   2.0000      -0.432122       -11.7586
 280   2.0000      -0.431648       -11.7457
 281   2.0000      -0.430089       -11.7033
 282   2.0000      -0.428488       -11.6597
 283   2.0000      -0.428169       -11.6511
 284   2.0000      -0.422119       -11.4864
 285   2.0000      -0.420272       -11.4362
 286   2.0000      -0.418965       -11.4006
 287   2.0000      -0.415227       -11.2989
 288   2.0000      -0.413332       -11.2473
 289   2.0000      -0.406282       -11.0555
 290   2.0000      -0.403213       -10.9720
 291   2.0000      -0.400159       -10.8889
 292   2.0000      -0.390687       -10.6311
 293   2.0000      -0.382209       -10.4004
 294   2.0000      -0.381974       -10.3940
 295   2.0000      -0.375869       -10.2279
 296   2.0000      -0.369643       -10.0585
 297   2.0000      -0.368333       -10.0228
 298   2.0000      -0.361598        -9.8396
 299   2.0000      -0.361235        -9.8297
 300   2.0000      -0.356503        -9.7009
 301   2.0000      -0.355226        -9.6662
 302   2.0000      -0.354914        -9.6577
 303   2.0000      -0.353894        -9.6300
 304   2.0000      -0.349465        -9.5094
 305   2.0000      -0.346003        -9.4152
 306   2.0000      -0.341103        -9.2819
 307   2.0000      -0.329072        -8.9545
 308   2.0000      -0.327653        -8.9159
 309   2.0000      -0.317321        -8.6347
 310   2.0000      -0.313331        -8.5262
 311   2.0000      -0.308360        -8.3909
 312   2.0000      -0.283108        -7.7038
 313   2.0000      -0.251441        -6.8421
 314   0.0000      -0.140298        -3.8177
 315   0.0000      -0.113149        -3.0790
 316   0.0000      -0.105183        -2.8622
 317   0.0000      -0.092015        -2.5039
 318   0.0000      -0.091599        -2.4925

MULLIKEN ATOMIC CHARGES
-----------------------
   0 C :    0.154795
   1 O :   -0.142512
   2 C :   -0.023450
   3 C :    0.035135
   4 C :   -0.025427
   5 C :    0.048509
   6 C :   -0.004389
   7 C :   -0.010225
   8 Br:   -0.015561
   9 C :    0.303494
  10 C :   -0.347570
  11 C :   -0.188117
  12 N :    0.155971
  13 C :   -0.196501
  14 N :    0.156342
  15 C :   -0.090742
  16 C :    0.040054
  17 C :   -0.115994
  18 C :    0.002809
  19 C :   -0.013373
  20 C :   -0.084525
  21 S :    0.208636
  22 C :   -0.070607
  23 C :    0.043717
  24 C :    0.317364
  25 C :   -0.299999
  26 C :   -0.187631
  27 N :    0.172243
  28 C :   -0.192127
  29 N :    0.191534
  30 C :   -0.064289
  31 C :   -0.178794
  32 S :    0.211902
  33 C :    0.178356
  34 C :   -0.055152
  35 C :   -0.057239
  36 N :   -0.045846
  37 C :    0.152285
  38 C :    0.153623
  39 N :   -0.046458
  40 F :   -0.129977
  41 F :   -0.130870
  42 C :    0.182183
  43 C :   -0.006361
  44 C :   -0.005348
  45 N :   -0.287715
  46 S :    0.590259
  47 N :   -0.288128
  48 C :   -0.182926
  49 C :   -0.059897
  50 C :    0.042354
  51 C :   -0.069586
  52 S :    0.212019
  53 C :   -0.076297
  54 C :   -0.006330
  55 C :    0.311483
  56 C :   -0.291290
  57 C :   -0.183988
  58 N :    0.168195
  59 C :   -0.186628
  60 N :    0.176513
  61 C :   -0.002265
  62 C :   -0.110631
  63 S :    0.219126
  64 C :    0.082050
  65 C :   -0.136822
  66 C :    0.135378
  67 O :   -0.135801
  68 C :   -0.000753
  69 C :    0.012109
  70 C :    0.261525
  71 C :   -0.324190
  72 C :   -0.175840
  73 N :    0.166122
  74 C :   -0.200863
  75 N :    0.172241
  76 C :   -0.019534
  77 C :    0.050457
  78 C :   -0.006763
  79 C :   -0.015396
  80 Br:   -0.016851
  81 H :    0.008783
  82 H :    0.007132
  83 H :    0.007463
  84 H :    0.010037
  85 H :    0.038955
  86 H :    0.023557
  87 H :    0.023715
  88 H :    0.026308
  89 H :    0.022655
  90 H :    0.017057
  91 H :    0.008534
  92 H :    0.004597
Sum of atomic charges:   -0.0000000

LOEWDIN ATOMIC CHARGES
----------------------
   0 C :    0.087065
   1 O :   -0.129154
   2 C :   -0.036955
   3 C :   -0.017060
   4 C :    0.008389
   5 C :   -0.012736
   6 C :   -0.097468
   7 C :    0.001732
   8 Br:    0.118935
   9 C :    0.075828
  10 C :   -0.139332
  11 C :   -0.018974
  12 N :   -0.049471
  13 C :   -0.024281
  14 N :   -0.050628
  15 C :   -0.098940
  16 C :    0.043152
  17 C :   -0.176689
  18 C :    0.019066
  19 C :   -0.071586
  20 C :   -0.157093
  21 S :    0.497556
  22 C :   -0.192340
  23 C :   -0.058596
  24 C :    0.075132
  25 C :   -0.094214
  26 C :   -0.015286
  27 N :   -0.030801
  28 C :   -0.022658
  29 N :   -0.016656
  30 C :   -0.013819
  31 C :   -0.157544
  32 S :    0.513331
  33 C :   -0.043588
  34 C :   -0.014785
  35 C :   -0.016939
  36 N :   -0.054895
  37 C :    0.064839
  38 C :    0.066247
  39 N :   -0.055867
  40 F :   -0.019753
  41 F :   -0.020531
  42 C :   -0.038499
  43 C :   -0.037876
  44 C :   -0.036685
  45 N :   -0.273219
  46 S :    0.706987
  47 N :   -0.272900
  48 C :   -0.161917
  49 C :   -0.009247
  50 C :   -0.063292
  51 C :   -0.184296
  52 S :    0.514974
  53 C :   -0.158519
  54 C :   -0.062180
  55 C :    0.081403
  56 C :   -0.097889
  57 C :   -0.012573
  58 N :   -0.033465
  59 C :   -0.016926
  60 N :   -0.028508
  61 C :    0.008905
  62 C :   -0.180277
  63 S :    0.502210
  64 C :    0.042991
  65 C :   -0.091879
  66 C :    0.084477
  67 O :   -0.135236
  68 C :   -0.040782
  69 C :   -0.012450
  70 C :    0.063613
  71 C :   -0.132336
  72 C :   -0.020040
  73 N :   -0.040988
  74 C :   -0.016006
  75 N :   -0.042993
  76 C :    0.009173
  77 C :   -0.009955
  78 C :   -0.099057
  79 C :    0.001125
  80 Br:    0.117786
  81 H :    0.043048
  82 H :    0.040793
  83 H :    0.045741
  84 H :    0.042884
  85 H :    0.043986
  86 H :    0.038259
  87 H :    0.038733
  88 H :    0.042627
  89 H :    0.046578
  90 H :    0.045127
  91 H :    0.041371
  92 H :    0.044565

  Mayer bond orders larger than 0.100000
B(  0-C ,  1-O ) :   2.1807 B(  0-C ,  2-C ) :   0.9490 B(  0-C , 15-C ) :   0.9452
B(  2-C ,  3-C ) :   1.3321 B(  2-C ,  7-C ) :   1.3806 B(  3-C ,  4-C ) :   1.3610
B(  3-C ,  9-C ) :   0.9917 B(  4-C ,  5-C ) :   1.3856 B(  4-C , 81-H ) :   0.9838
B(  5-C ,  6-C ) :   1.3869 B(  5-C , 82-H ) :   0.9845 B(  6-C ,  7-C ) :   1.3352
B(  6-C ,  8-Br) :   0.9955 B(  7-C , 83-H ) :   1.0074 B(  9-C , 10-C ) :   1.6290
B(  9-C , 15-C ) :   1.0823 B( 10-C , 11-C ) :   1.1437 B( 10-C , 13-C ) :   1.1382
B( 11-C , 12-N ) :   2.9756 B( 13-C , 14-N ) :   2.9790 B( 15-C , 16-C ) :   1.5878
B( 16-C , 17-C ) :   1.2222 B( 16-C , 84-H ) :   0.9123 B( 17-C , 18-C ) :   1.3892
B( 17-C , 21-S ) :   1.0756 B( 18-C , 19-C ) :   1.3285 B( 18-C , 85-H ) :   0.9706
B( 19-C , 20-C ) :   1.3669 B( 19-C , 24-C ) :   0.9931 B( 20-C , 21-S ) :   1.1654
B( 20-C , 22-C ) :   1.2130 B( 22-C , 23-C ) :   1.3971 B( 22-C , 32-S ) :   1.0800
B( 23-C , 24-C ) :   0.9926 B( 23-C , 30-C ) :   1.2809 B( 24-C , 25-C ) :   1.7140
B( 25-C , 26-C ) :   1.1415 B( 25-C , 28-C ) :   1.1328 B( 26-C , 27-N ) :   2.9814
B( 28-C , 29-N ) :   2.9962 B( 30-C , 31-C ) :   1.4155 B( 30-C , 86-H ) :   0.9792
B( 31-C , 32-S ) :   1.1013 B( 31-C , 33-C ) :   1.1881 B( 33-C , 34-C ) :   1.2951
B( 33-C , 42-C ) :   0.1314 B( 33-C , 44-C ) :   1.1948 B( 34-C , 35-C ) :   1.1253
B( 34-C , 39-N ) :   1.3781 B( 35-C , 36-N ) :   1.3795 B( 35-C , 42-C ) :   1.2923
B( 36-N , 37-C ) :   1.6534 B( 37-C , 38-C ) :   1.1070 B( 37-C , 41-F ) :   1.1909
B( 38-C , 39-N ) :   1.6535 B( 38-C , 40-F ) :   1.1922 B( 42-C , 43-C ) :   1.1947
B( 42-C , 48-C ) :   1.1928 B( 43-C , 44-C ) :   1.1054 B( 43-C , 47-N ) :   1.5070
B( 44-C , 45-N ) :   1.5077 B( 45-N , 46-S ) :   1.2858 B( 45-N , 47-N ) :   0.1484
B( 46-S , 47-N ) :   1.2870 B( 48-C , 49-C ) :   1.4159 B( 48-C , 52-S ) :   1.0961
B( 49-C , 50-C ) :   1.2816 B( 49-C , 87-H ) :   0.9797 B( 50-C , 51-C ) :   1.3981
B( 50-C , 55-C ) :   0.9911 B( 51-C , 52-S ) :   1.0887 B( 51-C , 53-C ) :   1.2057
B( 53-C , 54-C ) :   1.3975 B( 53-C , 63-S ) :   1.1528 B( 54-C , 55-C ) :   0.9967
B( 54-C , 61-C ) :   1.3671 B( 55-C , 56-C ) :   1.7150 B( 56-C , 57-C ) :   1.1323
B( 56-C , 59-C ) :   1.1390 B( 57-C , 58-N ) :   2.9813 B( 59-C , 60-N ) :   2.9856
B( 61-C , 62-C ) :   1.3858 B( 61-C , 88-H ) :   0.9780 B( 62-C , 63-S ) :   1.0909
B( 62-C , 64-C ) :   1.1436 B( 64-C , 65-C ) :   1.6655 B( 64-C , 89-H ) :   0.9301
B( 65-C , 66-C ) :   0.9471 B( 65-C , 70-C ) :   1.0372 B( 66-C , 67-O ) :   2.2699
B( 66-C , 68-C ) :   0.9196 B( 68-C , 69-C ) :   1.3328 B( 68-C , 79-C ) :   1.3791
B( 69-C , 70-C ) :   1.0025 B( 69-C , 76-C ) :   1.3705 B( 70-C , 71-C ) :   1.6562
B( 71-C , 72-C ) :   1.1260 B( 71-C , 74-C ) :   1.1697 B( 72-C , 73-N ) :   2.9992
B( 74-C , 75-N ) :   2.9991 B( 76-C , 77-C ) :   1.3789 B( 76-C , 90-H ) :   0.9875
B( 77-C , 78-C ) :   1.3890 B( 77-C , 91-H ) :   0.9858 B( 78-C , 79-C ) :   1.3404
B( 78-C , 80-Br) :   0.9949 B( 79-C , 92-H ) :   1.0088

-----------------------------------------------------------------------------
         ABSORPTION SPECTRUM VIA TRANSITION ELECTRIC DIPOLE MOMENTS
-----------------------------------------------------------------------------
State   Energy  Wavelength   fosc         T2         TX        TY        TZ
        (cm-1)    (nm)                  (au**2)     (au)      (au)      (au)
-----------------------------------------------------------------------------
   0    9554.3   1046.6   1.203519598  41.46959  -0.07147   6.43723  -0.16287
   1   13772.4    726.1   0.006567195   0.15698  -0.11219   0.30866  -0.22164
   2   14925.9    670.0   0.000576032   0.01271   0.05561   0.06482   0.07356
   3   17822.8    561.1   0.000538809   0.00995   0.06390  -0.00828   0.07616
   4   20134.0    496.7   0.626208067  10.23916   0.40487  -3.17406   0.02450
   5   21173.9    472.3   0.676725613  10.52174   0.34224  -3.11557   0.83538
   6   22863.3    437.4   0.099441021   1.43186  -0.39360   1.07653  -0.34354
   7   24654.1    405.6   0.058569475   0.78209   0.00650  -0.72877   0.50094
   8   25025.2    399.6   0.058013954   0.76319   0.01161   0.82144   0.29713
   9   25841.9    387.0   0.011792985   0.15024  -0.11117   0.13532  -0.34578
  10   25995.6    384.7   0.053423290   0.67656  -0.35516  -0.49978  -0.54831
  11   26210.0    381.5   0.016815982   0.21122  -0.06650  -0.10673   0.44205
  12   26498.1    377.4   0.088636994   1.10122   0.20886   0.97829   0.31709
  13   26772.0    373.5   0.060237377   0.74073   0.48720   0.67063   0.23157
  14   27431.3    364.5   0.027231995   0.32682   0.01480   0.48861  -0.29641
  15   27630.0    361.9   0.305420657   3.63909   0.70107   1.69740   0.51617
  16   28750.2    347.8   0.007695421   0.08812  -0.09745   0.00423  -0.28037
  17   29328.3    341.0   0.019472602   0.21858  -0.40232   0.09720   0.21742
  18   29607.1    337.8   0.020328139   0.22604   0.02523  -0.45556  -0.13364
  19   29891.1    334.5   0.084660024   0.93242   0.40286   0.32901   0.81356
  20   30124.3    332.0   0.134416733   1.46897   0.24713  -0.25027   1.15985
  21   30392.1    329.0   0.025779383   0.27925  -0.04437   0.52314   0.06004
  22   30647.8    326.3   0.009417054   0.10116  -0.00481   0.27976  -0.15122
  23   30782.7    324.9   0.022042481   0.23574   0.04321   0.48360  -0.00147
  24   31121.5    321.3   0.416927285   4.41038  -0.21367   1.48409  -1.47044
  25   31225.0    320.3   0.084006894   0.88570  -0.03681   0.90922  -0.24013
  26   31518.8    317.3   0.356753071   3.72626  -0.36129  -1.69738  -0.84536
  27   31584.5    316.6   0.000370281   0.00386  -0.01864   0.04892  -0.03344
  28   32075.7    311.8   0.109939803   1.12838  -0.50280   0.84691   0.39790
  29   32264.3    309.9   0.423969682   4.32602   0.52835   2.00824  -0.11759
  30   32469.4    308.0   0.422857072   4.28741   0.79130   0.16441   1.90636
  31   32702.0    305.8   0.033294089   0.33517   0.14658  -0.02172   0.55966
  32   32966.2    303.3   0.039997958   0.39943   0.26596   0.56945   0.06652
  33   33193.8    301.3   0.079524222   0.78871  -0.51902  -0.71728  -0.06956
  34   33229.0    300.9   0.050283426   0.49818  -0.14539   0.28172  -0.63061
  35   33441.9    299.0   0.033442550   0.32922   0.48486  -0.07528   0.29742
  36   33953.7    294.5   0.045639932   0.44252  -0.44530  -0.28042  -0.40694
  37   34247.3    292.0   0.164996170   1.58607  -0.57171  -0.06879  -1.12004
  38   34323.0    291.4   0.179479052   1.72149   0.83119   0.79059   0.63686
  39   34450.3    290.3   0.190326583   1.81879   0.96254   0.88719   0.32436
  40   34728.3    287.9   0.148829721   1.41085  -0.20067   0.16897  -1.15846
  41   34802.6    287.3   0.009171871   0.08676   0.08867  -0.11928   0.25431
  42   35189.7    284.2   0.047154343   0.44114   0.12124   0.60506  -0.24567
  43   35289.0    283.4   0.049031924   0.45742   0.23685   0.02554   0.63298
  44   35475.9    281.9   0.122019266   1.13232  -0.32247  -0.47055  -0.89828
  45   35722.4    279.9   0.648577181   5.97719   1.08338   1.59316   1.50509
  46   35918.4    278.4   0.254053882   2.32854   0.29391   1.06437  -1.05322
  47   36028.1    277.6   0.121617667   1.11130   0.44511  -0.09817   0.95054
  48   36103.8    277.0   0.035051625   0.31962   0.17056   0.43986  -0.31153
  49   36198.5    276.3   0.185647023   1.68839   0.92233  -0.02690   0.91486
  50   36838.3    271.5   0.019534795   0.17458   0.18733  -0.09207   0.36195
  51   36875.3    271.2   0.002306122   0.02059  -0.05726   0.09210  -0.09395
  52   37289.6    268.2   0.044191315   0.39014   0.06385   0.62104   0.01941
  53   37376.0    267.6   0.163487782   1.44002   0.34403   0.03839   1.14900
  54   37497.6    266.7   0.023079746   0.20263   0.11412  -0.33021   0.28385
  55   37753.2    264.9   0.033322640   0.29058  -0.29361   0.31503  -0.32423
  56   37927.7    263.7   0.007417678   0.06439  -0.07634  -0.11038   0.21535
  57   38169.9    262.0   0.051494907   0.44414  -0.24776  -0.26048  -0.56116
  58   38334.4    260.9   0.008347241   0.07169   0.07231  -0.23740   0.10050
  59   38530.0    259.5   0.009641019   0.08238   0.01868  -0.19305  -0.21156
  60   38695.9    258.4   0.002529938   0.02152   0.01108  -0.13463   0.05723
  61   38908.8    257.0   0.007486939   0.06335  -0.05497  -0.24517   0.01477
  62   39100.0    255.8   0.004481107   0.03773  -0.11707   0.04026  -0.14968
  63   39549.6    252.8   0.004440341   0.03696   0.05460  -0.16425   0.08369
  64   39669.0    252.1   0.059051407   0.49007  -0.26782   0.43021  -0.48297
  65   39810.4    251.2   0.048733495   0.40300   0.17235  -0.38798   0.47198
  66   39884.8    250.7   0.062893554   0.51913  -0.54826   0.05917  -0.46372
  67   40001.0    250.0   0.099177346   0.81624  -0.53375   0.35514  -0.63658
  68   40076.6    249.5   0.010977914   0.09018   0.16701   0.05081  -0.24435
  69   40310.6    248.1   0.043985649   0.35923  -0.25696  -0.52421  -0.13566

FINAL SINGLE POINT ENERGY    -10358.600833172821

DIPOLE MOMENT
-------------
                                X             Y             Z
Electronic contribution:     -0.10460      -8.70094      12.85676
Nuclear contribution   :     -0.70573       7.95829     -13.90587
                        -----------------------------------------
Total Dipole Moment    :     -0.81033      -0.74265      -1.04912
                        -----------------------------------------
Magnitude (a.u.)       :      1.51947
Magnitude (Debye)      :      3.86219

Rotational constants in cm-1:     0.002297     0.000122     0.000117
Rotational constants in MHz :    68.866674     3.643371     3.500372

                             ****ORCA TERMINATED NORMALLY****
TOTAL RUN TIME: 0 days 0 hours 11 minutes 33 seconds 67 msec
