                         Program Version 4.2.0 -  RELEASE  -
|  1> # ORCA input file
|  2> # SCF done       -197.974088647603          0.000804041571
|  3> ! CAM-B3LYP def2-SVP def2/J RIJCOSX Grid4 TightSCF
|  4> %maxcore 5000
|  5> %tddft
|  6>     Mode sTDDFT
|  7>     Ethresh 5.0
|  8>     maxcore 5000
|  9> end
| 10>
| 11> %pal
| 12>   nprocs 6
| 13>   end
| 14> * xyz 0 1
| 15>    C      -10.45418        -4.87832        -0.43872
| 16>    O       -9.68004        -5.52183         0.22927
| 17>    C      -11.93059        -4.91693        -0.34600
| 18>    C      -12.48897        -3.93544        -1.18290
| 19>    C      -13.86864        -3.78482        -1.23298
| 20>    C      -14.66068        -4.61767        -0.45819
| 21>    C      -14.08631        -5.58513         0.35709
| 22>    C      -12.70984        -5.74798         0.43203
| 23>   Br      -15.21245        -6.71075         1.39159
| 24>    C      -11.41068        -3.23723        -1.87722
| 25>    C      -11.57475        -2.26293        -2.82489
| 26>    C      -12.82951        -1.75428        -3.22561
| 27>    N      -13.81796        -1.29907        -3.58942
| 28>    C      -10.53549        -1.64078        -3.55179
| 29>    N       -9.76250        -1.09344        -4.19991
| 30>    C      -10.15183        -3.81185        -1.43149
| 31>    C       -8.90539        -3.35266        -1.73177
| 32>    C       -7.66497        -3.97378        -1.43667
| 33>    C       -7.29835        -5.33657        -1.35053
| 34>    C       -5.90795        -5.36723        -1.09737
| 35>    C       -5.51774        -3.98828        -1.02637
| 36>    N       -6.56068        -3.19401        -1.26629
| 37>    O       -4.32651        -3.52959        -0.72361
| 38>    C       -4.17018        -2.11623        -0.74785
| 39>    C       -5.56149        -6.73938        -0.97971
| 40>    N       -6.66675        -7.51396        -1.13980
| 41>    C       -7.70133        -6.71273        -1.38463
| 42>    O       -8.90530        -7.14955        -1.64289
| 43>    C       -9.09425        -8.55305        -1.53676
| 44>    C       -4.29016        -7.32309        -0.73187
| 45>    C       -3.09445        -6.67600        -1.13000
| 46>    C       -1.79622        -7.18172        -0.76515
| 47>    N       -0.69747        -6.53378        -1.16743
| 48>    C       -0.81699        -5.40960        -1.82647
| 49>    C       -2.10679        -4.93470        -2.23170
| 50>    N       -3.19041        -5.59762        -1.91477
| 51>    C       -2.22701        -3.76515        -3.02152
| 52>    N       -2.29722        -2.79318        -3.62371
| 53>    C        0.35764        -4.70721        -2.19609
| 54>    N        1.29477        -4.11327        -2.48073
| 55>    C       -1.65003        -8.37866        -0.01920
| 56>    C       -2.83769        -9.05780         0.31832
| 57>    C       -4.14384        -8.54621        -0.04508
| 58>    N       -5.12123        -9.31144         0.43756
| 59>    S       -4.47676       -10.52975         1.25061
| 60>    N       -2.93144       -10.15849         1.06123
| 61>    C       -0.36746        -8.82212         0.39959
| 62>    C        0.08123       -10.13376         0.69645
| 63>    C        1.43409       -10.01080         1.09185
| 64>    C        1.72779        -8.61595         0.95587
| 65>    N        0.65413        -7.93965         0.55912
| 66>    O        2.89685        -8.05920         1.17919
| 67>    C        2.99035        -6.65410         0.96920
| 68>    C        1.89818       -11.32752         1.35029
| 69>    N        0.90452       -12.21791         1.08337
| 70>    C       -0.18016       -11.53988         0.70191
| 71>    O       -1.29534       -12.12267         0.34097
| 72>    C       -1.33034       -13.53624         0.46882
| 73>    C        3.17475       -11.82380         1.70441
| 74>    C        4.24176       -11.17670         2.24768
| 75>    C        5.60576       -11.77046         2.11618
| 76>    O        5.87972       -12.89999         1.79422
| 77>    C        6.53314       -10.65479         2.41133
| 78>    C        5.79736        -9.52785         2.82383
| 79>    C        4.38065        -9.88050         2.86896
| 80>    C        3.41116        -9.20244         3.55712
| 81>    C        3.60417        -7.93646         4.14560
| 82>    N        3.69297        -6.88444         4.59613
| 83>    C        2.12111        -9.71325         3.81637
| 84>    N        1.07892       -10.08287         4.12211
| 85>    C        6.45869        -8.34663         3.12506
| 86>    C        7.84065        -8.31073         3.01787
| 87>    C        8.55001        -9.43854         2.62328
| 88>    C        7.90901       -10.63059         2.31096
| 89>   Br       10.44227        -9.34357         2.50385
| 90>    H      -14.33602        -3.03815        -1.85335
| 91>    H      -15.73448        -4.51409        -0.48661
| 92>    H      -12.25697        -6.49236         1.06843
| 93>    H       -8.79811        -2.39536        -2.22788
| 94>    H       -3.23548        -1.90277        -0.23323
| 95>    H       -5.01227        -1.63481        -0.24965
| 96>    H       -4.11816        -1.76539        -1.78064
| 97>    H      -10.12730        -8.74355        -1.81952
| 98>    H       -8.90628        -8.87828        -0.51241
| 99>    H       -8.40483        -9.07787        -2.20020
|100>    H        2.34361        -6.34955         0.14673
|101>    H        4.03495        -6.44545         0.74636
|102>    H        2.69139        -6.12853         1.87879
|103>    H       -1.24123       -13.82188         1.51830
|104>    H       -0.50663       -13.98904        -0.08598
|105>    H       -2.28915       -13.85458         0.06562
|106>    H        3.34081       -12.86210         1.43361
|107>    H        5.92346        -7.46164         3.42857
|108>    H        8.37315        -7.39961         3.24390
|109>    H        8.45670       -11.50714         2.00134
|110> *
|111>
|112>                          ****END OF INPUT****

CARTESIAN COORDINATES (ANGSTROEM)
---------------------------------
  C    -10.454180   -4.878320   -0.438720
  O     -9.680040   -5.521830    0.229270
  C    -11.930590   -4.916930   -0.346000
  C    -12.488970   -3.935440   -1.182900
  C    -13.868640   -3.784820   -1.232980
  C    -14.660680   -4.617670   -0.458190
  C    -14.086310   -5.585130    0.357090
  C    -12.709840   -5.747980    0.432030
  Br   -15.212450   -6.710750    1.391590
  C    -11.410680   -3.237230   -1.877220
  C    -11.574750   -2.262930   -2.824890
  C    -12.829510   -1.754280   -3.225610
  N    -13.817960   -1.299070   -3.589420
  C    -10.535490   -1.640780   -3.551790
  N     -9.762500   -1.093440   -4.199910
  C    -10.151830   -3.811850   -1.431490
  C     -8.905390   -3.352660   -1.731770
  C     -7.664970   -3.973780   -1.436670
  C     -7.298350   -5.336570   -1.350530
  C     -5.907950   -5.367230   -1.097370
  C     -5.517740   -3.988280   -1.026370
  N     -6.560680   -3.194010   -1.266290
  O     -4.326510   -3.529590   -0.723610
  C     -4.170180   -2.116230   -0.747850
  C     -5.561490   -6.739380   -0.979710
  N     -6.666750   -7.513960   -1.139800
  C     -7.701330   -6.712730   -1.384630
  O     -8.905300   -7.149550   -1.642890
  C     -9.094250   -8.553050   -1.536760
  C     -4.290160   -7.323090   -0.731870
  C     -3.094450   -6.676000   -1.130000
  C     -1.796220   -7.181720   -0.765150
  N     -0.697470   -6.533780   -1.167430
  C     -0.816990   -5.409600   -1.826470
  C     -2.106790   -4.934700   -2.231700
  N     -3.190410   -5.597620   -1.914770
  C     -2.227010   -3.765150   -3.021520
  N     -2.297220   -2.793180   -3.623710
  C      0.357640   -4.707210   -2.196090
  N      1.294770   -4.113270   -2.480730
  C     -1.650030   -8.378660   -0.019200
  C     -2.837690   -9.057800    0.318320
  C     -4.143840   -8.546210   -0.045080
  N     -5.121230   -9.311440    0.437560
  S     -4.476760  -10.529750    1.250610
  N     -2.931440  -10.158490    1.061230
  C     -0.367460   -8.822120    0.399590
  C      0.081230  -10.133760    0.696450
  C      1.434090  -10.010800    1.091850
  C      1.727790   -8.615950    0.955870
  N      0.654130   -7.939650    0.559120
  O      2.896850   -8.059200    1.179190
  C      2.990350   -6.654100    0.969200
  C      1.898180  -11.327520    1.350290
  N      0.904520  -12.217910    1.083370
  C     -0.180160  -11.539880    0.701910
  O     -1.295340  -12.122670    0.340970
  C     -1.330340  -13.536240    0.468820
  C      3.174750  -11.823800    1.704410
  C      4.241760  -11.176700    2.247680
  C      5.605760  -11.770460    2.116180
  O      5.879720  -12.899990    1.794220
  C      6.533140  -10.654790    2.411330
  C      5.797360   -9.527850    2.823830
  C      4.380650   -9.880500    2.868960
  C      3.411160   -9.202440    3.557120
  C      3.604170   -7.936460    4.145600
  N      3.692970   -6.884440    4.596130
  C      2.121110   -9.713250    3.816370
  N      1.078920  -10.082870    4.122110
  C      6.458690   -8.346630    3.125060
  C      7.840650   -8.310730    3.017870
  C      8.550010   -9.438540    2.623280
  C      7.909010  -10.630590    2.310960
  Br    10.442270   -9.343570    2.503850
  H    -14.336020   -3.038150   -1.853350
  H    -15.734480   -4.514090   -0.486610
  H    -12.256970   -6.492360    1.068430
  H     -8.798110   -2.395360   -2.227880
  H     -3.235480   -1.902770   -0.233230
  H     -5.012270   -1.634810   -0.249650
  H     -4.118160   -1.765390   -1.780640
  H    -10.127300   -8.743550   -1.819520
  H     -8.906280   -8.878280   -0.512410
  H     -8.404830   -9.077870   -2.200200
  H      2.343610   -6.349550    0.146730
  H      4.034950   -6.445450    0.746360
  H      2.691390   -6.128530    1.878790
  H     -1.241230  -13.821880    1.518300
  H     -0.506630  -13.989040   -0.085980
  H     -2.289150  -13.854580    0.065620
  H      3.340810  -12.862100    1.433610
  H      5.923460   -7.461640    3.428570
  H      8.373150   -7.399610    3.243900
  H      8.456700  -11.507140    2.001340

 Total Charge           Charge          ....    0
 Multiplicity           Mult            ....    1
 Number of Electrons    NEL             ....  564
 Basis Dimension        Dim             .... 1190

ORBITAL ENERGIES
----------------

  NO   OCC          E(Eh)            E(eV)
   0   2.0000    -482.878850    -13139.8015
   1   2.0000    -482.876776    -13139.7451
   2   2.0000     -89.051466     -2423.2136
   3   2.0000     -62.556549     -1702.2502
   4   2.0000     -62.554484     -1702.1941
   5   2.0000     -56.390390     -1534.4605
   6   2.0000     -56.388333     -1534.4045
   7   2.0000     -56.387865     -1534.3918
   8   2.0000     -56.387850     -1534.3914
   9   2.0000     -56.385793     -1534.3354
  10   2.0000     -56.385782     -1534.3351
  11   2.0000     -19.291429      -524.9465
  12   2.0000     -19.284928      -524.7696
  13   2.0000     -19.280134      -524.6391
  14   2.0000     -19.279998      -524.6354
  15   2.0000     -19.229841      -523.2706
  16   2.0000     -19.227911      -523.2181
  17   2.0000     -14.463995      -393.5853
  18   2.0000     -14.461019      -393.5043
  19   2.0000     -14.455864      -393.3641
  20   2.0000     -14.455310      -393.3490
  21   2.0000     -14.435829      -392.8189
  22   2.0000     -14.435137      -392.8000
  23   2.0000     -14.427795      -392.6002
  24   2.0000     -14.424059      -392.4986
  25   2.0000     -14.422788      -392.4640
  26   2.0000     -14.421932      -392.4407
  27   2.0000     -14.394053      -391.6821
  28   2.0000     -14.393632      -391.6706
  29   2.0000     -14.391708      -391.6183
  30   2.0000     -14.391029      -391.5998
  31   2.0000     -10.389022      -282.6997
  32   2.0000     -10.386372      -282.6276
  33   2.0000     -10.386122      -282.6208
  34   2.0000     -10.385906      -282.6149
  35   2.0000     -10.385632      -282.6074
  36   2.0000     -10.383225      -282.5419
  37   2.0000     -10.379242      -282.4335
  38   2.0000     -10.377629      -282.3896
  39   2.0000     -10.358614      -281.8722
  40   2.0000     -10.358332      -281.8645
  41   2.0000     -10.355151      -281.7780
  42   2.0000     -10.354681      -281.7652
  43   2.0000     -10.352194      -281.6975
  44   2.0000     -10.351449      -281.6773
  45   2.0000     -10.350988      -281.6647
  46   2.0000     -10.350504      -281.6515
  47   2.0000     -10.350367      -281.6478
  48   2.0000     -10.347150      -281.5603
  49   2.0000     -10.344581      -281.4904
  50   2.0000     -10.344451      -281.4868
  51   2.0000     -10.340728      -281.3855
  52   2.0000     -10.335527      -281.2440
  53   2.0000     -10.330670      -281.1118
  54   2.0000     -10.330584      -281.1095
  55   2.0000     -10.329538      -281.0810
  56   2.0000     -10.329440      -281.0784
  57   2.0000     -10.329272      -281.0738
  58   2.0000     -10.328431      -281.0509
  59   2.0000     -10.328202      -281.0447
  60   2.0000     -10.327572      -281.0275
  61   2.0000     -10.325991      -280.9845
  62   2.0000     -10.324170      -280.9350
  63   2.0000     -10.322693      -280.8948
  64   2.0000     -10.322075      -280.8779
  65   2.0000     -10.320137      -280.8252
  66   2.0000     -10.318648      -280.7847
  67   2.0000     -10.318401      -280.7780
  68   2.0000     -10.318160      -280.7714
  69   2.0000     -10.314882      -280.6822
  70   2.0000     -10.314363      -280.6681
  71   2.0000     -10.311402      -280.5875
  72   2.0000     -10.311300      -280.5847
  73   2.0000     -10.311016      -280.5770
  74   2.0000     -10.310594      -280.5655
  75   2.0000     -10.309489      -280.5355
  76   2.0000     -10.309395      -280.5329
  77   2.0000     -10.306871      -280.4642
  78   2.0000     -10.306325      -280.4494
  79   2.0000     -10.271684      -279.5067
  80   2.0000     -10.270070      -279.4628
  81   2.0000     -10.268857      -279.4298
  82   2.0000     -10.267376      -279.3895
  83   2.0000      -8.785827      -239.0745
  84   2.0000      -8.783769      -239.0185
  85   2.0000      -8.142784      -221.5764
  86   2.0000      -6.621658      -180.1845
  87   2.0000      -6.619651      -180.1299
  88   2.0000      -6.607950      -179.8115
  89   2.0000      -6.607495      -179.7991
  90   2.0000      -6.605856      -179.7545
  91   2.0000      -6.605432      -179.7429
  92   2.0000      -6.113670      -166.3614
  93   2.0000      -6.106053      -166.1541
  94   2.0000      -6.105790      -166.1470
  95   2.0000      -2.737643       -74.4951
  96   2.0000      -2.735565       -74.4385
  97   2.0000      -2.733823       -74.3911
  98   2.0000      -2.733479       -74.3818
  99   2.0000      -2.731806       -74.3362
 100   2.0000      -2.731477       -74.3273
 101   2.0000      -2.722593       -74.0855
 102   2.0000      -2.722586       -74.0853
 103   2.0000      -2.720524       -74.0292
 104   2.0000      -2.720496       -74.0285
 105   2.0000      -1.201172       -32.6855
 106   2.0000      -1.198586       -32.6152
 107   2.0000      -1.194685       -32.5090
 108   2.0000      -1.191880       -32.4327
 109   2.0000      -1.148748       -31.2590
 110   2.0000      -1.145002       -31.1571
 111   2.0000      -1.143183       -31.1076
 112   2.0000      -1.126800       -30.6618
 113   2.0000      -1.068725       -29.0815
 114   2.0000      -1.065032       -28.9810
 115   2.0000      -1.052173       -28.6311
 116   2.0000      -1.039438       -28.2845
 117   2.0000      -1.036518       -28.2051
 118   2.0000      -1.028008       -27.9735
 119   2.0000      -1.027646       -27.9637
 120   2.0000      -1.019324       -27.7372
 121   2.0000      -1.009966       -27.4826
 122   2.0000      -1.009661       -27.4743
 123   2.0000      -1.009075       -27.4583
 124   2.0000      -1.002348       -27.2753
 125   2.0000      -1.001400       -27.2495
 126   2.0000      -1.000021       -27.2120
 127   2.0000      -0.982512       -26.7355
 128   2.0000      -0.972011       -26.4498
 129   2.0000      -0.971638       -26.4396
 130   2.0000      -0.918806       -25.0020
 131   2.0000      -0.918223       -24.9861
 132   2.0000      -0.914364       -24.8811
 133   2.0000      -0.912147       -24.8208
 134   2.0000      -0.911835       -24.8123
 135   2.0000      -0.907945       -24.7064
 136   2.0000      -0.885973       -24.1086
 137   2.0000      -0.885423       -24.0936
 138   2.0000      -0.865356       -23.5475
 139   2.0000      -0.864289       -23.5185
 140   2.0000      -0.862994       -23.4833
 141   2.0000      -0.860548       -23.4167
 142   2.0000      -0.855365       -23.2757
 143   2.0000      -0.843748       -22.9595
 144   2.0000      -0.839541       -22.8451
 145   2.0000      -0.831301       -22.6209
 146   2.0000      -0.827819       -22.5261
 147   2.0000      -0.811171       -22.0731
 148   2.0000      -0.805823       -21.9276
 149   2.0000      -0.805250       -21.9120
 150   2.0000      -0.804080       -21.8801
 151   2.0000      -0.776632       -21.1332
 152   2.0000      -0.775637       -21.1062
 153   2.0000      -0.763573       -20.7779
 154   2.0000      -0.754058       -20.5190
 155   2.0000      -0.745212       -20.2783
 156   2.0000      -0.741566       -20.1790
 157   2.0000      -0.715086       -19.4585
 158   2.0000      -0.709158       -19.2972
 159   2.0000      -0.706759       -19.2319
 160   2.0000      -0.704889       -19.1810
 161   2.0000      -0.702728       -19.1222
 162   2.0000      -0.695527       -18.9263
 163   2.0000      -0.693784       -18.8788
 164   2.0000      -0.691233       -18.8094
 165   2.0000      -0.685402       -18.6507
 166   2.0000      -0.683034       -18.5863
 167   2.0000      -0.682359       -18.5679
 168   2.0000      -0.668880       -18.2011
 169   2.0000      -0.663165       -18.0456
 170   2.0000      -0.657310       -17.8863
 171   2.0000      -0.654819       -17.8185
 172   2.0000      -0.649023       -17.6608
 173   2.0000      -0.645540       -17.5660
 174   2.0000      -0.629419       -17.1274
 175   2.0000      -0.627328       -17.0705
 176   2.0000      -0.624710       -16.9992
 177   2.0000      -0.623530       -16.9671
 178   2.0000      -0.615264       -16.7422
 179   2.0000      -0.612063       -16.6551
 180   2.0000      -0.608413       -16.5558
 181   2.0000      -0.598808       -16.2944
 182   2.0000      -0.592913       -16.1340
 183   2.0000      -0.589260       -16.0346
 184   2.0000      -0.587506       -15.9869
 185   2.0000      -0.584093       -15.8940
 186   2.0000      -0.582155       -15.8412
 187   2.0000      -0.581704       -15.8290
 188   2.0000      -0.579095       -15.7580
 189   2.0000      -0.577589       -15.7170
 190   2.0000      -0.576995       -15.7008
 191   2.0000      -0.572725       -15.5847
 192   2.0000      -0.562427       -15.3044
 193   2.0000      -0.560896       -15.2628
 194   2.0000      -0.554230       -15.0814
 195   2.0000      -0.553281       -15.0555
 196   2.0000      -0.552244       -15.0273
 197   2.0000      -0.551173       -14.9982
 198   2.0000      -0.545978       -14.8568
 199   2.0000      -0.544638       -14.8204
 200   2.0000      -0.543445       -14.7879
 201   2.0000      -0.540047       -14.6954
 202   2.0000      -0.537739       -14.6326
 203   2.0000      -0.534883       -14.5549
 204   2.0000      -0.528871       -14.3913
 205   2.0000      -0.526053       -14.3146
 206   2.0000      -0.522115       -14.2075
 207   2.0000      -0.521526       -14.1914
 208   2.0000      -0.518077       -14.0976
 209   2.0000      -0.512102       -13.9350
 210   2.0000      -0.509892       -13.8749
 211   2.0000      -0.505947       -13.7675
 212   2.0000      -0.502710       -13.6794
 213   2.0000      -0.501951       -13.6588
 214   2.0000      -0.498241       -13.5578
 215   2.0000      -0.490149       -13.3376
 216   2.0000      -0.487829       -13.2745
 217   2.0000      -0.487318       -13.2606
 218   2.0000      -0.485819       -13.2198
 219   2.0000      -0.484447       -13.1825
 220   2.0000      -0.482268       -13.1232
 221   2.0000      -0.473313       -12.8795
 222   2.0000      -0.472697       -12.8627
 223   2.0000      -0.470280       -12.7970
 224   2.0000      -0.465863       -12.6768
 225   2.0000      -0.463157       -12.6032
 226   2.0000      -0.462270       -12.5790
 227   2.0000      -0.461478       -12.5575
 228   2.0000      -0.459771       -12.5110
 229   2.0000      -0.459461       -12.5026
 230   2.0000      -0.456340       -12.4176
 231   2.0000      -0.455008       -12.3814
 232   2.0000      -0.454168       -12.3585
 233   2.0000      -0.451856       -12.2956
 234   2.0000      -0.451350       -12.2819
 235   2.0000      -0.449855       -12.2412
 236   2.0000      -0.449638       -12.2353
 237   2.0000      -0.448971       -12.2171
 238   2.0000      -0.446889       -12.1605
 239   2.0000      -0.442537       -12.0420
 240   2.0000      -0.441626       -12.0172
 241   2.0000      -0.438785       -11.9399
 242   2.0000      -0.436584       -11.8801
 243   2.0000      -0.434900       -11.8342
 244   2.0000      -0.433831       -11.8051
 245   2.0000      -0.432383       -11.7657
 246   2.0000      -0.431525       -11.7424
 247   2.0000      -0.430596       -11.7171
 248   2.0000      -0.426893       -11.6164
 249   2.0000      -0.424075       -11.5397
 250   2.0000      -0.422928       -11.5084
 251   2.0000      -0.421167       -11.4605
 252   2.0000      -0.417049       -11.3485
 253   2.0000      -0.415160       -11.2971
 254   2.0000      -0.412969       -11.2375
 255   2.0000      -0.411542       -11.1986
 256   2.0000      -0.406400       -11.0587
 257   2.0000      -0.404225       -10.9995
 258   2.0000      -0.389860       -10.6086
 259   2.0000      -0.387819       -10.5531
 260   2.0000      -0.383088       -10.4244
 261   2.0000      -0.380839       -10.3631
 262   2.0000      -0.373344       -10.1592
 263   2.0000      -0.371634       -10.1127
 264   2.0000      -0.370231       -10.0745
 265   2.0000      -0.360795        -9.8177
 266   2.0000      -0.358219        -9.7476
 267   2.0000      -0.357640        -9.7319
 268   2.0000      -0.354532        -9.6473
 269   2.0000      -0.354075        -9.6349
 270   2.0000      -0.349941        -9.5224
 271   2.0000      -0.343124        -9.3369
 272   2.0000      -0.340113        -9.2550
 273   2.0000      -0.332813        -9.0563
 274   2.0000      -0.328781        -8.9466
 275   2.0000      -0.323448        -8.8015
 276   2.0000      -0.314867        -8.5680
 277   2.0000      -0.311269        -8.4701
 278   2.0000      -0.298518        -8.1231
 279   2.0000      -0.297702        -8.1009
 280   2.0000      -0.284403        -7.7390
 281   2.0000      -0.259594        -7.0639
 282   0.0000      -0.150029        -4.0825
 283   0.0000      -0.110738        -3.0133
 284   0.0000      -0.099959        -2.7200
 285   0.0000      -0.076296        -2.0761
 286   0.0000      -0.076153        -2.0722

MULLIKEN ATOMIC CHARGES
-----------------------
   0 C :    0.150231
   1 O :   -0.126091
   2 C :   -0.029769
   3 C :    0.040601
   4 C :   -0.025901
   5 C :    0.049855
   6 C :   -0.005018
   7 C :   -0.013657
   8 Br:   -0.016576
   9 C :    0.296077
  10 C :   -0.332770
  11 C :   -0.189426
  12 N :    0.163917
  13 C :   -0.198192
  14 N :    0.179349
  15 C :   -0.062725
  16 C :   -0.031383
  17 C :    0.030213
  18 C :    0.043228
  19 C :    0.047893
  20 C :    0.079039
  21 N :   -0.180247
  22 O :   -0.257772
  23 C :    0.189402
  24 C :   -0.095900
  25 N :   -0.157140
  26 C :    0.108424
  27 O :   -0.240543
  28 C :    0.202610
  29 C :    0.125357
  30 C :   -0.061326
  31 C :   -0.078606
  32 N :    0.115126
  33 C :   -0.143060
  34 C :   -0.120633
  35 N :    0.069502
  36 C :   -0.202129
  37 N :    0.228217
  38 C :   -0.202604
  39 N :    0.235395
  40 C :    0.149549
  41 C :   -0.016653
  42 C :    0.005426
  43 N :   -0.227900
  44 S :    0.549349
  45 N :   -0.240317
  46 C :   -0.110361
  47 C :    0.065964
  48 C :    0.009536
  49 C :    0.095598
  50 N :   -0.135527
  51 O :   -0.263147
  52 C :    0.176934
  53 C :    0.039162
  54 N :   -0.188324
  55 C :    0.075421
  56 O :   -0.235281
  57 C :    0.199357
  58 C :    0.028647
  59 C :   -0.113145
  60 C :    0.140180
  61 O :   -0.121623
  62 C :   -0.010033
  63 C :    0.025931
  64 C :    0.298396
  65 C :   -0.301988
  66 C :   -0.186996
  67 N :    0.156264
  68 C :   -0.226940
  69 N :    0.193559
  70 C :   -0.032194
  71 C :    0.052225
  72 C :   -0.008716
  73 C :   -0.009700
  74 Br:   -0.015082
  75 H :    0.010006
  76 H :    0.009106
  77 H :    0.001326
  78 H :    0.037100
  79 H :    0.032542
  80 H :    0.045115
  81 H :    0.050036
  82 H :    0.034281
  83 H :    0.040601
  84 H :    0.038121
  85 H :    0.061257
  86 H :    0.038815
  87 H :    0.047587
  88 H :    0.037655
  89 H :    0.038493
  90 H :    0.029669
  91 H :    0.027498
  92 H :    0.006310
  93 H :    0.007612
  94 H :    0.006332
Sum of atomic charges:   -0.0000000

LOEWDIN ATOMIC CHARGES
----------------------
   0 C :    0.081752
   1 O :   -0.116967
   2 C :   -0.036361
   3 C :   -0.015733
   4 C :    0.009074
   5 C :   -0.011879
   6 C :   -0.097363
   7 C :   -0.001826
   8 Br:    0.118151
   9 C :    0.069206
  10 C :   -0.121846
  11 C :   -0.017725
  12 N :   -0.042315
  13 C :   -0.025164
  14 N :   -0.031905
  15 C :   -0.064612
  16 C :    0.065751
  17 C :    0.056993
  18 C :   -0.107839
  19 C :   -0.115877
  20 C :    0.106451
  21 N :   -0.172880
  22 O :   -0.040948
  23 C :    0.085979
  24 C :    0.082011
  25 N :   -0.167660
  26 C :    0.114437
  27 O :   -0.027109
  28 C :    0.089515
  29 C :   -0.015919
  30 C :    0.003725
  31 C :    0.007556
  32 N :    0.025429
  33 C :   -0.027059
  34 C :   -0.023684
  35 N :    0.016034
  36 C :   -0.031576
  37 N :   -0.007885
  38 C :   -0.033852
  39 N :   -0.008765
  40 C :   -0.015718
  41 C :   -0.040053
  42 C :   -0.033380
  43 N :   -0.259865
  44 S :    0.692019
  45 N :   -0.261213
  46 C :    0.079119
  47 C :   -0.112248
  48 C :   -0.118108
  49 C :    0.101230
  50 N :   -0.158266
  51 O :   -0.033277
  52 C :    0.088941
  53 C :    0.057726
  54 N :   -0.172981
  55 C :    0.111136
  56 O :   -0.032637
  57 C :    0.086209
  58 C :    0.056308
  59 C :   -0.055719
  60 C :    0.086230
  61 O :   -0.121235
  62 C :   -0.041980
  63 C :   -0.008538
  64 C :    0.061585
  65 C :   -0.118844
  66 C :   -0.015671
  67 N :   -0.049114
  68 C :   -0.023094
  69 N :   -0.029557
  70 C :    0.002435
  71 C :   -0.009311
  72 C :   -0.100072
  73 C :    0.003552
  74 Br:    0.119061
  75 H :    0.043453
  76 H :    0.041498
  77 H :    0.043020
  78 H :    0.055511
  79 H :    0.024855
  80 H :    0.026716
  81 H :    0.029642
  82 H :    0.025273
  83 H :    0.030120
  84 H :    0.027260
  85 H :    0.032069
  86 H :    0.027187
  87 H :    0.029762
  88 H :    0.027960
  89 H :    0.026924
  90 H :    0.023093
  91 H :    0.055853
  92 H :    0.041463
  93 H :    0.041059
  94 H :    0.045300

  Mayer bond orders larger than 0.100000
B(  0-C ,  1-O ) :   2.2384 B(  0-C ,  2-C ) :   0.9369 B(  0-C , 15-C ) :   0.9343
B(  2-C ,  3-C ) :   1.3316 B(  2-C ,  7-C ) :   1.3790 B(  3-C ,  4-C ) :   1.3564
B(  3-C ,  9-C ) :   0.9989 B(  4-C ,  5-C ) :   1.3907 B(  4-C , 75-H ) :   0.9833
B(  5-C ,  6-C ) :   1.3842 B(  5-C , 76-H ) :   0.9837 B(  6-C ,  7-C ) :   1.3416
B(  6-C ,  8-Br) :   0.9937 B(  7-C , 77-H ) :   1.0066 B(  9-C , 10-C ) :   1.6567
B(  9-C , 15-C ) :   1.0534 B( 10-C , 11-C ) :   1.1414 B( 10-C , 13-C ) :   1.1387
B( 11-C , 12-N ) :   2.9762 B( 13-C , 14-N ) :   2.9892 B( 15-C , 16-C ) :   1.6161
B( 16-C , 17-C ) :   1.1363 B( 16-C , 78-H ) :   0.9320 B( 17-C , 18-C ) :   1.1852
B( 17-C , 21-N ) :   1.4051 B( 18-C , 19-C ) :   1.3069 B( 18-C , 26-C ) :   1.0548
B( 19-C , 20-C ) :   1.0619 B( 19-C , 24-C ) :   1.1725 B( 20-C , 21-N ) :   1.4691
B( 20-C , 22-O ) :   1.3079 B( 22-O , 23-C ) :   0.8949 B( 23-C , 79-H ) :   0.9795
B( 23-C , 80-H ) :   0.9636 B( 23-C , 81-H ) :   0.9711 B( 24-C , 25-N ) :   1.4881
B( 24-C , 29-C ) :   1.0784 B( 25-N , 26-C ) :   1.4429 B( 26-C , 27-O ) :   1.3206
B( 27-O , 28-C ) :   0.9048 B( 28-C , 82-H ) :   0.9789 B( 28-C , 83-H ) :   0.9739
B( 28-C , 84-H ) :   0.9701 B( 29-C , 30-C ) :   1.2723 B( 29-C , 40-C ) :   0.1492
B( 29-C , 42-C ) :   1.2161 B( 30-C , 31-C ) :   1.1031 B( 30-C , 35-N ) :   1.4713
B( 31-C , 32-N ) :   1.4836 B( 31-C , 40-C ) :   1.2385 B( 32-N , 33-C ) :   1.7466
B( 33-C , 34-C ) :   1.1980 B( 33-C , 38-C ) :   1.1521 B( 34-C , 35-N ) :   1.7070
B( 34-C , 36-C ) :   1.1601 B( 36-C , 37-N ) :   2.9995 B( 38-C , 39-N ) :   3.0407
B( 40-C , 41-C ) :   1.2452 B( 40-C , 46-C ) :   1.0735 B( 41-C , 42-C ) :   1.0836
B( 41-C , 45-N ) :   1.5383 B( 42-C , 43-N ) :   1.5416 B( 43-N , 44-S ) :   1.2980
B( 43-N , 45-N ) :   0.1524 B( 44-S , 45-N ) :   1.2921 B( 46-C , 47-C ) :   1.1780
B( 46-C , 50-N ) :   1.4825 B( 47-C , 48-C ) :   1.3007 B( 47-C , 55-C ) :   1.0708
B( 48-C , 49-C ) :   1.0651 B( 48-C , 53-C ) :   1.1504 B( 49-C , 50-N ) :   1.4576
B( 49-C , 51-O ) :   1.2877 B( 51-O , 52-C ) :   0.8859 B( 52-C , 85-H ) :   0.9617
B( 52-C , 86-H ) :   0.9797 B( 52-C , 87-H ) :   0.9710 B( 53-C , 54-N ) :   1.4047
B( 53-C , 58-C ) :   1.1217 B( 54-N , 55-C ) :   1.4538 B( 55-C , 56-O ) :   1.3252
B( 56-O , 57-C ) :   0.9138 B( 57-C , 88-H ) :   0.9743 B( 57-C , 89-H ) :   0.9697
B( 57-C , 90-H ) :   0.9790 B( 58-C , 59-C ) :   1.6217 B( 58-C , 91-H ) :   0.9454
B( 59-C , 60-C ) :   0.9275 B( 59-C , 64-C ) :   1.0473 B( 60-C , 61-O ) :   2.2869
B( 60-C , 62-C ) :   0.9175 B( 62-C , 63-C ) :   1.3302 B( 62-C , 73-C ) :   1.3813
B( 63-C , 64-C ) :   1.0103 B( 63-C , 70-C ) :   1.3688 B( 64-C , 65-C ) :   1.6491
B( 65-C , 66-C ) :   1.1414 B( 65-C , 68-C ) :   1.1564 B( 66-C , 67-N ) :   2.9557
B( 68-C , 69-N ) :   3.0069 B( 70-C , 71-C ) :   1.3792 B( 70-C , 92-H ) :   0.9863
B( 71-C , 72-C ) :   1.3899 B( 71-C , 93-H ) :   0.9845 B( 72-C , 73-C ) :   1.3428
B( 72-C , 74-Br) :   0.9951 B( 73-C , 94-H ) :   1.0063

-----------------------------------------------------------------------------
         ABSORPTION SPECTRUM VIA TRANSITION ELECTRIC DIPOLE MOMENTS
-----------------------------------------------------------------------------
State   Energy  Wavelength   fosc         T2         TX        TY        TZ
        (cm-1)    (nm)                  (au**2)     (au)      (au)      (au)
-----------------------------------------------------------------------------
   0    9044.6   1105.6   0.743444615  27.06039  -4.21441   2.83368  -1.12668
   1   12094.5    826.8   0.014447906   0.39327   0.51819  -0.32539   0.13735
   2   12147.7    823.2   0.000765227   0.02074   0.10700  -0.04140   0.08703
   3   13508.6    740.3   0.017483868   0.42609  -0.29220   0.10829  -0.57357
   4   17345.8    576.5   0.060530917   1.14883   0.87725  -0.18118   0.58859
   5   17479.1    572.1   0.048447550   0.91249   0.75004  -0.41529  -0.42127
   6   18116.3    552.0   0.215442310   3.91505  -1.58689   1.05182  -0.53900
   7   19122.6    522.9   0.002299247   0.03958   0.11678   0.15787   0.03198
   8   20513.7    487.5   0.081086745   1.30131   0.93912  -0.00429   0.64757
   9   20785.3    481.1   0.000428509   0.00679  -0.01063   0.07923  -0.01994
  10   21039.9    475.3   0.003681577   0.05761   0.14300   0.02139   0.19157
  11   22319.0    448.0   0.083955589   1.23837   1.08774  -0.13016  -0.19556
  12   23284.9    429.5   0.017284606   0.24438  -0.08131  -0.42268   0.24312
  13   23509.8    425.4   0.008799172   0.12322   0.09643   0.32773   0.08071
  14   23711.0    421.7   0.020508665   0.28475   0.10626  -0.50793  -0.12434
  15   24234.3    412.6   0.034099470   0.46323   0.15195  -0.47379   0.46439
  16   24397.6    409.9   0.012846957   0.17335  -0.11475   0.08360  -0.39140
  17   25325.9    394.9   0.040227372   0.52292   0.42670   0.48605   0.32341
  18   25670.9    389.5   0.021721894   0.27857   0.19789  -0.48870  -0.02419
  19   26197.2    381.7   0.009541326   0.11990   0.32080  -0.01991   0.12882
  20   26485.4    377.6   0.013307698   0.16541   0.09386  -0.18328   0.35073
  21   26536.5    376.8   0.112109355   1.39083  -0.64892  -0.89170   0.41785
  22   27554.5    362.9   0.003358287   0.04012  -0.17308   0.08879   0.04780
  23   28236.8    354.1   0.031019285   0.36165  -0.23577  -0.07514   0.54810
  24   28374.0    352.4   0.148602420   1.72417   1.29379  -0.20389   0.09335
  25   28582.7    349.9   0.022267252   0.25647   0.46017  -0.18365  -0.10482
  26   28684.5    348.6   0.020791837   0.23863   0.43623  -0.07955   0.20495
  27   28806.7    347.1   0.009416508   0.10761   0.27598  -0.10413  -0.14355
  28   29192.2    342.6   0.002650364   0.02989   0.08728  -0.10174   0.10918
  29   29379.5    340.4   0.025117906   0.28146  -0.35448   0.28322   0.27494
  30   29486.1    339.1   0.017563063   0.19609  -0.36072  -0.22891  -0.11652
  31   29718.8    336.5   0.107041618   1.18576  -0.33443   0.63138  -0.82175
  32   29877.0    334.7   0.183699252   2.02417  -1.13756  -0.84381   0.13454
  33   30010.8    333.2   0.075978883   0.83347   0.58788   0.62045  -0.32078
  34   30207.0    331.0   0.047418248   0.51679   0.26573  -0.53041   0.40601
  35   30999.2    322.6   0.143143774   1.52019  -0.93216  -0.72661   0.35116
  36   31355.0    318.9   0.050792237   0.53329   0.48361  -0.28965   0.46423
  37   31559.7    316.9   0.131479523   1.37151   0.31466   1.08514   0.30817
  38   31961.0    312.9   0.023230391   0.23928  -0.30332   0.21319  -0.31911
  39   32329.6    309.3   0.034288394   0.34916  -0.48072   0.10806   0.32618
  40   32393.2    308.7   0.017599229   0.17886  -0.13778   0.23670   0.32226
  41   32578.1    307.0   0.008771040   0.08863  -0.22130   0.12351   0.15622
  42   32851.2    304.4   0.047926392   0.48029   0.62960   0.26161  -0.12430
  43   33078.5    302.3   0.054656998   0.54397  -0.61998   0.18849   0.35223
  44   33263.7    300.6   0.331040028   3.27632   1.74350   0.43740   0.21265
  45   33313.2    300.2   0.113700197   1.12362   1.02541  -0.26055   0.06535
  46   33565.9    297.9   0.022463071   0.22032   0.22931   0.24527   0.32798
  47   33906.1    294.9   0.101498087   0.98550   0.65126   0.66448  -0.34616
  48   34003.0    294.1   0.000285051   0.00276  -0.01068  -0.01547   0.04906
  49   34343.2    291.2   0.008092795   0.07758   0.15939  -0.22275   0.05055
  50   34617.0    288.9   0.259578416   2.46862  -1.51925   0.35704  -0.18175
  51   34811.1    287.3   0.617905177   5.84358  -1.47316  -1.17209   1.51644
  52   34938.9    286.2   0.197710380   1.86293  -0.22121   1.18522  -0.63972
  53   35228.2    283.9   0.047717619   0.44593   0.51016   0.42872  -0.04320
  54   35376.5    282.7   0.018676956   0.17381  -0.33551   0.24498  -0.03502
  55   35591.5    281.0   0.041119368   0.38034   0.29142   0.37277   0.39555
  56   35786.2    279.4   0.055084079   0.50674   0.10560   0.64367   0.28510
  57   35926.7    278.3   0.016058064   0.14715   0.23821  -0.27115  -0.12993
  58   36039.8    277.5   0.007733216   0.07064   0.16045   0.20729   0.04388
  59   36281.0    275.6   0.006878635   0.06242   0.24333  -0.03669   0.04311
  60   36402.2    274.7   0.004889505   0.04422   0.16232  -0.13125   0.02538
  61   36553.3    273.6   0.012836497   0.11561   0.18503   0.28327  -0.03363
  62   36744.9    272.1   0.028172827   0.25241  -0.50162   0.01129   0.02571
  63   37019.4    270.1   0.006929342   0.06162  -0.12048   0.17986   0.12147
  64   37085.0    269.7   0.042992213   0.38165  -0.59923  -0.12713   0.08009
  65   37410.2    267.3   0.004108093   0.03615   0.12485   0.06448  -0.12809
  66   37478.1    266.8   0.035221428   0.30939  -0.52334  -0.18188   0.04924
  67   37602.7    265.9   0.097155380   0.85060   0.82697   0.19928   0.35639
  68   37754.9    264.9   0.028525485   0.24873   0.24009   0.37124  -0.23081
  69   37845.8    264.2   0.038954082   0.33885   0.46302  -0.32369   0.14032
  70   37907.0    263.8   0.003435387   0.02984   0.13512   0.02002   0.10572
  71   38059.3    262.7   0.030577443   0.26449  -0.37649  -0.27474   0.21741
  72   38385.2    260.5   0.036975447   0.31712  -0.50778  -0.15806  -0.18520
  73   38454.6    260.0   0.017942620   0.15361  -0.07021  -0.28570   0.25894
  74   38466.9    260.0   0.015645957   0.13390  -0.09857   0.32113  -0.14512
  75   38557.7    259.4   0.243553570   2.07950   1.30875  -0.56254   0.22409
  76   38650.3    258.7   0.080469631   0.68542   0.58148   0.33178  -0.48705
  77   38713.2    258.3   0.008269016   0.07032  -0.25164   0.04905   0.06774
  78   38794.2    257.8   0.095170773   0.80763   0.42851   0.75046  -0.24661
  79   39084.8    255.9   0.030587232   0.25764   0.04692  -0.50455  -0.02935
  80   39275.1    254.6   0.020021959   0.16783   0.27721   0.17473   0.24586
  81   39578.5    252.7   0.016272944   0.13536   0.19293  -0.03575   0.31122
  82   39650.5    252.2   0.026397206   0.21917  -0.28893   0.12127  -0.34783
  83   39773.0    251.4   0.053077628   0.43934  -0.57227  -0.12146  -0.31159
  84   39888.9    250.7   0.029224362   0.24120  -0.47007   0.10157   0.09956
  85   40046.3    249.7   0.018732780   0.15400   0.18365   0.25659   0.23331
  86   40190.7    248.8   0.001443277   0.01182  -0.09114  -0.00925   0.05856

FINAL SINGLE POINT ENERGY     -8753.180015173108

DIPOLE MOMENT
-------------
                                X             Y             Z
Electronic contribution:     10.70145     -14.48213      33.65519
Nuclear contribution   :    -11.18481      11.46001     -32.49477
                        -----------------------------------------
Total Dipole Moment    :     -0.48336      -3.02212       1.16042
                        -----------------------------------------
Magnitude (a.u.)       :      3.27313
Magnitude (Debye)      :      8.31964

Rotational constants in cm-1:     0.001868     0.000240     0.000222
Rotational constants in MHz :    55.988206     7.202658     6.667051

                             ****ORCA TERMINATED NORMALLY****
TOTAL RUN TIME: 0 days 0 hours 12 minutes 45 seconds 528 msec
