                         Program Version 4.2.0 -  RELEASE  -
|  1> # ORCA input file
|  2> # SCF done       -162.541047565785          0.000367888274
|  3> ! CAM-B3LYP def2-SVP def2/J RIJCOSX Grid4 TightSCF
|  4> %maxcore 5000
|  5> %tddft
|  6>     Mode sTDDFT
|  7>     Ethresh 5.0
|  8>     maxcore 5000
|  9> end
| 10>
| 11> %pal
| 12>   nprocs 6
| 13>   end
| 14> * xyz 0 1
| 15>    C       -7.01017        -0.32566        17.92759
| 16>    C       -6.13048        -1.51901        17.78090
| 17>    N       -5.13819        -1.79262        18.59891
| 18>    S       -4.42112        -3.17170        18.13071
| 19>    N       -5.38065        -3.45818        16.85451
| 20>    C       -6.27171        -2.49671        16.76145
| 21>    C       -7.29303        -2.42990        15.66719
| 22>    C       -8.38015        -1.49373        16.08881
| 23>    C       -8.24007        -0.51498        17.10782
| 24>    N       -9.32941         0.20575        17.25941
| 25>    S      -10.45601        -0.29620        16.20409
| 26>    N       -9.56478        -1.46637        15.52027
| 27>    C       -6.63396        -1.91315        14.41977
| 28>    C       -6.27605        -0.62250        14.15589
| 29>    C       -5.65490        -0.50542        12.90217
| 30>    C       -5.53859        -1.71993        12.22282
| 31>    S       -6.20662        -3.01674        13.14577
| 32>    C       -4.92139        -1.57744        10.97468
| 33>    C       -4.57255        -0.24582        10.71244
| 34>    S       -5.00347         0.83675        12.00945
| 35>    C       -3.96041        -0.05720         9.47825
| 36>    C       -3.83064        -1.24293         8.77702
| 37>    S       -4.48044        -2.61307         9.67082
| 38>    C       -3.26738        -1.46311         7.48665
| 39>    C       -2.71918        -0.45487         6.65807
| 40>    C       -2.17161        -0.73789         5.35320
| 41>    N       -1.66153         0.27928         4.62523
| 42>    C       -1.67191         1.48137         5.09616
| 43>    C       -2.21551         1.76016         6.37369
| 44>    N       -2.71097         0.81936         7.10609
| 45>    F       -2.23471         2.99970         6.86434
| 46>    F       -1.15258         2.44655         4.33727
| 47>    C       -2.14839        -2.04295         4.80628
| 48>    C       -2.68765        -3.04589         5.63994
| 49>    C       -3.23049        -2.76437         6.94163
| 50>    N       -3.67990        -3.87052         7.53582
| 51>    S       -3.44715        -5.12806         6.56849
| 52>    N       -2.76648        -4.34427         5.34536
| 53>    C       -1.63932        -2.37961         3.51825
| 54>    C       -1.08839        -1.55220         2.55605
| 55>    C       -0.71477        -2.25467         1.41498
| 56>    C       -0.97381        -3.62977         1.48843
| 57>    S       -1.69076        -4.05915         2.99476
| 58>    C       -0.58796        -4.29438         0.31981
| 59>    C       -0.04166        -3.43458        -0.63392
| 60>    S        0.00715        -1.78103        -0.09982
| 61>    C        0.34836        -4.08329        -1.81901
| 62>    C        0.09984        -5.42075        -1.76476
| 63>    S       -0.61889        -5.92232        -0.25240
| 64>    C        0.38178        -6.45298        -2.81736
| 65>    C       -0.87258        -7.20752        -3.12944
| 66>    N       -1.80455        -6.75534        -3.93740
| 67>    S       -3.02770        -7.82200        -3.98354
| 68>    N       -2.37695        -8.89973        -2.95881
| 69>    C       -1.20579        -8.46221        -2.55352
| 70>    C       -0.32653        -9.20770        -1.60986
| 71>    C        1.06219        -8.67957        -1.71731
| 72>    C        1.39384        -7.42496        -2.29413
| 73>    N        2.68548        -7.18541        -2.28268
| 74>    S        3.45056        -8.44229        -1.59652
| 75>    N        2.12465        -9.33085        -1.29971
| 76>    H       -6.47465         0.57161        17.59605
| 77>    H       -7.26825        -0.16388        18.97648
| 78>    H       -7.69651        -3.42623        15.46385
| 79>    H       -6.45637         0.20441        14.81798
| 80>    H       -3.62346         0.88651         9.09706
| 81>    H       -0.97257        -0.49512         2.69237
| 82>    H        0.78765        -3.58882        -2.66494
| 83>    H        0.76006        -5.94130        -3.70678
| 84>    H       -0.35166       -10.27868        -1.82003
| 85>    H       -0.69182        -9.07357        -0.58501
| 86> *
| 87>
| 88>                          ****END OF INPUT****

CARTESIAN COORDINATES (ANGSTROEM)
---------------------------------
  C     -7.010170   -0.325660   17.927590
  C     -6.130480   -1.519010   17.780900
  N     -5.138190   -1.792620   18.598910
  S     -4.421120   -3.171700   18.130710
  N     -5.380650   -3.458180   16.854510
  C     -6.271710   -2.496710   16.761450
  C     -7.293030   -2.429900   15.667190
  C     -8.380150   -1.493730   16.088810
  C     -8.240070   -0.514980   17.107820
  N     -9.329410    0.205750   17.259410
  S    -10.456010   -0.296200   16.204090
  N     -9.564780   -1.466370   15.520270
  C     -6.633960   -1.913150   14.419770
  C     -6.276050   -0.622500   14.155890
  C     -5.654900   -0.505420   12.902170
  C     -5.538590   -1.719930   12.222820
  S     -6.206620   -3.016740   13.145770
  C     -4.921390   -1.577440   10.974680
  C     -4.572550   -0.245820   10.712440
  S     -5.003470    0.836750   12.009450
  C     -3.960410   -0.057200    9.478250
  C     -3.830640   -1.242930    8.777020
  S     -4.480440   -2.613070    9.670820
  C     -3.267380   -1.463110    7.486650
  C     -2.719180   -0.454870    6.658070
  C     -2.171610   -0.737890    5.353200
  N     -1.661530    0.279280    4.625230
  C     -1.671910    1.481370    5.096160
  C     -2.215510    1.760160    6.373690
  N     -2.710970    0.819360    7.106090
  F     -2.234710    2.999700    6.864340
  F     -1.152580    2.446550    4.337270
  C     -2.148390   -2.042950    4.806280
  C     -2.687650   -3.045890    5.639940
  C     -3.230490   -2.764370    6.941630
  N     -3.679900   -3.870520    7.535820
  S     -3.447150   -5.128060    6.568490
  N     -2.766480   -4.344270    5.345360
  C     -1.639320   -2.379610    3.518250
  C     -1.088390   -1.552200    2.556050
  C     -0.714770   -2.254670    1.414980
  C     -0.973810   -3.629770    1.488430
  S     -1.690760   -4.059150    2.994760
  C     -0.587960   -4.294380    0.319810
  C     -0.041660   -3.434580   -0.633920
  S      0.007150   -1.781030   -0.099820
  C      0.348360   -4.083290   -1.819010
  C      0.099840   -5.420750   -1.764760
  S     -0.618890   -5.922320   -0.252400
  C      0.381780   -6.452980   -2.817360
  C     -0.872580   -7.207520   -3.129440
  N     -1.804550   -6.755340   -3.937400
  S     -3.027700   -7.822000   -3.983540
  N     -2.376950   -8.899730   -2.958810
  C     -1.205790   -8.462210   -2.553520
  C     -0.326530   -9.207700   -1.609860
  C      1.062190   -8.679570   -1.717310
  C      1.393840   -7.424960   -2.294130
  N      2.685480   -7.185410   -2.282680
  S      3.450560   -8.442290   -1.596520
  N      2.124650   -9.330850   -1.299710
  H     -6.474650    0.571610   17.596050
  H     -7.268250   -0.163880   18.976480
  H     -7.696510   -3.426230   15.463850
  H     -6.456370    0.204410   14.817980
  H     -3.623460    0.886510    9.097060
  H     -0.972570   -0.495120    2.692370
  H      0.787650   -3.588820   -2.664940
  H      0.760060   -5.941300   -3.706780
  H     -0.351660  -10.278680   -1.820030
  H     -0.691820   -9.073570   -0.585010

 Total Charge           Charge          ....    0
 Multiplicity           Mult            ....    1
 Number of Electrons    NEL             ....  504
 Basis Dimension        Dim             ....  948

ORBITAL ENERGIES
----------------

  NO   OCC          E(Eh)            E(eV)
   0   2.0000     -89.041133     -2422.9324
   1   2.0000     -89.008757     -2422.0514
   2   2.0000     -89.007201     -2422.0091
   3   2.0000     -89.006182     -2421.9813
   4   2.0000     -89.005567     -2421.9646
   5   2.0000     -88.961126     -2420.7553
   6   2.0000     -88.960129     -2420.7282
   7   2.0000     -88.952565     -2420.5223
   8   2.0000     -88.952076     -2420.5091
   9   2.0000     -88.951323     -2420.4886
  10   2.0000     -88.951136     -2420.4835
  11   2.0000     -24.812049      -675.1702
  12   2.0000     -24.811915      -675.1665
  13   2.0000     -14.450063      -393.2062
  14   2.0000     -14.449891      -393.2015
  15   2.0000     -14.449244      -393.1839
  16   2.0000     -14.449069      -393.1791
  17   2.0000     -14.436655      -392.8414
  18   2.0000     -14.436002      -392.8236
  19   2.0000     -14.435171      -392.8010
  20   2.0000     -14.434631      -392.7863
  21   2.0000     -14.434612      -392.7858
  22   2.0000     -14.434243      -392.7757
  23   2.0000     -14.433523      -392.7561
  24   2.0000     -14.433167      -392.7464
  25   2.0000     -10.426755      -283.7264
  26   2.0000     -10.426434      -283.7177
  27   2.0000     -10.341587      -281.4089
  28   2.0000     -10.341316      -281.4015
  29   2.0000     -10.334845      -281.2254
  30   2.0000     -10.334587      -281.2184
  31   2.0000     -10.327835      -281.0347
  32   2.0000     -10.327364      -281.0219
  33   2.0000     -10.326564      -281.0001
  34   2.0000     -10.326240      -280.9913
  35   2.0000     -10.325318      -280.9662
  36   2.0000     -10.324994      -280.9574
  37   2.0000     -10.324844      -280.9533
  38   2.0000     -10.324580      -280.9461
  39   2.0000     -10.314343      -280.6676
  40   2.0000     -10.312657      -280.6217
  41   2.0000     -10.310836      -280.5721
  42   2.0000     -10.310706      -280.5686
  43   2.0000     -10.310343      -280.5587
  44   2.0000     -10.309887      -280.5463
  45   2.0000     -10.305442      -280.4253
  46   2.0000     -10.305121      -280.4166
  47   2.0000     -10.302403      -280.3426
  48   2.0000     -10.300878      -280.3011
  49   2.0000     -10.299986      -280.2769
  50   2.0000     -10.299844      -280.2730
  51   2.0000     -10.298704      -280.2420
  52   2.0000     -10.297354      -280.2053
  53   2.0000     -10.297249      -280.2024
  54   2.0000     -10.295553      -280.1563
  55   2.0000     -10.293790      -280.1083
  56   2.0000     -10.293436      -280.0986
  57   2.0000     -10.282758      -279.8081
  58   2.0000     -10.282270      -279.7948
  59   2.0000     -10.275449      -279.6092
  60   2.0000     -10.275417      -279.6083
  61   2.0000      -8.132049      -221.2843
  62   2.0000      -8.101690      -220.4582
  63   2.0000      -8.100049      -220.4135
  64   2.0000      -8.099023      -220.3856
  65   2.0000      -8.098489      -220.3711
  66   2.0000      -8.056275      -219.2224
  67   2.0000      -8.055420      -219.1991
  68   2.0000      -8.047781      -218.9913
  69   2.0000      -8.047351      -218.9796
  70   2.0000      -8.045287      -218.9234
  71   2.0000      -8.045090      -218.9180
  72   2.0000      -6.103157      -166.0754
  73   2.0000      -6.095487      -165.8666
  74   2.0000      -6.094732      -165.8461
  75   2.0000      -6.073276      -165.2622
  76   2.0000      -6.071639      -165.2177
  77   2.0000      -6.070626      -165.1901
  78   2.0000      -6.070111      -165.1761
  79   2.0000      -6.065652      -165.0548
  80   2.0000      -6.064054      -165.0113
  81   2.0000      -6.063016      -164.9830
  82   2.0000      -6.062920      -164.9804
  83   2.0000      -6.062489      -164.9687
  84   2.0000      -6.061270      -164.9355
  85   2.0000      -6.060257      -164.9080
  86   2.0000      -6.059656      -164.8916
  87   2.0000      -6.025836      -163.9713
  88   2.0000      -6.024838      -163.9442
  89   2.0000      -6.021762      -163.8605
  90   2.0000      -6.020855      -163.8358
  91   2.0000      -6.017880      -163.7548
  92   2.0000      -6.017463      -163.7435
  93   2.0000      -6.017137      -163.7346
  94   2.0000      -6.017062      -163.7326
  95   2.0000      -6.015056      -163.6780
  96   2.0000      -6.014849      -163.6724
  97   2.0000      -6.013651      -163.6398
  98   2.0000      -6.013259      -163.6291
  99   2.0000      -6.010583      -163.5563
 100   2.0000      -6.010385      -163.5509
 101   2.0000      -6.008823      -163.5084
 102   2.0000      -6.008324      -163.4948
 103   2.0000      -6.006780      -163.4528
 104   2.0000      -6.006592      -163.4477
 105   2.0000      -1.339039       -36.4371
 106   2.0000      -1.325327       -36.0640
 107   2.0000      -1.138549       -30.9815
 108   2.0000      -1.122227       -30.5374
 109   2.0000      -1.120140       -30.4806
 110   2.0000      -1.117364       -30.4050
 111   2.0000      -1.115369       -30.3507
 112   2.0000      -1.109009       -30.1777
 113   2.0000      -1.034040       -28.1377
 114   2.0000      -1.014350       -27.6019
 115   2.0000      -1.013978       -27.5917
 116   2.0000      -0.997259       -27.1368
 117   2.0000      -0.987180       -26.8625
 118   2.0000      -0.983535       -26.7634
 119   2.0000      -0.977898       -26.6099
 120   2.0000      -0.971010       -26.4225
 121   2.0000      -0.970400       -26.4059
 122   2.0000      -0.968973       -26.3671
 123   2.0000      -0.963044       -26.2058
 124   2.0000      -0.947384       -25.7796
 125   2.0000      -0.944394       -25.6983
 126   2.0000      -0.918546       -24.9949
 127   2.0000      -0.912532       -24.8313
 128   2.0000      -0.881906       -23.9979
 129   2.0000      -0.880032       -23.9469
 130   2.0000      -0.865794       -23.5595
 131   2.0000      -0.864378       -23.5209
 132   2.0000      -0.860848       -23.4249
 133   2.0000      -0.858670       -23.3656
 134   2.0000      -0.846988       -23.0477
 135   2.0000      -0.837135       -22.7796
 136   2.0000      -0.828676       -22.5494
 137   2.0000      -0.828132       -22.5346
 138   2.0000      -0.812067       -22.0975
 139   2.0000      -0.797803       -21.7093
 140   2.0000      -0.790983       -21.5237
 141   2.0000      -0.788275       -21.4501
 142   2.0000      -0.784646       -21.3513
 143   2.0000      -0.772679       -21.0257
 144   2.0000      -0.763704       -20.7814
 145   2.0000      -0.751248       -20.4425
 146   2.0000      -0.744806       -20.2672
 147   2.0000      -0.723573       -19.6894
 148   2.0000      -0.715186       -19.4612
 149   2.0000      -0.702263       -19.1095
 150   2.0000      -0.687960       -18.7203
 151   2.0000      -0.685458       -18.6523
 152   2.0000      -0.684547       -18.6275
 153   2.0000      -0.674567       -18.3559
 154   2.0000      -0.668317       -18.1858
 155   2.0000      -0.665492       -18.1089
 156   2.0000      -0.664063       -18.0701
 157   2.0000      -0.663651       -18.0589
 158   2.0000      -0.648219       -17.6389
 159   2.0000      -0.644027       -17.5249
 160   2.0000      -0.639948       -17.4139
 161   2.0000      -0.635988       -17.3061
 162   2.0000      -0.627341       -17.0708
 163   2.0000      -0.624669       -16.9981
 164   2.0000      -0.621981       -16.9250
 165   2.0000      -0.618367       -16.8266
 166   2.0000      -0.614635       -16.7251
 167   2.0000      -0.611809       -16.6482
 168   2.0000      -0.606065       -16.4919
 169   2.0000      -0.599670       -16.3179
 170   2.0000      -0.598454       -16.2848
 171   2.0000      -0.594224       -16.1697
 172   2.0000      -0.577954       -15.7269
 173   2.0000      -0.571473       -15.5506
 174   2.0000      -0.567147       -15.4328
 175   2.0000      -0.563941       -15.3456
 176   2.0000      -0.562534       -15.3073
 177   2.0000      -0.554594       -15.0913
 178   2.0000      -0.548441       -14.9238
 179   2.0000      -0.543029       -14.7766
 180   2.0000      -0.540005       -14.6943
 181   2.0000      -0.532500       -14.4901
 182   2.0000      -0.531080       -14.4514
 183   2.0000      -0.530169       -14.4266
 184   2.0000      -0.528770       -14.3886
 185   2.0000      -0.526532       -14.3277
 186   2.0000      -0.524411       -14.2699
 187   2.0000      -0.523504       -14.2453
 188   2.0000      -0.516942       -14.0667
 189   2.0000      -0.515823       -14.0363
 190   2.0000      -0.512843       -13.9552
 191   2.0000      -0.511725       -13.9248
 192   2.0000      -0.510643       -13.8953
 193   2.0000      -0.509090       -13.8530
 194   2.0000      -0.501250       -13.6397
 195   2.0000      -0.499065       -13.5803
 196   2.0000      -0.494015       -13.4428
 197   2.0000      -0.492422       -13.3995
 198   2.0000      -0.482608       -13.1324
 199   2.0000      -0.479780       -13.0555
 200   2.0000      -0.477664       -12.9979
 201   2.0000      -0.475009       -12.9257
 202   2.0000      -0.473885       -12.8951
 203   2.0000      -0.473209       -12.8767
 204   2.0000      -0.467195       -12.7130
 205   2.0000      -0.465839       -12.6761
 206   2.0000      -0.457849       -12.4587
 207   2.0000      -0.456680       -12.4269
 208   2.0000      -0.453869       -12.3504
 209   2.0000      -0.451011       -12.2726
 210   2.0000      -0.448969       -12.2171
 211   2.0000      -0.448164       -12.1952
 212   2.0000      -0.443009       -12.0549
 213   2.0000      -0.437641       -11.9088
 214   2.0000      -0.432100       -11.7580
 215   2.0000      -0.430682       -11.7195
 216   2.0000      -0.424529       -11.5520
 217   2.0000      -0.418069       -11.3762
 218   2.0000      -0.411867       -11.2075
 219   2.0000      -0.411176       -11.1887
 220   2.0000      -0.406662       -11.0658
 221   2.0000      -0.405113       -11.0237
 222   2.0000      -0.401457       -10.9242
 223   2.0000      -0.391851       -10.6628
 224   2.0000      -0.390448       -10.6246
 225   2.0000      -0.389940       -10.6108
 226   2.0000      -0.389208       -10.5909
 227   2.0000      -0.385745       -10.4966
 228   2.0000      -0.384367       -10.4591
 229   2.0000      -0.382567       -10.4102
 230   2.0000      -0.374446       -10.1892
 231   2.0000      -0.373045       -10.1511
 232   2.0000      -0.365305        -9.9404
 233   2.0000      -0.363926        -9.9029
 234   2.0000      -0.363294        -9.8857
 235   2.0000      -0.362710        -9.8698
 236   2.0000      -0.361627        -9.8404
 237   2.0000      -0.360417        -9.8075
 238   2.0000      -0.354071        -9.6348
 239   2.0000      -0.351335        -9.5603
 240   2.0000      -0.340289        -9.2597
 241   2.0000      -0.338899        -9.2219
 242   2.0000      -0.336696        -9.1620
 243   2.0000      -0.330456        -8.9922
 244   2.0000      -0.329048        -8.9538
 245   2.0000      -0.326434        -8.8827
 246   2.0000      -0.324706        -8.8357
 247   2.0000      -0.306723        -8.3463
 248   2.0000      -0.278636        -7.5821
 249   2.0000      -0.277900        -7.5620
 250   2.0000      -0.268114        -7.2957
 251   2.0000      -0.227524        -6.1912
 252   0.0000      -0.107750        -2.9320
 253   0.0000      -0.030380        -0.8267
 254   0.0000      -0.028317        -0.7705
 255   0.0000      -0.022748        -0.6190
 256   0.0000      -0.017760        -0.4833

MULLIKEN ATOMIC CHARGES
-----------------------
   0 C :    0.406416
   1 C :   -0.193382
   2 N :   -0.272593
   3 S :    0.455013
   4 N :   -0.267917
   5 C :   -0.061272
   6 C :    0.257161
   7 C :   -0.100738
   8 C :   -0.192559
   9 N :   -0.276059
  10 S :    0.457910
  11 N :   -0.261620
  12 C :   -0.107460
  13 C :   -0.032564
  14 C :   -0.032466
  15 C :   -0.101373
  16 S :    0.178411
  17 C :   -0.040102
  18 C :   -0.010572
  19 S :    0.147454
  20 C :   -0.055107
  21 C :   -0.176300
  22 S :    0.157882
  23 C :    0.205675
  24 C :   -0.081257
  25 C :   -0.081170
  26 N :    0.000240
  27 C :    0.140699
  28 C :    0.141203
  29 N :   -0.003527
  30 F :   -0.146161
  31 F :   -0.144516
  32 C :    0.206152
  33 C :   -0.019964
  34 C :   -0.023157
  35 N :   -0.325987
  36 S :    0.556545
  37 N :   -0.328034
  38 C :   -0.175247
  39 C :   -0.056202
  40 C :   -0.012103
  41 C :   -0.040637
  42 S :    0.156383
  43 C :   -0.082698
  44 C :   -0.042045
  45 S :    0.152377
  46 C :   -0.010014
  47 C :   -0.084690
  48 S :    0.125521
  49 C :    0.211103
  50 C :   -0.082647
  51 N :   -0.260603
  52 S :    0.453841
  53 N :   -0.273264
  54 C :   -0.187190
  55 C :    0.409648
  56 C :   -0.190392
  57 C :   -0.070099
  58 N :   -0.263911
  59 S :    0.453808
  60 N :   -0.273968
  61 H :    0.045941
  62 H :    0.040200
  63 H :    0.016273
  64 H :   -0.024608
  65 H :   -0.000474
  66 H :   -0.000438
  67 H :   -0.014519
  68 H :    0.018691
  69 H :    0.038115
  70 H :    0.048945
Sum of atomic charges:    0.0000000

LOEWDIN ATOMIC CHARGES
----------------------
   0 C :   -0.023461
   1 C :   -0.059918
   2 N :   -0.271295
   3 S :    0.587399
   4 N :   -0.269258
   5 C :   -0.055208
   6 C :   -0.034483
   7 C :   -0.055415
   8 C :   -0.062804
   9 N :   -0.272202
  10 S :    0.589479
  11 N :   -0.264107
  12 C :   -0.150079
  13 C :   -0.079301
  14 C :   -0.187635
  15 C :   -0.223350
  16 S :    0.442224
  17 C :   -0.214054
  18 C :   -0.197934
  19 S :    0.399280
  20 C :   -0.047045
  21 C :   -0.164639
  22 S :    0.454984
  23 C :   -0.042783
  24 C :   -0.009682
  25 C :   -0.009074
  26 N :   -0.029577
  27 C :    0.055922
  28 C :    0.055798
  29 N :   -0.029443
  30 F :   -0.034040
  31 F :   -0.033381
  32 C :   -0.044289
  33 C :   -0.047853
  34 C :   -0.048330
  35 N :   -0.298141
  36 S :    0.674711
  37 N :   -0.299078
  38 C :   -0.163808
  39 C :   -0.047736
  40 C :   -0.197344
  41 C :   -0.215576
  42 S :    0.453994
  43 C :   -0.219701
  44 C :   -0.189601
  45 S :    0.404263
  46 C :   -0.065162
  47 C :   -0.143435
  48 S :    0.415656
  49 C :   -0.031777
  50 C :   -0.064078
  51 N :   -0.265207
  52 S :    0.586685
  53 N :   -0.270721
  54 C :   -0.062122
  55 C :   -0.025587
  56 C :   -0.061069
  57 C :   -0.061490
  58 N :   -0.266749
  59 S :    0.585868
  60 N :   -0.271023
  61 H :    0.056682
  62 H :    0.059148
  63 H :    0.054652
  64 H :    0.029739
  65 H :    0.031385
  66 H :    0.031471
  67 H :    0.035739
  68 H :    0.061177
  69 H :    0.058093
  70 H :    0.055693

  Mayer bond orders larger than 0.100000
B(  0-C ,  1-C ) :   1.0187 B(  0-C ,  8-C ) :   1.0154 B(  0-C , 61-H ) :   0.8623
B(  0-C , 62-H ) :   0.8712 B(  1-C ,  2-N ) :   1.6720 B(  1-C ,  5-C ) :   1.2303
B(  2-N ,  3-S ) :   1.2110 B(  2-N ,  4-N ) :   0.1253 B(  3-S ,  4-N ) :   1.2117
B(  4-N ,  5-C ) :   1.6884 B(  5-C ,  6-C ) :   0.9842 B(  6-C ,  7-C ) :   0.9892
B(  6-C , 12-C ) :   1.0477 B(  6-C , 63-H ) :   0.8562 B(  7-C ,  8-C ) :   1.2248
B(  7-C , 11-N ) :   1.6861 B(  8-C ,  9-N ) :   1.6656 B(  9-N , 10-S ) :   1.2121
B(  9-N , 11-N ) :   0.1260 B( 10-S , 11-N ) :   1.2149 B( 12-C , 13-C ) :   1.5782
B( 12-C , 16-S ) :   1.1298 B( 13-C , 14-C ) :   1.2511 B( 13-C , 64-H ) :   0.9937
B( 14-C , 15-C ) :   1.4824 B( 14-C , 19-S ) :   1.0539 B( 15-C , 16-S ) :   1.0675
B( 15-C , 17-C ) :   1.3013 B( 17-C , 18-C ) :   1.4397 B( 17-C , 22-S ) :   1.0472
B( 18-C , 19-S ) :   1.0397 B( 18-C , 20-C ) :   1.2511 B( 20-C , 21-C ) :   1.4710
B( 20-C , 65-H ) :   0.9924 B( 21-C , 22-S ) :   1.0851 B( 21-C , 23-C ) :   1.1888
B( 23-C , 24-C ) :   1.2943 B( 23-C , 32-C ) :   0.1254 B( 23-C , 34-C ) :   1.1894
B( 24-C , 25-C ) :   1.1027 B( 24-C , 29-N ) :   1.4270 B( 25-C , 26-N ) :   1.4270
B( 25-C , 32-C ) :   1.2981 B( 26-N , 27-C ) :   1.6708 B( 27-C , 28-C ) :   1.1071
B( 27-C , 31-F ) :   1.1706 B( 28-C , 29-N ) :   1.6711 B( 28-C , 30-F ) :   1.1678
B( 32-C , 33-C ) :   1.1878 B( 32-C , 38-C ) :   1.1859 B( 33-C , 34-C ) :   1.1218
B( 33-C , 37-N ) :   1.4690 B( 34-C , 35-N ) :   1.4708 B( 35-N , 36-S ) :   1.2760
B( 35-N , 37-N ) :   0.1554 B( 36-S , 37-N ) :   1.2747 B( 38-C , 39-C ) :   1.4744
B( 38-C , 42-S ) :   1.0850 B( 39-C , 40-C ) :   1.2473 B( 39-C , 66-H ) :   0.9932
B( 40-C , 41-C ) :   1.4388 B( 40-C , 45-S ) :   1.0444 B( 41-C , 42-S ) :   1.0456
B( 41-C , 43-C ) :   1.3006 B( 43-C , 44-C ) :   1.4860 B( 43-C , 48-S ) :   1.0639
B( 44-C , 45-S ) :   1.0548 B( 44-C , 46-C ) :   1.2126 B( 46-C , 47-C ) :   1.6248
B( 46-C , 67-H ) :   1.0106 B( 47-C , 48-S ) :   1.0932 B( 47-C , 49-C ) :   1.0462
B( 49-C , 50-C ) :   0.9781 B( 49-C , 57-C ) :   0.9816 B( 49-C , 68-H ) :   0.8687
B( 50-C , 51-N ) :   1.6949 B( 50-C , 54-C ) :   1.2164 B( 51-N , 52-S ) :   1.2129
B( 51-N , 53-N ) :   0.1243 B( 52-S , 53-N ) :   1.2107 B( 53-N , 54-C ) :   1.6723
B( 54-C , 55-C ) :   1.0165 B( 55-C , 56-C ) :   1.0169 B( 55-C , 69-H ) :   0.8722
B( 55-C , 70-H ) :   0.8589 B( 56-C , 57-C ) :   1.2173 B( 56-C , 60-N ) :   1.6732
B( 57-C , 58-N ) :   1.6962 B( 58-N , 59-S ) :   1.2105 B( 58-N , 60-N ) :   0.1243
B( 59-S , 60-N ) :   1.2095

-----------------------------------------------------------------------------
         ABSORPTION SPECTRUM VIA TRANSITION ELECTRIC DIPOLE MOMENTS
-----------------------------------------------------------------------------
State   Energy  Wavelength   fosc         T2         TX        TY        TZ
        (cm-1)    (nm)                  (au**2)     (au)      (au)      (au)
-----------------------------------------------------------------------------
   0   10410.7    960.5   0.575426518  18.19640  -1.60192   0.82100   3.86733
   1   19698.5    507.7   0.012116831   0.20250   0.13075   0.43007  -0.02111
   2   20955.9    477.2   0.004868889   0.07649  -0.06605   0.16630   0.21088
   3   21225.4    471.1   0.028325401   0.43934   0.17424   0.62412  -0.13946
   4   25527.4    391.7   0.099843866   1.28763   0.42115  -0.23034  -1.02820
   5   28212.2    354.5   0.347923327   4.05997   0.74625  -0.39045  -1.83047
   6   29169.2    342.8   1.184700494  13.37085  -1.32946   0.66973   3.33989
   7   29737.1    336.3   0.010278691   0.11379  -0.15993  -0.19834   0.22108
   8   30136.3    331.8   0.000039824   0.00044  -0.00819   0.00952   0.01665
   9   30582.6    327.0   0.063639054   0.68506  -0.43897   0.55226   0.43287
  10   30894.6    323.7   0.008449070   0.09003  -0.18102   0.06055  -0.23151
  11   31857.5    313.9   0.006731637   0.06956   0.09886   0.20068   0.13971
  12   31887.5    313.6   0.018772553   0.19381   0.02953  -0.42735  -0.10155
  13   31895.3    313.5   0.042741241   0.44116   0.21897   0.60289  -0.17244
  14   33240.5    300.8   0.447280433   4.42983   0.51146   2.02617  -0.25076
  15   36291.0    275.6   0.089660980   0.81336   0.30486   0.83359  -0.15982
  16   36397.8    274.7   0.028710085   0.25968  -0.05075  -0.50596   0.03323
  17   36752.3    272.1   0.019323499   0.17309   0.11823   0.37391  -0.13894
  18   36929.8    270.8   0.006877133   0.06131  -0.01374   0.24711   0.00736
  19   37433.7    267.1   0.266964434   2.34783  -0.29251  -1.49120   0.19643
  20   37921.8    263.7   0.002139978   0.01858  -0.10910   0.06101  -0.05433
  21   38242.4    261.5   0.000614962   0.00529   0.06308  -0.00983   0.03490
  22   38728.6    258.2   0.002203587   0.01873  -0.11769  -0.04012   0.05721
  23   39125.1    255.6   0.002740887   0.02306  -0.07450   0.07895  -0.10621
  24   39755.2    251.5   0.079896975   0.66162   0.00862  -0.77181  -0.25662
  25   39798.6    251.3   0.050009349   0.41367  -0.21643  -0.38840   0.46474
  26   40069.2    249.6   0.037329023   0.30670  -0.14902  -0.46879   0.25442
  27   40168.5    249.0   0.001988344   0.01630   0.09892   0.07340  -0.03351

FINAL SINGLE POINT ENERGY     -6610.559038654719

DIPOLE MOMENT
-------------
                                X             Y             Z
Electronic contribution:      3.29871      10.82236      -5.38389
Nuclear contribution   :     -3.43999     -11.08909       5.66080
                        -----------------------------------------
Total Dipole Moment    :     -0.14128      -0.26673       0.27691
                        -----------------------------------------
Magnitude (a.u.)       :      0.40962
Magnitude (Debye)      :      1.04116

Rotational constants in cm-1:     0.002159     0.000259     0.000246
Rotational constants in MHz :    64.722627     7.763985     7.386245

                             ****ORCA TERMINATED NORMALLY****
TOTAL RUN TIME: 0 days 0 hours 6 minutes 7 seconds 577 msec
