                         Program Version 4.2.0 -  RELEASE  -
|  1> # ORCA input file
|  2> # SCF done       -107.015634106698          0.000589628358
|  3> ! CAM-B3LYP def2-SVP def2/J RIJCOSX Grid4 TightSCF
|  4> %maxcore 5000
|  5> %tddft
|  6>     Mode sTDDFT
|  7>     Ethresh 5.0
|  8>     maxcore 5000
|  9> end
| 10>
| 11> %pal
| 12>   nprocs 6
| 13>   end
| 14> * xyz 0 1
| 15>    C        2.72412        -0.37429         0.28901
| 16>    C        1.26168        -0.10001         0.24260
| 17>    C        0.29456        -1.08145         0.23601
| 18>    C        0.40782        -2.50154         0.32713
| 19>    C       -0.60100        -3.44387         0.22683
| 20>    C        0.02359        -4.68181         0.42994
| 21>    S       -0.29847        -6.36836         0.52008
| 22>    C        1.40167        -6.69730         0.85405
| 23>    C        1.78650        -8.05225         1.06587
| 24>    C        3.03578        -8.46808         1.36029
| 25>    C        3.39561        -9.82958         1.58694
| 26>    C        2.67675       -11.01273         1.58348
| 27>    N        3.48176       -12.05808         1.86956
| 28>    C        4.67379       -11.55625         2.04886
| 29>    N        4.68208       -10.21372         1.89060
| 30>    C        2.16600        -5.54863         0.88281
| 31>    C        1.38106        -4.41860         0.64426
| 32>    O        1.61417        -3.09476         0.57862
| 33>    S       -1.31431        -0.41355         0.12715
| 34>    C       -0.70985         1.21288         0.07841
| 35>    C       -1.58736         2.32029         0.03697
| 36>    C       -2.94042         2.20482         0.00352
| 37>    C       -3.84712         3.28967        -0.00910
| 38>    C       -3.58867         4.65029         0.00651
| 39>    C       -4.77333         5.38208         0.01108
| 40>    O       -5.08607         6.69193         0.03476
| 41>    C       -6.44882         6.75693         0.03700
| 42>    C       -7.08060         8.04227         0.07147
| 43>    C       -6.49650         9.29036         0.11063
| 44>    N       -7.52860        10.17808         0.13881
| 45>    C       -8.67543         9.45180         0.11637
| 46>    N       -8.44329         8.17533         0.07669
| 47>    C       -7.02377         5.50429         0.01316
| 48>    C       -5.94421         4.60811        -0.00301
| 49>    S       -5.57701         2.93182        -0.02497
| 50>    C        0.68728         1.19931         0.15735
| 51>    N        1.46498         2.38083         0.17606
| 52>    O        2.59051         2.31991         0.63838
| 53>    O        0.97784         3.41030        -0.26407
| 54>    H        2.93064        -1.39835        -0.00302
| 55>    H        3.10047        -0.21449         1.29884
| 56>    H        3.26293         0.30802        -0.36448
| 57>    H       -1.63479        -3.24560         0.03356
| 58>    H        0.99424        -8.78274         0.98795
| 59>    H        3.83728        -7.74614         1.44223
| 60>    H        1.63383       -11.16194         1.39303
| 61>    H        5.54734       -12.12680         2.29257
| 62>    H        5.47251        -9.59632         1.97588
| 63>    H        3.22248        -5.52856         1.06840
| 64>    H       -1.12628         3.29575         0.03021
| 65>    H       -3.38200         1.21571        -0.00980
| 66>    H       -2.60223         5.07273         0.01277
| 67>    H       -5.46851         9.58468         0.11943
| 68>    H       -7.44482        11.18113         0.17126
| 69>    H       -9.65082         9.89460         0.13079
| 70>    H       -8.07276         5.29936         0.01020
| 71> *
| 72>
| 73>                          ****END OF INPUT****

CARTESIAN COORDINATES (ANGSTROEM)
---------------------------------
  C      2.724120   -0.374290    0.289010
  C      1.261680   -0.100010    0.242600
  C      0.294560   -1.081450    0.236010
  C      0.407820   -2.501540    0.327130
  C     -0.601000   -3.443870    0.226830
  C      0.023590   -4.681810    0.429940
  S     -0.298470   -6.368360    0.520080
  C      1.401670   -6.697300    0.854050
  C      1.786500   -8.052250    1.065870
  C      3.035780   -8.468080    1.360290
  C      3.395610   -9.829580    1.586940
  C      2.676750  -11.012730    1.583480
  N      3.481760  -12.058080    1.869560
  C      4.673790  -11.556250    2.048860
  N      4.682080  -10.213720    1.890600
  C      2.166000   -5.548630    0.882810
  C      1.381060   -4.418600    0.644260
  O      1.614170   -3.094760    0.578620
  S     -1.314310   -0.413550    0.127150
  C     -0.709850    1.212880    0.078410
  C     -1.587360    2.320290    0.036970
  C     -2.940420    2.204820    0.003520
  C     -3.847120    3.289670   -0.009100
  C     -3.588670    4.650290    0.006510
  C     -4.773330    5.382080    0.011080
  O     -5.086070    6.691930    0.034760
  C     -6.448820    6.756930    0.037000
  C     -7.080600    8.042270    0.071470
  C     -6.496500    9.290360    0.110630
  N     -7.528600   10.178080    0.138810
  C     -8.675430    9.451800    0.116370
  N     -8.443290    8.175330    0.076690
  C     -7.023770    5.504290    0.013160
  C     -5.944210    4.608110   -0.003010
  S     -5.577010    2.931820   -0.024970
  C      0.687280    1.199310    0.157350
  N      1.464980    2.380830    0.176060
  O      2.590510    2.319910    0.638380
  O      0.977840    3.410300   -0.264070
  H      2.930640   -1.398350   -0.003020
  H      3.100470   -0.214490    1.298840
  H      3.262930    0.308020   -0.364480
  H     -1.634790   -3.245600    0.033560
  H      0.994240   -8.782740    0.987950
  H      3.837280   -7.746140    1.442230
  H      1.633830  -11.161940    1.393030
  H      5.547340  -12.126800    2.292570
  H      5.472510   -9.596320    1.975880
  H      3.222480   -5.528560    1.068400
  H     -1.126280    3.295750    0.030210
  H     -3.382000    1.215710   -0.009800
  H     -2.602230    5.072730    0.012770
  H     -5.468510    9.584680    0.119430
  H     -7.444820   11.181130    0.171260
  H     -9.650820    9.894600    0.130790
  H     -8.072760    5.299360    0.010200

 Total Charge           Charge          ....    0
 Multiplicity           Mult            ....    1
 Number of Electrons    NEL             ....  294
 Basis Dimension        Dim             ....  643

ORBITAL ENERGIES
----------------

  NO   OCC          E(Eh)            E(eV)
   0   2.0000     -88.963877     -2420.8302
   1   2.0000     -88.955129     -2420.5921
   2   2.0000     -88.954875     -2420.5852
   3   2.0000     -19.292830      -524.9846
   4   2.0000     -19.287054      -524.8274
   5   2.0000     -19.226709      -523.1854
   6   2.0000     -19.225264      -523.1460
   7   2.0000     -14.635574      -398.2542
   8   2.0000     -14.478132      -393.9700
   9   2.0000     -14.464525      -393.5997
  10   2.0000     -14.391248      -391.6058
  11   2.0000     -14.376538      -391.2055
  12   2.0000     -10.341045      -281.3942
  13   2.0000     -10.331069      -281.1227
  14   2.0000     -10.327412      -281.0232
  15   2.0000     -10.325794      -280.9791
  16   2.0000     -10.323689      -280.9219
  17   2.0000     -10.322371      -280.8860
  18   2.0000     -10.315883      -280.7094
  19   2.0000     -10.314137      -280.6619
  20   2.0000     -10.307684      -280.4863
  21   2.0000     -10.304543      -280.4009
  22   2.0000     -10.303392      -280.3695
  23   2.0000     -10.300819      -280.2995
  24   2.0000     -10.296579      -280.1842
  25   2.0000     -10.293851      -280.1099
  26   2.0000     -10.293579      -280.1025
  27   2.0000     -10.291500      -280.0459
  28   2.0000     -10.291060      -280.0340
  29   2.0000     -10.290958      -280.0312
  30   2.0000     -10.282416      -279.7988
  31   2.0000     -10.281459      -279.7727
  32   2.0000     -10.280019      -279.7335
  33   2.0000     -10.279734      -279.7258
  34   2.0000     -10.278612      -279.6952
  35   2.0000     -10.275303      -279.6052
  36   2.0000     -10.271078      -279.4902
  37   2.0000     -10.269284      -279.4414
  38   2.0000     -10.253251      -279.0051
  39   2.0000      -8.059456      -219.3089
  40   2.0000      -8.050203      -219.0572
  41   2.0000      -8.049959      -219.0505
  42   2.0000      -6.028878      -164.0541
  43   2.0000      -6.024803      -163.9432
  44   2.0000      -6.021181      -163.8447
  45   2.0000      -6.019775      -163.8064
  46   2.0000      -6.019445      -163.7974
  47   2.0000      -6.015773      -163.6975
  48   2.0000      -6.015519      -163.6906
  49   2.0000      -6.011710      -163.5870
  50   2.0000      -6.011552      -163.5827
  51   2.0000      -1.306168       -35.5426
  52   2.0000      -1.208641       -32.8888
  53   2.0000      -1.203634       -32.7525
  54   2.0000      -1.122226       -30.5373
  55   2.0000      -1.117400       -30.4060
  56   2.0000      -1.104842       -30.0643
  57   2.0000      -1.000739       -27.2315
  58   2.0000      -0.978451       -26.6250
  59   2.0000      -0.977500       -26.5991
  60   2.0000      -0.969201       -26.3733
  61   2.0000      -0.955116       -25.9900
  62   2.0000      -0.913725       -24.8637
  63   2.0000      -0.905799       -24.6480
  64   2.0000      -0.899645       -24.4806
  65   2.0000      -0.888091       -24.1662
  66   2.0000      -0.876950       -23.8630
  67   2.0000      -0.865915       -23.5627
  68   2.0000      -0.845245       -23.0003
  69   2.0000      -0.835195       -22.7268
  70   2.0000      -0.825903       -22.4740
  71   2.0000      -0.822488       -22.3810
  72   2.0000      -0.803564       -21.8661
  73   2.0000      -0.795787       -21.6545
  74   2.0000      -0.766287       -20.8517
  75   2.0000      -0.749413       -20.3926
  76   2.0000      -0.741584       -20.1795
  77   2.0000      -0.714355       -19.4386
  78   2.0000      -0.711122       -19.3506
  79   2.0000      -0.696945       -18.9648
  80   2.0000      -0.688797       -18.7431
  81   2.0000      -0.684496       -18.6261
  82   2.0000      -0.676677       -18.4133
  83   2.0000      -0.669211       -18.2102
  84   2.0000      -0.660875       -17.9833
  85   2.0000      -0.652664       -17.7599
  86   2.0000      -0.645072       -17.5533
  87   2.0000      -0.633876       -17.2486
  88   2.0000      -0.625919       -17.0321
  89   2.0000      -0.623406       -16.9637
  90   2.0000      -0.613888       -16.7047
  91   2.0000      -0.611499       -16.6397
  92   2.0000      -0.602294       -16.3892
  93   2.0000      -0.589675       -16.0459
  94   2.0000      -0.583417       -15.8756
  95   2.0000      -0.576498       -15.6873
  96   2.0000      -0.569294       -15.4913
  97   2.0000      -0.561503       -15.2793
  98   2.0000      -0.557160       -15.1611
  99   2.0000      -0.551804       -15.0153
 100   2.0000      -0.549473       -14.9519
 101   2.0000      -0.542171       -14.7532
 102   2.0000      -0.534523       -14.5451
 103   2.0000      -0.528252       -14.3745
 104   2.0000      -0.523023       -14.2322
 105   2.0000      -0.522124       -14.2077
 106   2.0000      -0.520845       -14.1729
 107   2.0000      -0.512928       -13.9575
 108   2.0000      -0.508221       -13.8294
 109   2.0000      -0.502784       -13.6815
 110   2.0000      -0.498219       -13.5572
 111   2.0000      -0.494389       -13.4530
 112   2.0000      -0.487606       -13.2684
 113   2.0000      -0.482890       -13.1401
 114   2.0000      -0.481749       -13.1090
 115   2.0000      -0.473026       -12.8717
 116   2.0000      -0.467873       -12.7315
 117   2.0000      -0.461848       -12.5675
 118   2.0000      -0.460059       -12.5189
 119   2.0000      -0.458947       -12.4886
 120   2.0000      -0.454074       -12.3560
 121   2.0000      -0.452850       -12.3227
 122   2.0000      -0.450883       -12.2691
 123   2.0000      -0.443576       -12.0703
 124   2.0000      -0.437734       -11.9114
 125   2.0000      -0.418117       -11.3776
 126   2.0000      -0.413768       -11.2592
 127   2.0000      -0.411707       -11.2031
 128   2.0000      -0.400896       -10.9089
 129   2.0000      -0.396500       -10.7893
 130   2.0000      -0.387855       -10.5541
 131   2.0000      -0.371883       -10.1195
 132   2.0000      -0.370747       -10.0885
 133   2.0000      -0.363898        -9.9022
 134   2.0000      -0.356685        -9.7059
 135   2.0000      -0.352890        -9.6026
 136   2.0000      -0.351946        -9.5769
 137   2.0000      -0.348697        -9.4885
 138   2.0000      -0.333260        -9.0685
 139   2.0000      -0.332090        -9.0366
 140   2.0000      -0.324837        -8.8393
 141   2.0000      -0.309673        -8.4266
 142   2.0000      -0.306557        -8.3418
 143   2.0000      -0.304004        -8.2724
 144   2.0000      -0.278705        -7.5840
 145   2.0000      -0.242654        -6.6030
 146   2.0000      -0.219663        -5.9773
 147   0.0000      -0.066514        -1.8099
 148   0.0000      -0.034290        -0.9331
 149   0.0000      -0.004668        -0.1270
 150   0.0000       0.014108         0.3839
 151   0.0000       0.047160         1.2833

MULLIKEN ATOMIC CHARGES
-----------------------
   0 C :    0.165902
   1 C :   -0.096761
   2 C :   -0.140806
   3 C :    0.174559
   4 C :   -0.138097
   5 C :   -0.022716
   6 S :    0.133700
   7 C :   -0.096498
   8 C :    0.048101
   9 C :    0.026622
  10 C :    0.061736
  11 C :   -0.054028
  12 N :   -0.124379
  13 C :    0.081549
  14 N :   -0.063629
  15 C :   -0.069015
  16 C :    0.207680
  17 O :   -0.209600
  18 S :    0.116887
  19 C :   -0.076889
  20 C :   -0.040925
  21 C :    0.067321
  22 C :   -0.108771
  23 C :   -0.055970
  24 C :    0.208778
  25 O :   -0.206403
  26 C :    0.222012
  27 C :   -0.036231
  28 C :   -0.014043
  29 N :   -0.046572
  30 C :    0.090325
  31 N :   -0.117684
  32 C :   -0.138771
  33 C :   -0.015477
  34 S :    0.134846
  35 C :    0.111288
  36 N :    0.262153
  37 O :   -0.252185
  38 O :   -0.256502
  39 H :    0.016255
  40 H :    0.029501
  41 H :    0.017984
  42 H :   -0.003675
  43 H :   -0.015921
  44 H :   -0.031592
  45 H :   -0.013083
  46 H :    0.007347
  47 H :    0.125185
  48 H :   -0.016291
  49 H :    0.017016
  50 H :   -0.008235
  51 H :   -0.001269
  52 H :    0.003637
  53 H :    0.135642
  54 H :    0.010405
  55 H :   -0.004411
Sum of atomic charges:    0.0000000

LOEWDIN ATOMIC CHARGES
----------------------
   0 C :   -0.050422
   1 C :   -0.033357
   2 C :   -0.189035
   3 C :    0.024168
   4 C :   -0.083026
   5 C :   -0.212476
   6 S :    0.419369
   7 C :   -0.156295
   8 C :   -0.042911
   9 C :   -0.030998
  10 C :   -0.043555
  11 C :   -0.039887
  12 N :   -0.110767
  13 C :    0.010155
  14 N :    0.081181
  15 C :   -0.075273
  16 C :    0.004975
  17 O :    0.007770
  18 S :    0.452679
  19 C :   -0.126748
  20 C :   -0.060099
  21 C :   -0.020176
  22 C :   -0.172215
  23 C :   -0.050353
  24 C :   -0.000482
  25 O :   -0.001250
  26 C :    0.051398
  27 C :   -0.067856
  28 C :   -0.020354
  29 N :    0.086649
  30 C :    0.017589
  31 N :   -0.111311
  32 C :   -0.070082
  33 C :   -0.201672
  34 S :    0.421236
  35 C :   -0.082194
  36 N :    0.288817
  37 O :   -0.206525
  38 O :   -0.220357
  39 H :    0.025963
  40 H :    0.043801
  41 H :    0.033551
  42 H :    0.029058
  43 H :    0.029725
  44 H :    0.024107
  45 H :    0.015619
  46 H :    0.015344
  47 H :    0.090802
  48 H :    0.032253
  49 H :    0.033618
  50 H :    0.020818
  51 H :    0.039631
  52 H :    0.027051
  53 H :    0.096011
  54 H :    0.018225
  55 H :    0.038111

  Mayer bond orders larger than 0.100000
B(  0-C ,  1-C ) :   1.1382 B(  0-C , 39-H ) :   0.9266 B(  0-C , 40-H ) :   0.9274
B(  0-C , 41-H ) :   0.9268 B(  1-C ,  2-C ) :   1.5460 B(  1-C , 35-C ) :   1.2194
B(  2-C ,  3-C ) :   1.1100 B(  2-C , 18-S ) :   1.0883 B(  3-C ,  4-C ) :   1.5006
B(  3-C , 17-O ) :   1.1125 B(  4-C ,  5-C ) :   1.2321 B(  4-C , 42-H ) :   1.0072
B(  5-C ,  6-S ) :   1.0514 B(  5-C , 16-C ) :   1.4012 B(  6-S ,  7-C ) :   1.1015
B(  7-C ,  8-C ) :   1.1208 B(  7-C , 15-C ) :   1.4835 B(  8-C ,  9-C ) :   1.7357
B(  8-C , 43-H ) :   0.9660 B(  9-C , 10-C ) :   1.0792 B(  9-C , 44-H ) :   0.9588
B( 10-C , 11-C ) :   1.4588 B( 10-C , 14-N ) :   1.1879 B( 11-C , 12-N ) :   1.4432
B( 11-C , 45-H ) :   0.9994 B( 12-N , 13-C ) :   1.6486 B( 13-C , 14-N ) :   1.2225
B( 13-C , 46-H ) :   0.9819 B( 14-N , 47-H ) :   0.9366 B( 15-C , 16-C ) :   1.2429
B( 15-C , 48-H ) :   1.0076 B( 16-C , 17-O ) :   1.1258 B( 18-S , 19-C ) :   1.1336
B( 19-C , 20-C ) :   1.1925 B( 19-C , 35-C ) :   1.4279 B( 20-C , 21-C ) :   1.6058
B( 20-C , 49-H ) :   0.9681 B( 21-C , 22-C ) :   1.1648 B( 21-C , 50-H ) :   0.9580
B( 22-C , 23-C ) :   1.4529 B( 22-C , 34-S ) :   1.0874 B( 23-C , 24-C ) :   1.2618
B( 23-C , 51-H ) :   1.0106 B( 24-C , 25-O ) :   1.1262 B( 24-C , 33-C ) :   1.3795
B( 25-O , 26-C ) :   1.1513 B( 26-C , 27-C ) :   1.0363 B( 26-C , 32-C ) :   1.5220
B( 27-C , 28-C ) :   1.4689 B( 27-C , 31-N ) :   1.4640 B( 28-C , 29-N ) :   1.2211
B( 28-C , 52-H ) :   0.9914 B( 29-N , 30-C ) :   1.2217 B( 29-N , 53-H ) :   0.9366
B( 30-C , 31-N ) :   1.6667 B( 30-C , 54-H ) :   0.9812 B( 32-C , 33-C ) :   1.1844
B( 32-C , 55-H ) :   1.0326 B( 33-C , 34-S ) :   1.0652 B( 35-C , 36-N ) :   0.9508
B( 36-N , 37-O ) :   1.5089 B( 36-N , 38-O ) :   1.4934 B( 37-O , 38-O ) :   0.2501

-----------------------------------------------------------------------------
         ABSORPTION SPECTRUM VIA TRANSITION ELECTRIC DIPOLE MOMENTS
-----------------------------------------------------------------------------
State   Energy  Wavelength   fosc         T2         TX        TY        TZ
        (cm-1)    (nm)                  (au**2)     (au)      (au)      (au)
-----------------------------------------------------------------------------
   0   18313.9    546.0   1.568350026  28.19284  -3.30755   4.14368  -0.28782
   1   24683.3    405.1   0.082042565   1.09424   0.92466   0.43437  -0.22487
   2   25643.3    390.0   1.217372701  15.62877   0.85678  -3.83211   0.45788
   3   31315.4    319.3   0.011880560   0.12490   0.09968  -0.04868   0.33555
   4   32328.4    309.3   0.120506981   1.22717   0.41252  -1.01984   0.13006
   5   33519.0    298.3   0.167581487   1.64593   0.89399  -0.91798   0.06344
   6   35139.3    284.6   0.067161846   0.62922  -0.35660  -0.70853   0.00736
   7   36424.4    274.5   0.175456855   1.58582  -0.70993   1.03821  -0.06271
   8   36859.2    271.3   0.106135924   0.94796   0.86305   0.44729   0.05521
   9   37604.4    265.9   0.105087125   0.92000  -0.94584  -0.12028  -0.10445
  10   38394.2    260.5   0.038349632   0.32883  -0.20302   0.53094  -0.07559
  11   38832.5    257.5   0.002484098   0.02106  -0.12061  -0.04077  -0.06965

FINAL SINGLE POINT ENERGY     -2805.845290294944

DIPOLE MOMENT
-------------
                                X             Y             Z
Electronic contribution:    -12.42465      10.08570      -2.73506
Nuclear contribution   :     11.83163      -7.92984       2.87867
                        -----------------------------------------
Total Dipole Moment    :     -0.59302       2.15586       0.14360
                        -----------------------------------------
Magnitude (a.u.)       :      2.24054
Magnitude (Debye)      :      5.69501

Rotational constants in cm-1:     0.008843     0.000584     0.000550
Rotational constants in MHz :   265.118161    17.493456    16.475019

                             ****ORCA TERMINATED NORMALLY****
TOTAL RUN TIME: 0 days 0 hours 3 minutes 4 seconds 785 msec
