                         Program Version 4.2.0 -  RELEASE  -
|  1> # ORCA input file
|  2> # SCF done       -175.636847115846          0.000323989435
|  3> ! CAM-B3LYP def2-SVP def2/J RIJCOSX Grid4 TightSCF
|  4> %maxcore 5000
|  5> %tddft
|  6>     Mode sTDDFT
|  7>     Ethresh 5.0
|  8>     maxcore 5000
|  9> end
| 10>
| 11> %pal
| 12>   nprocs 6
| 13>   end
| 14> * xyz 0 1
| 15>    N        8.75608        -6.05665        -4.50219
| 16>    C        7.62806        -5.96951        -5.43096
| 17>    C        7.14892        -4.54480        -5.50443
| 18>    N        7.58605        -3.87689        -6.54370
| 19>    C        7.20464        -2.59125        -6.66105
| 20>    C        7.56417        -1.71654        -7.68995
| 21>    C        8.39357        -1.98706        -8.78760
| 22>    C        8.71093        -1.08461        -9.75764
| 23>    C        9.53971        -1.32544       -10.87112
| 24>    C        9.87890        -0.43276       -11.87336
| 25>    C        9.69030         0.91257       -12.33989
| 26>    O        9.06424         1.84924       -11.91756
| 27>    O       10.44468         0.99499       -13.52629
| 28>    C       11.04321        -0.18766       -13.77073
| 29>    C       10.74392        -1.09477       -12.81032
| 30>    C       10.93691        -2.46724       -12.33977
| 31>    O       11.56998        -3.39524       -12.77632
| 32>    N       10.17548        -2.51556       -11.16856
| 33>    S        6.81119        -0.16017        -7.42160
| 34>    C        6.03397        -0.67402        -5.96363
| 35>    O        5.25575         0.02590        -5.15673
| 36>    C        4.85746         1.31234        -5.27466
| 37>    C        5.09436         2.24174        -6.29888
| 38>    C        4.50359         3.45750        -6.03726
| 39>    C        4.47369         4.71105        -6.80863
| 40>    O        3.88115         5.67708        -6.40923
| 41>    O        5.13577         4.72720        -7.97380
| 42>    S        3.65203         3.47673        -4.53443
| 43>    C        4.07951         1.82809        -4.22500
| 44>    C        3.70432         1.09984        -3.07456
| 45>    C        2.97973         1.59931        -2.03869
| 46>    C        2.62757         0.85711        -0.89531
| 47>    S        3.03175        -0.80955        -0.65269
| 48>    C        2.27859        -0.86167         0.91248
| 49>    C        2.31171        -2.04886         1.65901
| 50>    C        2.87553        -3.25948         1.31730
| 51>    C        3.59100        -3.95785         0.28101
| 52>    O        3.96778        -3.61270        -0.82220
| 53>    N        3.78541        -5.23435         0.83101
| 54>    C        3.25103        -5.34967         2.08344
| 55>    C        2.67723        -4.15641         2.41671
| 56>    C        1.95376        -3.41341         3.43424
| 57>    O        1.55249        -3.70516         4.52207
| 58>    O        1.76390        -2.13178         2.90054
| 59>    C        1.71690         0.38563         1.23859
| 60>    N        1.06145         0.69501         2.36434
| 61>    C        0.61860         1.92394         2.48647
| 62>    C       -0.15342         2.21291         3.73404
| 63>    C       -1.65584         1.96205         3.49329
| 64>    O       -2.42727         2.19606         4.63815
| 65>    C        0.82017         2.89971         1.45779
| 66>    C        0.42084         4.34603         1.61741
| 67>    N        1.43338         5.11214         2.33094
| 68>    N        1.46034         2.60863         0.34858
| 69>    C        1.91629         1.35470         0.21343
| 70>    C        6.34490        -2.00934        -5.68301
| 71>    N        5.90150        -2.70778        -4.62684
| 72>    C        6.29285        -3.95375        -4.51343
| 73>    C        5.79797        -4.65940        -3.29667
| 74>    C        6.81801        -4.60151        -2.13010
| 75>    O        7.57492        -5.76657        -1.98954
| 76>    H        9.13420        -6.99819        -4.50322
| 77>    H        9.49464        -5.42481        -4.79578
| 78>    H        6.83664        -6.62374        -5.05701
| 79>    H        7.89280        -6.27924        -6.45211
| 80>    H        8.77626        -2.99873        -8.81036
| 81>    H        8.30975        -0.08128        -9.70277
| 82>    H       11.65005        -0.24709       -14.65485
| 83>    H       10.10963        -3.35112       -10.60924
| 84>    H        5.66456         2.02596        -7.18486
| 85>    H        5.57974         3.89654        -8.18585
| 86>    H        4.03989         0.07051        -3.04137
| 87>    H        2.64111         2.62722        -2.05048
| 88>    H        4.28263        -5.96666         0.34692
| 89>    H        3.31865        -6.26530         2.63902
| 90>    H       -0.00759         3.24312         4.06520
| 91>    H        0.18212         1.53049         4.51565
| 92>    H       -1.80918         0.91094         3.24095
| 93>    H       -2.00670         2.57926         2.65155
| 94>    H       -2.33216         3.11673         4.90829
| 95>    H       -0.52397         4.44082         2.15571
| 96>    H        0.30868         4.78749         0.62558
| 97>    H        2.29313         5.13552         1.79354
| 98>    H        1.64149         4.69249         3.23154
| 99>    H        5.56998        -5.70550        -3.49966
|100>    H        4.89602        -4.14603        -2.96504
|101>    H        6.26190        -4.48190        -1.19865
|102>    H        7.46252        -3.71937        -2.25422
|103>    H        8.10024        -5.89320        -2.80743
|104> *
|105>
|106>                          ****END OF INPUT****

CARTESIAN COORDINATES (ANGSTROEM)
---------------------------------
  N      8.756080   -6.056650   -4.502190
  C      7.628060   -5.969510   -5.430960
  C      7.148920   -4.544800   -5.504430
  N      7.586050   -3.876890   -6.543700
  C      7.204640   -2.591250   -6.661050
  C      7.564170   -1.716540   -7.689950
  C      8.393570   -1.987060   -8.787600
  C      8.710930   -1.084610   -9.757640
  C      9.539710   -1.325440  -10.871120
  C      9.878900   -0.432760  -11.873360
  C      9.690300    0.912570  -12.339890
  O      9.064240    1.849240  -11.917560
  O     10.444680    0.994990  -13.526290
  C     11.043210   -0.187660  -13.770730
  C     10.743920   -1.094770  -12.810320
  C     10.936910   -2.467240  -12.339770
  O     11.569980   -3.395240  -12.776320
  N     10.175480   -2.515560  -11.168560
  S      6.811190   -0.160170   -7.421600
  C      6.033970   -0.674020   -5.963630
  O      5.255750    0.025900   -5.156730
  C      4.857460    1.312340   -5.274660
  C      5.094360    2.241740   -6.298880
  C      4.503590    3.457500   -6.037260
  C      4.473690    4.711050   -6.808630
  O      3.881150    5.677080   -6.409230
  O      5.135770    4.727200   -7.973800
  S      3.652030    3.476730   -4.534430
  C      4.079510    1.828090   -4.225000
  C      3.704320    1.099840   -3.074560
  C      2.979730    1.599310   -2.038690
  C      2.627570    0.857110   -0.895310
  S      3.031750   -0.809550   -0.652690
  C      2.278590   -0.861670    0.912480
  C      2.311710   -2.048860    1.659010
  C      2.875530   -3.259480    1.317300
  C      3.591000   -3.957850    0.281010
  O      3.967780   -3.612700   -0.822200
  N      3.785410   -5.234350    0.831010
  C      3.251030   -5.349670    2.083440
  C      2.677230   -4.156410    2.416710
  C      1.953760   -3.413410    3.434240
  O      1.552490   -3.705160    4.522070
  O      1.763900   -2.131780    2.900540
  C      1.716900    0.385630    1.238590
  N      1.061450    0.695010    2.364340
  C      0.618600    1.923940    2.486470
  C     -0.153420    2.212910    3.734040
  C     -1.655840    1.962050    3.493290
  O     -2.427270    2.196060    4.638150
  C      0.820170    2.899710    1.457790
  C      0.420840    4.346030    1.617410
  N      1.433380    5.112140    2.330940
  N      1.460340    2.608630    0.348580
  C      1.916290    1.354700    0.213430
  C      6.344900   -2.009340   -5.683010
  N      5.901500   -2.707780   -4.626840
  C      6.292850   -3.953750   -4.513430
  C      5.797970   -4.659400   -3.296670
  C      6.818010   -4.601510   -2.130100
  O      7.574920   -5.766570   -1.989540
  H      9.134200   -6.998190   -4.503220
  H      9.494640   -5.424810   -4.795780
  H      6.836640   -6.623740   -5.057010
  H      7.892800   -6.279240   -6.452110
  H      8.776260   -2.998730   -8.810360
  H      8.309750   -0.081280   -9.702770
  H     11.650050   -0.247090  -14.654850
  H     10.109630   -3.351120  -10.609240
  H      5.664560    2.025960   -7.184860
  H      5.579740    3.896540   -8.185850
  H      4.039890    0.070510   -3.041370
  H      2.641110    2.627220   -2.050480
  H      4.282630   -5.966660    0.346920
  H      3.318650   -6.265300    2.639020
  H     -0.007590    3.243120    4.065200
  H      0.182120    1.530490    4.515650
  H     -1.809180    0.910940    3.240950
  H     -2.006700    2.579260    2.651550
  H     -2.332160    3.116730    4.908290
  H     -0.523970    4.440820    2.155710
  H      0.308680    4.787490    0.625580
  H      2.293130    5.135520    1.793540
  H      1.641490    4.692490    3.231540
  H      5.569980   -5.705500   -3.499660
  H      4.896020   -4.146030   -2.965040
  H      6.261900   -4.481900   -1.198650
  H      7.462520   -3.719370   -2.254220
  H      8.100240   -5.893200   -2.807430

 Total Charge           Charge          ....    0
 Multiplicity           Mult            ....    1
 Number of Electrons    NEL             ....  454
 Basis Dimension        Dim             .... 1006

ORBITAL ENERGIES
----------------

  NO   OCC          E(Eh)            E(eV)
   0   2.0000     -89.005007     -2421.9494
   1   2.0000     -88.987566     -2421.4748
   2   2.0000     -88.986233     -2421.4385
   3   2.0000     -19.324603      -525.8492
   4   2.0000     -19.278826      -524.6035
   5   2.0000     -19.272134      -524.4214
   6   2.0000     -19.270832      -524.3860
   7   2.0000     -19.209796      -522.7251
   8   2.0000     -19.207148      -522.6531
   9   2.0000     -19.206962      -522.6480
  10   2.0000     -19.200202      -522.4641
  11   2.0000     -19.198268      -522.4114
  12   2.0000     -19.194318      -522.3039
  13   2.0000     -19.168130      -521.5913
  14   2.0000     -14.466788      -393.6613
  15   2.0000     -14.459264      -393.4566
  16   2.0000     -14.441800      -392.9814
  17   2.0000     -14.433665      -392.7600
  18   2.0000     -14.431400      -392.6984
  19   2.0000     -14.430732      -392.6802
  20   2.0000     -14.427937      -392.6041
  21   2.0000     -14.396183      -391.7401
  22   2.0000     -10.417857      -283.4843
  23   2.0000     -10.407421      -283.2003
  24   2.0000     -10.402633      -283.0700
  25   2.0000     -10.396538      -282.9042
  26   2.0000     -10.387030      -282.6454
  27   2.0000     -10.386661      -282.6354
  28   2.0000     -10.377572      -282.3881
  29   2.0000     -10.377243      -282.3791
  30   2.0000     -10.352206      -281.6978
  31   2.0000     -10.350470      -281.6506
  32   2.0000     -10.342873      -281.4439
  33   2.0000     -10.342466      -281.4328
  34   2.0000     -10.334775      -281.2235
  35   2.0000     -10.334457      -281.2149
  36   2.0000     -10.331969      -281.1472
  37   2.0000     -10.330912      -281.1184
  38   2.0000     -10.330273      -281.1010
  39   2.0000     -10.329641      -281.0838
  40   2.0000     -10.328795      -281.0608
  41   2.0000     -10.328556      -281.0543
  42   2.0000     -10.326885      -281.0088
  43   2.0000     -10.324130      -280.9339
  44   2.0000     -10.323620      -280.9200
  45   2.0000     -10.323457      -280.9156
  46   2.0000     -10.322156      -280.8801
  47   2.0000     -10.320208      -280.8271
  48   2.0000     -10.318903      -280.7916
  49   2.0000     -10.317267      -280.7471
  50   2.0000     -10.305760      -280.4340
  51   2.0000     -10.303580      -280.3747
  52   2.0000     -10.302052      -280.3331
  53   2.0000     -10.295471      -280.1540
  54   2.0000     -10.293488      -280.1001
  55   2.0000     -10.277785      -279.6727
  56   2.0000     -10.277703      -279.6705
  57   2.0000     -10.274255      -279.5767
  58   2.0000     -10.272950      -279.5412
  59   2.0000     -10.269296      -279.4417
  60   2.0000     -10.256650      -279.0976
  61   2.0000      -8.099451      -220.3973
  62   2.0000      -8.081538      -219.9098
  63   2.0000      -8.081077      -219.8973
  64   2.0000      -6.068592      -165.1348
  65   2.0000      -6.064604      -165.0263
  66   2.0000      -6.061872      -164.9519
  67   2.0000      -6.050511      -164.6428
  68   2.0000      -6.050212      -164.6346
  69   2.0000      -6.046399      -164.5309
  70   2.0000      -6.046136      -164.5237
  71   2.0000      -6.044286      -164.4734
  72   2.0000      -6.043410      -164.4495
  73   2.0000      -1.237288       -33.6683
  74   2.0000      -1.209702       -32.9177
  75   2.0000      -1.200539       -32.6683
  76   2.0000      -1.193514       -32.4772
  77   2.0000      -1.136784       -30.9335
  78   2.0000      -1.134610       -30.8743
  79   2.0000      -1.117631       -30.4123
  80   2.0000      -1.108241       -30.1568
  81   2.0000      -1.106091       -30.0983
  82   2.0000      -1.100643       -29.9500
  83   2.0000      -1.097132       -29.8545
  84   2.0000      -1.091963       -29.7138
  85   2.0000      -1.064236       -28.9593
  86   2.0000      -1.063276       -28.9332
  87   2.0000      -1.060904       -28.8687
  88   2.0000      -1.024794       -27.8861
  89   2.0000      -1.016953       -27.6727
  90   2.0000      -1.016229       -27.6530
  91   2.0000      -1.007047       -27.4031
  92   2.0000      -1.000695       -27.2303
  93   2.0000      -0.993680       -27.0394
  94   2.0000      -0.972640       -26.4669
  95   2.0000      -0.928181       -25.2571
  96   2.0000      -0.923329       -25.1251
  97   2.0000      -0.913813       -24.8661
  98   2.0000      -0.906720       -24.6731
  99   2.0000      -0.892627       -24.2896
 100   2.0000      -0.891299       -24.2535
 101   2.0000      -0.888772       -24.1847
 102   2.0000      -0.881621       -23.9901
 103   2.0000      -0.854149       -23.2426
 104   2.0000      -0.846465       -23.0335
 105   2.0000      -0.834601       -22.7106
 106   2.0000      -0.829580       -22.5740
 107   2.0000      -0.816208       -22.2102
 108   2.0000      -0.811812       -22.0905
 109   2.0000      -0.804547       -21.8928
 110   2.0000      -0.792361       -21.5612
 111   2.0000      -0.789104       -21.4726
 112   2.0000      -0.783134       -21.3102
 113   2.0000      -0.761106       -20.7108
 114   2.0000      -0.759961       -20.6796
 115   2.0000      -0.755464       -20.5572
 116   2.0000      -0.752108       -20.4659
 117   2.0000      -0.740692       -20.1552
 118   2.0000      -0.734962       -19.9993
 119   2.0000      -0.716938       -19.5089
 120   2.0000      -0.714313       -19.4374
 121   2.0000      -0.710967       -19.3464
 122   2.0000      -0.698928       -19.0188
 123   2.0000      -0.693732       -18.8774
 124   2.0000      -0.689526       -18.7630
 125   2.0000      -0.687201       -18.6997
 126   2.0000      -0.682741       -18.5783
 127   2.0000      -0.673703       -18.3324
 128   2.0000      -0.662608       -18.0305
 129   2.0000      -0.658108       -17.9080
 130   2.0000      -0.645842       -17.5742
 131   2.0000      -0.636603       -17.3229
 132   2.0000      -0.632015       -17.1980
 133   2.0000      -0.620232       -16.8774
 134   2.0000      -0.614489       -16.7211
 135   2.0000      -0.612715       -16.6728
 136   2.0000      -0.607630       -16.5345
 137   2.0000      -0.602586       -16.3972
 138   2.0000      -0.600531       -16.3413
 139   2.0000      -0.594626       -16.1806
 140   2.0000      -0.592767       -16.1300
 141   2.0000      -0.589933       -16.0529
 142   2.0000      -0.587029       -15.9739
 143   2.0000      -0.586331       -15.9549
 144   2.0000      -0.582815       -15.8592
 145   2.0000      -0.579387       -15.7659
 146   2.0000      -0.576648       -15.6914
 147   2.0000      -0.575206       -15.6521
 148   2.0000      -0.574397       -15.6301
 149   2.0000      -0.567248       -15.4356
 150   2.0000      -0.565426       -15.3860
 151   2.0000      -0.558308       -15.1923
 152   2.0000      -0.555506       -15.1161
 153   2.0000      -0.550754       -14.9868
 154   2.0000      -0.550278       -14.9738
 155   2.0000      -0.549800       -14.9608
 156   2.0000      -0.544417       -14.8143
 157   2.0000      -0.537581       -14.6283
 158   2.0000      -0.536307       -14.5936
 159   2.0000      -0.531592       -14.4654
 160   2.0000      -0.529093       -14.3973
 161   2.0000      -0.526872       -14.3369
 162   2.0000      -0.525146       -14.2900
 163   2.0000      -0.524438       -14.2707
 164   2.0000      -0.519546       -14.1376
 165   2.0000      -0.515206       -14.0195
 166   2.0000      -0.514495       -14.0001
 167   2.0000      -0.513788       -13.9809
 168   2.0000      -0.510913       -13.9026
 169   2.0000      -0.510043       -13.8790
 170   2.0000      -0.507126       -13.7996
 171   2.0000      -0.500839       -13.6285
 172   2.0000      -0.499975       -13.6050
 173   2.0000      -0.494789       -13.4639
 174   2.0000      -0.489514       -13.3203
 175   2.0000      -0.488627       -13.2962
 176   2.0000      -0.483321       -13.1518
 177   2.0000      -0.481303       -13.0969
 178   2.0000      -0.475175       -12.9302
 179   2.0000      -0.469755       -12.7827
 180   2.0000      -0.469133       -12.7658
 181   2.0000      -0.467296       -12.7158
 182   2.0000      -0.463329       -12.6078
 183   2.0000      -0.462470       -12.5845
 184   2.0000      -0.461877       -12.5683
 185   2.0000      -0.460739       -12.5374
 186   2.0000      -0.459271       -12.4974
 187   2.0000      -0.455381       -12.3915
 188   2.0000      -0.453613       -12.3434
 189   2.0000      -0.451064       -12.2741
 190   2.0000      -0.450116       -12.2483
 191   2.0000      -0.443166       -12.0592
 192   2.0000      -0.440415       -11.9843
 193   2.0000      -0.438023       -11.9192
 194   2.0000      -0.432326       -11.7642
 195   2.0000      -0.430151       -11.7050
 196   2.0000      -0.426408       -11.6032
 197   2.0000      -0.425756       -11.5854
 198   2.0000      -0.421805       -11.4779
 199   2.0000      -0.410458       -11.1691
 200   2.0000      -0.401969       -10.9381
 201   2.0000      -0.397688       -10.8216
 202   2.0000      -0.396761       -10.7964
 203   2.0000      -0.393348       -10.7035
 204   2.0000      -0.390313       -10.6210
 205   2.0000      -0.379449       -10.3253
 206   2.0000      -0.366199        -9.9648
 207   2.0000      -0.365066        -9.9339
 208   2.0000      -0.363027        -9.8785
 209   2.0000      -0.356966        -9.7135
 210   2.0000      -0.355628        -9.6771
 211   2.0000      -0.354445        -9.6449
 212   2.0000      -0.352603        -9.5948
 213   2.0000      -0.347985        -9.4692
 214   2.0000      -0.344917        -9.3857
 215   2.0000      -0.343208        -9.3392
 216   2.0000      -0.338968        -9.2238
 217   2.0000      -0.336655        -9.1609
 218   2.0000      -0.334890        -9.1128
 219   2.0000      -0.331430        -9.0187
 220   2.0000      -0.325996        -8.8708
 221   2.0000      -0.314234        -8.5507
 222   2.0000      -0.310116        -8.4387
 223   2.0000      -0.298995        -8.1361
 224   2.0000      -0.286263        -7.7896
 225   2.0000      -0.252782        -6.8785
 226   2.0000      -0.241901        -6.5825
 227   0.0000      -0.106626        -2.9014
 228   0.0000      -0.090070        -2.4509
 229   0.0000      -0.051004        -1.3879
 230   0.0000      -0.047998        -1.3061
 231   0.0000      -0.038905        -1.0587

MULLIKEN ATOMIC CHARGES
-----------------------
   0 N :   -0.249755
   1 C :    0.240609
   2 C :   -0.164394
   3 N :   -0.006213
   4 C :    0.065993
   5 C :   -0.156593
   6 C :    0.024903
   7 C :   -0.019415
   8 C :    0.090194
   9 C :   -0.119580
  10 C :    0.209424
  11 O :   -0.157805
  12 O :   -0.244506
  13 C :    0.090380
  14 C :   -0.021624
  15 C :    0.161462
  16 O :   -0.157960
  17 N :   -0.133781
  18 S :    0.088858
  19 C :   -0.008286
  20 O :   -0.174923
  21 C :    0.220358
  22 C :   -0.053964
  23 C :   -0.191783
  24 C :    0.202501
  25 O :   -0.172126
  26 O :   -0.148336
  27 S :    0.226486
  28 C :   -0.130290
  29 C :    0.007304
  30 C :   -0.004165
  31 C :   -0.118467
  32 S :    0.239876
  33 C :   -0.254787
  34 C :    0.179759
  35 C :   -0.126823
  36 C :    0.158377
  37 O :   -0.193768
  38 N :   -0.123947
  39 C :    0.045961
  40 C :   -0.060605
  41 C :    0.231139
  42 O :   -0.123800
  43 O :   -0.235456
  44 C :    0.094860
  45 N :    0.036228
  46 C :   -0.166921
  47 C :    0.113016
  48 C :    0.195260
  49 O :   -0.303299
  50 C :   -0.174849
  51 C :    0.235909
  52 N :   -0.221192
  53 N :    0.007398
  54 C :    0.012642
  55 C :    0.041225
  56 N :    0.033543
  57 C :   -0.166321
  58 C :    0.118530
  59 C :    0.216429
  60 O :   -0.351361
  61 H :    0.124819
  62 H :    0.116318
  63 H :    0.014948
  64 H :    0.012165
  65 H :   -0.009794
  66 H :   -0.001854
  67 H :    0.030357
  68 H :    0.127307
  69 H :    0.002875
  70 H :    0.184646
  71 H :    0.029089
  72 H :    0.008720
  73 H :    0.140520
  74 H :    0.025293
  75 H :   -0.012776
  76 H :    0.033290
  77 H :    0.024058
  78 H :   -0.005756
  79 H :    0.165396
  80 H :   -0.002327
  81 H :    0.017868
  82 H :    0.099007
  83 H :    0.089269
  84 H :   -0.010678
  85 H :    0.027310
  86 H :   -0.002615
  87 H :   -0.018010
  88 H :    0.139026
Sum of atomic charges:   -0.0000000

LOEWDIN ATOMIC CHARGES
----------------------
   0 N :   -0.058536
   1 C :    0.024914
   2 C :    0.004738
   3 N :   -0.053894
   4 C :   -0.033491
   5 C :   -0.211785
   6 C :    0.003641
   7 C :   -0.069551
   8 C :    0.081694
   9 C :   -0.143396
  10 C :    0.096980
  11 O :   -0.161852
  12 O :   -0.053215
  13 C :    0.118867
  14 C :   -0.124854
  15 C :    0.080936
  16 O :   -0.175799
  17 N :    0.018737
  18 S :    0.471237
  19 C :   -0.093016
  20 O :    0.012222
  21 C :    0.013299
  22 C :   -0.089783
  23 C :   -0.223678
  24 C :    0.057400
  25 O :   -0.158751
  26 O :   -0.021785
  27 S :    0.520329
  28 C :   -0.181949
  29 C :   -0.027239
  30 C :   -0.029633
  31 C :   -0.162052
  32 S :    0.553820
  33 C :   -0.213205
  34 C :    0.098733
  35 C :   -0.143351
  36 C :    0.066898
  37 O :   -0.201444
  38 N :    0.034796
  39 C :    0.082271
  40 C :   -0.134053
  41 C :    0.108251
  42 O :   -0.129353
  43 O :   -0.043352
  44 C :   -0.028963
  45 N :   -0.032719
  46 C :    0.009058
  47 C :   -0.054106
  48 C :    0.076258
  49 O :   -0.130902
  50 C :   -0.019023
  51 C :    0.017309
  52 N :   -0.099471
  53 N :   -0.045938
  54 C :   -0.052382
  55 C :   -0.084765
  56 N :   -0.033611
  57 C :    0.006555
  58 C :   -0.057364
  59 C :    0.075835
  60 O :   -0.170970
  61 H :    0.070553
  62 H :    0.065544
  63 H :    0.028840
  64 H :    0.020411
  65 H :    0.037238
  66 H :    0.033347
  67 H :    0.034267
  68 H :    0.085911
  69 H :    0.014899
  70 H :    0.096669
  71 H :    0.037740
  72 H :    0.035753
  73 H :    0.094996
  74 H :    0.036122
  75 H :    0.018101
  76 H :    0.045528
  77 H :    0.028208
  78 H :    0.000788
  79 H :    0.075204
  80 H :    0.019662
  81 H :    0.034998
  82 H :    0.058330
  83 H :    0.049792
  84 H :    0.022698
  85 H :    0.041890
  86 H :    0.012557
  87 H :   -0.001906
  88 H :    0.016312

  Mayer bond orders larger than 0.100000
B(  0-N ,  1-C ) :   1.0472 B(  0-N , 61-H ) :   0.9586 B(  0-N , 62-H ) :   0.9582
B(  0-N , 88-H ) :   0.1684 B(  1-C ,  2-C ) :   1.0568 B(  1-C , 63-H ) :   0.9197
B(  1-C , 64-H ) :   0.9178 B(  2-C ,  3-N ) :   1.7245 B(  2-C , 57-C ) :   1.1173
B(  3-N ,  4-C ) :   1.3962 B(  4-C ,  5-C ) :   1.3108 B(  4-C , 55-C ) :   1.2420
B(  5-C ,  6-C ) :   1.2623 B(  5-C , 18-S ) :   1.0685 B(  5-C , 19-C ) :   0.1184
B(  6-C ,  7-C ) :   1.4920 B(  6-C , 65-H ) :   0.9792 B(  7-C ,  8-C ) :   1.2227
B(  7-C , 66-H ) :   0.9530 B(  8-C ,  9-C ) :   1.3659 B(  8-C , 17-N ) :   1.1859
B(  9-C , 10-C ) :   1.0155 B(  9-C , 14-C ) :   1.1529 B( 10-C , 11-O ) :   2.2155
B( 10-C , 12-O ) :   0.9962 B( 12-O , 13-C ) :   1.1455 B( 13-C , 14-C ) :   1.5550
B( 13-C , 67-H ) :   1.0012 B( 14-C , 15-C ) :   0.9046 B( 15-C , 16-O ) :   2.2518
B( 15-C , 17-N ) :   1.0536 B( 17-N , 68-H ) :   0.9202 B( 18-S , 19-C ) :   1.1813
B( 19-C , 20-O ) :   1.1763 B( 19-C , 55-C ) :   1.2941 B( 20-O , 21-C ) :   1.0627
B( 21-C , 22-C ) :   1.2779 B( 21-C , 28-C ) :   1.4304 B( 22-C , 23-C ) :   1.4676
B( 22-C , 69-H ) :   0.9647 B( 23-C , 24-C ) :   0.9392 B( 23-C , 27-S ) :   1.1624
B( 23-C , 28-C ) :   0.1078 B( 24-C , 25-O ) :   2.1919 B( 24-C , 26-O ) :   1.2528
B( 26-O , 70-H ) :   0.9554 B( 27-S , 28-C ) :   1.1333 B( 28-C , 29-C ) :   1.1838
B( 29-C , 30-C ) :   1.5540 B( 29-C , 71-H ) :   0.9741 B( 30-C , 31-C ) :   1.2260
B( 30-C , 72-H ) :   0.9795 B( 31-C , 32-S ) :   1.1545 B( 31-C , 33-C ) :   0.1515
B( 31-C , 54-C ) :   1.2859 B( 32-S , 33-C ) :   1.1684 B( 33-C , 34-C ) :   1.2615
B( 33-C , 44-C ) :   1.2464 B( 34-C , 35-C ) :   1.3670 B( 34-C , 43-O ) :   1.2038
B( 35-C , 36-C ) :   0.9822 B( 35-C , 40-C ) :   1.1672 B( 36-C , 37-O ) :   2.0698
B( 36-C , 38-N ) :   1.0904 B( 38-N , 39-C ) :   1.1934 B( 38-N , 73-H ) :   0.9272
B( 39-C , 40-C ) :   1.5105 B( 39-C , 74-H ) :   0.9831 B( 40-C , 41-C ) :   0.9480
B( 41-C , 42-O ) :   2.2788 B( 41-C , 43-O ) :   0.9817 B( 44-C , 45-N ) :   1.4551
B( 44-C , 54-C ) :   1.2337 B( 45-N , 46-C ) :   1.6986 B( 46-C , 47-C ) :   1.0274
B( 46-C , 50-C ) :   1.1319 B( 47-C , 48-C ) :   1.0676 B( 47-C , 75-H ) :   0.9081
B( 47-C , 76-H ) :   0.9002 B( 48-C , 49-O ) :   1.0623 B( 48-C , 77-H ) :   0.9413
B( 48-C , 78-H ) :   0.9536 B( 49-O , 79-H ) :   0.9831 B( 50-C , 51-C ) :   1.0260
B( 50-C , 53-N ) :   1.6955 B( 51-C , 52-N ) :   1.1157 B( 51-C , 80-H ) :   0.9246
B( 51-C , 81-H ) :   0.9221 B( 52-N , 82-H ) :   0.9705 B( 52-N , 83-H ) :   0.9787
B( 53-N , 54-C ) :   1.4313 B( 55-C , 56-N ) :   1.3911 B( 56-N , 57-C ) :   1.7209
B( 57-C , 58-C ) :   1.0739 B( 58-C , 59-C ) :   1.0281 B( 58-C , 84-H ) :   0.9130
B( 58-C , 85-H ) :   0.8868 B( 59-C , 60-O ) :   1.0799 B( 59-C , 86-H ) :   0.9462
B( 59-C , 87-H ) :   0.9436 B( 60-O , 88-H ) :   0.9296

-----------------------------------------------------------------------------
         ABSORPTION SPECTRUM VIA TRANSITION ELECTRIC DIPOLE MOMENTS
-----------------------------------------------------------------------------
State   Energy  Wavelength   fosc         T2         TX        TY        TZ
        (cm-1)    (nm)                  (au**2)     (au)      (au)      (au)
-----------------------------------------------------------------------------
   0   14941.7    669.3   0.842806839  18.56963  -1.40619  -1.93025   3.58697
   1   18279.9    547.0   0.453568463   8.16852  -1.73861   1.28157   1.87173
   2   19511.2    512.5   0.023420883   0.39518  -0.29156  -0.23314   0.50579
   3   22223.8    450.0   0.182058082   2.69692   0.01581  -1.48974   0.69091
   4   23813.4    419.9   0.192103559   2.65577  -0.63477  -0.15525   1.49289
   5   24717.4    404.6   0.027545348   0.36688  -0.35957  -0.36843   0.31914
   6   25778.9    387.9   0.237925122   3.03844   0.81171   0.46937  -1.46944
   7   26770.6    373.5   0.325869132   4.00738   0.34107  -1.84630   0.69442
   8   27213.3    367.5   0.280518100   3.39356  -0.56758  -0.80988   1.55419
   9   27717.9    360.8   0.080274328   0.95344  -0.28189   0.69554   0.62466
  10   27915.1    358.2   0.300711820   3.54640  -0.98164   1.01317   1.24751
  11   29276.7    341.6   0.012333756   0.13869   0.01760   0.36607   0.06612
  12   29604.1    337.8   0.065245423   0.72556  -0.36172   0.69403   0.33623
  13   29983.1    333.5   0.066335379   0.72836   0.31807  -0.77858  -0.14494
  14   30658.7    326.2   0.016653843   0.17883  -0.16916  -0.16525   0.35058
  15   31121.9    321.3   0.067445130   0.71344   0.41585  -0.16138  -0.71727
  16   31441.6    318.1   0.048058509   0.50320  -0.02347  -0.60601   0.36798
  17   31752.2    314.9   0.010980714   0.11385  -0.16690  -0.00994   0.29308
  18   32063.3    311.9   0.000423971   0.00435   0.04066   0.02986   0.04252
  19   32499.2    307.7   0.048324781   0.48952  -0.25491   0.65069   0.03394
  20   33436.7    299.1   0.184399780   1.81557  -0.73811   0.26929   1.09465
  21   34184.6    292.5   0.016168954   0.15571   0.28294  -0.18554  -0.20306
  22   34732.3    287.9   0.130880318   1.24056   0.03824   0.92130  -0.62475
  23   35286.9    283.4   0.138911753   1.29599  -0.66564   0.46925   0.79543
  24   35662.2    280.4   0.012515565   0.11554   0.15972  -0.07222  -0.29122
  25   35741.8    279.8   0.054733897   0.50414   0.17460   0.45827  -0.51346
  26   35890.1    278.6   0.006599060   0.06053  -0.01361  -0.02775  -0.24408
  27   36389.0    274.8   0.025115459   0.22722   0.09357   0.32885  -0.33214
  28   36646.5    272.9   0.009818205   0.08820   0.09401   0.22932   0.16363
  29   36845.0    271.4   0.003982606   0.03558   0.08240  -0.15399  -0.07129
  30   37124.5    269.4   0.018326764   0.16252  -0.21258  -0.09412   0.32935
  31   37700.3    265.3   0.057622203   0.50318   0.05179  -0.65041   0.27833
  32   37962.6    263.4   0.002325915   0.02017   0.10380   0.09143  -0.03220
  33   38084.4    262.6   0.042391427   0.36644  -0.06419  -0.54103   0.26384
  34   38249.8    261.4   0.029854982   0.25696  -0.16289   0.40425   0.25886
  35   38925.4    256.9   0.069432801   0.58723  -0.40413   0.09770   0.64371
  36   39052.4    256.1   0.041260438   0.34783   0.36179  -0.44628  -0.13331
  37   39196.4    255.1   0.046166675   0.38776  -0.03380   0.52082  -0.33964
  38   39745.5    251.6   0.049727233   0.41189  -0.14971   0.62022  -0.06933
  39   39900.1    250.6   0.004849574   0.04001  -0.17870  -0.08970   0.00572
  40   40032.0    249.8   0.111587388   0.91766   0.01661   0.73032  -0.61970
  41   40166.3    249.0   0.018581376   0.15230  -0.06382  -0.28767   0.25587

FINAL SINGLE POINT ENERGY     -3959.314767407969

DIPOLE MOMENT
-------------
                                X             Y             Z
Electronic contribution:     11.34241       9.69220     -34.75921
Nuclear contribution   :    -10.87418     -11.98527      35.46855
                        -----------------------------------------
Total Dipole Moment    :      0.46823      -2.29307       0.70934
                        -----------------------------------------
Magnitude (a.u.)       :      2.44552
Magnitude (Debye)      :      6.21603

Rotational constants in cm-1:     0.001752     0.000510     0.000399
Rotational constants in MHz :    52.528816    15.281576    11.949553

                             ****ORCA TERMINATED NORMALLY****
TOTAL RUN TIME: 0 days 0 hours 14 minutes 29 seconds 349 msec
