                         Program Version 4.2.0 -  RELEASE  -
|  1> # ORCA input file
|  2> # SCF done       -135.749073134813          0.000608618791
|  3> ! CAM-B3LYP def2-SVP def2/J RIJCOSX Grid4 TightSCF
|  4> %maxcore 5000
|  5> %tddft
|  6>     Mode sTDDFT
|  7>     Ethresh 5.0
|  8>     maxcore 5000
|  9> end
| 10>
| 11> %pal
| 12>   nprocs 6
| 13>   end
| 14> * xyz 0 1
| 15>    C        5.81139         3.22410        -0.48361
| 16>    O        5.65037         1.84631        -0.20456
| 17>    C        4.46394         1.31424        -0.53944
| 18>    C        3.34342         1.90427        -1.13568
| 19>    C        2.39601         0.89495        -1.24885
| 20>    C        1.08985         0.97285        -1.77763
| 21>    C        0.45625         2.07468        -2.32085
| 22>    C        0.59938         3.46772        -2.63630
| 23>    O        1.50387         4.25171        -2.49196
| 24>    O       -0.62286         3.83977        -3.21394
| 25>    C       -1.45456         2.77638        -3.25351
| 26>    C       -0.86416         1.67669        -2.72955
| 27>    C       -1.02189         0.25564        -2.40910
| 28>    O       -1.93758        -0.51011        -2.56366
| 29>    N        0.21059        -0.08441        -1.83704
| 30>    O        2.88171        -0.26870        -0.75868
| 31>    C        4.14052        -0.03508        -0.31992
| 32>    C        4.90649        -1.06740         0.27034
| 33>    C        4.43138        -2.32989         0.41113
| 34>    C        5.11214        -3.41092         1.01935
| 35>    S        6.74423        -3.26306         1.61080
| 36>    C        6.74416        -4.92181         2.13185
| 37>    C        7.88272        -5.46221         2.78722
| 38>    C        9.16044        -4.93905         2.92457
| 39>    C        9.89740        -5.88398         3.65452
| 40>    O       11.16930        -5.86845         4.05242
| 41>    C       11.92997        -4.72845         3.71125
| 42>    C        9.00936        -6.93537         3.93804
| 43>    C        9.16995        -8.12673         4.66825
| 44>    C        8.23789        -9.06040         5.06400
| 45>    C        6.83258        -9.39375         5.09009
| 46>    O        5.83523        -8.84067         4.67583
| 47>    N        6.80927       -10.61596         5.78836
| 48>    C        8.04889       -11.01633         6.19554
| 49>    C        8.95320       -10.08835         5.77295
| 50>    C       10.35108        -9.71144         5.77871
| 51>    O       11.33290       -10.22586         6.23144
| 52>    O       10.41238        -8.49352         5.09026
| 53>    O        7.79540        -6.65538         3.39636
| 54>    C        5.54494        -5.55491         1.84340
| 55>    C        4.62150        -4.69360         1.22939
| 56>    C        3.23772        -5.13260         0.84656
| 57>    C        2.18919        -4.13191         1.26124
| 58>    O        1.25622        -3.78832         0.59103
| 59>    C        2.89232        -6.45800         1.55053
| 60>    C        4.02381        -7.45985         1.35777
| 61>    C        5.27242        -6.99641         2.10287
| 62>    H        5.07487         3.82404         0.05744
| 63>    H        5.71946         3.42252        -1.55472
| 64>    H        6.81360         3.48049        -0.14669
| 65>    H        3.19529         2.91619        -1.45531
| 66>    H       -2.42690         2.94218        -3.67767
| 67>    H        0.41899        -1.00804        -1.48640
| 68>    H        5.89127        -0.79167         0.61642
| 69>    H        3.44120        -2.54181         0.03480
| 70>    H        9.49122        -3.99955         2.53214
| 71>    H       12.92200        -4.90065         4.12309
| 72>    H       11.50175        -3.82214         4.14933
| 73>    H       11.99830        -4.60941         2.62599
| 74>    H        5.95216       -11.11136         5.97913
| 75>    H        8.19292       -11.92246         6.75233
| 76>    H        3.17601        -5.27721        -0.23899
| 77>    H        2.32743        -3.75300         2.29281
| 78>    H        1.95859        -6.84547         1.14086
| 79>    H        2.74959        -6.27781         2.61831
| 80>    H        4.23928        -7.56150         0.29173
| 81>    H        3.72311        -8.43575         1.73821
| 82>    H        6.13617        -7.59236         1.80239
| 83>    H        5.15446        -7.16602         3.17636
| 84> *
| 85>
| 86>                          ****END OF INPUT****

CARTESIAN COORDINATES (ANGSTROEM)
---------------------------------
  C      5.811390    3.224100   -0.483610
  O      5.650370    1.846310   -0.204560
  C      4.463940    1.314240   -0.539440
  C      3.343420    1.904270   -1.135680
  C      2.396010    0.894950   -1.248850
  C      1.089850    0.972850   -1.777630
  C      0.456250    2.074680   -2.320850
  C      0.599380    3.467720   -2.636300
  O      1.503870    4.251710   -2.491960
  O     -0.622860    3.839770   -3.213940
  C     -1.454560    2.776380   -3.253510
  C     -0.864160    1.676690   -2.729550
  C     -1.021890    0.255640   -2.409100
  O     -1.937580   -0.510110   -2.563660
  N      0.210590   -0.084410   -1.837040
  O      2.881710   -0.268700   -0.758680
  C      4.140520   -0.035080   -0.319920
  C      4.906490   -1.067400    0.270340
  C      4.431380   -2.329890    0.411130
  C      5.112140   -3.410920    1.019350
  S      6.744230   -3.263060    1.610800
  C      6.744160   -4.921810    2.131850
  C      7.882720   -5.462210    2.787220
  C      9.160440   -4.939050    2.924570
  C      9.897400   -5.883980    3.654520
  O     11.169300   -5.868450    4.052420
  C     11.929970   -4.728450    3.711250
  C      9.009360   -6.935370    3.938040
  C      9.169950   -8.126730    4.668250
  C      8.237890   -9.060400    5.064000
  C      6.832580   -9.393750    5.090090
  O      5.835230   -8.840670    4.675830
  N      6.809270  -10.615960    5.788360
  C      8.048890  -11.016330    6.195540
  C      8.953200  -10.088350    5.772950
  C     10.351080   -9.711440    5.778710
  O     11.332900  -10.225860    6.231440
  O     10.412380   -8.493520    5.090260
  O      7.795400   -6.655380    3.396360
  C      5.544940   -5.554910    1.843400
  C      4.621500   -4.693600    1.229390
  C      3.237720   -5.132600    0.846560
  C      2.189190   -4.131910    1.261240
  O      1.256220   -3.788320    0.591030
  C      2.892320   -6.458000    1.550530
  C      4.023810   -7.459850    1.357770
  C      5.272420   -6.996410    2.102870
  H      5.074870    3.824040    0.057440
  H      5.719460    3.422520   -1.554720
  H      6.813600    3.480490   -0.146690
  H      3.195290    2.916190   -1.455310
  H     -2.426900    2.942180   -3.677670
  H      0.418990   -1.008040   -1.486400
  H      5.891270   -0.791670    0.616420
  H      3.441200   -2.541810    0.034800
  H      9.491220   -3.999550    2.532140
  H     12.922000   -4.900650    4.123090
  H     11.501750   -3.822140    4.149330
  H     11.998300   -4.609410    2.625990
  H      5.952160  -11.111360    5.979130
  H      8.192920  -11.922460    6.752330
  H      3.176010   -5.277210   -0.238990
  H      2.327430   -3.753000    2.292810
  H      1.958590   -6.845470    1.140860
  H      2.749590   -6.277810    2.618310
  H      4.239280   -7.561500    0.291730
  H      3.723110   -8.435750    1.738210
  H      6.136170   -7.592360    1.802390
  H      5.154460   -7.166020    3.176360

 Total Charge           Charge          ....    0
 Multiplicity           Mult            ....    1
 Number of Electrons    NEL             ....  338
 Basis Dimension        Dim             ....  772

ORBITAL ENERGIES
----------------

  NO   OCC          E(Eh)            E(eV)
   0   2.0000     -88.964733     -2420.8535
   1   2.0000     -19.311004      -525.4791
   2   2.0000     -19.304533      -525.3030
   3   2.0000     -19.274237      -524.4787
   4   2.0000     -19.271181      -524.3955
   5   2.0000     -19.268212      -524.3147
   6   2.0000     -19.264404      -524.2111
   7   2.0000     -19.219809      -522.9976
   8   2.0000     -19.200968      -522.4849
   9   2.0000     -19.198362      -522.4140
  10   2.0000     -19.193867      -522.2917
  11   2.0000     -19.180989      -521.9413
  12   2.0000     -14.460104      -393.4794
  13   2.0000     -14.454021      -393.3139
  14   2.0000     -10.398749      -282.9643
  15   2.0000     -10.398487      -282.9572
  16   2.0000     -10.386171      -282.6221
  17   2.0000     -10.372908      -282.2612
  18   2.0000     -10.366122      -282.0765
  19   2.0000     -10.361530      -281.9516
  20   2.0000     -10.360719      -281.9295
  21   2.0000     -10.359015      -281.8831
  22   2.0000     -10.357916      -281.8532
  23   2.0000     -10.352371      -281.7023
  24   2.0000     -10.350844      -281.6608
  25   2.0000     -10.348244      -281.5900
  26   2.0000     -10.344498      -281.4881
  27   2.0000     -10.336787      -281.2783
  28   2.0000     -10.335985      -281.2565
  29   2.0000     -10.333230      -281.1815
  30   2.0000     -10.330814      -281.1157
  31   2.0000     -10.313347      -280.6404
  32   2.0000     -10.310223      -280.5554
  33   2.0000     -10.294925      -280.1392
  34   2.0000     -10.292420      -280.0710
  35   2.0000     -10.291115      -280.0355
  36   2.0000     -10.288957      -279.9767
  37   2.0000     -10.288019      -279.9512
  38   2.0000     -10.287114      -279.9266
  39   2.0000     -10.286903      -279.9209
  40   2.0000     -10.275660      -279.6149
  41   2.0000     -10.274031      -279.5706
  42   2.0000     -10.271473      -279.5010
  43   2.0000     -10.266466      -279.3647
  44   2.0000     -10.263407      -279.2815
  45   2.0000     -10.262685      -279.2619
  46   2.0000     -10.258776      -279.1555
  47   2.0000      -8.060089      -219.3262
  48   2.0000      -6.029388      -164.0680
  49   2.0000      -6.025506      -163.9624
  50   2.0000      -6.021965      -163.8660
  51   2.0000      -1.229328       -33.4517
  52   2.0000      -1.227405       -33.3994
  53   2.0000      -1.202637       -32.7254
  54   2.0000      -1.200724       -32.6734
  55   2.0000      -1.174777       -31.9673
  56   2.0000      -1.168093       -31.7854
  57   2.0000      -1.134578       -30.8734
  58   2.0000      -1.134236       -30.8641
  59   2.0000      -1.120499       -30.4903
  60   2.0000      -1.108173       -30.1549
  61   2.0000      -1.108045       -30.1514
  62   2.0000      -1.062406       -28.9096
  63   2.0000      -1.048808       -28.5395
  64   2.0000      -1.001038       -27.2396
  65   2.0000      -0.929885       -25.3035
  66   2.0000      -0.928550       -25.2671
  67   2.0000      -0.916469       -24.9384
  68   2.0000      -0.912213       -24.8226
  69   2.0000      -0.908246       -24.7146
  70   2.0000      -0.904569       -24.6146
  71   2.0000      -0.897214       -24.4144
  72   2.0000      -0.879469       -23.9316
  73   2.0000      -0.859313       -23.3831
  74   2.0000      -0.835654       -22.7393
  75   2.0000      -0.830034       -22.5864
  76   2.0000      -0.821829       -22.3631
  77   2.0000      -0.814820       -22.1724
  78   2.0000      -0.809076       -22.0161
  79   2.0000      -0.798406       -21.7257
  80   2.0000      -0.786316       -21.3968
  81   2.0000      -0.757694       -20.6179
  82   2.0000      -0.754068       -20.5192
  83   2.0000      -0.749640       -20.3987
  84   2.0000      -0.738789       -20.1035
  85   2.0000      -0.726036       -19.7564
  86   2.0000      -0.707921       -19.2635
  87   2.0000      -0.703885       -19.1537
  88   2.0000      -0.697119       -18.9696
  89   2.0000      -0.680026       -18.5045
  90   2.0000      -0.677847       -18.4451
  91   2.0000      -0.670831       -18.2542
  92   2.0000      -0.666857       -18.1461
  93   2.0000      -0.663129       -18.0447
  94   2.0000      -0.651060       -17.7163
  95   2.0000      -0.644128       -17.5276
  96   2.0000      -0.628477       -17.1017
  97   2.0000      -0.616108       -16.7652
  98   2.0000      -0.605659       -16.4808
  99   2.0000      -0.599909       -16.3243
 100   2.0000      -0.594917       -16.1885
 101   2.0000      -0.588933       -16.0257
 102   2.0000      -0.587191       -15.9783
 103   2.0000      -0.586114       -15.9490
 104   2.0000      -0.585806       -15.9406
 105   2.0000      -0.581998       -15.8370
 106   2.0000      -0.574879       -15.6432
 107   2.0000      -0.573100       -15.5949
 108   2.0000      -0.571291       -15.5456
 109   2.0000      -0.566111       -15.4047
 110   2.0000      -0.565925       -15.3996
 111   2.0000      -0.563123       -15.3234
 112   2.0000      -0.555809       -15.1243
 113   2.0000      -0.553606       -15.0644
 114   2.0000      -0.553129       -15.0514
 115   2.0000      -0.548232       -14.9181
 116   2.0000      -0.539543       -14.6817
 117   2.0000      -0.534303       -14.5391
 118   2.0000      -0.529435       -14.4067
 119   2.0000      -0.522945       -14.2301
 120   2.0000      -0.521252       -14.1840
 121   2.0000      -0.518963       -14.1217
 122   2.0000      -0.516699       -14.0601
 123   2.0000      -0.515574       -14.0295
 124   2.0000      -0.511588       -13.9210
 125   2.0000      -0.509857       -13.8739
 126   2.0000      -0.508004       -13.8235
 127   2.0000      -0.504388       -13.7251
 128   2.0000      -0.499806       -13.6004
 129   2.0000      -0.494301       -13.4506
 130   2.0000      -0.487964       -13.2782
 131   2.0000      -0.484836       -13.1931
 132   2.0000      -0.477860       -13.0032
 133   2.0000      -0.473475       -12.8839
 134   2.0000      -0.471501       -12.8302
 135   2.0000      -0.464536       -12.6407
 136   2.0000      -0.464240       -12.6326
 137   2.0000      -0.462881       -12.5956
 138   2.0000      -0.462038       -12.5727
 139   2.0000      -0.459476       -12.5030
 140   2.0000      -0.450277       -12.2526
 141   2.0000      -0.449022       -12.2185
 142   2.0000      -0.442258       -12.0345
 143   2.0000      -0.439935       -11.9712
 144   2.0000      -0.438488       -11.9319
 145   2.0000      -0.428659       -11.6644
 146   2.0000      -0.426868       -11.6157
 147   2.0000      -0.424935       -11.5631
 148   2.0000      -0.418666       -11.3925
 149   2.0000      -0.413940       -11.2639
 150   2.0000      -0.411122       -11.1872
 151   2.0000      -0.405572       -11.0362
 152   2.0000      -0.399833       -10.8800
 153   2.0000      -0.397993       -10.8299
 154   2.0000      -0.365826        -9.9546
 155   2.0000      -0.358823        -9.7641
 156   2.0000      -0.356643        -9.7048
 157   2.0000      -0.353467        -9.6183
 158   2.0000      -0.353039        -9.6067
 159   2.0000      -0.349624        -9.5138
 160   2.0000      -0.337081        -9.1725
 161   2.0000      -0.332094        -9.0367
 162   2.0000      -0.329340        -8.9618
 163   2.0000      -0.328085        -8.9276
 164   2.0000      -0.317694        -8.6449
 165   2.0000      -0.305946        -8.3252
 166   2.0000      -0.280206        -7.6248
 167   2.0000      -0.252517        -6.8713
 168   2.0000      -0.230513        -6.2726
 169   0.0000      -0.084968        -2.3121
 170   0.0000      -0.057712        -1.5704
 171   0.0000      -0.026427        -0.7191
 172   0.0000       0.012212         0.3323
 173   0.0000       0.017949         0.4884

MULLIKEN ATOMIC CHARGES
-----------------------
   0 C :    0.179654
   1 O :   -0.298174
   2 C :    0.203827
   3 C :   -0.149707
   4 C :    0.116584
   5 C :    0.155565
   6 C :   -0.168648
   7 C :    0.221094
   8 O :   -0.168700
   9 O :   -0.240753
  10 C :    0.084739
  11 C :   -0.012568
  12 C :    0.162197
  13 O :   -0.146549
  14 N :   -0.115189
  15 O :   -0.207396
  16 C :    0.120419
  17 C :   -0.037123
  18 C :   -0.035255
  19 C :   -0.070877
  20 S :    0.120277
  21 C :   -0.132036
  22 C :    0.201897
  23 C :   -0.192288
  24 C :    0.199907
  25 O :   -0.264324
  26 C :    0.176846
  27 C :    0.076044
  28 C :    0.104743
  29 C :   -0.073873
  30 C :    0.131979
  31 O :   -0.183258
  32 N :   -0.129716
  33 C :    0.040893
  34 C :   -0.066959
  35 C :    0.228953
  36 O :   -0.133357
  37 O :   -0.244936
  38 O :   -0.189160
  39 C :   -0.072449
  40 C :   -0.032679
  41 C :    0.005251
  42 C :    0.129866
  43 O :   -0.183920
  44 C :    0.017386
  45 C :    0.058428
  46 C :    0.137027
  47 H :    0.034327
  48 H :    0.034462
  49 H :    0.042388
  50 H :    0.001351
  51 H :    0.029847
  52 H :    0.142238
  53 H :    0.006060
  54 H :    0.014141
  55 H :   -0.013284
  56 H :    0.053158
  57 H :    0.028010
  58 H :    0.029402
  59 H :    0.130520
  60 H :    0.018988
  61 H :    0.020235
  62 H :   -0.000391
  63 H :    0.018237
  64 H :    0.012308
  65 H :    0.001523
  66 H :    0.010077
  67 H :    0.011878
  68 H :    0.050840
Sum of atomic charges:    0.0000000

LOEWDIN ATOMIC CHARGES
----------------------
   0 C :    0.085633
   1 O :   -0.096052
   2 C :    0.013391
   3 C :   -0.051058
   4 C :    0.013054
   5 C :    0.072644
   6 C :   -0.146420
   7 C :    0.097973
   8 O :   -0.168487
   9 O :   -0.048555
  10 C :    0.115692
  11 C :   -0.119953
  12 C :    0.082585
  13 O :   -0.164991
  14 N :    0.030399
  15 O :    0.016636
  16 C :    0.016779
  17 C :   -0.034519
  18 C :   -0.040288
  19 C :   -0.158991
  20 S :    0.432606
  21 C :   -0.198938
  22 C :    0.055896
  23 C :   -0.117342
  24 C :    0.050432
  25 O :   -0.067755
  26 C :    0.085247
  27 C :   -0.038767
  28 C :    0.101703
  29 C :   -0.143963
  30 C :    0.070245
  31 O :   -0.205393
  32 N :    0.028975
  33 C :    0.073762
  34 C :   -0.136833
  35 C :    0.105768
  36 O :   -0.139320
  37 O :   -0.051961
  38 O :    0.041471
  39 C :   -0.024241
  40 C :   -0.057825
  41 C :   -0.061817
  42 C :    0.118845
  43 O :   -0.135189
  44 C :   -0.013939
  45 C :   -0.024374
  46 C :   -0.029781
  47 H :    0.021838
  48 H :    0.021803
  49 H :    0.030881
  50 H :    0.039425
  51 H :    0.034427
  52 H :    0.097481
  53 H :    0.035843
  54 H :    0.035992
  55 H :    0.029370
  56 H :    0.035525
  57 H :    0.019154
  58 H :    0.019466
  59 H :    0.089045
  60 H :    0.033481
  61 H :    0.040526
  62 H :   -0.003511
  63 H :    0.029965
  64 H :    0.025934
  65 H :    0.021132
  66 H :    0.031195
  67 H :    0.034664
  68 H :    0.043378

  Mayer bond orders larger than 0.100000
B(  0-C ,  1-O ) :   0.9430 B(  0-C , 47-H ) :   0.9711 B(  0-C , 48-H ) :   0.9712
B(  0-C , 49-H ) :   0.9810 B(  1-O ,  2-C ) :   1.2049 B(  2-C ,  3-C ) :   1.1974
B(  2-C , 16-C ) :   1.3425 B(  3-C ,  4-C ) :   1.4116 B(  3-C , 50-H ) :   0.9984
B(  4-C ,  5-C ) :   1.1063 B(  4-C , 15-O ) :   1.1536 B(  4-C , 16-C ) :   0.1186
B(  5-C ,  6-C ) :   1.4178 B(  5-C , 14-N ) :   1.2245 B(  6-C ,  7-C ) :   1.0188
B(  6-C , 11-C ) :   1.1483 B(  7-C ,  8-O ) :   2.1417 B(  7-C ,  9-O ) :   1.0167
B(  9-O , 10-C ) :   1.1372 B( 10-C , 11-C ) :   1.5570 B( 10-C , 51-H ) :   1.0007
B( 11-C , 12-C ) :   0.8992 B( 12-C , 13-O ) :   2.2642 B( 12-C , 14-N ) :   1.0361
B( 14-N , 52-H ) :   0.9212 B( 15-O , 16-C ) :   1.1288 B( 16-C , 17-C ) :   1.1871
B( 17-C , 18-C ) :   1.6000 B( 17-C , 53-H ) :   0.9663 B( 18-C , 19-C ) :   1.1476
B( 18-C , 54-H ) :   0.9607 B( 19-C , 20-S ) :   1.1075 B( 19-C , 21-C ) :   0.1089
B( 19-C , 40-C ) :   1.4775 B( 20-S , 21-C ) :   1.1114 B( 21-C , 22-C ) :   1.1095
B( 21-C , 39-C ) :   1.4977 B( 22-C , 23-C ) :   1.3812 B( 22-C , 27-C ) :   0.1271
B( 22-C , 38-O ) :   1.2004 B( 23-C , 24-C ) :   1.2084 B( 23-C , 55-H ) :   1.0162
B( 24-C , 25-O ) :   1.2540 B( 24-C , 27-C ) :   1.3280 B( 25-O , 26-C ) :   0.9437
B( 26-C , 56-H ) :   0.9813 B( 26-C , 57-H ) :   0.9708 B( 26-C , 58-H ) :   0.9705
B( 27-C , 28-C ) :   1.1412 B( 27-C , 38-O ) :   1.1339 B( 28-C , 29-C ) :   1.3814
B( 28-C , 37-O ) :   1.2104 B( 29-C , 30-C ) :   0.9683 B( 29-C , 34-C ) :   1.1444
B( 30-C , 31-O ) :   2.1446 B( 30-C , 32-N ) :   1.0710 B( 32-N , 33-C ) :   1.1952
B( 32-N , 59-H ) :   0.9282 B( 33-C , 34-C ) :   1.5102 B( 33-C , 60-H ) :   0.9832
B( 34-C , 35-C ) :   0.9586 B( 35-C , 36-O ) :   2.2730 B( 35-C , 37-O ) :   0.9795
B( 39-C , 40-C ) :   1.3304 B( 39-C , 46-C ) :   1.0565 B( 40-C , 41-C ) :   0.9461
B( 41-C , 42-C ) :   0.9351 B( 41-C , 44-C ) :   1.0594 B( 41-C , 61-H ) :   0.8795
B( 42-C , 43-O ) :   2.1600 B( 42-C , 62-H ) :   0.9467 B( 44-C , 45-C ) :   1.0740
B( 44-C , 63-H ) :   0.9356 B( 44-C , 64-H ) :   0.9399 B( 45-C , 46-C ) :   1.0841
B( 45-C , 65-H ) :   0.9392 B( 45-C , 66-H ) :   0.9297 B( 46-C , 67-H ) :   0.9093
B( 46-C , 68-H ) :   0.8911

-----------------------------------------------------------------------------
         ABSORPTION SPECTRUM VIA TRANSITION ELECTRIC DIPOLE MOMENTS
-----------------------------------------------------------------------------
State   Energy  Wavelength   fosc         T2         TX        TY        TZ
        (cm-1)    (nm)                  (au**2)     (au)      (au)      (au)
-----------------------------------------------------------------------------
   0   17351.6    576.3   1.762064280  33.43171   2.56521  -4.41013   2.72069
   1   22708.7    440.4   0.195484108   2.83397  -1.68138  -0.05634   0.06143
   2   24078.7    415.3   0.074385372   1.01702  -0.07730  -0.89757   0.45323
   3   27053.2    369.6   0.031381632   0.38188  -0.57022  -0.21381  -0.10496
   4   28802.4    347.2   0.096188295   1.09943   0.99152   0.30485  -0.15296
   5   31050.8    322.1   0.006706854   0.07111   0.23658   0.05203   0.11150
   6   32279.6    309.8   0.016730222   0.17063  -0.32250   0.15466  -0.20664
   7   32807.0    304.8   0.000592137   0.00594  -0.01346  -0.00942   0.07531
   8   32852.3    304.4   0.070443837   0.70592   0.35898  -0.68069   0.33722
   9   33918.6    294.8   0.039513003   0.38351  -0.09264  -0.58509   0.18055
  10   34668.3    288.4   0.105583292   1.00263  -0.97258   0.09256  -0.21941
  11   35720.6    280.0   0.064853854   0.59771  -0.38922  -0.64736   0.16477
  12   36303.3    275.5   0.005896792   0.05347  -0.22474   0.04734   0.02696
  13   36556.3    273.6   0.004366786   0.03933  -0.13082   0.14493  -0.03476
  14   36989.9    270.3   0.020943033   0.18639   0.07693   0.42154  -0.05271
  15   37177.9    269.0   0.061885019   0.54799   0.64360   0.35330   0.09461
  16   38876.3    257.2   0.035887934   0.30391   0.46614   0.22812   0.18595
  17   39879.6    250.8   0.136451519   1.12643   0.95756   0.37914   0.25643
  18   40222.5    248.6   0.006995229   0.05725   0.20206   0.12803   0.00590

FINAL SINGLE POINT ENERGY     -2603.099856349167

DIPOLE MOMENT
-------------
                                X             Y             Z
Electronic contribution:     -3.96448       2.84714      -0.23929
Nuclear contribution   :      5.36028      -2.81697       0.63625
                        -----------------------------------------
Total Dipole Moment    :      1.39580       0.03018       0.39696
                        -----------------------------------------
Magnitude (a.u.)       :      1.45147
Magnitude (Debye)      :      3.68933

Rotational constants in cm-1:     0.005152     0.000688     0.000612
Rotational constants in MHz :   154.455847    20.621652    18.344458

                             ****ORCA TERMINATED NORMALLY****
TOTAL RUN TIME: 0 days 0 hours 4 minutes 23 seconds 16 msec
