                         Program Version 4.2.0 -  RELEASE  -
|  1> # ORCA input file
|  2> # SCF done       -175.265991287980          0.000794707097
|  3> ! CAM-B3LYP def2-SVP def2/J RIJCOSX Grid4 TightSCF
|  4> %maxcore 5000
|  5> %tddft
|  6>     Mode sTDDFT
|  7>     Ethresh 5.0
|  8>     maxcore 5000
|  9> end
| 10>
| 11> %pal
| 12>   nprocs 6
| 13>   end
| 14> * xyz 0 1
| 15>    C       -1.42431         0.86456        -2.13117
| 16>    C       -1.11186         1.30673        -0.92726
| 17>    C        0.01370         2.25849        -0.64098
| 18>    C        1.20433         1.44876        -0.10403
| 19>    C        2.34884         2.38350         0.25300
| 20>    C        1.99674         3.29554         1.43493
| 21>    C        2.89995         4.53421         1.38214
| 22>    C        0.54355         3.68860         1.40388
| 23>    C       -0.03591         4.52111         2.34175
| 24>    C        0.52116         4.98731         3.57277
| 25>    C       -0.07290         5.92721         4.32896
| 26>    N        0.33540         6.41897         5.54213
| 27>    C        1.54209         5.97282         6.20240
| 28>    C        2.59843         7.06135         6.04802
| 29>    O        3.39772         7.07940         5.14988
| 30>    C        2.43339         8.19923         7.04861
| 31>    N        1.39389         9.08480         6.57219
| 32>    C        1.66326        10.32340         6.04415
| 33>    C        2.86566        10.88879         5.84682
| 34>    C        3.02813        12.19626         5.29181
| 35>    S        1.65066        13.14917         4.81648
| 36>    C        2.67823        14.44097         4.24208
| 37>    C        2.07236        15.66539         3.80051
| 38>    S        2.76305        17.20928         4.24424
| 39>    C        1.48196        18.04617         3.46232
| 40>    C        0.57046        17.20629         2.90422
| 41>    C        0.90208        15.84074         3.10449
| 42>    C        0.03782        14.73284         2.58927
| 43>    C       -0.85047        15.23583         1.44842
| 44>    C       -0.05128        15.43620         0.18726
| 45>    O       -0.19473        16.32057        -0.60821
| 46>    C       -1.59866        16.50101         1.87419
| 47>    C       -0.62258        17.65139         2.11756
| 48>    C        4.00713        14.11606         4.38942
| 49>    C        4.20286        12.86677         5.02706
| 50>    C        5.56495        12.36904         5.43252
| 51>    C        5.57635        11.83152         6.83471
| 52>    C        6.21276        10.73711         7.20994
| 53>    C        6.56396        13.53320         5.36215
| 54>    C        6.47297        14.21389         4.00636
| 55>    C        5.13724        14.94475         3.83884
| 56>    C        4.92151        15.24545         2.35199
| 57>    C        0.06587         8.66042         6.65581
| 58>    C       -0.93695         9.44060         7.15579
| 59>    S       -2.48102         8.70662         7.01876
| 60>    C       -1.78668         7.30368         6.31869
| 61>    C       -0.43394         7.40485         6.16553
| 62>    S       -1.67748         4.90852         1.90520
| 63>    C       -1.59088         3.90037         0.48029
| 64>    C       -2.69404         3.81191        -0.40963
| 65>    C       -3.87559         4.43995        -0.23229
| 66>    C       -4.97698         4.35320        -1.12986
| 67>    S       -4.90854         3.36563        -2.56839
| 68>    C       -6.50269         3.83386        -3.00753
| 69>    C       -7.06391         4.69022        -2.10936
| 70>    C       -6.19692         4.98769        -1.02976
| 71>    C       -6.57462         5.93680         0.06596
| 72>    C       -8.07373         6.23164         0.05938
| 73>    C       -8.58972         6.51299        -1.36274
| 74>    C       -7.81230         7.66428        -1.94559
| 75>    O       -8.08876         8.82147        -1.79774
| 76>    C       -8.44839         5.25146        -2.21519
| 77>    C       -0.35079         3.29788         0.38351
| 78>    H       -2.21417         0.15061        -2.28982
| 79>    H       -0.91148         1.21090        -3.01413
| 80>    H       -1.64144         0.94568        -0.05505
| 81>    H        0.31576         2.74961        -1.57478
| 82>    H        1.52216         0.73218        -0.86364
| 83>    H        0.89013         0.88874         0.78011
| 84>    H        2.57905         3.00052        -0.61898
| 85>    H        3.24433         1.80834         0.49663
| 86>    H        2.19145         2.75572         2.37115
| 87>    H        2.68486         5.10952         0.48381
| 88>    H        3.94370         4.22772         1.35383
| 89>    H        2.75564         5.18488         2.23896
| 90>    H        1.44460         4.51541         3.87014
| 91>    H       -0.97960         6.39207         3.96701
| 92>    H        1.88559         5.05003         5.73688
| 93>    H        1.32969         5.78636         7.26114
| 94>    H        3.36479         8.75733         7.13622
| 95>    H        2.15300         7.80659         8.03302
| 96>    H        0.77247        10.86102         5.74923
| 97>    H        3.78548        10.37869         6.08054
| 98>    H        1.48388        19.11785         3.45883
| 99>    H       -0.59631        14.36522         3.40209
|100>    H        0.65547        13.89442         2.25765
|101>    H       -1.57492        14.44694         1.20388
|102>    H        0.70936        14.64385         0.02641
|103>    H       -2.15750        16.28615         2.78752
|104>    H       -2.30759        16.79012         1.09734
|105>    H       -1.12722        18.47025         2.63527
|106>    H       -0.28001        18.03870         1.15384
|107>    H        5.89121        11.58174         4.74108
|108>    H        5.05410        12.43969         7.56222
|109>    H        6.73769        10.11487         6.50266
|110>    H        6.23107        10.40980         8.23611
|111>    H        7.57179        13.15044         5.53325
|112>    H        6.33670        14.25410         6.15109
|113>    H        6.57115        13.45781         3.22338
|114>    H        7.28959        14.92792         3.88508
|115>    H        5.17908        15.89227         4.38906
|116>    H        4.80067        14.31646         1.79779
|117>    H        5.78441        15.77577         1.95480
|118>    H        4.04007        15.85734         2.18813
|119>    H       -0.84970        10.42648         7.56596
|120>    H       -2.41380         6.48739         6.02155
|121>    H       -2.54997         3.19865        -1.28806
|122>    H       -4.01982         5.06155         0.64170
|123>    H       -6.93579         3.44567        -3.90798
|124>    H       -6.01598         6.87054        -0.06133
|125>    H       -6.29103         5.52063         1.03591
|126>    H       -8.28018         7.09053         0.69992
|127>    H       -8.61935         5.37180         0.45489
|128>    H       -9.64106         6.81163        -1.29539
|129>    H       -6.92375         7.35880        -2.53240
|130>    H       -8.68871         5.46471        -3.25957
|131>    H       -9.16644         4.50439        -1.86199
|132> *
|133>
|134>                          ****END OF INPUT****

CARTESIAN COORDINATES (ANGSTROEM)
---------------------------------
  C     -1.424310    0.864560   -2.131170
  C     -1.111860    1.306730   -0.927260
  C      0.013700    2.258490   -0.640980
  C      1.204330    1.448760   -0.104030
  C      2.348840    2.383500    0.253000
  C      1.996740    3.295540    1.434930
  C      2.899950    4.534210    1.382140
  C      0.543550    3.688600    1.403880
  C     -0.035910    4.521110    2.341750
  C      0.521160    4.987310    3.572770
  C     -0.072900    5.927210    4.328960
  N      0.335400    6.418970    5.542130
  C      1.542090    5.972820    6.202400
  C      2.598430    7.061350    6.048020
  O      3.397720    7.079400    5.149880
  C      2.433390    8.199230    7.048610
  N      1.393890    9.084800    6.572190
  C      1.663260   10.323400    6.044150
  C      2.865660   10.888790    5.846820
  C      3.028130   12.196260    5.291810
  S      1.650660   13.149170    4.816480
  C      2.678230   14.440970    4.242080
  C      2.072360   15.665390    3.800510
  S      2.763050   17.209280    4.244240
  C      1.481960   18.046170    3.462320
  C      0.570460   17.206290    2.904220
  C      0.902080   15.840740    3.104490
  C      0.037820   14.732840    2.589270
  C     -0.850470   15.235830    1.448420
  C     -0.051280   15.436200    0.187260
  O     -0.194730   16.320570   -0.608210
  C     -1.598660   16.501010    1.874190
  C     -0.622580   17.651390    2.117560
  C      4.007130   14.116060    4.389420
  C      4.202860   12.866770    5.027060
  C      5.564950   12.369040    5.432520
  C      5.576350   11.831520    6.834710
  C      6.212760   10.737110    7.209940
  C      6.563960   13.533200    5.362150
  C      6.472970   14.213890    4.006360
  C      5.137240   14.944750    3.838840
  C      4.921510   15.245450    2.351990
  C      0.065870    8.660420    6.655810
  C     -0.936950    9.440600    7.155790
  S     -2.481020    8.706620    7.018760
  C     -1.786680    7.303680    6.318690
  C     -0.433940    7.404850    6.165530
  S     -1.677480    4.908520    1.905200
  C     -1.590880    3.900370    0.480290
  C     -2.694040    3.811910   -0.409630
  C     -3.875590    4.439950   -0.232290
  C     -4.976980    4.353200   -1.129860
  S     -4.908540    3.365630   -2.568390
  C     -6.502690    3.833860   -3.007530
  C     -7.063910    4.690220   -2.109360
  C     -6.196920    4.987690   -1.029760
  C     -6.574620    5.936800    0.065960
  C     -8.073730    6.231640    0.059380
  C     -8.589720    6.512990   -1.362740
  C     -7.812300    7.664280   -1.945590
  O     -8.088760    8.821470   -1.797740
  C     -8.448390    5.251460   -2.215190
  C     -0.350790    3.297880    0.383510
  H     -2.214170    0.150610   -2.289820
  H     -0.911480    1.210900   -3.014130
  H     -1.641440    0.945680   -0.055050
  H      0.315760    2.749610   -1.574780
  H      1.522160    0.732180   -0.863640
  H      0.890130    0.888740    0.780110
  H      2.579050    3.000520   -0.618980
  H      3.244330    1.808340    0.496630
  H      2.191450    2.755720    2.371150
  H      2.684860    5.109520    0.483810
  H      3.943700    4.227720    1.353830
  H      2.755640    5.184880    2.238960
  H      1.444600    4.515410    3.870140
  H     -0.979600    6.392070    3.967010
  H      1.885590    5.050030    5.736880
  H      1.329690    5.786360    7.261140
  H      3.364790    8.757330    7.136220
  H      2.153000    7.806590    8.033020
  H      0.772470   10.861020    5.749230
  H      3.785480   10.378690    6.080540
  H      1.483880   19.117850    3.458830
  H     -0.596310   14.365220    3.402090
  H      0.655470   13.894420    2.257650
  H     -1.574920   14.446940    1.203880
  H      0.709360   14.643850    0.026410
  H     -2.157500   16.286150    2.787520
  H     -2.307590   16.790120    1.097340
  H     -1.127220   18.470250    2.635270
  H     -0.280010   18.038700    1.153840
  H      5.891210   11.581740    4.741080
  H      5.054100   12.439690    7.562220
  H      6.737690   10.114870    6.502660
  H      6.231070   10.409800    8.236110
  H      7.571790   13.150440    5.533250
  H      6.336700   14.254100    6.151090
  H      6.571150   13.457810    3.223380
  H      7.289590   14.927920    3.885080
  H      5.179080   15.892270    4.389060
  H      4.800670   14.316460    1.797790
  H      5.784410   15.775770    1.954800
  H      4.040070   15.857340    2.188130
  H     -0.849700   10.426480    7.565960
  H     -2.413800    6.487390    6.021550
  H     -2.549970    3.198650   -1.288060
  H     -4.019820    5.061550    0.641700
  H     -6.935790    3.445670   -3.907980
  H     -6.015980    6.870540   -0.061330
  H     -6.291030    5.520630    1.035910
  H     -8.280180    7.090530    0.699920
  H     -8.619350    5.371800    0.454890
  H     -9.641060    6.811630   -1.295390
  H     -6.923750    7.358800   -2.532400
  H     -8.688710    5.464710   -3.259570
  H     -9.166440    4.504390   -1.861990

 Total Charge           Charge          ....    0
 Multiplicity           Mult            ....    1
 Number of Electrons    NEL             ....  490
 Basis Dimension        Dim             .... 1172

ORBITAL ENERGIES
----------------

  NO   OCC          E(Eh)            E(eV)
   0   2.0000     -88.965080     -2420.8629
   1   2.0000     -88.936852     -2420.0948
   2   2.0000     -88.936253     -2420.0785
   3   2.0000     -88.933668     -2420.0081
   4   2.0000     -88.930914     -2419.9332
   5   2.0000     -19.224420      -523.1231
   6   2.0000     -19.208014      -522.6766
   7   2.0000     -19.204504      -522.5811
   8   2.0000     -14.456719      -393.3873
   9   2.0000     -14.454198      -393.3187
  10   2.0000     -10.368139      -282.1314
  11   2.0000     -10.346167      -281.5335
  12   2.0000     -10.342862      -281.4436
  13   2.0000     -10.321988      -280.8756
  14   2.0000     -10.321836      -280.8714
  15   2.0000     -10.321772      -280.8697
  16   2.0000     -10.320157      -280.8258
  17   2.0000     -10.311147      -280.5806
  18   2.0000     -10.307839      -280.4906
  19   2.0000     -10.299830      -280.2726
  20   2.0000     -10.299301      -280.2582
  21   2.0000     -10.285194      -279.8743
  22   2.0000     -10.283008      -279.8149
  23   2.0000     -10.282517      -279.8015
  24   2.0000     -10.280812      -279.7551
  25   2.0000     -10.280537      -279.7476
  26   2.0000     -10.277175      -279.6561
  27   2.0000     -10.274289      -279.5776
  28   2.0000     -10.271442      -279.5002
  29   2.0000     -10.270705      -279.4801
  30   2.0000     -10.270397      -279.4717
  31   2.0000     -10.269963      -279.4599
  32   2.0000     -10.268659      -279.4244
  33   2.0000     -10.267687      -279.3980
  34   2.0000     -10.267358      -279.3890
  35   2.0000     -10.267072      -279.3812
  36   2.0000     -10.266948      -279.3778
  37   2.0000     -10.263711      -279.2898
  38   2.0000     -10.262918      -279.2682
  39   2.0000     -10.262903      -279.2678
  40   2.0000     -10.262800      -279.2650
  41   2.0000     -10.262289      -279.2511
  42   2.0000     -10.260642      -279.2063
  43   2.0000     -10.260328      -279.1977
  44   2.0000     -10.260309      -279.1972
  45   2.0000     -10.260103      -279.1916
  46   2.0000     -10.260043      -279.1900
  47   2.0000     -10.259553      -279.1766
  48   2.0000     -10.258373      -279.1445
  49   2.0000     -10.257813      -279.1293
  50   2.0000     -10.257712      -279.1265
  51   2.0000     -10.254765      -279.0463
  52   2.0000     -10.254506      -279.0393
  53   2.0000     -10.254276      -279.0330
  54   2.0000     -10.253852      -279.0215
  55   2.0000     -10.253769      -279.0192
  56   2.0000     -10.253111      -279.0013
  57   2.0000     -10.252092      -278.9736
  58   2.0000     -10.251417      -278.9552
  59   2.0000     -10.249902      -278.9140
  60   2.0000     -10.248931      -278.8876
  61   2.0000     -10.241239      -278.6783
  62   2.0000     -10.238312      -278.5986
  63   2.0000      -8.061161      -219.3554
  64   2.0000      -8.032159      -218.5662
  65   2.0000      -8.031847      -218.5577
  66   2.0000      -8.028996      -218.4801
  67   2.0000      -8.026513      -218.4125
  68   2.0000      -6.030402      -164.0956
  69   2.0000      -6.026219      -163.9818
  70   2.0000      -6.023373      -163.9043
  71   2.0000      -6.001525      -163.3098
  72   2.0000      -6.001050      -163.2969
  73   2.0000      -5.998235      -163.2203
  74   2.0000      -5.997239      -163.1932
  75   2.0000      -5.996981      -163.1862
  76   2.0000      -5.995671      -163.1505
  77   2.0000      -5.994395      -163.1158
  78   2.0000      -5.994369      -163.1151
  79   2.0000      -5.994151      -163.1091
  80   2.0000      -5.992011      -163.0509
  81   2.0000      -5.990996      -163.0233
  82   2.0000      -5.988488      -162.9550
  83   2.0000      -1.142042       -31.0765
  84   2.0000      -1.122396       -30.5420
  85   2.0000      -1.118323       -30.4311
  86   2.0000      -1.080106       -29.3912
  87   2.0000      -1.056474       -28.7481
  88   2.0000      -0.981209       -26.7000
  89   2.0000      -0.979588       -26.6559
  90   2.0000      -0.974095       -26.5065
  91   2.0000      -0.970511       -26.4089
  92   2.0000      -0.961883       -26.1742
  93   2.0000      -0.917078       -24.9549
  94   2.0000      -0.912700       -24.8358
  95   2.0000      -0.911863       -24.8131
  96   2.0000      -0.910291       -24.7703
  97   2.0000      -0.896122       -24.3847
  98   2.0000      -0.889654       -24.2087
  99   2.0000      -0.877045       -23.8656
 100   2.0000      -0.869911       -23.6715
 101   2.0000      -0.863670       -23.5017
 102   2.0000      -0.862158       -23.4605
 103   2.0000      -0.850075       -23.1317
 104   2.0000      -0.844280       -22.9740
 105   2.0000      -0.842740       -22.9321
 106   2.0000      -0.826164       -22.4811
 107   2.0000      -0.822183       -22.3727
 108   2.0000      -0.818564       -22.2743
 109   2.0000      -0.815738       -22.1974
 110   2.0000      -0.811678       -22.0869
 111   2.0000      -0.805446       -21.9173
 112   2.0000      -0.802555       -21.8386
 113   2.0000      -0.798874       -21.7385
 114   2.0000      -0.785469       -21.3737
 115   2.0000      -0.780365       -21.2348
 116   2.0000      -0.756117       -20.5750
 117   2.0000      -0.755016       -20.5450
 118   2.0000      -0.740201       -20.1419
 119   2.0000      -0.738902       -20.1065
 120   2.0000      -0.721901       -19.6439
 121   2.0000      -0.720888       -19.6164
 122   2.0000      -0.709612       -19.3095
 123   2.0000      -0.705191       -19.1892
 124   2.0000      -0.699075       -19.0228
 125   2.0000      -0.690292       -18.7838
 126   2.0000      -0.682620       -18.5750
 127   2.0000      -0.680871       -18.5274
 128   2.0000      -0.680318       -18.5124
 129   2.0000      -0.676319       -18.4036
 130   2.0000      -0.670602       -18.2480
 131   2.0000      -0.662705       -18.0331
 132   2.0000      -0.650462       -17.7000
 133   2.0000      -0.642969       -17.4961
 134   2.0000      -0.640036       -17.4163
 135   2.0000      -0.635451       -17.2915
 136   2.0000      -0.634034       -17.2529
 137   2.0000      -0.631015       -17.1708
 138   2.0000      -0.626008       -17.0345
 139   2.0000      -0.619629       -16.8610
 140   2.0000      -0.614993       -16.7348
 141   2.0000      -0.607398       -16.5281
 142   2.0000      -0.605854       -16.4861
 143   2.0000      -0.594851       -16.1867
 144   2.0000      -0.590020       -16.0553
 145   2.0000      -0.589436       -16.0394
 146   2.0000      -0.586810       -15.9679
 147   2.0000      -0.582323       -15.8458
 148   2.0000      -0.578690       -15.7470
 149   2.0000      -0.574195       -15.6246
 150   2.0000      -0.569540       -15.4980
 151   2.0000      -0.561997       -15.2927
 152   2.0000      -0.556657       -15.1474
 153   2.0000      -0.547006       -14.8848
 154   2.0000      -0.543986       -14.8026
 155   2.0000      -0.541908       -14.7461
 156   2.0000      -0.537563       -14.6278
 157   2.0000      -0.536401       -14.5962
 158   2.0000      -0.529599       -14.4111
 159   2.0000      -0.528994       -14.3947
 160   2.0000      -0.525694       -14.3049
 161   2.0000      -0.521354       -14.1868
 162   2.0000      -0.519984       -14.1495
 163   2.0000      -0.517854       -14.0915
 164   2.0000      -0.515551       -14.0288
 165   2.0000      -0.514796       -14.0083
 166   2.0000      -0.514430       -13.9983
 167   2.0000      -0.512829       -13.9548
 168   2.0000      -0.507165       -13.8007
 169   2.0000      -0.504924       -13.7397
 170   2.0000      -0.502414       -13.6714
 171   2.0000      -0.499725       -13.5982
 172   2.0000      -0.498636       -13.5686
 173   2.0000      -0.494346       -13.4518
 174   2.0000      -0.493729       -13.4351
 175   2.0000      -0.489524       -13.3206
 176   2.0000      -0.488130       -13.2827
 177   2.0000      -0.483813       -13.1652
 178   2.0000      -0.481898       -13.1131
 179   2.0000      -0.479176       -13.0390
 180   2.0000      -0.478494       -13.0205
 181   2.0000      -0.475327       -12.9343
 182   2.0000      -0.473227       -12.8772
 183   2.0000      -0.472022       -12.8444
 184   2.0000      -0.471587       -12.8325
 185   2.0000      -0.468441       -12.7469
 186   2.0000      -0.466996       -12.7076
 187   2.0000      -0.464815       -12.6482
 188   2.0000      -0.464640       -12.6435
 189   2.0000      -0.462235       -12.5781
 190   2.0000      -0.458280       -12.4704
 191   2.0000      -0.457413       -12.4468
 192   2.0000      -0.454771       -12.3750
 193   2.0000      -0.450320       -12.2538
 194   2.0000      -0.448289       -12.1986
 195   2.0000      -0.447563       -12.1788
 196   2.0000      -0.446792       -12.1578
 197   2.0000      -0.444028       -12.0826
 198   2.0000      -0.442008       -12.0276
 199   2.0000      -0.439998       -11.9729
 200   2.0000      -0.438447       -11.9308
 201   2.0000      -0.437071       -11.8933
 202   2.0000      -0.436524       -11.8784
 203   2.0000      -0.435261       -11.8440
 204   2.0000      -0.430983       -11.7277
 205   2.0000      -0.430888       -11.7250
 206   2.0000      -0.421467       -11.4687
 207   2.0000      -0.420876       -11.4526
 208   2.0000      -0.417289       -11.3550
 209   2.0000      -0.414198       -11.2709
 210   2.0000      -0.413223       -11.2444
 211   2.0000      -0.412048       -11.2124
 212   2.0000      -0.405700       -11.0397
 213   2.0000      -0.402736       -10.9590
 214   2.0000      -0.398820       -10.8524
 215   2.0000      -0.398102       -10.8329
 216   2.0000      -0.397203       -10.8084
 217   2.0000      -0.393825       -10.7165
 218   2.0000      -0.389646       -10.6028
 219   2.0000      -0.388000       -10.5580
 220   2.0000      -0.387404       -10.5418
 221   2.0000      -0.384045       -10.4504
 222   2.0000      -0.382662       -10.4128
 223   2.0000      -0.378335       -10.2950
 224   2.0000      -0.376128       -10.2350
 225   2.0000      -0.374016       -10.1775
 226   2.0000      -0.371078       -10.0976
 227   2.0000      -0.369948       -10.0668
 228   2.0000      -0.352892        -9.6027
 229   2.0000      -0.343339        -9.3427
 230   2.0000      -0.328659        -8.9433
 231   2.0000      -0.322814        -8.7842
 232   2.0000      -0.320220        -8.7136
 233   2.0000      -0.318494        -8.6667
 234   2.0000      -0.316035        -8.5997
 235   2.0000      -0.310919        -8.4605
 236   2.0000      -0.306659        -8.3446
 237   2.0000      -0.293158        -7.9772
 238   2.0000      -0.292808        -7.9677
 239   2.0000      -0.291882        -7.9425
 240   2.0000      -0.291516        -7.9325
 241   2.0000      -0.275310        -7.4916
 242   2.0000      -0.264632        -7.2010
 243   2.0000      -0.222035        -6.0419
 244   2.0000      -0.213865        -5.8196
 245   0.0000      -0.028914        -0.7868
 246   0.0000      -0.012198        -0.3319
 247   0.0000       0.004625         0.1259
 248   0.0000       0.010076         0.2742
 249   0.0000       0.025006         0.6804

MULLIKEN ATOMIC CHARGES
-----------------------
   0 C :   -0.008492
   1 C :   -0.046133
   2 C :    0.034144
   3 C :    0.075934
   4 C :    0.083728
   5 C :   -0.052602
   6 C :    0.069294
   7 C :   -0.018050
   8 C :   -0.098714
   9 C :   -0.053561
  10 C :    0.092385
  11 N :   -0.238075
  12 C :    0.235347
  13 C :   -0.055234
  14 O :   -0.154400
  15 C :    0.236773
  16 N :   -0.238089
  17 C :    0.092508
  18 C :   -0.038802
  19 C :   -0.100900
  20 S :    0.065899
  21 C :   -0.170621
  22 C :   -0.186415
  23 S :    0.112829
  24 C :   -0.136289
  25 C :   -0.052679
  26 C :   -0.058766
  27 C :    0.151367
  28 C :   -0.113851
  29 C :    0.145668
  30 O :   -0.173826
  31 C :    0.070473
  32 C :    0.115866
  33 C :    0.027663
  34 C :   -0.052549
  35 C :    0.027203
  36 C :   -0.037759
  37 C :   -0.018224
  38 C :    0.083662
  39 C :    0.074516
  40 C :   -0.056330
  41 C :    0.079995
  42 C :    0.140352
  43 C :   -0.169525
  44 S :    0.132472
  45 C :   -0.170493
  46 C :    0.140490
  47 S :    0.049111
  48 C :   -0.117837
  49 C :   -0.004047
  50 C :   -0.023072
  51 C :   -0.109499
  52 S :    0.093004
  53 C :   -0.129154
  54 C :   -0.072455
  55 C :   -0.060815
  56 C :    0.087808
  57 C :    0.062213
  58 C :   -0.108602
  59 C :    0.127533
  60 O :   -0.178640
  61 C :    0.170656
  62 C :   -0.004085
  63 H :    0.018679
  64 H :    0.007232
  65 H :    0.005277
  66 H :   -0.002846
  67 H :   -0.004118
  68 H :   -0.007088
  69 H :   -0.012099
  70 H :   -0.004423
  71 H :   -0.005603
  72 H :    0.007823
  73 H :    0.002693
  74 H :    0.015426
  75 H :   -0.009203
  76 H :    0.020179
  77 H :    0.032943
  78 H :    0.018083
  79 H :    0.038186
  80 H :    0.015618
  81 H :    0.012236
  82 H :   -0.007788
  83 H :    0.005918
  84 H :    0.019569
  85 H :    0.017724
  86 H :    0.026292
  87 H :   -0.008251
  88 H :    0.000837
  89 H :    0.010167
  90 H :    0.004086
  91 H :    0.036943
  92 H :   -0.001331
  93 H :    0.003108
  94 H :    0.012221
  95 H :    0.013358
  96 H :   -0.006138
  97 H :   -0.007177
  98 H :   -0.008982
  99 H :   -0.003445
 100 H :    0.003429
 101 H :    0.004073
 102 H :   -0.000238
 103 H :    0.025856
 104 H :    0.022961
 105 H :    0.023098
 106 H :   -0.004544
 107 H :   -0.016666
 108 H :    0.003404
 109 H :    0.027238
 110 H :    0.017116
 111 H :    0.013887
 112 H :    0.010438
 113 H :    0.012268
 114 H :    0.004780
 115 H :    0.007166
 116 H :    0.019320
Sum of atomic charges:   -0.0000000

LOEWDIN ATOMIC CHARGES
----------------------
   0 C :   -0.065523
   1 C :   -0.005400
   2 C :   -0.025366
   3 C :   -0.016969
   4 C :   -0.024205
   5 C :   -0.029186
   6 C :   -0.043336
   7 C :   -0.069041
   8 C :   -0.153650
   9 C :   -0.119673
  10 C :    0.033984
  11 N :   -0.012389
  12 C :    0.029523
  13 C :    0.058578
  14 O :   -0.115166
  15 C :    0.030280
  16 N :   -0.014650
  17 C :    0.031093
  18 C :   -0.118348
  19 C :   -0.157082
  20 S :    0.415882
  21 C :   -0.200843
  22 C :   -0.193294
  23 S :    0.435050
  24 C :   -0.197157
  25 C :   -0.065215
  26 C :   -0.072044
  27 C :   -0.026585
  28 C :   -0.074749
  29 C :    0.120794
  30 O :   -0.124382
  31 C :   -0.018658
  32 C :   -0.028014
  33 C :   -0.048980
  34 C :   -0.072607
  35 C :   -0.025669
  36 C :   -0.000202
  37 C :   -0.074823
  38 C :   -0.017044
  39 C :   -0.023947
  40 C :   -0.034055
  41 C :   -0.044773
  42 C :   -0.035333
  43 C :   -0.205216
  44 S :    0.453580
  45 C :   -0.204268
  46 C :   -0.036357
  47 S :    0.397583
  48 C :   -0.177895
  49 C :   -0.040916
  50 C :   -0.060917
  51 C :   -0.170534
  52 S :    0.423891
  53 C :   -0.197593
  54 C :   -0.075456
  55 C :   -0.073872
  56 C :   -0.031047
  57 C :   -0.011920
  58 C :   -0.071843
  59 C :    0.114503
  60 O :   -0.127028
  61 C :   -0.017643
  62 C :   -0.049112
  63 H :    0.022983
  64 H :    0.018888
  65 H :    0.026949
  66 H :    0.032260
  67 H :    0.023267
  68 H :    0.021529
  69 H :    0.020221
  70 H :    0.023403
  71 H :    0.022687
  72 H :    0.024005
  73 H :    0.020698
  74 H :    0.022882
  75 H :    0.025453
  76 H :    0.024421
  77 H :    0.038536
  78 H :    0.027864
  79 H :    0.041993
  80 H :    0.027082
  81 H :    0.021194
  82 H :    0.030153
  83 H :    0.018953
  84 H :    0.029513
  85 H :    0.025416
  86 H :    0.046069
  87 H :   -0.006485
  88 H :    0.022837
  89 H :    0.029127
  90 H :    0.030984
  91 H :    0.036180
  92 H :    0.031404
  93 H :    0.026610
  94 H :    0.020283
  95 H :    0.020296
  96 H :    0.023025
  97 H :    0.021665
  98 H :    0.020404
  99 H :    0.023460
 100 H :    0.019384
 101 H :    0.022014
 102 H :    0.020855
 103 H :    0.019148
 104 H :    0.027004
 105 H :    0.027176
 106 H :    0.028103
 107 H :    0.020014
 108 H :    0.017953
 109 H :    0.032228
 110 H :    0.032876
 111 H :    0.028724
 112 H :    0.025022
 113 H :    0.035405
 114 H :   -0.003457
 115 H :    0.030146
 116 H :    0.036430

  Mayer bond orders larger than 0.100000
B(  0-C ,  1-C ) :   1.9926 B(  0-C , 63-H ) :   0.9511 B(  0-C , 64-H ) :   0.9543
B(  1-C ,  2-C ) :   1.0139 B(  1-C , 65-H ) :   0.9642 B(  2-C ,  3-C ) :   1.0686
B(  2-C , 62-C ) :   0.9557 B(  2-C , 66-H ) :   0.8834 B(  3-C ,  4-C ) :   1.0890
B(  3-C , 67-H ) :   0.9336 B(  3-C , 68-H ) :   0.9304 B(  4-C ,  5-C ) :   1.0639
B(  4-C , 69-H ) :   0.9251 B(  4-C , 70-H ) :   0.9281 B(  5-C ,  6-C ) :   1.0834
B(  5-C ,  7-C ) :   1.0099 B(  5-C , 71-H ) :   0.8811 B(  6-C , 72-H ) :   0.9585
B(  6-C , 73-H ) :   0.9626 B(  6-C , 74-H ) :   0.9616 B(  7-C ,  8-C ) :   1.5252
B(  7-C , 62-C ) :   1.3134 B(  8-C ,  9-C ) :   1.1502 B(  8-C , 47-S ) :   1.0991
B(  9-C , 10-C ) :   1.6722 B(  9-C , 75-H ) :   0.9499 B( 10-C , 11-N ) :   1.1029
B( 10-C , 76-H ) :   0.9604 B( 11-N , 12-C ) :   0.9917 B( 11-N , 46-C ) :   1.0171
B( 12-C , 13-C ) :   0.9654 B( 12-C , 77-H ) :   0.9132 B( 12-C , 78-H ) :   0.9290
B( 13-C , 14-O ) :   2.2128 B( 13-C , 15-C ) :   0.9661 B( 15-C , 16-N ) :   0.9899
B( 15-C , 79-H ) :   0.9132 B( 15-C , 80-H ) :   0.9289 B( 16-N , 17-C ) :   1.0966
B( 16-N , 42-C ) :   1.0223 B( 17-C , 18-C ) :   1.6710 B( 17-C , 81-H ) :   0.9597
B( 18-C , 19-C ) :   1.1482 B( 18-C , 82-H ) :   0.9468 B( 19-C , 20-S ) :   1.0976
B( 19-C , 21-C ) :   0.1093 B( 19-C , 34-C ) :   1.5401 B( 20-S , 21-C ) :   1.1082
B( 21-C , 22-C ) :   1.0435 B( 21-C , 33-C ) :   1.5623 B( 22-C , 23-S ) :   1.1500
B( 22-C , 24-C ) :   0.1020 B( 22-C , 26-C ) :   1.5465 B( 23-S , 24-C ) :   1.1387
B( 24-C , 25-C ) :   1.5867 B( 24-C , 83-H ) :   0.9712 B( 25-C , 26-C ) :   1.2755
B( 25-C , 32-C ) :   1.0256 B( 26-C , 27-C ) :   1.0527 B( 27-C , 28-C ) :   1.0414
B( 27-C , 84-H ) :   0.9024 B( 27-C , 85-H ) :   0.9120 B( 28-C , 29-C ) :   0.9194
B( 28-C , 31-C ) :   1.0433 B( 28-C , 86-H ) :   0.8919 B( 29-C , 30-O ) :   2.1902
B( 29-C , 87-H ) :   0.9490 B( 31-C , 32-C ) :   1.0906 B( 31-C , 88-H ) :   0.9453
B( 31-C , 89-H ) :   0.9275 B( 32-C , 90-H ) :   0.9210 B( 32-C , 91-H ) :   0.9145
B( 33-C , 34-C ) :   1.3010 B( 33-C , 40-C ) :   1.0048 B( 34-C , 35-C ) :   0.9542
B( 35-C , 36-C ) :   1.0173 B( 35-C , 38-C ) :   1.0685 B( 35-C , 92-H ) :   0.8868
B( 36-C , 37-C ) :   1.9945 B( 36-C , 93-H ) :   0.9637 B( 37-C , 94-H ) :   0.9526
B( 37-C , 95-H ) :   0.9499 B( 38-C , 39-C ) :   1.0838 B( 38-C , 96-H ) :   0.9313
B( 38-C , 97-H ) :   0.9292 B( 39-C , 40-C ) :   1.0716 B( 39-C , 98-H ) :   0.9278
B( 39-C , 99-H ) :   0.9291 B( 40-C , 41-C ) :   1.0875 B( 40-C ,100-H ) :   0.8783
B( 41-C ,101-H ) :   0.9586 B( 41-C ,102-H ) :   0.9609 B( 41-C ,103-H ) :   0.9594
B( 42-C , 43-C ) :   1.5396 B( 42-C , 46-C ) :   1.2603 B( 43-C , 44-S ) :   1.1688
B( 43-C ,104-H ) :   0.9687 B( 44-S , 45-C ) :   1.1716 B( 45-C , 46-C ) :   1.5398
B( 45-C ,105-H ) :   0.9692 B( 47-S , 48-C ) :   1.0797 B( 48-C , 49-C ) :   1.1630
B( 48-C , 62-C ) :   1.5153 B( 49-C , 50-C ) :   1.6550 B( 49-C ,106-H ) :   0.9598
B( 50-C , 51-C ) :   1.1521 B( 50-C ,107-H ) :   0.9646 B( 51-C , 52-S ) :   1.1269
B( 51-C , 55-C ) :   1.5154 B( 52-S , 53-C ) :   1.1443 B( 53-C , 54-C ) :   1.5776
B( 53-C ,108-H ) :   0.9708 B( 54-C , 55-C ) :   1.2804 B( 54-C , 61-C ) :   1.0092
B( 55-C , 56-C ) :   1.0535 B( 56-C , 57-C ) :   1.0934 B( 56-C ,109-H ) :   0.9112
B( 56-C ,110-H ) :   0.9096 B( 57-C , 58-C ) :   1.0420 B( 57-C ,111-H ) :   0.9336
B( 57-C ,112-H ) :   0.9472 B( 58-C , 59-C ) :   0.9156 B( 58-C , 61-C ) :   1.0324
B( 58-C ,113-H ) :   0.9086 B( 59-C , 60-O ) :   2.2003 B( 59-C ,114-H ) :   0.9459
B( 61-C ,115-H ) :   0.9308 B( 61-C ,116-H ) :   0.9106

-----------------------------------------------------------------------------
         ABSORPTION SPECTRUM VIA TRANSITION ELECTRIC DIPOLE MOMENTS
-----------------------------------------------------------------------------
State   Energy  Wavelength   fosc         T2         TX        TY        TZ
        (cm-1)    (nm)                  (au**2)     (au)      (au)      (au)
-----------------------------------------------------------------------------
   0   24157.9    413.9   1.040436136  14.17855  -2.59090  -1.10290  -2.49988
   1   27520.2    363.4   0.560636460   6.70663   0.28063  -2.29650   1.16360
   2   29314.8    341.1   0.035925190   0.40345  -0.28921  -0.55637   0.10131
   3   30229.6    330.8   0.246237796   2.68163   0.09011   1.42867  -0.79524
   4   31779.5    314.7   0.057518055   0.59584  -0.71582   0.27852   0.07665
   5   32003.6    312.5   0.064379335   0.66225  -0.74143   0.33359   0.03534
   6   33705.4    296.7   0.069068112   0.67461  -0.61039   0.54247  -0.08809
   7   34220.9    292.2   0.028262913   0.27190  -0.43867   0.06044  -0.27533
   8   34422.2    290.5   0.108134404   1.03419   0.92237  -0.42478  -0.05461
   9   37096.1    269.6   0.048515057   0.43055   0.33669  -0.44983  -0.33888
  10   38073.3    262.7   0.118095628   1.02115   0.28684   0.91180  -0.32786
  11   38753.2    258.0   0.050456173   0.42863  -0.46573   0.28959   0.35757
  12   40141.9    249.1   0.013804096   0.11321  -0.12186   0.25048  -0.18874

FINAL SINGLE POINT ENERGY     -4374.532496794276

DIPOLE MOMENT
-------------
                                X             Y             Z
Electronic contribution:    -25.33060       9.62567      18.18198
Nuclear contribution   :     25.42370     -11.43547     -15.91206
                        -----------------------------------------
Total Dipole Moment    :      0.09310      -1.80980       2.26992
                        -----------------------------------------
Magnitude (a.u.)       :      2.90458
Magnitude (Debye)      :      7.38285

Rotational constants in cm-1:     0.001166     0.000481     0.000398
Rotational constants in MHz :    34.963448    14.419650    11.924337

                             ****ORCA TERMINATED NORMALLY****
TOTAL RUN TIME: 0 days 0 hours 9 minutes 21 seconds 813 msec
