                         Program Version 4.2.0 -  RELEASE  -
|  1> # ORCA input file
|  2> # SCF done       -143.201004232472          0.002304114079
|  3> ! CAM-B3LYP def2-SVP def2/J RIJCOSX Grid4 TightSCF
|  4> %maxcore 5000
|  5> %tddft
|  6>     Mode sTDDFT
|  7>     Ethresh 5.0
|  8>     maxcore 5000
|  9> end
| 10>
| 11> %pal
| 12>   nprocs 6
| 13>   end
| 14> * xyz 0 1
| 15>    C        0.46982        -0.36363        -3.97809
| 16>    C        0.11097         0.29234        -2.69121
| 17>    C        0.98034         1.04075        -1.88116
| 18>    C        0.26026         1.44131        -0.77174
| 19>    C        0.68981         2.21510         0.34622
| 20>    S        2.26784         2.95680         0.22608
| 21>    C        2.08392         3.76510         1.70341
| 22>    C        0.86836         3.49455         2.28479
| 23>    N        0.51097         4.08566         3.51319
| 24>    O        1.36772         4.70369         4.11568
| 25>    O       -0.64275         3.95679         3.91038
| 26>    C        0.05408         2.57481         1.53227
| 27>    N       -1.18212         2.20495         1.98330
| 28>    C       -1.85151         1.02146         1.82120
| 29>    C       -1.32731        -0.15235         1.42582
| 30>    C       -2.10436        -1.33192         1.20804
| 31>    S       -3.81320        -1.37991         1.56169
| 32>    C       -3.91245        -3.01600         1.03789
| 33>    C       -2.71519        -3.49867         0.60980
| 34>    C       -1.67666        -2.53772         0.70098
| 35>    C       -0.28589        -2.81762         0.21697
| 36>    C       -0.06247        -4.31261        -0.00806
| 37>    C       -1.23728        -4.91608        -0.78568
| 38>    C       -0.95063        -6.33848        -1.16928
| 39>    O       -0.98540        -6.77818        -2.28478
| 40>    C       -2.48220        -4.88827         0.10929
| 41>    O       -1.00743         0.98668        -0.87486
| 42>    C       -1.10729         0.27586        -2.02382
| 43>    C       -2.34607        -0.40108        -2.23536
| 44>    C       -2.72301        -1.01640        -3.36962
| 45>    N       -3.87913        -1.73569        -3.53000
| 46>    C       -4.89187        -1.86121        -2.60118
| 47>    C       -5.54950        -0.76286        -1.96431
| 48>    N       -5.33336         0.61350        -2.25709
| 49>    O       -4.69363         0.89556        -3.25058
| 50>    O       -5.84219         1.42324        -1.50512
| 51>    C       -6.52835        -1.14925        -1.08793
| 52>    S       -6.70764        -2.83606        -1.04628
| 53>    C       -5.39891        -3.08439        -2.17714
| 54>    C       -4.93865        -4.38819        -2.53807
| 55>    S       -3.63955        -4.56091        -3.70164
| 56>    C       -3.65905        -6.26351        -3.54808
| 57>    C       -4.58228        -6.69397        -2.64649
| 58>    C       -5.31687        -5.63043        -2.06164
| 59>    C       -6.38438        -5.88967        -1.04532
| 60>    C       -6.24239        -7.28707        -0.42860
| 61>    C       -5.12491        -7.30236         0.58355
| 62>    O       -4.28692        -8.14918         0.70900
| 63>    C       -6.07299        -8.35051        -1.51273
| 64>    C       -4.77232        -8.13160        -2.28155
| 65>    H        1.53989        -0.27611        -4.14920
| 66>    H       -0.05068         0.10955        -4.81012
| 67>    H        0.20214        -1.41971        -3.96130
| 68>    H        2.01297         1.25409        -2.07322
| 69>    H        2.84432         4.41165         2.09318
| 70>    H       -1.54728         2.83185         2.69952
| 71>    H       -2.90382         1.08973         2.06437
| 72>    H       -0.26699        -0.24225         1.24168
| 73>    H       -4.85233        -3.52795         1.09600
| 74>    H        0.44842        -2.44375         0.93445
| 75>    H       -0.12806        -2.27844        -0.72364
| 76>    H        0.02656        -4.82337         0.95321
| 77>    H        0.86853        -4.46098        -0.55837
| 78>    H       -1.42135        -4.32887        -1.69133
| 79>    H       -0.70965        -6.98917        -0.30549
| 80>    H       -2.32970        -5.56423         0.95754
| 81>    H       -3.35665        -5.24419        -0.43860
| 82>    H       -2.98890        -0.40636        -1.36614
| 83>    H       -2.10806        -0.99020        -4.25246
| 84>    H       -3.95424        -2.29871        -4.36269
| 85>    H       -7.15464        -0.50744        -0.50158
| 86>    H       -2.96093        -6.84952        -4.11023
| 87>    H       -7.36566        -5.79684        -1.52088
| 88>    H       -6.34112        -5.14183        -0.24969
| 89>    H       -7.15190        -7.49470         0.15122
| 90>    H       -5.15389        -6.42518         1.26484
| 91>    H       -6.92463        -8.29332        -2.19358
| 92>    H       -6.06276        -9.34150        -1.05754
| 93>    H       -4.75834        -8.74581        -3.18385
| 94>    H       -3.92697        -8.44688        -1.66396
| 95> *
| 96>
| 97>                          ****END OF INPUT****

CARTESIAN COORDINATES (ANGSTROEM)
---------------------------------
  C      0.469820   -0.363630   -3.978090
  C      0.110970    0.292340   -2.691210
  C      0.980340    1.040750   -1.881160
  C      0.260260    1.441310   -0.771740
  C      0.689810    2.215100    0.346220
  S      2.267840    2.956800    0.226080
  C      2.083920    3.765100    1.703410
  C      0.868360    3.494550    2.284790
  N      0.510970    4.085660    3.513190
  O      1.367720    4.703690    4.115680
  O     -0.642750    3.956790    3.910380
  C      0.054080    2.574810    1.532270
  N     -1.182120    2.204950    1.983300
  C     -1.851510    1.021460    1.821200
  C     -1.327310   -0.152350    1.425820
  C     -2.104360   -1.331920    1.208040
  S     -3.813200   -1.379910    1.561690
  C     -3.912450   -3.016000    1.037890
  C     -2.715190   -3.498670    0.609800
  C     -1.676660   -2.537720    0.700980
  C     -0.285890   -2.817620    0.216970
  C     -0.062470   -4.312610   -0.008060
  C     -1.237280   -4.916080   -0.785680
  C     -0.950630   -6.338480   -1.169280
  O     -0.985400   -6.778180   -2.284780
  C     -2.482200   -4.888270    0.109290
  O     -1.007430    0.986680   -0.874860
  C     -1.107290    0.275860   -2.023820
  C     -2.346070   -0.401080   -2.235360
  C     -2.723010   -1.016400   -3.369620
  N     -3.879130   -1.735690   -3.530000
  C     -4.891870   -1.861210   -2.601180
  C     -5.549500   -0.762860   -1.964310
  N     -5.333360    0.613500   -2.257090
  O     -4.693630    0.895560   -3.250580
  O     -5.842190    1.423240   -1.505120
  C     -6.528350   -1.149250   -1.087930
  S     -6.707640   -2.836060   -1.046280
  C     -5.398910   -3.084390   -2.177140
  C     -4.938650   -4.388190   -2.538070
  S     -3.639550   -4.560910   -3.701640
  C     -3.659050   -6.263510   -3.548080
  C     -4.582280   -6.693970   -2.646490
  C     -5.316870   -5.630430   -2.061640
  C     -6.384380   -5.889670   -1.045320
  C     -6.242390   -7.287070   -0.428600
  C     -5.124910   -7.302360    0.583550
  O     -4.286920   -8.149180    0.709000
  C     -6.072990   -8.350510   -1.512730
  C     -4.772320   -8.131600   -2.281550
  H      1.539890   -0.276110   -4.149200
  H     -0.050680    0.109550   -4.810120
  H      0.202140   -1.419710   -3.961300
  H      2.012970    1.254090   -2.073220
  H      2.844320    4.411650    2.093180
  H     -1.547280    2.831850    2.699520
  H     -2.903820    1.089730    2.064370
  H     -0.266990   -0.242250    1.241680
  H     -4.852330   -3.527950    1.096000
  H      0.448420   -2.443750    0.934450
  H     -0.128060   -2.278440   -0.723640
  H      0.026560   -4.823370    0.953210
  H      0.868530   -4.460980   -0.558370
  H     -1.421350   -4.328870   -1.691330
  H     -0.709650   -6.989170   -0.305490
  H     -2.329700   -5.564230    0.957540
  H     -3.356650   -5.244190   -0.438600
  H     -2.988900   -0.406360   -1.366140
  H     -2.108060   -0.990200   -4.252460
  H     -3.954240   -2.298710   -4.362690
  H     -7.154640   -0.507440   -0.501580
  H     -2.960930   -6.849520   -4.110230
  H     -7.365660   -5.796840   -1.520880
  H     -6.341120   -5.141830   -0.249690
  H     -7.151900   -7.494700    0.151220
  H     -5.153890   -6.425180    1.264840
  H     -6.924630   -8.293320   -2.193580
  H     -6.062760   -9.341500   -1.057540
  H     -4.758340   -8.745810   -3.183850
  H     -3.926970   -8.446880   -1.663960

 Total Charge           Charge          ....    0
 Multiplicity           Mult            ....    1
 Number of Electrons    NEL             ....  388
 Basis Dimension        Dim             ....  866

ORBITAL ENERGIES
----------------

  NO   OCC          E(Eh)            E(eV)
   0   2.0000     -88.983426     -2421.3621
   1   2.0000     -88.976139     -2421.1638
   2   2.0000     -88.960444     -2420.7367
   3   2.0000     -88.937070     -2420.1007
   4   2.0000     -19.274084      -524.4745
   5   2.0000     -19.243982      -523.6554
   6   2.0000     -19.240667      -523.5652
   7   2.0000     -19.234497      -523.3973
   8   2.0000     -19.230430      -523.2866
   9   2.0000     -19.227305      -523.2016
  10   2.0000     -19.209607      -522.7200
  11   2.0000     -14.650574      -398.6624
  12   2.0000     -14.641055      -398.4034
  13   2.0000     -14.445028      -393.0692
  14   2.0000     -14.435496      -392.8098
  15   2.0000     -10.365074      -282.0480
  16   2.0000     -10.347874      -281.5800
  17   2.0000     -10.334663      -281.2205
  18   2.0000     -10.334128      -281.2059
  19   2.0000     -10.328324      -281.0480
  20   2.0000     -10.327709      -281.0312
  21   2.0000     -10.323411      -280.9143
  22   2.0000     -10.322291      -280.8838
  23   2.0000     -10.320760      -280.8422
  24   2.0000     -10.320205      -280.8271
  25   2.0000     -10.312535      -280.6183
  26   2.0000     -10.312352      -280.6134
  27   2.0000     -10.309333      -280.5312
  28   2.0000     -10.307901      -280.4923
  29   2.0000     -10.297324      -280.2044
  30   2.0000     -10.292101      -280.0623
  31   2.0000     -10.291000      -280.0324
  32   2.0000     -10.285830      -279.8917
  33   2.0000     -10.285682      -279.8876
  34   2.0000     -10.281744      -279.7805
  35   2.0000     -10.274983      -279.5965
  36   2.0000     -10.272911      -279.5401
  37   2.0000     -10.272324      -279.5242
  38   2.0000     -10.269889      -279.4579
  39   2.0000     -10.268424      -279.4180
  40   2.0000     -10.267876      -279.4031
  41   2.0000     -10.266500      -279.3657
  42   2.0000     -10.265362      -279.3347
  43   2.0000     -10.263880      -279.2944
  44   2.0000     -10.262122      -279.2465
  45   2.0000     -10.261286      -279.2238
  46   2.0000     -10.258811      -279.1564
  47   2.0000     -10.255827      -279.0753
  48   2.0000     -10.255109      -279.0557
  49   2.0000     -10.253406      -279.0094
  50   2.0000      -8.078002      -219.8136
  51   2.0000      -8.071661      -219.6411
  52   2.0000      -8.055082      -219.1899
  53   2.0000      -8.032312      -218.5703
  54   2.0000      -6.047283      -164.5549
  55   2.0000      -6.042967      -164.4375
  56   2.0000      -6.040923      -164.3819
  57   2.0000      -6.040441      -164.3687
  58   2.0000      -6.036668      -164.2661
  59   2.0000      -6.033917      -164.1912
  60   2.0000      -6.024487      -163.9346
  61   2.0000      -6.020070      -163.8144
  62   2.0000      -6.017413      -163.7421
  63   2.0000      -6.001628      -163.3126
  64   2.0000      -5.997534      -163.2012
  65   2.0000      -5.994473      -163.1179
  66   2.0000      -1.319749       -35.9122
  67   2.0000      -1.312950       -35.7272
  68   2.0000      -1.194693       -32.5093
  69   2.0000      -1.141266       -31.0554
  70   2.0000      -1.138294       -30.9746
  71   2.0000      -1.131725       -30.7958
  72   2.0000      -1.123043       -30.5595
  73   2.0000      -1.056990       -28.7622
  74   2.0000      -1.048327       -28.5264
  75   2.0000      -1.000780       -27.2326
  76   2.0000      -0.992538       -27.0083
  77   2.0000      -0.986692       -26.8492
  78   2.0000      -0.970797       -26.4167
  79   2.0000      -0.930136       -25.3103
  80   2.0000      -0.916064       -24.9274
  81   2.0000      -0.913053       -24.8454
  82   2.0000      -0.905082       -24.6285
  83   2.0000      -0.899451       -24.4753
  84   2.0000      -0.880818       -23.9683
  85   2.0000      -0.869864       -23.6702
  86   2.0000      -0.866612       -23.5817
  87   2.0000      -0.852607       -23.2006
  88   2.0000      -0.843659       -22.9571
  89   2.0000      -0.837534       -22.7905
  90   2.0000      -0.829828       -22.5808
  91   2.0000      -0.817108       -22.2346
  92   2.0000      -0.808647       -22.0044
  93   2.0000      -0.798535       -21.7293
  94   2.0000      -0.784652       -21.3515
  95   2.0000      -0.765475       -20.8296
  96   2.0000      -0.762274       -20.7425
  97   2.0000      -0.758881       -20.6502
  98   2.0000      -0.742899       -20.2153
  99   2.0000      -0.722021       -19.6472
 100   2.0000      -0.718983       -19.5645
 101   2.0000      -0.713625       -19.4187
 102   2.0000      -0.701891       -19.0994
 103   2.0000      -0.690482       -18.7890
 104   2.0000      -0.686995       -18.6941
 105   2.0000      -0.681356       -18.5406
 106   2.0000      -0.673562       -18.3286
 107   2.0000      -0.664840       -18.0912
 108   2.0000      -0.662189       -18.0191
 109   2.0000      -0.648970       -17.6594
 110   2.0000      -0.639761       -17.4088
 111   2.0000      -0.636124       -17.3098
 112   2.0000      -0.630695       -17.1621
 113   2.0000      -0.629102       -17.1187
 114   2.0000      -0.623530       -16.9671
 115   2.0000      -0.622654       -16.9433
 116   2.0000      -0.615845       -16.7580
 117   2.0000      -0.609434       -16.5835
 118   2.0000      -0.604826       -16.4582
 119   2.0000      -0.598554       -16.2875
 120   2.0000      -0.595545       -16.2056
 121   2.0000      -0.589055       -16.0290
 122   2.0000      -0.583851       -15.8874
 123   2.0000      -0.580790       -15.8041
 124   2.0000      -0.572386       -15.5754
 125   2.0000      -0.568935       -15.4815
 126   2.0000      -0.560931       -15.2637
 127   2.0000      -0.557450       -15.1690
 128   2.0000      -0.550571       -14.9818
 129   2.0000      -0.547025       -14.8853
 130   2.0000      -0.545360       -14.8400
 131   2.0000      -0.538254       -14.6466
 132   2.0000      -0.535165       -14.5626
 133   2.0000      -0.529963       -14.4210
 134   2.0000      -0.528323       -14.3764
 135   2.0000      -0.526958       -14.3392
 136   2.0000      -0.520384       -14.1604
 137   2.0000      -0.516107       -14.0440
 138   2.0000      -0.515462       -14.0264
 139   2.0000      -0.511973       -13.9315
 140   2.0000      -0.504090       -13.7170
 141   2.0000      -0.501341       -13.6422
 142   2.0000      -0.497731       -13.5440
 143   2.0000      -0.492847       -13.4110
 144   2.0000      -0.491823       -13.3832
 145   2.0000      -0.491203       -13.3663
 146   2.0000      -0.488826       -13.3016
 147   2.0000      -0.487119       -13.2552
 148   2.0000      -0.483281       -13.1507
 149   2.0000      -0.481919       -13.1137
 150   2.0000      -0.479678       -13.0527
 151   2.0000      -0.474908       -12.9229
 152   2.0000      -0.471622       -12.8335
 153   2.0000      -0.467695       -12.7266
 154   2.0000      -0.462863       -12.5951
 155   2.0000      -0.461675       -12.5628
 156   2.0000      -0.457705       -12.4548
 157   2.0000      -0.456841       -12.4313
 158   2.0000      -0.453847       -12.3498
 159   2.0000      -0.448640       -12.2081
 160   2.0000      -0.445622       -12.1260
 161   2.0000      -0.440317       -11.9816
 162   2.0000      -0.435224       -11.8430
 163   2.0000      -0.433335       -11.7916
 164   2.0000      -0.429016       -11.6741
 165   2.0000      -0.419276       -11.4091
 166   2.0000      -0.414390       -11.2761
 167   2.0000      -0.413927       -11.2635
 168   2.0000      -0.409650       -11.1472
 169   2.0000      -0.407561       -11.0903
 170   2.0000      -0.406044       -11.0490
 171   2.0000      -0.399513       -10.8713
 172   2.0000      -0.393110       -10.6971
 173   2.0000      -0.387764       -10.5516
 174   2.0000      -0.385780       -10.4976
 175   2.0000      -0.381777       -10.3887
 176   2.0000      -0.379322       -10.3219
 177   2.0000      -0.373737       -10.1699
 178   2.0000      -0.372032       -10.1235
 179   2.0000      -0.364788        -9.9264
 180   2.0000      -0.363505        -9.8915
 181   2.0000      -0.356040        -9.6884
 182   2.0000      -0.354416        -9.6442
 183   2.0000      -0.342402        -9.3172
 184   2.0000      -0.334567        -9.1040
 185   2.0000      -0.332638        -9.0515
 186   2.0000      -0.321764        -8.7556
 187   2.0000      -0.315763        -8.5923
 188   2.0000      -0.310214        -8.4414
 189   2.0000      -0.295899        -8.0518
 190   2.0000      -0.293396        -7.9837
 191   2.0000      -0.268556        -7.3078
 192   2.0000      -0.238654        -6.4941
 193   2.0000      -0.213096        -5.7986
 194   0.0000      -0.050190        -1.3657
 195   0.0000      -0.042399        -1.1537
 196   0.0000      -0.026211        -0.7132
 197   0.0000      -0.011646        -0.3169
 198   0.0000       0.010779         0.2933

MULLIKEN ATOMIC CHARGES
-----------------------
   0 C :    0.120510
   1 C :   -0.134727
   2 C :   -0.116893
   3 C :    0.154820
   4 C :   -0.248441
   5 S :    0.168280
   6 C :   -0.096192
   7 C :    0.101175
   8 N :    0.282134
   9 O :   -0.240430
  10 O :   -0.272811
  11 C :    0.128394
  12 N :   -0.018880
  13 C :    0.039803
  14 C :    0.013889
  15 C :   -0.164183
  16 S :    0.072200
  17 C :   -0.146584
  18 C :   -0.016601
  19 C :   -0.079502
  20 C :    0.163864
  21 C :    0.032988
  22 C :   -0.132086
  23 C :    0.174864
  24 O :   -0.188139
  25 C :    0.147877
  26 O :   -0.204427
  27 C :    0.138423
  28 C :   -0.036225
  29 C :    0.052952
  30 N :   -0.058816
  31 C :    0.084492
  32 C :    0.130411
  33 N :    0.252755
  34 O :   -0.219625
  35 O :   -0.252052
  36 C :   -0.089335
  37 S :    0.121652
  38 C :   -0.161742
  39 C :   -0.121801
  40 S :    0.073014
  41 C :   -0.078554
  42 C :   -0.081380
  43 C :   -0.103011
  44 C :    0.114054
  45 C :   -0.108102
  46 C :    0.141179
  47 O :   -0.170971
  48 C :    0.074834
  49 C :    0.122587
  50 H :    0.004865
  51 H :    0.035201
  52 H :    0.020206
  53 H :   -0.028001
  54 H :    0.042483
  55 H :    0.143540
  56 H :    0.007331
  57 H :   -0.006333
  58 H :   -0.015405
  59 H :    0.012197
  60 H :    0.022889
  61 H :    0.004439
  62 H :    0.003696
  63 H :    0.010094
  64 H :   -0.011421
  65 H :    0.020455
  66 H :    0.019197
  67 H :    0.011753
  68 H :   -0.009942
  69 H :    0.140631
  70 H :    0.040515
  71 H :    0.025156
  72 H :    0.027960
  73 H :    0.022046
  74 H :    0.027748
  75 H :   -0.005328
  76 H :    0.005235
  77 H :    0.013502
  78 H :    0.009768
  79 H :    0.039883
Sum of atomic charges:   -0.0000000

LOEWDIN ATOMIC CHARGES
----------------------
   0 C :   -0.048319
   1 C :   -0.079387
   2 C :   -0.078017
   3 C :   -0.011598
   4 C :   -0.215743
   5 S :    0.493391
   6 C :   -0.151468
   7 C :   -0.093042
   8 N :    0.295387
   9 O :   -0.203068
  10 O :   -0.218168
  11 C :   -0.005795
  12 N :    0.028581
  13 C :    0.017655
  14 C :   -0.096788
  15 C :   -0.163333
  16 S :    0.408043
  17 C :   -0.212334
  18 C :   -0.061386
  19 C :   -0.076146
  20 C :   -0.022430
  21 C :   -0.018483
  22 C :   -0.067016
  23 C :    0.123425
  24 O :   -0.131290
  25 C :   -0.015813
  26 O :    0.033201
  27 C :    0.032255
  28 C :   -0.107486
  29 C :    0.033766
  30 N :    0.015872
  31 C :   -0.020417
  32 C :   -0.080075
  33 N :    0.284017
  34 O :   -0.187856
  35 O :   -0.216406
  36 C :   -0.157548
  37 S :    0.499946
  38 C :   -0.191563
  39 C :   -0.193228
  40 S :    0.451707
  41 C :   -0.174773
  42 C :   -0.068193
  43 C :   -0.073269
  44 C :   -0.030539
  45 C :   -0.070741
  46 C :    0.118184
  47 O :   -0.119344
  48 C :   -0.018745
  49 C :   -0.026124
  50 H :    0.032928
  51 H :    0.034316
  52 H :    0.030916
  53 H :    0.019998
  54 H :    0.038781
  55 H :    0.074176
  56 H :    0.019781
  57 H :    0.027680
  58 H :    0.001433
  59 H :    0.031073
  60 H :    0.034942
  61 H :    0.022069
  62 H :    0.024826
  63 H :    0.023205
  64 H :   -0.006715
  65 H :    0.031140
  66 H :    0.028464
  67 H :    0.031011
  68 H :    0.026372
  69 H :    0.062282
  70 H :    0.038558
  71 H :    0.027183
  72 H :    0.036330
  73 H :    0.012096
  74 H :    0.047196
  75 H :   -0.007131
  76 H :    0.024720
  77 H :    0.031047
  78 H :    0.034147
  79 H :    0.037677

  Mayer bond orders larger than 0.100000
B(  0-C ,  1-C ) :   1.1060 B(  0-C , 50-H ) :   0.9439 B(  0-C , 51-H ) :   0.9406
B(  0-C , 52-H ) :   0.9407 B(  1-C ,  2-C ) :   1.2559 B(  1-C , 27-C ) :   1.4756
B(  2-C ,  3-C ) :   1.4524 B(  2-C , 53-H ) :   1.0023 B(  3-C ,  4-C ) :   1.1217
B(  3-C , 26-O ) :   1.1607 B(  3-C , 27-C ) :   0.1081 B(  4-C ,  5-S ) :   1.1322
B(  4-C , 11-C ) :   1.4332 B(  5-S ,  6-C ) :   1.2091 B(  6-C ,  7-C ) :   1.5000
B(  6-C , 54-H ) :   0.9631 B(  7-C ,  8-N ) :   0.9495 B(  7-C , 11-C ) :   1.1943
B(  8-N ,  9-O ) :   1.5562 B(  8-N , 10-O ) :   1.4631 B(  9-O , 10-O ) :   0.2520
B( 10-O , 55-H ) :   0.1003 B( 11-C , 12-N ) :   1.2382 B( 12-N , 13-C ) :   1.1405
B( 12-N , 55-H ) :   0.8650 B( 13-C , 14-C ) :   1.6860 B( 13-C , 56-H ) :   0.9669
B( 14-C , 15-C ) :   1.1828 B( 14-C , 57-H ) :   0.9463 B( 15-C , 16-S ) :   1.1198
B( 15-C , 19-C ) :   1.5312 B( 16-S , 17-C ) :   1.1221 B( 17-C , 18-C ) :   1.5879
B( 17-C , 58-H ) :   0.9644 B( 18-C , 19-C ) :   1.2860 B( 18-C , 25-C ) :   1.0137
B( 19-C , 20-C ) :   1.0553 B( 20-C , 21-C ) :   1.0957 B( 20-C , 59-H ) :   0.9067
B( 20-C , 60-H ) :   0.9076 B( 21-C , 22-C ) :   1.0144 B( 21-C , 61-H ) :   0.9356
B( 21-C , 62-H ) :   0.9363 B( 22-C , 23-C ) :   0.9432 B( 22-C , 25-C ) :   1.0377
B( 22-C , 63-H ) :   0.9191 B( 23-C , 24-O ) :   2.1695 B( 23-C , 64-H ) :   0.9370
B( 25-C , 65-H ) :   0.9063 B( 25-C , 66-H ) :   0.9158 B( 26-O , 27-C ) :   1.1156
B( 27-C , 28-C ) :   1.1627 B( 28-C , 29-C ) :   1.6790 B( 28-C , 67-H ) :   0.9279
B( 29-C , 30-N ) :   1.1289 B( 29-C , 68-H ) :   0.9662 B( 30-N , 31-C ) :   1.1280
B( 30-N , 69-H ) :   0.9072 B( 31-C , 32-C ) :   1.2414 B( 31-C , 38-C ) :   1.4867
B( 32-C , 33-N ) :   0.9147 B( 32-C , 36-C ) :   1.5307 B( 33-N , 34-O ) :   1.5464
B( 33-N , 35-O ) :   1.5291 B( 34-O , 35-O ) :   0.2689 B( 36-C , 37-S ) :   1.1801
B( 36-C , 70-H ) :   0.9556 B( 37-S , 38-C ) :   1.1274 B( 38-C , 39-C ) :   1.1512
B( 39-C , 40-S ) :   1.1239 B( 39-C , 43-C ) :   1.5159 B( 40-S , 41-C ) :   1.1344
B( 41-C , 42-C ) :   1.5963 B( 41-C , 71-H ) :   0.9655 B( 42-C , 43-C ) :   1.2875
B( 42-C , 49-C ) :   1.0330 B( 43-C , 44-C ) :   1.0430 B( 44-C , 45-C ) :   1.0427
B( 44-C , 72-H ) :   0.9066 B( 44-C , 73-H ) :   0.9085 B( 45-C , 46-C ) :   0.9302
B( 45-C , 48-C ) :   1.0451 B( 45-C , 74-H ) :   0.8906 B( 46-C , 47-O ) :   2.1856
B( 46-C , 75-H ) :   0.9401 B( 48-C , 49-C ) :   1.0844 B( 48-C , 76-H ) :   0.9452
B( 48-C , 77-H ) :   0.9290 B( 49-C , 78-H ) :   0.9212 B( 49-C , 79-H ) :   0.9094

-----------------------------------------------------------------------------
         ABSORPTION SPECTRUM VIA TRANSITION ELECTRIC DIPOLE MOMENTS
-----------------------------------------------------------------------------
State   Energy  Wavelength   fosc         T2         TX        TY        TZ
        (cm-1)    (nm)                  (au**2)     (au)      (au)      (au)
-----------------------------------------------------------------------------
   0   17673.9    565.8   0.095199314   1.77327   0.75287   0.87222   0.66761
   1   18648.9    536.2   0.022666573   0.40014   0.49927  -0.38838   0.00507
   2   23014.2    434.5   0.148282269   2.12114  -0.77189  -0.62786  -1.06354
   3   24458.0    408.9   0.035862793   0.48272  -0.31035   0.28181   0.55407
   4   24631.4    406.0   0.002866175   0.03831   0.15203   0.04858   0.11329
   5   25722.6    388.8   0.146645857   1.87686  -0.49659  -0.75900   1.02673
   6   28522.7    350.6   0.230014205   2.65484   0.89626   1.35153   0.15787
   7   30401.1    328.9   0.006882838   0.07453   0.02918  -0.12421  -0.24136
   8   30687.5    325.9   0.032624977   0.35000  -0.28904   0.41076   0.31262
   9   33648.3    297.2   1.022138543  10.00052  -1.47328  -2.43201  -1.38395
  10   34701.9    288.2   0.022653908   0.21491   0.28145  -0.35396   0.10206
  11   34992.4    285.8   0.269363759   2.53420  -0.72851  -1.21872  -0.71985
  12   35286.2    283.4   0.061962920   0.57810  -0.38952   0.64902   0.07170
  13   35804.9    279.3   0.051378963   0.47241   0.43458  -0.51643   0.12981
  14   35990.2    277.9   0.113770840   1.04069  -0.44317   0.91423  -0.09203
  15   36991.9    270.3   0.024529180   0.21830  -0.03877   0.42806   0.18321
  16   37161.3    269.1   0.041052492   0.36368   0.27930   0.50092  -0.18641
  17   37290.3    268.2   0.002862015   0.02527  -0.09797   0.11060   0.05863
  18   37995.3    263.2   0.041101672   0.35613  -0.22762  -0.16325  -0.52694
  19   38571.6    259.3   0.061967463   0.52890  -0.67001  -0.21418   0.18468
  20   39103.2    255.7   0.032738341   0.27563  -0.33006  -0.31472   0.26007
  21   39324.4    254.3   0.134684342   1.12754   0.88447   0.52621   0.26145
  22   39520.1    253.0   0.013485485   0.11234  -0.33476   0.00051   0.01646
  23   40086.2    249.5   0.005483510   0.04503   0.01581  -0.17921  -0.11256

FINAL SINGLE POINT ENERGY     -3686.816477050913

DIPOLE MOMENT
-------------
                                X             Y             Z
Electronic contribution:     -1.20330      45.24946       9.05598
Nuclear contribution   :      0.67930     -47.09232     -10.18546
                        -----------------------------------------
Total Dipole Moment    :     -0.52400      -1.84286      -1.12948
                        -----------------------------------------
Magnitude (a.u.)       :      2.22405
Magnitude (Debye)      :      5.65310

Rotational constants in cm-1:     0.003316     0.001077     0.001047
Rotational constants in MHz :    99.407495    32.301063    31.387676

                             ****ORCA TERMINATED NORMALLY****
TOTAL RUN TIME: 0 days 0 hours 9 minutes 40 seconds 221 msec
