                         Program Version 4.2.0 -  RELEASE  -
|  1> # ORCA input file
|  2> # SCF done       -129.111163868552          0.000204204136
|  3> ! CAM-B3LYP def2-SVP def2/J RIJCOSX Grid4 TightSCF
|  4> %maxcore 5000
|  5> %tddft
|  6>     Mode sTDDFT
|  7>     Ethresh 5.0
|  8>     maxcore 5000
|  9> end
| 10>
| 11> %pal
| 12>   nprocs 6
| 13>   end
| 14> * xyz 0 1
| 15>    O        1.48688        -0.52118         0.00491
| 16>    N        2.46544         0.19000         0.13114
| 17>    O        2.98153         0.84386        -0.76465
| 18>    C        3.06366         0.27931         1.39671
| 19>    C        2.70399        -0.33860         2.57759
| 20>    C        3.64010         0.09830         3.53657
| 21>    C        3.94306        -0.06544         4.89043
| 22>    C        3.28978        -0.85458         5.85662
| 23>    C        3.58706        -1.03736         7.21014
| 24>    C        2.62309        -1.92138         7.68877
| 25>    C        1.79264        -2.22502         6.59373
| 26>    O        2.18969        -1.58690         5.49242
| 27>    C        0.79228        -3.12329         7.03540
| 28>    O       -0.26727        -3.78941         6.57450
| 29>    C       -0.76615        -4.48963         7.63923
| 30>    C       -1.91997        -5.30229         7.44690
| 31>    C       -2.63411        -5.50448         6.29406
| 32>    C       -3.72819        -6.37078         6.46355
| 33>    C       -3.84125        -6.82374         7.74612
| 34>    O       -4.75468        -7.65832         8.27921
| 35>    S       -2.60406        -6.19814         8.78288
| 36>    C       -0.01496        -4.26557         8.78512
| 37>    C        0.99971        -3.37864         8.40181
| 38>    C        2.15901        -2.63769         8.87745
| 39>    S        2.79602        -2.60739        10.37421
| 40>    S        5.34322         0.88869         5.29895
| 41>    C        5.54016         1.51016         3.67508
| 42>    C        6.58608         2.40009         3.33359
| 43>    C        7.59136         2.95226         4.12063
| 44>    C        8.34492         3.75281         3.25717
| 45>    C        7.74752         3.63557         1.99409
| 46>    O        6.68664         2.82364         2.03105
| 47>    C        8.48554         4.43005         1.07872
| 48>    O        8.49733         4.76969        -0.20867
| 49>    C        9.56482         5.61021        -0.36875
| 50>    C        9.82400         6.13589        -1.67946
| 51>    C        9.03563         5.82902        -2.82931
| 52>    C        9.46468         6.43348        -3.95548
| 53>    S       10.85936         7.41432        -3.67225
| 54>    C       10.85624         6.99178        -1.99090
| 55>    O       11.77498         7.46958        -1.13255
| 56>    C       10.23485         5.80541         0.82755
| 57>    C        9.53859         5.03977         1.77578
| 58>    C        9.50161         4.64575         3.17756
| 59>    S       10.50527         5.08703         4.37952
| 60>    C        4.54590         0.98350         2.87124
| 61>    N        4.17241         1.07625         1.56921
| 62>    H        1.88043        -1.00793         2.71676
| 63>    H        4.39746        -0.57618         7.73627
| 64>    H       -2.37356        -5.04142         5.36024
| 65>    H       -4.40320        -6.64776         5.67303
| 66>    H       -5.38786        -7.93444         7.60517
| 67>    H       -0.19821        -4.69581         9.74793
| 68>    H        7.72985         2.77837         5.16764
| 69>    H        8.18410         5.17562        -2.78413
| 70>    H        9.06293         6.37774        -4.94654
| 71>    H       12.39742         8.05241        -1.58374
| 72>    H       11.10029         6.41747         0.96780
| 73>    H        4.60010         1.61584         0.83326
| 74> *
| 75>
| 76>                          ****END OF INPUT****

CARTESIAN COORDINATES (ANGSTROEM)
---------------------------------
  O      1.486880   -0.521180    0.004910
  N      2.465440    0.190000    0.131140
  O      2.981530    0.843860   -0.764650
  C      3.063660    0.279310    1.396710
  C      2.703990   -0.338600    2.577590
  C      3.640100    0.098300    3.536570
  C      3.943060   -0.065440    4.890430
  C      3.289780   -0.854580    5.856620
  C      3.587060   -1.037360    7.210140
  C      2.623090   -1.921380    7.688770
  C      1.792640   -2.225020    6.593730
  O      2.189690   -1.586900    5.492420
  C      0.792280   -3.123290    7.035400
  O     -0.267270   -3.789410    6.574500
  C     -0.766150   -4.489630    7.639230
  C     -1.919970   -5.302290    7.446900
  C     -2.634110   -5.504480    6.294060
  C     -3.728190   -6.370780    6.463550
  C     -3.841250   -6.823740    7.746120
  O     -4.754680   -7.658320    8.279210
  S     -2.604060   -6.198140    8.782880
  C     -0.014960   -4.265570    8.785120
  C      0.999710   -3.378640    8.401810
  C      2.159010   -2.637690    8.877450
  S      2.796020   -2.607390   10.374210
  S      5.343220    0.888690    5.298950
  C      5.540160    1.510160    3.675080
  C      6.586080    2.400090    3.333590
  C      7.591360    2.952260    4.120630
  C      8.344920    3.752810    3.257170
  C      7.747520    3.635570    1.994090
  O      6.686640    2.823640    2.031050
  C      8.485540    4.430050    1.078720
  O      8.497330    4.769690   -0.208670
  C      9.564820    5.610210   -0.368750
  C      9.824000    6.135890   -1.679460
  C      9.035630    5.829020   -2.829310
  C      9.464680    6.433480   -3.955480
  S     10.859360    7.414320   -3.672250
  C     10.856240    6.991780   -1.990900
  O     11.774980    7.469580   -1.132550
  C     10.234850    5.805410    0.827550
  C      9.538590    5.039770    1.775780
  C      9.501610    4.645750    3.177560
  S     10.505270    5.087030    4.379520
  C      4.545900    0.983500    2.871240
  N      4.172410    1.076250    1.569210
  H      1.880430   -1.007930    2.716760
  H      4.397460   -0.576180    7.736270
  H     -2.373560   -5.041420    5.360240
  H     -4.403200   -6.647760    5.673030
  H     -5.387860   -7.934440    7.605170
  H     -0.198210   -4.695810    9.747930
  H      7.729850    2.778370    5.167640
  H      8.184100    5.175620   -2.784130
  H      9.062930    6.377740   -4.946540
  H     12.397420    8.052410   -1.583740
  H     11.100290    6.417470    0.967800
  H      4.600100    1.615840    0.833260

 Total Charge           Charge          ....    0
 Multiplicity           Mult            ....    1
 Number of Electrons    NEL             ....  362
 Basis Dimension        Dim             ....  738

ORBITAL ENERGIES
----------------

  NO   OCC          E(Eh)            E(eV)
   0   2.0000     -88.972090     -2421.0537
   1   2.0000     -88.959033     -2420.6983
   2   2.0000     -88.958487     -2420.6835
   3   2.0000     -88.913651     -2419.4634
   4   2.0000     -88.907610     -2419.2991
   5   2.0000     -19.315797      -525.6096
   6   2.0000     -19.313349      -525.5430
   7   2.0000     -19.310975      -525.4784
   8   2.0000     -19.304658      -525.3065
   9   2.0000     -19.272066      -524.4196
  10   2.0000     -19.264751      -524.2205
  11   2.0000     -19.238185      -523.4976
  12   2.0000     -19.237770      -523.4863
  13   2.0000     -14.648027      -398.5931
  14   2.0000     -14.469924      -393.7466
  15   2.0000     -10.359530      -281.8971
  16   2.0000     -10.358981      -281.8822
  17   2.0000     -10.355099      -281.7766
  18   2.0000     -10.352200      -281.6977
  19   2.0000     -10.347694      -281.5751
  20   2.0000     -10.345905      -281.5264
  21   2.0000     -10.344927      -281.4998
  22   2.0000     -10.344194      -281.4798
  23   2.0000     -10.343605      -281.4638
  24   2.0000     -10.343101      -281.4501
  25   2.0000     -10.340482      -281.3788
  26   2.0000     -10.338393      -281.3220
  27   2.0000     -10.331412      -281.1320
  28   2.0000     -10.323095      -280.9057
  29   2.0000     -10.319934      -280.8197
  30   2.0000     -10.311482      -280.5897
  31   2.0000     -10.300550      -280.2922
  32   2.0000     -10.292030      -280.0604
  33   2.0000     -10.290029      -280.0059
  34   2.0000     -10.289725      -279.9977
  35   2.0000     -10.288671      -279.9690
  36   2.0000     -10.282321      -279.7962
  37   2.0000     -10.282300      -279.7956
  38   2.0000     -10.281647      -279.7778
  39   2.0000     -10.279956      -279.7318
  40   2.0000     -10.277882      -279.6754
  41   2.0000     -10.276898      -279.6486
  42   2.0000     -10.275516      -279.6110
  43   2.0000     -10.274956      -279.5958
  44   2.0000     -10.270701      -279.4800
  45   2.0000     -10.270258      -279.4679
  46   2.0000     -10.268027      -279.4072
  47   2.0000      -8.066410      -219.4982
  48   2.0000      -8.056050      -219.2163
  49   2.0000      -8.054714      -219.1799
  50   2.0000      -8.009591      -217.9520
  51   2.0000      -8.003579      -217.7885
  52   2.0000      -6.036148      -164.2519
  53   2.0000      -6.031791      -164.1334
  54   2.0000      -6.028071      -164.0321
  55   2.0000      -6.025495      -163.9620
  56   2.0000      -6.024239      -163.9279
  57   2.0000      -6.021275      -163.8472
  58   2.0000      -6.020145      -163.8165
  59   2.0000      -6.017732      -163.7508
  60   2.0000      -6.016159      -163.7080
  61   2.0000      -5.979388      -162.7074
  62   2.0000      -5.977739      -162.6626
  63   2.0000      -5.973330      -162.5426
  64   2.0000      -5.971730      -162.4990
  65   2.0000      -5.968183      -162.4025
  66   2.0000      -5.962228      -162.2405
  67   2.0000      -1.317349       -35.8469
  68   2.0000      -1.229271       -33.4502
  69   2.0000      -1.224557       -33.3219
  70   2.0000      -1.222403       -33.2633
  71   2.0000      -1.216696       -33.1080
  72   2.0000      -1.167576       -31.7714
  73   2.0000      -1.160606       -31.5817
  74   2.0000      -1.136756       -30.9327
  75   2.0000      -1.096308       -29.8320
  76   2.0000      -0.988548       -26.8998
  77   2.0000      -0.984985       -26.8028
  78   2.0000      -0.980332       -26.6762
  79   2.0000      -0.977939       -26.6111
  80   2.0000      -0.975599       -26.5474
  81   2.0000      -0.918099       -24.9827
  82   2.0000      -0.901282       -24.5251
  83   2.0000      -0.899497       -24.4765
  84   2.0000      -0.895396       -24.3650
  85   2.0000      -0.893387       -24.3103
  86   2.0000      -0.877616       -23.8812
  87   2.0000      -0.866451       -23.5773
  88   2.0000      -0.863452       -23.4957
  89   2.0000      -0.859981       -23.4013
  90   2.0000      -0.849871       -23.1262
  91   2.0000      -0.833848       -22.6901
  92   2.0000      -0.825687       -22.4681
  93   2.0000      -0.810307       -22.0496
  94   2.0000      -0.801127       -21.7998
  95   2.0000      -0.783959       -21.3326
  96   2.0000      -0.766516       -20.8580
  97   2.0000      -0.757967       -20.6253
  98   2.0000      -0.752948       -20.4888
  99   2.0000      -0.723166       -19.6784
 100   2.0000      -0.710053       -19.3215
 101   2.0000      -0.698825       -19.0160
 102   2.0000      -0.696607       -18.9556
 103   2.0000      -0.688899       -18.7459
 104   2.0000      -0.684097       -18.6152
 105   2.0000      -0.675528       -18.3821
 106   2.0000      -0.668883       -18.2012
 107   2.0000      -0.664360       -18.0781
 108   2.0000      -0.660809       -17.9815
 109   2.0000      -0.658029       -17.9059
 110   2.0000      -0.647113       -17.6088
 111   2.0000      -0.643288       -17.5048
 112   2.0000      -0.638263       -17.3680
 113   2.0000      -0.631226       -17.1765
 114   2.0000      -0.630586       -17.1591
 115   2.0000      -0.623305       -16.9610
 116   2.0000      -0.611751       -16.6466
 117   2.0000      -0.607293       -16.5253
 118   2.0000      -0.593448       -16.1486
 119   2.0000      -0.586524       -15.9601
 120   2.0000      -0.585931       -15.9440
 121   2.0000      -0.581645       -15.8274
 122   2.0000      -0.581006       -15.8100
 123   2.0000      -0.572451       -15.5772
 124   2.0000      -0.559362       -15.2210
 125   2.0000      -0.558924       -15.2091
 126   2.0000      -0.554418       -15.0865
 127   2.0000      -0.550134       -14.9699
 128   2.0000      -0.543381       -14.7862
 129   2.0000      -0.534127       -14.5343
 130   2.0000      -0.528181       -14.3725
 131   2.0000      -0.526736       -14.3332
 132   2.0000      -0.519026       -14.1234
 133   2.0000      -0.516130       -14.0446
 134   2.0000      -0.513361       -13.9693
 135   2.0000      -0.512986       -13.9591
 136   2.0000      -0.512585       -13.9481
 137   2.0000      -0.505351       -13.7513
 138   2.0000      -0.503598       -13.7036
 139   2.0000      -0.499758       -13.5991
 140   2.0000      -0.499306       -13.5868
 141   2.0000      -0.495603       -13.4860
 142   2.0000      -0.490287       -13.3414
 143   2.0000      -0.486355       -13.2344
 144   2.0000      -0.479407       -13.0453
 145   2.0000      -0.476702       -12.9717
 146   2.0000      -0.465638       -12.6706
 147   2.0000      -0.459077       -12.4921
 148   2.0000      -0.454118       -12.3572
 149   2.0000      -0.451100       -12.2750
 150   2.0000      -0.449587       -12.2339
 151   2.0000      -0.446071       -12.1382
 152   2.0000      -0.445757       -12.1297
 153   2.0000      -0.438393       -11.9293
 154   2.0000      -0.437364       -11.9013
 155   2.0000      -0.433256       -11.7895
 156   2.0000      -0.431673       -11.7464
 157   2.0000      -0.431188       -11.7332
 158   2.0000      -0.426818       -11.6143
 159   2.0000      -0.423185       -11.5154
 160   2.0000      -0.422630       -11.5004
 161   2.0000      -0.404040       -10.9945
 162   2.0000      -0.385764       -10.4972
 163   2.0000      -0.377084       -10.2610
 164   2.0000      -0.371154       -10.0996
 165   2.0000      -0.370325       -10.0770
 166   2.0000      -0.367711       -10.0059
 167   2.0000      -0.359746        -9.7892
 168   2.0000      -0.355901        -9.6846
 169   2.0000      -0.335857        -9.1391
 170   2.0000      -0.329815        -8.9747
 171   2.0000      -0.326674        -8.8893
 172   2.0000      -0.325594        -8.8599
 173   2.0000      -0.312273        -8.4974
 174   2.0000      -0.309355        -8.4180
 175   2.0000      -0.296267        -8.0618
 176   2.0000      -0.294128        -8.0036
 177   2.0000      -0.290582        -7.9071
 178   2.0000      -0.267848        -7.2885
 179   2.0000      -0.237955        -6.4751
 180   2.0000      -0.204552        -5.5661
 181   0.0000      -0.088154        -2.3988
 182   0.0000      -0.079521        -2.1639
 183   0.0000      -0.066576        -1.8116
 184   0.0000      -0.022051        -0.6000
 185   0.0000      -0.001628        -0.0443

MULLIKEN ATOMIC CHARGES
-----------------------
   0 O :   -0.243438
   1 N :    0.286979
   2 O :   -0.274100
   3 C :    0.140564
   4 C :   -0.096246
   5 C :    0.098390
   6 C :   -0.146225
   7 C :    0.176898
   8 C :   -0.098604
   9 C :    0.031417
  10 C :    0.123606
  11 O :   -0.184029
  12 C :    0.104843
  13 O :   -0.180252
  14 C :    0.213928
  15 C :   -0.136060
  16 C :    0.020697
  17 C :   -0.024516
  18 C :    0.058059
  19 O :   -0.181396
  20 S :    0.118017
  21 C :   -0.102963
  22 C :    0.029934
  23 C :   -0.003262
  24 S :   -0.073826
  25 S :    0.164424
  26 C :   -0.206083
  27 C :    0.171825
  28 C :   -0.101748
  29 C :    0.034538
  30 C :    0.109661
  31 O :   -0.208319
  32 C :    0.106585
  33 O :   -0.180718
  34 C :    0.155208
  35 C :    0.052500
  36 C :    0.048849
  37 C :   -0.083551
  38 S :    0.058632
  39 C :   -0.063412
  40 O :   -0.167281
  41 C :   -0.096701
  42 C :    0.034570
  43 C :   -0.004438
  44 S :   -0.083967
  45 C :    0.134239
  46 N :   -0.035967
  47 H :   -0.002580
  48 H :   -0.001785
  49 H :   -0.008121
  50 H :   -0.025933
  51 H :    0.194586
  52 H :   -0.004279
  53 H :   -0.006886
  54 H :   -0.003078
  55 H :    0.029605
  56 H :    0.196257
  57 H :   -0.007744
  58 H :    0.142695
Sum of atomic charges:   -0.0000000

LOEWDIN ATOMIC CHARGES
----------------------
   0 O :   -0.205387
   1 N :    0.279818
   2 O :   -0.230056
   3 C :   -0.004687
   4 C :   -0.022404
   5 C :   -0.067531
   6 C :   -0.182572
   7 C :    0.010727
   8 C :   -0.033098
   9 C :   -0.086595
  10 C :    0.029803
  11 O :    0.030035
  12 C :    0.019191
  13 O :    0.030769
  14 C :    0.027132
  15 C :   -0.204406
  16 C :   -0.038361
  17 C :   -0.134932
  18 C :   -0.093406
  19 O :   -0.054247
  20 S :    0.421591
  21 C :   -0.049558
  22 C :   -0.083891
  23 C :   -0.127042
  24 S :    0.120191
  25 S :    0.462128
  26 C :   -0.227314
  27 C :    0.014616
  28 C :   -0.045348
  29 C :   -0.086721
  30 C :    0.021974
  31 O :    0.014603
  32 C :    0.016655
  33 O :    0.029310
  34 C :    0.041091
  35 C :   -0.125964
  36 C :   -0.039656
  37 C :   -0.193951
  38 S :    0.387110
  39 C :   -0.100820
  40 O :   -0.041233
  41 C :   -0.040797
  42 C :   -0.090353
  43 C :   -0.124820
  44 S :    0.112000
  45 C :    0.000166
  46 N :    0.066728
  47 H :    0.040980
  48 H :    0.035670
  49 H :    0.033477
  50 H :    0.026421
  51 H :    0.106396
  52 H :    0.034377
  53 H :    0.034232
  54 H :    0.034354
  55 H :    0.024796
  56 H :    0.100841
  57 H :    0.034865
  58 H :    0.093105

  Mayer bond orders larger than 0.100000
B(  0-O ,  1-N ) :   1.5388 B(  0-O ,  2-O ) :   0.2669 B(  1-N ,  2-O ) :   1.4688
B(  1-N ,  3-C ) :   0.9332 B(  3-C ,  4-C ) :   1.4987 B(  3-C , 46-N ) :   1.1630
B(  4-C ,  5-C ) :   1.1567 B(  4-C , 47-H ) :   1.0284 B(  5-C ,  6-C ) :   1.3288
B(  5-C , 45-C ) :   1.2045 B(  6-C ,  7-C ) :   1.1676 B(  6-C , 25-S ) :   1.1438
B(  6-C , 26-C ) :   0.1306 B(  7-C ,  8-C ) :   1.4018 B(  7-C , 10-C ) :   0.1108
B(  7-C , 11-O ) :   1.1080 B(  8-C ,  9-C ) :   1.2789 B(  8-C , 48-H ) :   1.0098
B(  9-C , 10-C ) :   1.4177 B(  9-C , 23-C ) :   0.9822 B( 10-C , 11-O ) :   1.1969
B( 10-C , 12-C ) :   1.0898 B( 12-C , 13-O ) :   1.1924 B( 12-C , 14-C ) :   0.1070
B( 12-C , 22-C ) :   1.4319 B( 13-O , 14-C ) :   1.1225 B( 14-C , 15-C ) :   1.1331
B( 14-C , 21-C ) :   1.4525 B( 15-C , 16-C ) :   1.5358 B( 15-C , 20-S ) :   1.0894
B( 16-C , 17-C ) :   1.2028 B( 16-C , 49-H ) :   1.0069 B( 17-C , 18-C ) :   1.4984
B( 17-C , 50-H ) :   0.9927 B( 18-C , 19-O ) :   1.2059 B( 18-C , 20-S ) :   1.1275
B( 19-O , 51-H ) :   0.9569 B( 21-C , 22-C ) :   1.2457 B( 21-C , 52-H ) :   1.0087
B( 22-C , 23-C ) :   0.9980 B( 23-C , 24-S ) :   1.7825 B( 25-S , 26-C ) :   1.1046
B( 26-C , 27-C ) :   1.1288 B( 26-C , 45-C ) :   1.4123 B( 27-C , 28-C ) :   1.4328
B( 27-C , 30-C ) :   0.1117 B( 27-C , 31-O ) :   1.1122 B( 28-C , 29-C ) :   1.2565
B( 28-C , 53-H ) :   1.0098 B( 29-C , 30-C ) :   1.4458 B( 29-C , 43-C ) :   0.9859
B( 30-C , 31-O ) :   1.1816 B( 30-C , 32-C ) :   1.0762 B( 32-C , 33-O ) :   1.2017
B( 32-C , 34-C ) :   0.1130 B( 32-C , 42-C ) :   1.4407 B( 33-O , 34-C ) :   1.1131
B( 34-C , 35-C ) :   1.0356 B( 34-C , 41-C ) :   1.4943 B( 35-C , 36-C ) :   1.2166
B( 35-C , 39-C ) :   1.4777 B( 36-C , 37-C ) :   1.6056 B( 36-C , 54-H ) :   1.0063
B( 37-C , 38-S ) :   1.1109 B( 37-C , 55-H ) :   0.9711 B( 38-S , 39-C ) :   1.1214
B( 39-C , 40-O ) :   1.2051 B( 40-O , 56-H ) :   0.9494 B( 41-C , 42-C ) :   1.2005
B( 41-C , 57-H ) :   1.0190 B( 42-C , 43-C ) :   0.9984 B( 43-C , 44-S ) :   1.7757
B( 45-C , 46-N ) :   1.1970 B( 46-N , 58-H ) :   0.9081

-----------------------------------------------------------------------------
         ABSORPTION SPECTRUM VIA TRANSITION ELECTRIC DIPOLE MOMENTS
-----------------------------------------------------------------------------
State   Energy  Wavelength   fosc         T2         TX        TY        TZ
        (cm-1)    (nm)                  (au**2)     (au)      (au)      (au)
-----------------------------------------------------------------------------
   0    8517.6   1174.0   0.180587361   6.97988  -1.66311  -1.62556   1.25359
   1    9265.5   1079.3   0.034505979   1.22603  -0.64740  -0.64969   0.62032
   2   14524.8    688.5   0.653628915  14.81479   2.11516   2.26987  -2.27785
   3   18252.8    547.9   0.001043911   0.01883   0.09315   0.09209  -0.04089
   4   18470.4    541.4   0.000000163   0.00000  -0.00067   0.00148   0.00052
   5   18569.5    538.5   0.000000366   0.00001  -0.00115  -0.00227  -0.00013
   6   20001.7    500.0   0.041615128   0.68495  -0.56691  -0.52674   0.29344
   7   23426.2    426.9   0.308541137   4.33597  -1.16925  -1.24697   1.18908
   8   23922.5    418.0   1.042546172  14.34708  -2.77926  -2.37243   0.99718
   9   25947.8    385.4   0.035034914   0.44450   0.31873   0.37588  -0.44904
  10   27458.9    364.2   0.005575220   0.06684  -0.19860  -0.12952  -0.10308
  11   29511.8    338.8   0.016546268   0.18458  -0.09479  -0.18792   0.37454
  12   30588.2    326.9   0.107689716   1.15903   0.67397   0.30932   0.78046
  13   31061.6    321.9   0.014321178   0.15179  -0.31283  -0.21380  -0.09063
  14   31421.8    318.3   0.043073708   0.45129   0.52737   0.31625   0.27047
  15   33218.1    301.0   0.134573834   1.33371  -0.86843  -0.47548  -0.59452
  16   33847.9    295.4   0.168608362   1.63992   0.72118   0.26566   1.02432
  17   33935.4    294.7   0.000096691   0.00094  -0.01601  -0.01004  -0.02410
  18   34351.1    291.1   0.000003666   0.00004   0.00342  -0.00481  -0.00053
  19   34715.8    288.1   0.216036144   2.04868  -0.92693  -0.84470   0.68990
  20   35053.4    285.3   0.116813062   1.09708   0.46437   0.54318  -0.76576
  21   35449.0    282.1   0.175917873   1.63373   0.75130   0.26984   0.99823
  22   35501.5    281.7   0.000864882   0.00802   0.03547  -0.05229   0.06346
  23   35951.9    278.1   0.085356755   0.78161  -0.16917   0.10824  -0.86098
  24   36148.1    276.6   0.026865856   0.24468  -0.32478  -0.30212   0.21889
  25   36586.2    273.3   0.084075842   0.75654  -0.54688  -0.22915  -0.63635
  26   37167.3    269.1   0.077785444   0.68899  -0.46598  -0.17984  -0.66295
  27   37218.3    268.7   0.000009471   0.00008  -0.00338  -0.00277  -0.00804
  28   38392.9    260.5   0.160609320   1.37719   0.94504   0.69546  -0.02040
  29   38805.4    257.7   0.000005555   0.00005   0.00429   0.00473  -0.00252
  30   38956.9    256.7   0.008515937   0.07197  -0.20472  -0.17335   0.00140
  31   39501.9    253.2   0.182489996   1.52089  -0.62428  -0.68094   0.81699
  32   39698.1    251.9   0.081837114   0.67867  -0.44048  -0.13244  -0.68345

FINAL SINGLE POINT ENERGY     -3925.674528731878

DIPOLE MOMENT
-------------
                                X             Y             Z
Electronic contribution:      6.15944       2.63686       7.74395
Nuclear contribution   :     -6.27526      -2.56650      -8.42075
                        -----------------------------------------
Total Dipole Moment    :     -0.11583       0.07037      -0.67680
                        -----------------------------------------
Magnitude (a.u.)       :      0.69023
Magnitude (Debye)      :      1.75443

Rotational constants in cm-1:     0.004520     0.000468     0.000424
Rotational constants in MHz :   135.508603    14.039138    12.722252

                             ****ORCA TERMINATED NORMALLY****
TOTAL RUN TIME: 0 days 0 hours 4 minutes 35 seconds 560 msec
