                         Program Version 4.2.0 -  RELEASE  -
|  1> # ORCA input file
|  2> # SCF done       -216.528582672187          0.000309716930
|  3> ! CAM-B3LYP def2-SVP def2/J RIJCOSX Grid4 TightSCF
|  4> %maxcore 5000
|  5> %tddft
|  6>     Mode sTDDFT
|  7>     Ethresh 5.0
|  8>     maxcore 5000
|  9> end
| 10>
| 11> %pal
| 12>   nprocs 6
| 13>   end
| 14> * xyz 0 1
| 15>    C        0.47819         3.15778        -2.90438
| 16>    C        1.30668         2.14374        -3.12773
| 17>    C        2.70028         2.26897        -3.49322
| 18>    S        3.35778         1.10339        -4.59228
| 19>    C        4.90134         1.89668        -4.64359
| 20>    C        5.97535         1.34678        -5.40630
| 21>    C        5.83411         0.26097        -6.19239
| 22>    C        6.86386        -0.37062        -6.97092
| 23>    C        8.17791         0.06383        -7.03807
| 24>    C        9.12817        -0.59300        -7.81391
| 25>    C        8.82435        -1.72145        -8.55255
| 26>    C        9.84823        -2.40375        -9.34644
| 27>    C        9.97788        -3.77641        -9.28832
| 28>    C       10.99919        -4.43980        -9.97686
| 29>    C       11.29070        -5.85115       -10.01166
| 30>    C       10.44368        -6.84418        -9.40570
| 31>    C       10.79881        -8.11588        -9.15012
| 32>    C        9.93678        -9.12375        -8.58917
| 33>    C        8.55280        -9.02753        -8.55586
| 34>    C        7.75304       -10.02408        -8.01355
| 35>    C        8.29010       -11.18279        -7.47162
| 36>    C        7.52831       -12.24853        -6.88029
| 37>    C        6.18489       -12.33852        -6.84055
| 38>    C        5.44151       -13.42133        -6.26845
| 39>    S        3.87926       -13.76924        -6.95022
| 40>    C        3.65364       -15.11031        -5.92084
| 41>    C        4.70813       -15.28786        -5.07472
| 42>    C        4.72835       -16.42336        -4.09589
| 43>    F        3.80191       -17.34567        -4.41525
| 44>    F        5.89999       -17.06839        -4.06649
| 45>    F        4.44699       -16.04297        -2.84118
| 46>    C        5.73037       -14.31266        -5.25089
| 47>    C        6.93501       -14.20884        -4.36793
| 48>    F        7.27942       -12.93213        -4.12329
| 49>    F        6.74634       -14.76311        -3.16601
| 50>    F        8.02515       -14.80210        -4.88975
| 51>    C        9.70985       -11.31945        -7.49138
| 52>    N       10.27568       -12.41894        -6.96211
| 53>    C       11.57850       -12.54073        -6.96731
| 54>    C       12.12357       -13.75572        -6.28027
| 55>    C       12.38352       -13.44321        -4.80399
| 56>    C       12.39708       -11.53197        -7.55292
| 57>    C       13.88826       -11.64738        -7.66205
| 58>    C       14.26778       -12.41249        -8.93247
| 59>    N       11.86250       -10.45605        -8.07319
| 60>    C       10.52440       -10.30640        -8.05220
| 61>    C       12.41911        -6.10683       -10.73722
| 62>    S       13.15692        -4.70919       -11.41994
| 63>    C       11.93096        -3.69732       -10.71929
| 64>    C       11.78966        -2.32035       -10.82445
| 65>    S       12.76528        -1.22235       -11.75015
| 66>    C       11.74935         0.09522       -11.28050
| 67>    C       10.74201        -0.26676       -10.45768
| 68>    C       10.74277        -1.66041       -10.15600
| 69>    C        7.49495        -2.21872        -8.48601
| 70>    N        7.15728        -3.34403        -9.14571
| 71>    C        5.92655        -3.78222        -9.08682
| 72>    C        5.66381        -5.09577        -9.76176
| 73>    C        5.73860        -6.23575        -8.74254
| 74>    C        4.93086        -3.05827        -8.37026
| 75>    C        3.47813        -3.42889        -8.37628
| 76>    C        2.78544        -2.80229        -9.58939
| 77>    N        5.24598        -1.97573        -7.70588
| 78>    C        6.51706        -1.53305        -7.72100
| 79>    C        4.88377         3.02379        -3.84013
| 80>    C        6.02819         3.98725        -3.74688
| 81>    F        6.76035         4.02983        -4.87676
| 82>    F        5.62661         5.24713        -3.54715
| 83>    F        6.89598         3.68327        -2.76565
| 84>    C        3.65032         3.20814        -3.15655
| 85>    C        3.44485         4.22427        -2.07237
| 86>    F        2.58326         3.79377        -1.13358
| 87>    F        4.57183         4.50263        -1.40789
| 88>    F        2.95337         5.39245        -2.52179
| 89>    H       -0.55432         2.98240        -2.66009
| 90>    H        0.78871         4.18640        -2.96122
| 91>    H        0.93794         1.12649        -3.11684
| 92>    H        6.93174         1.83569        -5.31328
| 93>    H        4.86467        -0.21559        -6.27055
| 94>    H        8.48480         0.93309        -6.47752
| 95>    H       10.14423        -0.22671        -7.81164
| 96>    H        9.29549        -4.34069        -8.67522
| 97>    H        9.45297        -6.49795        -9.14638
| 98>    H       11.81362        -8.44219        -9.32451
| 99>    H        8.07567        -8.15901        -8.98247
|100>    H        6.68278        -9.88214        -8.01553
|101>    H        8.14554       -13.03451        -6.47192
|102>    H        5.57209       -11.59649        -7.33413
|103>    H        2.76712       -15.70853        -5.98636
|104>    H       13.04177       -14.09700        -6.75763
|105>    H       11.37356       -14.54500        -6.34434
|106>    H       13.10595       -12.63634        -4.69555
|107>    H       12.76791       -14.32507        -4.29797
|108>    H       11.45676       -13.14233        -4.32209
|109>    H       14.30053       -12.15057        -6.78766
|110>    H       14.30230       -10.63960        -7.71663
|111>    H       13.85007       -13.41710        -8.92267
|112>    H       15.34922       -12.48728        -9.01566
|113>    H       13.88624       -11.89236        -9.80787
|114>    H       12.85812        -7.06328       -10.94203
|115>    H       11.97138         1.07360       -11.65921
|116>    H       10.00201         0.42200       -10.09259
|117>    H        6.43365        -5.24136       -10.52117
|118>    H        4.68720        -5.09517       -10.24578
|119>    H        6.70989        -6.23820        -8.25269
|120>    H        5.59274        -7.19193        -9.23986
|121>    H        4.97668        -6.12649        -7.97366
|122>    H        3.02412        -3.03591        -7.46570
|123>    H        3.35159        -4.51086        -8.39586
|124>    H        2.88122        -1.71988        -9.55409
|125>    H        1.72897        -3.05858        -9.59096
|126>    H        3.22971        -3.15547       -10.51785
|127> *
|128>
|129>                          ****END OF INPUT****

CARTESIAN COORDINATES (ANGSTROEM)
---------------------------------
  C      0.478190    3.157780   -2.904380
  C      1.306680    2.143740   -3.127730
  C      2.700280    2.268970   -3.493220
  S      3.357780    1.103390   -4.592280
  C      4.901340    1.896680   -4.643590
  C      5.975350    1.346780   -5.406300
  C      5.834110    0.260970   -6.192390
  C      6.863860   -0.370620   -6.970920
  C      8.177910    0.063830   -7.038070
  C      9.128170   -0.593000   -7.813910
  C      8.824350   -1.721450   -8.552550
  C      9.848230   -2.403750   -9.346440
  C      9.977880   -3.776410   -9.288320
  C     10.999190   -4.439800   -9.976860
  C     11.290700   -5.851150  -10.011660
  C     10.443680   -6.844180   -9.405700
  C     10.798810   -8.115880   -9.150120
  C      9.936780   -9.123750   -8.589170
  C      8.552800   -9.027530   -8.555860
  C      7.753040  -10.024080   -8.013550
  C      8.290100  -11.182790   -7.471620
  C      7.528310  -12.248530   -6.880290
  C      6.184890  -12.338520   -6.840550
  C      5.441510  -13.421330   -6.268450
  S      3.879260  -13.769240   -6.950220
  C      3.653640  -15.110310   -5.920840
  C      4.708130  -15.287860   -5.074720
  C      4.728350  -16.423360   -4.095890
  F      3.801910  -17.345670   -4.415250
  F      5.899990  -17.068390   -4.066490
  F      4.446990  -16.042970   -2.841180
  C      5.730370  -14.312660   -5.250890
  C      6.935010  -14.208840   -4.367930
  F      7.279420  -12.932130   -4.123290
  F      6.746340  -14.763110   -3.166010
  F      8.025150  -14.802100   -4.889750
  C      9.709850  -11.319450   -7.491380
  N     10.275680  -12.418940   -6.962110
  C     11.578500  -12.540730   -6.967310
  C     12.123570  -13.755720   -6.280270
  C     12.383520  -13.443210   -4.803990
  C     12.397080  -11.531970   -7.552920
  C     13.888260  -11.647380   -7.662050
  C     14.267780  -12.412490   -8.932470
  N     11.862500  -10.456050   -8.073190
  C     10.524400  -10.306400   -8.052200
  C     12.419110   -6.106830  -10.737220
  S     13.156920   -4.709190  -11.419940
  C     11.930960   -3.697320  -10.719290
  C     11.789660   -2.320350  -10.824450
  S     12.765280   -1.222350  -11.750150
  C     11.749350    0.095220  -11.280500
  C     10.742010   -0.266760  -10.457680
  C     10.742770   -1.660410  -10.156000
  C      7.494950   -2.218720   -8.486010
  N      7.157280   -3.344030   -9.145710
  C      5.926550   -3.782220   -9.086820
  C      5.663810   -5.095770   -9.761760
  C      5.738600   -6.235750   -8.742540
  C      4.930860   -3.058270   -8.370260
  C      3.478130   -3.428890   -8.376280
  C      2.785440   -2.802290   -9.589390
  N      5.245980   -1.975730   -7.705880
  C      6.517060   -1.533050   -7.721000
  C      4.883770    3.023790   -3.840130
  C      6.028190    3.987250   -3.746880
  F      6.760350    4.029830   -4.876760
  F      5.626610    5.247130   -3.547150
  F      6.895980    3.683270   -2.765650
  C      3.650320    3.208140   -3.156550
  C      3.444850    4.224270   -2.072370
  F      2.583260    3.793770   -1.133580
  F      4.571830    4.502630   -1.407890
  F      2.953370    5.392450   -2.521790
  H     -0.554320    2.982400   -2.660090
  H      0.788710    4.186400   -2.961220
  H      0.937940    1.126490   -3.116840
  H      6.931740    1.835690   -5.313280
  H      4.864670   -0.215590   -6.270550
  H      8.484800    0.933090   -6.477520
  H     10.144230   -0.226710   -7.811640
  H      9.295490   -4.340690   -8.675220
  H      9.452970   -6.497950   -9.146380
  H     11.813620   -8.442190   -9.324510
  H      8.075670   -8.159010   -8.982470
  H      6.682780   -9.882140   -8.015530
  H      8.145540  -13.034510   -6.471920
  H      5.572090  -11.596490   -7.334130
  H      2.767120  -15.708530   -5.986360
  H     13.041770  -14.097000   -6.757630
  H     11.373560  -14.545000   -6.344340
  H     13.105950  -12.636340   -4.695550
  H     12.767910  -14.325070   -4.297970
  H     11.456760  -13.142330   -4.322090
  H     14.300530  -12.150570   -6.787660
  H     14.302300  -10.639600   -7.716630
  H     13.850070  -13.417100   -8.922670
  H     15.349220  -12.487280   -9.015660
  H     13.886240  -11.892360   -9.807870
  H     12.858120   -7.063280  -10.942030
  H     11.971380    1.073600  -11.659210
  H     10.002010    0.422000  -10.092590
  H      6.433650   -5.241360  -10.521170
  H      4.687200   -5.095170  -10.245780
  H      6.709890   -6.238200   -8.252690
  H      5.592740   -7.191930   -9.239860
  H      4.976680   -6.126490   -7.973660
  H      3.024120   -3.035910   -7.465700
  H      3.351590   -4.510860   -8.395860
  H      2.881220   -1.719880   -9.554090
  H      1.728970   -3.058580   -9.590960
  H      3.229710   -3.155470  -10.517850

 Total Charge           Charge          ....    0
 Multiplicity           Mult            ....    1
 Number of Electrons    NEL             ....  562
 Basis Dimension        Dim             .... 1242

ORBITAL ENERGIES
----------------

  NO   OCC          E(Eh)            E(eV)
   0   2.0000     -88.975625     -2421.1498
   1   2.0000     -88.970617     -2421.0136
   2   2.0000     -88.951159     -2420.4841
   3   2.0000     -88.948499     -2420.4117
   4   2.0000     -24.794948      -674.7048
   5   2.0000     -24.794050      -674.6804
   6   2.0000     -24.793280      -674.6594
   7   2.0000     -24.792857      -674.6479
   8   2.0000     -24.792323      -674.6334
   9   2.0000     -24.792073      -674.6266
  10   2.0000     -24.791500      -674.6110
  11   2.0000     -24.791304      -674.6057
  12   2.0000     -24.789908      -674.5677
  13   2.0000     -24.788862      -674.5392
  14   2.0000     -24.788553      -674.5308
  15   2.0000     -24.787265      -674.4958
  16   2.0000     -14.419442      -392.3730
  17   2.0000     -14.416932      -392.3047
  18   2.0000     -14.414615      -392.2416
  19   2.0000     -14.413439      -392.2096
  20   2.0000     -10.516697      -286.1739
  21   2.0000     -10.516080      -286.1571
  22   2.0000     -10.515572      -286.1432
  23   2.0000     -10.515268      -286.1350
  24   2.0000     -10.326400      -280.9956
  25   2.0000     -10.324086      -280.9327
  26   2.0000     -10.323282      -280.9108
  27   2.0000     -10.321702      -280.8678
  28   2.0000     -10.320804      -280.8434
  29   2.0000     -10.316516      -280.7267
  30   2.0000     -10.316205      -280.7182
  31   2.0000     -10.315109      -280.6884
  32   2.0000     -10.313263      -280.6381
  33   2.0000     -10.312521      -280.6180
  34   2.0000     -10.309098      -280.5248
  35   2.0000     -10.307853      -280.4909
  36   2.0000     -10.306906      -280.4652
  37   2.0000     -10.305230      -280.4196
  38   2.0000     -10.304815      -280.4083
  39   2.0000     -10.304177      -280.3909
  40   2.0000     -10.298781      -280.2441
  41   2.0000     -10.298389      -280.2334
  42   2.0000     -10.292727      -280.0793
  43   2.0000     -10.291761      -280.0531
  44   2.0000     -10.289566      -279.9933
  45   2.0000     -10.287465      -279.9361
  46   2.0000     -10.286464      -279.9089
  47   2.0000     -10.285500      -279.8827
  48   2.0000     -10.284928      -279.8671
  49   2.0000     -10.284481      -279.8549
  50   2.0000     -10.282675      -279.8058
  51   2.0000     -10.282522      -279.8016
  52   2.0000     -10.281918      -279.7852
  53   2.0000     -10.280800      -279.7548
  54   2.0000     -10.279492      -279.7192
  55   2.0000     -10.278462      -279.6912
  56   2.0000     -10.278053      -279.6800
  57   2.0000     -10.277824      -279.6738
  58   2.0000     -10.277724      -279.6711
  59   2.0000     -10.277402      -279.6623
  60   2.0000     -10.276806      -279.6461
  61   2.0000     -10.276470      -279.6370
  62   2.0000     -10.275875      -279.6208
  63   2.0000     -10.274711      -279.5891
  64   2.0000     -10.274222      -279.5758
  65   2.0000     -10.272634      -279.5326
  66   2.0000     -10.270093      -279.4634
  67   2.0000     -10.270018      -279.4614
  68   2.0000     -10.268022      -279.4071
  69   2.0000     -10.267208      -279.3849
  70   2.0000     -10.266930      -279.3774
  71   2.0000     -10.266536      -279.3666
  72   2.0000     -10.262743      -279.2634
  73   2.0000     -10.258716      -279.1538
  74   2.0000      -8.071931      -219.6484
  75   2.0000      -8.066633      -219.5042
  76   2.0000      -8.047127      -218.9735
  77   2.0000      -8.044550      -218.9033
  78   2.0000      -6.041069      -164.3858
  79   2.0000      -6.036807      -164.2699
  80   2.0000      -6.035753      -164.2412
  81   2.0000      -6.034319      -164.2022
  82   2.0000      -6.031709      -164.1311
  83   2.0000      -6.028806      -164.0521
  84   2.0000      -6.016657      -163.7216
  85   2.0000      -6.014143      -163.6531
  86   2.0000      -6.012321      -163.6036
  87   2.0000      -6.009862      -163.5367
  88   2.0000      -6.008881      -163.5100
  89   2.0000      -6.006145      -163.4355
  90   2.0000      -1.386230       -37.7212
  91   2.0000      -1.385333       -37.6968
  92   2.0000      -1.381100       -37.5816
  93   2.0000      -1.380913       -37.5766
  94   2.0000      -1.288481       -35.0614
  95   2.0000      -1.287685       -35.0397
  96   2.0000      -1.284603       -34.9558
  97   2.0000      -1.284523       -34.9537
  98   2.0000      -1.282277       -34.8925
  99   2.0000      -1.282206       -34.8906
 100   2.0000      -1.281034       -34.8587
 101   2.0000      -1.280569       -34.8461
 102   2.0000      -1.079507       -29.3749
 103   2.0000      -1.075126       -29.2557
 104   2.0000      -1.008683       -27.4477
 105   2.0000      -1.008580       -27.4449
 106   2.0000      -1.004011       -27.3205
 107   2.0000      -0.998929       -27.1822
 108   2.0000      -0.998019       -27.1575
 109   2.0000      -0.967767       -26.3343
 110   2.0000      -0.960518       -26.1370
 111   2.0000      -0.957775       -26.0624
 112   2.0000      -0.920797       -25.0561
 113   2.0000      -0.911306       -24.7979
 114   2.0000      -0.909470       -24.7479
 115   2.0000      -0.898812       -24.4579
 116   2.0000      -0.896971       -24.4078
 117   2.0000      -0.891690       -24.2641
 118   2.0000      -0.888375       -24.1739
 119   2.0000      -0.881772       -23.9942
 120   2.0000      -0.877896       -23.8888
 121   2.0000      -0.869156       -23.6509
 122   2.0000      -0.862834       -23.4789
 123   2.0000      -0.852903       -23.2087
 124   2.0000      -0.850866       -23.1532
 125   2.0000      -0.840661       -22.8755
 126   2.0000      -0.835205       -22.7271
 127   2.0000      -0.829523       -22.5725
 128   2.0000      -0.823833       -22.4176
 129   2.0000      -0.821268       -22.3478
 130   2.0000      -0.812308       -22.1040
 131   2.0000      -0.793353       -21.5882
 132   2.0000      -0.784572       -21.3493
 133   2.0000      -0.770723       -20.9724
 134   2.0000      -0.767899       -20.8956
 135   2.0000      -0.765683       -20.8353
 136   2.0000      -0.763581       -20.7781
 137   2.0000      -0.758275       -20.6337
 138   2.0000      -0.753468       -20.5029
 139   2.0000      -0.751192       -20.4410
 140   2.0000      -0.743605       -20.2345
 141   2.0000      -0.732953       -19.9447
 142   2.0000      -0.728983       -19.8366
 143   2.0000      -0.714461       -19.4415
 144   2.0000      -0.704039       -19.1579
 145   2.0000      -0.700077       -19.0501
 146   2.0000      -0.698024       -18.9942
 147   2.0000      -0.697407       -18.9774
 148   2.0000      -0.694320       -18.8934
 149   2.0000      -0.693643       -18.8750
 150   2.0000      -0.688086       -18.7238
 151   2.0000      -0.686532       -18.6815
 152   2.0000      -0.684657       -18.6305
 153   2.0000      -0.679325       -18.4854
 154   2.0000      -0.670789       -18.2531
 155   2.0000      -0.668632       -18.1944
 156   2.0000      -0.667975       -18.1765
 157   2.0000      -0.666940       -18.1484
 158   2.0000      -0.666076       -18.1248
 159   2.0000      -0.665078       -18.0977
 160   2.0000      -0.663431       -18.0529
 161   2.0000      -0.662189       -18.0191
 162   2.0000      -0.662085       -18.0162
 163   2.0000      -0.655472       -17.8363
 164   2.0000      -0.649508       -17.6740
 165   2.0000      -0.646510       -17.5924
 166   2.0000      -0.632102       -17.2004
 167   2.0000      -0.623556       -16.9678
 168   2.0000      -0.621105       -16.9011
 169   2.0000      -0.617005       -16.7896
 170   2.0000      -0.612643       -16.6709
 171   2.0000      -0.606960       -16.5162
 172   2.0000      -0.597224       -16.2513
 173   2.0000      -0.593525       -16.1506
 174   2.0000      -0.586425       -15.9574
 175   2.0000      -0.577468       -15.7137
 176   2.0000      -0.571285       -15.5455
 177   2.0000      -0.568508       -15.4699
 178   2.0000      -0.562606       -15.3093
 179   2.0000      -0.560617       -15.2552
 180   2.0000      -0.558720       -15.2035
 181   2.0000      -0.554116       -15.0782
 182   2.0000      -0.550699       -14.9853
 183   2.0000      -0.550312       -14.9748
 184   2.0000      -0.547582       -14.9005
 185   2.0000      -0.546585       -14.8733
 186   2.0000      -0.545520       -14.8443
 187   2.0000      -0.543762       -14.7965
 188   2.0000      -0.543088       -14.7782
 189   2.0000      -0.541962       -14.7475
 190   2.0000      -0.539574       -14.6826
 191   2.0000      -0.537547       -14.6274
 192   2.0000      -0.537217       -14.6184
 193   2.0000      -0.535458       -14.5706
 194   2.0000      -0.531667       -14.4674
 195   2.0000      -0.529957       -14.4209
 196   2.0000      -0.528298       -14.3757
 197   2.0000      -0.525988       -14.3129
 198   2.0000      -0.523498       -14.2451
 199   2.0000      -0.521130       -14.1807
 200   2.0000      -0.518524       -14.1097
 201   2.0000      -0.517105       -14.0712
 202   2.0000      -0.515220       -14.0198
 203   2.0000      -0.514852       -14.0098
 204   2.0000      -0.512151       -13.9363
 205   2.0000      -0.511144       -13.9089
 206   2.0000      -0.511026       -13.9057
 207   2.0000      -0.510088       -13.8802
 208   2.0000      -0.508653       -13.8412
 209   2.0000      -0.504680       -13.7330
 210   2.0000      -0.501420       -13.6443
 211   2.0000      -0.500725       -13.6254
 212   2.0000      -0.496861       -13.5203
 213   2.0000      -0.496706       -13.5161
 214   2.0000      -0.495912       -13.4944
 215   2.0000      -0.490582       -13.3494
 216   2.0000      -0.487688       -13.2707
 217   2.0000      -0.484825       -13.1927
 218   2.0000      -0.484367       -13.1803
 219   2.0000      -0.481724       -13.1084
 220   2.0000      -0.480789       -13.0829
 221   2.0000      -0.480525       -13.0757
 222   2.0000      -0.479252       -13.0411
 223   2.0000      -0.478821       -13.0294
 224   2.0000      -0.477129       -12.9833
 225   2.0000      -0.474693       -12.9171
 226   2.0000      -0.473488       -12.8843
 227   2.0000      -0.473351       -12.8805
 228   2.0000      -0.472751       -12.8642
 229   2.0000      -0.470837       -12.8121
 230   2.0000      -0.469637       -12.7795
 231   2.0000      -0.465626       -12.6703
 232   2.0000      -0.464422       -12.6376
 233   2.0000      -0.461947       -12.5702
 234   2.0000      -0.458502       -12.4765
 235   2.0000      -0.456114       -12.4115
 236   2.0000      -0.455215       -12.3870
 237   2.0000      -0.453635       -12.3440
 238   2.0000      -0.449814       -12.2401
 239   2.0000      -0.447727       -12.1833
 240   2.0000      -0.444502       -12.0955
 241   2.0000      -0.442912       -12.0522
 242   2.0000      -0.441807       -12.0222
 243   2.0000      -0.439309       -11.9542
 244   2.0000      -0.437332       -11.9004
 245   2.0000      -0.434595       -11.8259
 246   2.0000      -0.432565       -11.7707
 247   2.0000      -0.431246       -11.7348
 248   2.0000      -0.430391       -11.7115
 249   2.0000      -0.429769       -11.6946
 250   2.0000      -0.426235       -11.5984
 251   2.0000      -0.425630       -11.5820
 252   2.0000      -0.424666       -11.5557
 253   2.0000      -0.422540       -11.4979
 254   2.0000      -0.421640       -11.4734
 255   2.0000      -0.418396       -11.3851
 256   2.0000      -0.417099       -11.3498
 257   2.0000      -0.415715       -11.3122
 258   2.0000      -0.414751       -11.2859
 259   2.0000      -0.402345       -10.9484
 260   2.0000      -0.397869       -10.8266
 261   2.0000      -0.390399       -10.6233
 262   2.0000      -0.384835       -10.4719
 263   2.0000      -0.377194       -10.2640
 264   2.0000      -0.372929       -10.1479
 265   2.0000      -0.370389       -10.0788
 266   2.0000      -0.360425        -9.8077
 267   2.0000      -0.344576        -9.3764
 268   2.0000      -0.343779        -9.3547
 269   2.0000      -0.340643        -9.2694
 270   2.0000      -0.331801        -9.0288
 271   2.0000      -0.319116        -8.6836
 272   2.0000      -0.318503        -8.6669
 273   2.0000      -0.316139        -8.6026
 274   2.0000      -0.315389        -8.5822
 275   2.0000      -0.314453        -8.5567
 276   2.0000      -0.307764        -8.3747
 277   2.0000      -0.278783        -7.5861
 278   2.0000      -0.275314        -7.4917
 279   2.0000      -0.253324        -6.8933
 280   2.0000      -0.243893        -6.6367
 281   0.0000      -0.063534        -1.7288
 282   0.0000      -0.061682        -1.6784
 283   0.0000      -0.026639        -0.7249
 284   0.0000      -0.016125        -0.4388
 285   0.0000      -0.008722        -0.2374

MULLIKEN ATOMIC CHARGES
-----------------------
   0 C :    0.001361
   1 C :    0.007610
   2 C :   -0.127613
   3 S :    0.144879
   4 C :   -0.100213
   5 C :    0.032897
   6 C :   -0.026137
   7 C :    0.094697
   8 C :   -0.053866
   9 C :   -0.036393
  10 C :    0.037824
  11 C :    0.066820
  12 C :   -0.052477
  13 C :    0.099173
  14 C :    0.125299
  15 C :   -0.001159
  16 C :   -0.007339
  17 C :    0.088187
  18 C :   -0.037117
  19 C :   -0.035805
  20 C :    0.067435
  21 C :   -0.001875
  22 C :    0.048290
  23 C :   -0.145049
  24 S :    0.152000
  25 C :   -0.097150
  26 C :   -0.104443
  27 C :    0.528057
  28 F :   -0.166170
  29 F :   -0.158155
  30 F :   -0.157435
  31 C :   -0.039128
  32 C :    0.514938
  33 F :   -0.160003
  34 F :   -0.150546
  35 F :   -0.158969
  36 C :   -0.023409
  37 N :    0.005326
  38 C :   -0.146978
  39 C :    0.104665
  40 C :    0.006962
  41 C :   -0.148889
  42 C :    0.102462
  43 C :    0.006134
  44 N :    0.007765
  45 C :   -0.034675
  46 C :   -0.135745
  47 S :    0.131033
  48 C :   -0.129171
  49 C :   -0.139733
  50 S :    0.116100
  51 C :   -0.053595
  52 C :   -0.000992
  53 C :    0.057702
  54 C :   -0.034253
  55 N :    0.013950
  56 C :   -0.149708
  57 C :    0.103000
  58 C :   -0.007947
  59 C :   -0.146523
  60 C :    0.106116
  61 C :    0.004382
  62 N :    0.000391
  63 C :   -0.036184
  64 C :   -0.079973
  65 C :    0.514340
  66 F :   -0.167804
  67 F :   -0.154006
  68 F :   -0.160165
  69 C :   -0.062108
  70 C :    0.510277
  71 F :   -0.161278
  72 F :   -0.154440
  73 F :   -0.161872
  74 H :    0.033486
  75 H :    0.038856
  76 H :    0.007559
  77 H :    0.002486
  78 H :    0.000184
  79 H :   -0.021337
  80 H :   -0.009956
  81 H :   -0.038008
  82 H :   -0.017716
  83 H :   -0.013065
  84 H :   -0.044275
  85 H :   -0.029996
  86 H :    0.009249
  87 H :   -0.016859
  88 H :    0.043631
  89 H :    0.000036
  90 H :    0.020583
  91 H :    0.009925
  92 H :    0.023906
  93 H :    0.027481
  94 H :    0.004394
  95 H :    0.014369
  96 H :    0.012005
  97 H :    0.023970
  98 H :    0.019290
  99 H :    0.021474
 100 H :    0.024828
 101 H :   -0.010218
 102 H :    0.018818
 103 H :    0.003924
 104 H :    0.026449
 105 H :    0.029233
 106 H :    0.015628
 107 H :    0.013791
 108 H :    0.000264
 109 H :    0.024890
 110 H :    0.024450
 111 H :    0.012689
Sum of atomic charges:   -0.0000000

LOEWDIN ATOMIC CHARGES
----------------------
   0 C :   -0.005851
   1 C :   -0.056672
   2 C :   -0.145642
   3 S :    0.475613
   4 C :   -0.139554
   5 C :   -0.044392
   6 C :   -0.004445
   7 C :   -0.032422
   8 C :   -0.003149
   9 C :   -0.013151
  10 C :   -0.008417
  11 C :   -0.018983
  12 C :   -0.003026
  13 C :   -0.044265
  14 C :   -0.060664
  15 C :   -0.009799
  16 C :   -0.014012
  17 C :   -0.015161
  18 C :   -0.017023
  19 C :   -0.003495
  20 C :   -0.035670
  21 C :    0.017958
  22 C :   -0.065955
  23 C :   -0.135297
  24 S :    0.473783
  25 C :   -0.167495
  26 C :   -0.108966
  27 C :    0.159464
  28 F :   -0.063849
  29 F :   -0.054522
  30 F :   -0.059111
  31 C :   -0.120253
  32 C :    0.166041
  33 F :   -0.056432
  34 F :   -0.046976
  35 F :   -0.060942
  36 C :   -0.002583
  37 N :   -0.040234
  38 C :    0.007750
  39 C :   -0.036813
  40 C :   -0.045581
  41 C :    0.003860
  42 C :   -0.036718
  43 C :   -0.046988
  44 N :   -0.042485
  45 C :   -0.010220
  46 C :   -0.164336
  47 S :    0.417580
  48 C :   -0.176356
  49 C :   -0.178386
  50 S :    0.403501
  51 C :   -0.166666
  52 C :   -0.063627
  53 C :   -0.042988
  54 C :   -0.008695
  55 N :   -0.036333
  56 C :    0.000974
  57 C :   -0.036416
  58 C :   -0.049528
  59 C :    0.005081
  60 C :   -0.037082
  61 C :   -0.046455
  62 N :   -0.044219
  63 C :   -0.003445
  64 C :   -0.113844
  65 C :    0.163381
  66 F :   -0.060827
  67 F :   -0.049827
  68 F :   -0.063532
  69 C :   -0.113082
  70 C :    0.163176
  71 F :   -0.056611
  72 F :   -0.049190
  73 F :   -0.062096
  74 H :    0.030503
  75 H :    0.024445
  76 H :    0.031483
  77 H :    0.028138
  78 H :    0.019902
  79 H :    0.031392
  80 H :    0.034982
  81 H :    0.023979
  82 H :    0.024642
  83 H :    0.026764
  84 H :    0.026068
  85 H :    0.026596
  86 H :    0.026037
  87 H :    0.022516
  88 H :    0.032859
  89 H :    0.023713
  90 H :    0.038282
  91 H :    0.020450
  92 H :    0.027878
  93 H :    0.030288
  94 H :    0.025536
  95 H :    0.035570
  96 H :    0.021377
  97 H :    0.027469
  98 H :    0.027070
  99 H :    0.023034
 100 H :    0.024426
 101 H :    0.031462
 102 H :    0.037351
 103 H :    0.025908
 104 H :    0.025160
 105 H :    0.026012
 106 H :    0.023420
 107 H :    0.035287
 108 H :    0.024211
 109 H :    0.028994
 110 H :    0.027718
 111 H :    0.021668

  Mayer bond orders larger than 0.100000
B(  0-C ,  1-C ) :   1.9597 B(  0-C , 74-H ) :   0.9505 B(  0-C , 75-H ) :   0.9568
B(  1-C ,  2-C ) :   1.0596 B(  1-C , 76-H ) :   0.9507 B(  2-C ,  3-S ) :   1.1428
B(  2-C , 69-C ) :   1.5842 B(  3-S ,  4-C ) :   1.1340 B(  4-C ,  5-C ) :   1.1419
B(  4-C , 64-C ) :   1.5336 B(  5-C ,  6-C ) :   1.6584 B(  5-C , 77-H ) :   0.9598
B(  6-C ,  7-C ) :   1.1120 B(  6-C , 78-H ) :   0.9671 B(  7-C ,  8-C ) :   1.3996
B(  7-C , 10-C ) :   0.1211 B(  7-C , 63-C ) :   1.1911 B(  8-C ,  9-C ) :   1.2558
B(  8-C , 79-H ) :   1.0006 B(  9-C , 10-C ) :   1.4467 B(  9-C , 80-H ) :   0.9994
B( 10-C , 11-C ) :   0.9407 B( 10-C , 54-C ) :   1.2596 B( 11-C , 12-C ) :   1.4788
B( 11-C , 53-C ) :   1.2573 B( 12-C , 13-C ) :   1.2570 B( 12-C , 81-H ) :   0.9809
B( 13-C , 14-C ) :   1.1199 B( 13-C , 48-C ) :   1.3662 B( 14-C , 15-C ) :   1.0760
B( 14-C , 46-C ) :   1.5887 B( 15-C , 16-C ) :   1.7001 B( 15-C , 82-H ) :   0.9640
B( 16-C , 17-C ) :   1.0976 B( 16-C , 83-H ) :   0.9730 B( 17-C , 18-C ) :   1.4007
B( 17-C , 20-C ) :   0.1151 B( 17-C , 45-C ) :   1.1896 B( 18-C , 19-C ) :   1.2930
B( 18-C , 84-H ) :   0.9875 B( 19-C , 20-C ) :   1.3856 B( 19-C , 85-H ) :   0.9935
B( 20-C , 21-C ) :   1.1337 B( 20-C , 36-C ) :   1.1936 B( 21-C , 22-C ) :   1.6795
B( 21-C , 86-H ) :   0.9561 B( 22-C , 23-C ) :   1.0961 B( 22-C , 87-H ) :   0.9428
B( 23-C , 24-S ) :   1.1716 B( 23-C , 31-C ) :   1.5382 B( 24-S , 25-C ) :   1.1675
B( 25-C , 26-C ) :   1.5923 B( 25-C , 88-H ) :   0.9705 B( 26-C , 27-C ) :   0.9506
B( 26-C , 31-C ) :   1.2767 B( 27-C , 28-F ) :   1.1562 B( 27-C , 29-F ) :   1.1569
B( 27-C , 30-F ) :   1.1801 B( 31-C , 32-C ) :   0.9475 B( 32-C , 33-F ) :   1.1579
B( 32-C , 34-F ) :   1.1537 B( 32-C , 35-F ) :   1.1347 B( 36-C , 37-N ) :   1.4527
B( 36-C , 45-C ) :   1.2567 B( 37-N , 38-C ) :   1.6807 B( 38-C , 39-C ) :   1.0605
B( 38-C , 41-C ) :   1.1771 B( 39-C , 40-C ) :   1.1075 B( 39-C , 89-H ) :   0.9178
B( 39-C , 90-H ) :   0.9135 B( 40-C , 91-H ) :   0.9700 B( 40-C , 92-H ) :   0.9696
B( 40-C , 93-H ) :   0.9643 B( 41-C , 42-C ) :   1.0587 B( 41-C , 44-N ) :   1.6818
B( 42-C , 43-C ) :   1.1083 B( 42-C , 94-H ) :   0.9191 B( 42-C , 95-H ) :   0.9149
B( 43-C , 96-H ) :   0.9705 B( 43-C , 97-H ) :   0.9698 B( 43-C , 98-H ) :   0.9643
B( 44-N , 45-C ) :   1.4568 B( 46-C , 47-S ) :   1.1161 B( 46-C , 99-H ) :   0.9568
B( 47-S , 48-C ) :   1.0794 B( 48-C , 49-C ) :   1.3831 B( 49-C , 50-S ) :   1.0750
B( 49-C , 53-C ) :   1.3795 B( 50-S , 51-C ) :   1.1161 B( 51-C , 52-C ) :   1.6320
B( 51-C ,100-H ) :   0.9664 B( 52-C , 53-C ) :   1.1847 B( 52-C ,101-H ) :   0.9906
B( 54-C , 55-N ) :   1.4463 B( 54-C , 63-C ) :   1.2495 B( 55-N , 56-C ) :   1.6906
B( 56-C , 57-C ) :   1.0571 B( 56-C , 59-C ) :   1.1743 B( 57-C , 58-C ) :   1.1105
B( 57-C ,102-H ) :   0.9149 B( 57-C ,103-H ) :   0.9166 B( 58-C ,104-H ) :   0.9597
B( 58-C ,105-H ) :   0.9652 B( 58-C ,106-H ) :   0.9643 B( 59-C , 60-C ) :   1.0604
B( 59-C , 62-N ) :   1.6796 B( 60-C , 61-C ) :   1.1072 B( 60-C ,107-H ) :   0.9140
B( 60-C ,108-H ) :   0.9171 B( 61-C ,109-H ) :   0.9643 B( 61-C ,110-H ) :   0.9700
B( 61-C ,111-H ) :   0.9705 B( 62-N , 63-C ) :   1.4488 B( 64-C , 65-C ) :   0.9465
B( 64-C , 69-C ) :   1.2708 B( 65-C , 66-F ) :   1.1228 B( 65-C , 67-F ) :   1.1534
B( 65-C , 68-F ) :   1.1821 B( 69-C , 70-C ) :   0.9430 B( 70-C , 71-F ) :   1.1546
B( 70-C , 72-F ) :   1.1519 B( 70-C , 73-F ) :   1.1443

-----------------------------------------------------------------------------
         ABSORPTION SPECTRUM VIA TRANSITION ELECTRIC DIPOLE MOMENTS
-----------------------------------------------------------------------------
State   Energy  Wavelength   fosc         T2         TX        TY        TZ
        (cm-1)    (nm)                  (au**2)     (au)      (au)      (au)
-----------------------------------------------------------------------------
   0   23892.3    418.5   1.005520413  13.85509  -0.74273  -3.62270   0.42367
   1   25308.2    395.1   1.058461359  13.76859  -2.89132   0.23942   2.31334
   2   27094.0    369.1   0.119295413   1.44953   0.73360  -0.47323  -0.82911
   3   29614.5    337.7   0.008270027   0.09193  -0.29846  -0.02396  -0.04774
   4   30536.1    327.5   0.013060066   0.14080  -0.13606  -0.20331  -0.28452
   5   30580.4    327.0   0.173125793   1.86378   0.66108  -0.75877  -0.92251
   6   31154.8    321.0   0.136844886   1.44603  -0.58507   0.80825   0.67116
   7   31684.1    315.6   0.185872849   1.93130   1.23200   0.59086  -0.25370
   8   32040.4    312.1   0.186326408   1.91448  -0.94223   0.70913   0.72376
   9   32521.4    307.5   0.361445590   3.65888   1.49575   1.01743  -0.62167
  10   33680.9    296.9   0.008548491   0.08356   0.14536  -0.20701   0.13991
  11   33984.6    294.3   0.112896297   1.09364  -0.09882   0.92621  -0.47540
  12   34762.4    287.7   0.046115658   0.43673  -0.60674  -0.26146  -0.01519
  13   35299.3    283.3   0.038590621   0.35991   0.43756   0.08699  -0.40110
  14   36287.0    275.6   0.024044938   0.21815  -0.35359   0.30049   0.05314
  15   36307.3    275.4   0.023889022   0.21661   0.36165   0.09028  -0.27869
  16   37438.7    267.1   0.002513692   0.02210  -0.01506   0.02709   0.14541
  17   38353.7    260.7   0.185890426   1.59560  -1.10778   0.60698  -0.00150
  18   39248.9    254.8   0.036499964   0.30615  -0.04178   0.23048  -0.50129
  19   39767.3    251.5   0.265773234   2.20020  -0.60843   1.30567  -0.35386

FINAL SINGLE POINT ENERGY     -5085.967943525368

DIPOLE MOMENT
-------------
                                X             Y             Z
Electronic contribution:    -42.55078      33.57694      70.10001
Nuclear contribution   :     41.83780     -34.41896     -72.34211
                        -----------------------------------------
Total Dipole Moment    :     -0.71297      -0.84202      -2.24210
                        -----------------------------------------
Magnitude (a.u.)       :      2.49887
Magnitude (Debye)      :      6.35163

Rotational constants in cm-1:     0.000806     0.000293     0.000234
Rotational constants in MHz :    24.172032     8.772650     7.013776

                             ****ORCA TERMINATED NORMALLY****
TOTAL RUN TIME: 0 days 0 hours 10 minutes 1 seconds 363 msec
