                         Program Version 4.2.0 -  RELEASE  -
|  1> # ORCA input file
|  2> # SCF done       -183.109197772753          0.000726154226
|  3> ! CAM-B3LYP def2-SVP def2/J RIJCOSX Grid4 TightSCF
|  4> %maxcore 5000
|  5> %tddft
|  6>     Mode sTDDFT
|  7>     Ethresh 5.0
|  8>     maxcore 5000
|  9> end
| 10>
| 11> %pal
| 12>   nprocs 6
| 13>   end
| 14> * xyz 0 1
| 15>    C        2.35029         0.03021         1.17252
| 16>    C        3.04487        -0.34050        -0.13998
| 17>    C        3.40768        -1.80147        -0.20661
| 18>    C        4.60011        -2.28841         0.31935
| 19>    C        5.50041        -1.38441         1.12171
| 20>    C        5.50558        -1.77367         2.60174
| 21>    C        4.95372        -3.65255         0.14302
| 22>    C        6.12662        -4.40533         0.54575
| 23>    C        7.32686        -3.91895         1.18314
| 24>    C        8.13516        -4.65004         1.97503
| 25>    C        9.31958        -4.08636         2.53927
| 26>    C        9.82797        -2.83994         2.47669
| 27>    S        9.97729        -1.07801         2.05930
| 28>    C       11.37723        -1.48394         3.06157
| 29>    C       11.05223        -2.79916         3.24318
| 30>    N       11.33370        -4.01092         3.79157
| 31>    C       10.34667        -4.79207         3.40727
| 32>    C       10.26580        -6.15916         3.77696
| 33>    C       11.19769        -6.75832         4.55700
| 34>    C       11.14005        -8.12236         4.95065
| 35>    S        9.84404        -9.16918         4.44794
| 36>    C       10.50265       -10.49160         5.29796
| 37>    C       11.66259       -10.17081         5.94500
| 38>    C       12.40732       -11.18906         6.75712
| 39>    F       11.77603       -12.37581         6.73324
| 40>    F       13.64430       -11.41757         6.29861
| 41>    F       12.51073       -10.85000         8.04829
| 42>    C       12.03530        -8.81681         5.75098
| 43>    C       13.24552        -8.13671         6.31296
| 44>    F       14.03603        -7.64520         5.33917
| 45>    F       12.91091        -7.08404         7.08431
| 46>    F       14.01486        -8.92282         7.06206
| 47>    C        6.02904        -5.72301         0.19420
| 48>    S        4.59879        -6.14292        -0.64702
| 49>    C        4.05278        -4.49933        -0.52413
| 50>    C        2.85415        -4.01954        -1.02259
| 51>    S        1.67997        -4.92911        -1.92483
| 52>    C        0.72426        -3.51670        -2.10033
| 53>    C        1.22543        -2.40694        -1.47938
| 54>    C        0.45657        -1.18530        -1.45178
| 55>    C       -0.23990        -0.71918        -2.51143
| 56>    C       -1.03314         0.45641        -2.42820
| 57>    N       -1.16577         1.16045        -1.33106
| 58>    C       -1.96510         2.20772        -1.66983
| 59>    C       -2.64140         3.33224        -1.31805
| 60>    S       -3.33215         3.65990        -2.93458
| 61>    C       -2.33669         2.15613        -3.07571
| 62>    C       -1.78166         1.05961        -3.61296
| 63>    C       -1.85645         0.52358        -4.94303
| 64>    S       -2.09084        -1.17500        -5.20937
| 65>    C       -2.16787        -0.96018        -6.89904
| 66>    C       -2.01551         0.34615        -7.26027
| 67>    C       -2.05671         0.77186        -8.69799
| 68>    F       -2.54431        -0.21221        -9.47335
| 69>    F       -2.83812         1.83600        -8.90437
| 70>    F       -0.84279         1.06112        -9.18820
| 71>    C       -1.82806         1.20374        -6.14201
| 72>    C       -1.60280         2.68277        -6.23669
| 73>    F       -0.78214         3.13403        -5.27266
| 74>    F       -1.04205         3.04998        -7.39160
| 75>    F       -2.74592         3.37890        -6.12035
| 76>    C        2.50168        -2.67396        -0.85531
| 77>    H        1.94779         1.03846         1.11098
| 78>    H        3.04616        -0.01278         2.00617
| 79>    H        1.53420        -0.65711         1.38446
| 80>    H        3.93238         0.27988        -0.27147
| 81>    H        2.38340        -0.11175        -0.97669
| 82>    H        5.16837        -0.35265         1.05170
| 83>    H        6.51330        -1.40882         0.72013
| 84>    H        4.50133        -1.69665         3.01259
| 85>    H        6.16052        -1.10726         3.15830
| 86>    H        5.85205        -2.79341         2.74536
| 87>    H        7.62161        -2.90100         0.98375
| 88>    H        7.89137        -5.67113         2.22838
| 89>    H       12.16857        -0.83250         3.37556
| 90>    H        9.42055        -6.72983         3.41616
| 91>    H       12.02972        -6.16159         4.90048
| 92>    H       10.01201       -11.44443         5.28691
| 93>    H        6.77381        -6.48004         0.34377
| 94>    H       -0.21884        -3.58914        -2.60671
| 95>    H        0.37837        -0.63824        -0.52461
| 96>    H       -0.17320        -1.21701        -3.46777
| 97>    H       -2.77752         3.90044        -0.41925
| 98>    H       -2.32300        -1.79834        -7.54870
| 99> *
|100>
|101>                          ****END OF INPUT****

CARTESIAN COORDINATES (ANGSTROEM)
---------------------------------
  C      2.350290    0.030210    1.172520
  C      3.044870   -0.340500   -0.139980
  C      3.407680   -1.801470   -0.206610
  C      4.600110   -2.288410    0.319350
  C      5.500410   -1.384410    1.121710
  C      5.505580   -1.773670    2.601740
  C      4.953720   -3.652550    0.143020
  C      6.126620   -4.405330    0.545750
  C      7.326860   -3.918950    1.183140
  C      8.135160   -4.650040    1.975030
  C      9.319580   -4.086360    2.539270
  C      9.827970   -2.839940    2.476690
  S      9.977290   -1.078010    2.059300
  C     11.377230   -1.483940    3.061570
  C     11.052230   -2.799160    3.243180
  N     11.333700   -4.010920    3.791570
  C     10.346670   -4.792070    3.407270
  C     10.265800   -6.159160    3.776960
  C     11.197690   -6.758320    4.557000
  C     11.140050   -8.122360    4.950650
  S      9.844040   -9.169180    4.447940
  C     10.502650  -10.491600    5.297960
  C     11.662590  -10.170810    5.945000
  C     12.407320  -11.189060    6.757120
  F     11.776030  -12.375810    6.733240
  F     13.644300  -11.417570    6.298610
  F     12.510730  -10.850000    8.048290
  C     12.035300   -8.816810    5.750980
  C     13.245520   -8.136710    6.312960
  F     14.036030   -7.645200    5.339170
  F     12.910910   -7.084040    7.084310
  F     14.014860   -8.922820    7.062060
  C      6.029040   -5.723010    0.194200
  S      4.598790   -6.142920   -0.647020
  C      4.052780   -4.499330   -0.524130
  C      2.854150   -4.019540   -1.022590
  S      1.679970   -4.929110   -1.924830
  C      0.724260   -3.516700   -2.100330
  C      1.225430   -2.406940   -1.479380
  C      0.456570   -1.185300   -1.451780
  C     -0.239900   -0.719180   -2.511430
  C     -1.033140    0.456410   -2.428200
  N     -1.165770    1.160450   -1.331060
  C     -1.965100    2.207720   -1.669830
  C     -2.641400    3.332240   -1.318050
  S     -3.332150    3.659900   -2.934580
  C     -2.336690    2.156130   -3.075710
  C     -1.781660    1.059610   -3.612960
  C     -1.856450    0.523580   -4.943030
  S     -2.090840   -1.175000   -5.209370
  C     -2.167870   -0.960180   -6.899040
  C     -2.015510    0.346150   -7.260270
  C     -2.056710    0.771860   -8.697990
  F     -2.544310   -0.212210   -9.473350
  F     -2.838120    1.836000   -8.904370
  F     -0.842790    1.061120   -9.188200
  C     -1.828060    1.203740   -6.142010
  C     -1.602800    2.682770   -6.236690
  F     -0.782140    3.134030   -5.272660
  F     -1.042050    3.049980   -7.391600
  F     -2.745920    3.378900   -6.120350
  C      2.501680   -2.673960   -0.855310
  H      1.947790    1.038460    1.110980
  H      3.046160   -0.012780    2.006170
  H      1.534200   -0.657110    1.384460
  H      3.932380    0.279880   -0.271470
  H      2.383400   -0.111750   -0.976690
  H      5.168370   -0.352650    1.051700
  H      6.513300   -1.408820    0.720130
  H      4.501330   -1.696650    3.012590
  H      6.160520   -1.107260    3.158300
  H      5.852050   -2.793410    2.745360
  H      7.621610   -2.901000    0.983750
  H      7.891370   -5.671130    2.228380
  H     12.168570   -0.832500    3.375560
  H      9.420550   -6.729830    3.416160
  H     12.029720   -6.161590    4.900480
  H     10.012010  -11.444430    5.286910
  H      6.773810   -6.480040    0.343770
  H     -0.218840   -3.589140   -2.606710
  H      0.378370   -0.638240   -0.524610
  H     -0.173200   -1.217010   -3.467770
  H     -2.777520    3.900440   -0.419250
  H     -2.323000   -1.798340   -7.548700

 Total Charge           Charge          ....    0
 Multiplicity           Mult            ....    1
 Number of Electrons    NEL             ....  492
 Basis Dimension        Dim             .... 1002

ORBITAL ENERGIES
----------------

  NO   OCC          E(Eh)            E(eV)
   0   2.0000     -88.990688     -2421.5597
   1   2.0000     -88.988043     -2421.4878
   2   2.0000     -88.960976     -2420.7512
   3   2.0000     -88.959562     -2420.7128
   4   2.0000     -88.949863     -2420.4488
   5   2.0000     -88.949431     -2420.4371
   6   2.0000     -24.804089      -674.9536
   7   2.0000     -24.801482      -674.8826
   8   2.0000     -24.800882      -674.8663
   9   2.0000     -24.800519      -674.8564
  10   2.0000     -24.799865      -674.8386
  11   2.0000     -24.798711      -674.8072
  12   2.0000     -24.797711      -674.7800
  13   2.0000     -24.796898      -674.7579
  14   2.0000     -24.796743      -674.7537
  15   2.0000     -24.796437      -674.7454
  16   2.0000     -24.796292      -674.7414
  17   2.0000     -24.794733      -674.6990
  18   2.0000     -14.401222      -391.8772
  19   2.0000     -14.400182      -391.8489
  20   2.0000     -10.524377      -286.3829
  21   2.0000     -10.524339      -286.3818
  22   2.0000     -10.523299      -286.3535
  23   2.0000     -10.523164      -286.3498
  24   2.0000     -10.340291      -281.3736
  25   2.0000     -10.335320      -281.2383
  26   2.0000     -10.330965      -281.1198
  27   2.0000     -10.328862      -281.0626
  28   2.0000     -10.327399      -281.0228
  29   2.0000     -10.327310      -281.0204
  30   2.0000     -10.327139      -281.0157
  31   2.0000     -10.326724      -281.0044
  32   2.0000     -10.318264      -280.7742
  33   2.0000     -10.317970      -280.7662
  34   2.0000     -10.317434      -280.7517
  35   2.0000     -10.317185      -280.7449
  36   2.0000     -10.310545      -280.5642
  37   2.0000     -10.308808      -280.5169
  38   2.0000     -10.305281      -280.4209
  39   2.0000     -10.305088      -280.4157
  40   2.0000     -10.304665      -280.4042
  41   2.0000     -10.304647      -280.4037
  42   2.0000     -10.302961      -280.3578
  43   2.0000     -10.302453      -280.3440
  44   2.0000     -10.300680      -280.2957
  45   2.0000     -10.297776      -280.2167
  46   2.0000     -10.296144      -280.1723
  47   2.0000     -10.295717      -280.1607
  48   2.0000     -10.294834      -280.1367
  49   2.0000     -10.290626      -280.0222
  50   2.0000     -10.290403      -280.0161
  51   2.0000     -10.289884      -280.0020
  52   2.0000     -10.287056      -279.9250
  53   2.0000     -10.285527      -279.8834
  54   2.0000     -10.284731      -279.8618
  55   2.0000     -10.281143      -279.7641
  56   2.0000     -10.280439      -279.7450
  57   2.0000     -10.279509      -279.7197
  58   2.0000     -10.268465      -279.4191
  59   2.0000     -10.266609      -279.3686
  60   2.0000     -10.257925      -279.1323
  61   2.0000     -10.255505      -279.0665
  62   2.0000      -8.086376      -220.0415
  63   2.0000      -8.083930      -219.9749
  64   2.0000      -8.057121      -219.2454
  65   2.0000      -8.055917      -219.2127
  66   2.0000      -8.044485      -218.9016
  67   2.0000      -8.043985      -218.8880
  68   2.0000      -6.055565      -164.7803
  69   2.0000      -6.053003      -164.7106
  70   2.0000      -6.051168      -164.6606
  71   2.0000      -6.048843      -164.5974
  72   2.0000      -6.048832      -164.5971
  73   2.0000      -6.046391      -164.5307
  74   2.0000      -6.026585      -163.9917
  75   2.0000      -6.025364      -163.9585
  76   2.0000      -6.022379      -163.8773
  77   2.0000      -6.021167      -163.8443
  78   2.0000      -6.018852      -163.7813
  79   2.0000      -6.017631      -163.7481
  80   2.0000      -6.015169      -163.6811
  81   2.0000      -6.014809      -163.6713
  82   2.0000      -6.011370      -163.5777
  83   2.0000      -6.011029      -163.5684
  84   2.0000      -6.003431      -163.3617
  85   2.0000      -6.002541      -163.3374
  86   2.0000      -1.393003       -37.9055
  87   2.0000      -1.392762       -37.8990
  88   2.0000      -1.388861       -37.7928
  89   2.0000      -1.388502       -37.7831
  90   2.0000      -1.296752       -35.2864
  91   2.0000      -1.295650       -35.2564
  92   2.0000      -1.292632       -35.1743
  93   2.0000      -1.290629       -35.1198
  94   2.0000      -1.290287       -35.1105
  95   2.0000      -1.290188       -35.1078
  96   2.0000      -1.288969       -35.0746
  97   2.0000      -1.287859       -35.0444
  98   2.0000      -1.066290       -29.0152
  99   2.0000      -1.062791       -28.9200
 100   2.0000      -1.020940       -27.7812
 101   2.0000      -1.020755       -27.7762
 102   2.0000      -1.009364       -27.4662
 103   2.0000      -0.980269       -26.6745
 104   2.0000      -0.966516       -26.3002
 105   2.0000      -0.966075       -26.2882
 106   2.0000      -0.930725       -25.3263
 107   2.0000      -0.920286       -25.0423
 108   2.0000      -0.917289       -24.9607
 109   2.0000      -0.908484       -24.7211
 110   2.0000      -0.903022       -24.5725
 111   2.0000      -0.893543       -24.3145
 112   2.0000      -0.892699       -24.2916
 113   2.0000      -0.875199       -23.8154
 114   2.0000      -0.866762       -23.5858
 115   2.0000      -0.864018       -23.5111
 116   2.0000      -0.852770       -23.2050
 117   2.0000      -0.848461       -23.0878
 118   2.0000      -0.835270       -22.7288
 119   2.0000      -0.817367       -22.2417
 120   2.0000      -0.801638       -21.8137
 121   2.0000      -0.797375       -21.6977
 122   2.0000      -0.784982       -21.3604
 123   2.0000      -0.784349       -21.3432
 124   2.0000      -0.774916       -21.0865
 125   2.0000      -0.774567       -21.0770
 126   2.0000      -0.761828       -20.7304
 127   2.0000      -0.760574       -20.6963
 128   2.0000      -0.748745       -20.3744
 129   2.0000      -0.743450       -20.2303
 130   2.0000      -0.722857       -19.6699
 131   2.0000      -0.720772       -19.6132
 132   2.0000      -0.717138       -19.5143
 133   2.0000      -0.707970       -19.2649
 134   2.0000      -0.705362       -19.1939
 135   2.0000      -0.703582       -19.1454
 136   2.0000      -0.700633       -19.0652
 137   2.0000      -0.698137       -18.9973
 138   2.0000      -0.696855       -18.9624
 139   2.0000      -0.684597       -18.6288
 140   2.0000      -0.678363       -18.4592
 141   2.0000      -0.675139       -18.3715
 142   2.0000      -0.672768       -18.3069
 143   2.0000      -0.672440       -18.2980
 144   2.0000      -0.672193       -18.2913
 145   2.0000      -0.672005       -18.2862
 146   2.0000      -0.671149       -18.2629
 147   2.0000      -0.669960       -18.2305
 148   2.0000      -0.660108       -17.9625
 149   2.0000      -0.651562       -17.7299
 150   2.0000      -0.648608       -17.6495
 151   2.0000      -0.640004       -17.4154
 152   2.0000      -0.636563       -17.3218
 153   2.0000      -0.634227       -17.2582
 154   2.0000      -0.624793       -17.0015
 155   2.0000      -0.612408       -16.6645
 156   2.0000      -0.602003       -16.3813
 157   2.0000      -0.600556       -16.3420
 158   2.0000      -0.588186       -16.0054
 159   2.0000      -0.581150       -15.8139
 160   2.0000      -0.579239       -15.7619
 161   2.0000      -0.574403       -15.6303
 162   2.0000      -0.562780       -15.3140
 163   2.0000      -0.558678       -15.2024
 164   2.0000      -0.554309       -15.0835
 165   2.0000      -0.552696       -15.0396
 166   2.0000      -0.551862       -15.0169
 167   2.0000      -0.551340       -15.0027
 168   2.0000      -0.548595       -14.9280
 169   2.0000      -0.547457       -14.8971
 170   2.0000      -0.546028       -14.8582
 171   2.0000      -0.544214       -14.8088
 172   2.0000      -0.542240       -14.7551
 173   2.0000      -0.540807       -14.7161
 174   2.0000      -0.539001       -14.6670
 175   2.0000      -0.536277       -14.5928
 176   2.0000      -0.530692       -14.4409
 177   2.0000      -0.528844       -14.3906
 178   2.0000      -0.525725       -14.3057
 179   2.0000      -0.523081       -14.2338
 180   2.0000      -0.520581       -14.1657
 181   2.0000      -0.518986       -14.1223
 182   2.0000      -0.518646       -14.1131
 183   2.0000      -0.518159       -14.0998
 184   2.0000      -0.511866       -13.9286
 185   2.0000      -0.511076       -13.9071
 186   2.0000      -0.510692       -13.8966
 187   2.0000      -0.506571       -13.7845
 188   2.0000      -0.504030       -13.7153
 189   2.0000      -0.503989       -13.7142
 190   2.0000      -0.498795       -13.5729
 191   2.0000      -0.495532       -13.4841
 192   2.0000      -0.493293       -13.4232
 193   2.0000      -0.492571       -13.4035
 194   2.0000      -0.491661       -13.3788
 195   2.0000      -0.490118       -13.3368
 196   2.0000      -0.488350       -13.2887
 197   2.0000      -0.487698       -13.2709
 198   2.0000      -0.487264       -13.2591
 199   2.0000      -0.486337       -13.2339
 200   2.0000      -0.485840       -13.2204
 201   2.0000      -0.481440       -13.1007
 202   2.0000      -0.480652       -13.0792
 203   2.0000      -0.479718       -13.0538
 204   2.0000      -0.478881       -13.0310
 205   2.0000      -0.478223       -13.0131
 206   2.0000      -0.472038       -12.8448
 207   2.0000      -0.469913       -12.7870
 208   2.0000      -0.467367       -12.7177
 209   2.0000      -0.463288       -12.6067
 210   2.0000      -0.462965       -12.5979
 211   2.0000      -0.462152       -12.5758
 212   2.0000      -0.458512       -12.4767
 213   2.0000      -0.454643       -12.3715
 214   2.0000      -0.449305       -12.2262
 215   2.0000      -0.445232       -12.1154
 216   2.0000      -0.441489       -12.0135
 217   2.0000      -0.438486       -11.9318
 218   2.0000      -0.435221       -11.8430
 219   2.0000      -0.432871       -11.7790
 220   2.0000      -0.432361       -11.7651
 221   2.0000      -0.429324       -11.6825
 222   2.0000      -0.425539       -11.5795
 223   2.0000      -0.414413       -11.2768
 224   2.0000      -0.411496       -11.1974
 225   2.0000      -0.409840       -11.1523
 226   2.0000      -0.407111       -11.0781
 227   2.0000      -0.406272       -11.0552
 228   2.0000      -0.391154       -10.6438
 229   2.0000      -0.386364       -10.5135
 230   2.0000      -0.382236       -10.4012
 231   2.0000      -0.375155       -10.2085
 232   2.0000      -0.367820       -10.0089
 233   2.0000      -0.356196        -9.6926
 234   2.0000      -0.355791        -9.6816
 235   2.0000      -0.348306        -9.4779
 236   2.0000      -0.342974        -9.3328
 237   2.0000      -0.341053        -9.2805
 238   2.0000      -0.327932        -8.9235
 239   2.0000      -0.318775        -8.6743
 240   2.0000      -0.308207        -8.3867
 241   2.0000      -0.301238        -8.1971
 242   2.0000      -0.280864        -7.6427
 243   2.0000      -0.263257        -7.1636
 244   2.0000      -0.257129        -6.9968
 245   2.0000      -0.256125        -6.9695
 246   0.0000      -0.089015        -2.4222
 247   0.0000      -0.078911        -2.1473
 248   0.0000      -0.039420        -1.0727
 249   0.0000      -0.027466        -0.7474
 250   0.0000      -0.012568        -0.3420

MULLIKEN ATOMIC CHARGES
-----------------------
   0 C :    0.037469
   1 C :   -0.000607
   2 C :   -0.117997
   3 C :   -0.112007
   4 C :    0.043516
   5 C :    0.017584
   6 C :    0.126633
   7 C :    0.072017
   8 C :   -0.017223
   9 C :    0.013383
  10 C :   -0.082927
  11 C :   -0.030787
  12 S :    0.060819
  13 C :   -0.154625
  14 C :    0.193500
  15 N :   -0.059558
  16 C :   -0.005688
  17 C :   -0.043568
  18 C :    0.069448
  19 C :   -0.125337
  20 S :    0.150325
  21 C :   -0.079698
  22 C :   -0.108589
  23 C :    0.531026
  24 F :   -0.162759
  25 F :   -0.156248
  26 F :   -0.156469
  27 C :   -0.032311
  28 C :    0.514472
  29 F :   -0.164563
  30 F :   -0.164294
  31 F :   -0.137397
  32 C :   -0.116075
  33 S :    0.134856
  34 C :   -0.154573
  35 C :   -0.142239
  36 S :    0.134772
  37 C :   -0.104461
  38 C :    0.061107
  39 C :    0.017011
  40 C :   -0.067626
  41 C :   -0.005069
  42 N :   -0.070049
  43 C :    0.191287
  44 C :   -0.161611
  45 S :    0.085865
  46 C :    0.016656
  47 C :   -0.092995
  48 C :   -0.172129
  49 S :    0.174524
  50 C :   -0.091325
  51 C :   -0.110410
  52 C :    0.531114
  53 F :   -0.163770
  54 F :   -0.153660
  55 F :   -0.155307
  56 C :   -0.018662
  57 C :    0.514518
  58 F :   -0.154618
  59 F :   -0.146256
  60 F :   -0.156195
  61 C :    0.116325
  62 H :    0.025291
  63 H :    0.007207
  64 H :    0.017008
  65 H :    0.013822
  66 H :    0.017200
  67 H :   -0.006279
  68 H :    0.004959
  69 H :    0.010702
  70 H :    0.018356
  71 H :    0.026785
  72 H :    0.000977
  73 H :   -0.029601
  74 H :    0.030649
  75 H :   -0.013925
  76 H :    0.035511
  77 H :    0.048292
  78 H :    0.019695
  79 H :    0.019973
  80 H :    0.029151
  81 H :   -0.012287
  82 H :    0.029647
  83 H :    0.048321
Sum of atomic charges:   -0.0000000

LOEWDIN ATOMIC CHARGES
----------------------
   0 C :   -0.050785
   1 C :   -0.030929
   2 C :   -0.018339
   3 C :   -0.017230
   4 C :   -0.029477
   5 C :   -0.050154
   6 C :   -0.037795
   7 C :   -0.065857
   8 C :    0.012420
   9 C :   -0.039875
  10 C :   -0.055310
  11 C :   -0.126072
  12 S :    0.280680
  13 C :   -0.070271
  14 C :   -0.068565
  15 N :   -0.101502
  16 C :    0.038917
  17 C :   -0.041883
  18 C :    0.011977
  19 C :   -0.145966
  20 S :    0.482316
  21 C :   -0.154284
  22 C :   -0.110642
  23 C :    0.159382
  24 F :   -0.061173
  25 F :   -0.055157
  26 F :   -0.055253
  27 C :   -0.102272
  28 C :    0.166287
  29 F :   -0.062378
  30 F :   -0.062352
  31 F :   -0.037376
  32 C :   -0.163895
  33 S :    0.421224
  34 C :   -0.177013
  35 C :   -0.178235
  36 S :    0.420406
  37 C :   -0.159373
  38 C :   -0.065646
  39 C :    0.047974
  40 C :   -0.073031
  41 C :    0.047368
  42 N :   -0.116582
  43 C :   -0.064759
  44 C :   -0.068792
  45 S :    0.294121
  46 C :   -0.094005
  47 C :   -0.098429
  48 C :   -0.146627
  49 S :    0.496235
  50 C :   -0.161133
  51 C :   -0.108247
  52 C :    0.159303
  53 F :   -0.061496
  54 F :   -0.050865
  55 F :   -0.057275
  56 C :   -0.105142
  57 C :    0.162894
  58 F :   -0.053365
  59 F :   -0.044179
  60 F :   -0.059967
  61 C :   -0.041138
  62 H :    0.029769
  63 H :    0.022743
  64 H :    0.022905
  65 H :    0.028373
  66 H :    0.032411
  67 H :    0.027005
  68 H :    0.023214
  69 H :    0.023503
  70 H :    0.026594
  71 H :    0.024960
  72 H :    0.029720
  73 H :    0.022984
  74 H :    0.024919
  75 H :    0.019319
  76 H :    0.044531
  77 H :    0.035543
  78 H :    0.022276
  79 H :    0.023791
  80 H :    0.040134
  81 H :    0.014028
  82 H :    0.024395
  83 H :    0.035475

  Mayer bond orders larger than 0.100000
B(  0-C ,  1-C ) :   1.1046 B(  0-C , 62-H ) :   0.9637 B(  0-C , 63-H ) :   0.9621
B(  0-C , 64-H ) :   0.9588 B(  1-C ,  2-C ) :   1.0536 B(  1-C , 65-H ) :   0.9194
B(  1-C , 66-H ) :   0.9193 B(  2-C ,  3-C ) :   1.5180 B(  2-C , 61-C ) :   1.2714
B(  3-C ,  4-C ) :   1.0672 B(  3-C ,  6-C ) :   1.2422 B(  4-C ,  5-C ) :   1.1052
B(  4-C , 67-H ) :   0.9087 B(  4-C , 68-H ) :   0.9234 B(  5-C , 69-H ) :   0.9550
B(  5-C , 70-H ) :   0.9649 B(  5-C , 71-H ) :   0.9647 B(  6-C ,  7-C ) :   1.1399
B(  6-C , 34-C ) :   1.3740 B(  7-C ,  8-C ) :   1.0184 B(  7-C , 32-C ) :   1.6044
B(  8-C ,  9-C ) :   1.7495 B(  8-C , 72-H ) :   0.9698 B(  9-C , 10-C ) :   1.0775
B(  9-C , 73-H ) :   0.9632 B( 10-C , 11-C ) :   1.7935 B( 10-C , 16-C ) :   0.9672
B( 11-C , 12-S ) :   0.8956 B( 11-C , 14-C ) :   1.0844 B( 12-S , 13-C ) :   0.9983
B( 13-C , 14-C ) :   1.5116 B( 13-C , 16-C ) :   0.1018 B( 13-C , 74-H ) :   1.0119
B( 14-C , 15-N ) :   1.2383 B( 15-N , 16-C ) :   1.7512 B( 16-C , 17-C ) :   1.1328
B( 17-C , 18-C ) :   1.6770 B( 17-C , 75-H ) :   0.9582 B( 18-C , 19-C ) :   1.1278
B( 18-C , 76-H ) :   0.9607 B( 19-C , 20-S ) :   1.1468 B( 19-C , 27-C ) :   1.5018
B( 20-S , 21-C ) :   1.1840 B( 21-C , 22-C ) :   1.5835 B( 21-C , 77-H ) :   0.9687
B( 22-C , 23-C ) :   0.9463 B( 22-C , 27-C ) :   1.2992 B( 23-C , 24-F ) :   1.1594
B( 23-C , 25-F ) :   1.1735 B( 23-C , 26-F ) :   1.1728 B( 27-C , 28-C ) :   0.9398
B( 28-C , 29-F ) :   1.1544 B( 28-C , 30-F ) :   1.1540 B( 28-C , 31-F ) :   1.1699
B( 32-C , 33-S ) :   1.1232 B( 32-C , 78-H ) :   0.9596 B( 33-S , 34-C ) :   1.0807
B( 34-C , 35-C ) :   1.3773 B( 35-C , 36-S ) :   1.0745 B( 35-C , 61-C ) :   1.3756
B( 36-S , 37-C ) :   1.1266 B( 37-C , 38-C ) :   1.6048 B( 37-C , 79-H ) :   0.9622
B( 38-C , 39-C ) :   0.9973 B( 38-C , 61-C ) :   1.1432 B( 39-C , 40-C ) :   1.7394
B( 39-C , 80-H ) :   0.9554 B( 40-C , 41-C ) :   1.1064 B( 40-C , 81-H ) :   0.9532
B( 41-C , 42-N ) :   1.7510 B( 41-C , 47-C ) :   0.9971 B( 42-N , 43-C ) :   1.2314
B( 43-C , 44-C ) :   1.5485 B( 43-C , 46-C ) :   1.0600 B( 44-C , 45-S ) :   0.9765
B( 44-C , 82-H ) :   1.0129 B( 45-S , 46-C ) :   0.9029 B( 46-C , 47-C ) :   1.8541
B( 47-C , 48-C ) :   0.9990 B( 48-C , 49-S ) :   1.1831 B( 48-C , 56-C ) :   1.5828
B( 49-S , 50-C ) :   1.1728 B( 50-C , 51-C ) :   1.5946 B( 50-C , 83-H ) :   0.9697
B( 51-C , 52-C ) :   0.9453 B( 51-C , 56-C ) :   1.2696 B( 52-C , 53-F ) :   1.1580
B( 52-C , 54-F ) :   1.1605 B( 52-C , 55-F ) :   1.1838 B( 56-C , 57-C ) :   0.9386
B( 57-C , 58-F ) :   1.1566 B( 57-C , 59-F ) :   1.1591 B( 57-C , 60-F ) :   1.1816

-----------------------------------------------------------------------------
         ABSORPTION SPECTRUM VIA TRANSITION ELECTRIC DIPOLE MOMENTS
-----------------------------------------------------------------------------
State   Energy  Wavelength   fosc         T2         TX        TY        TZ
        (cm-1)    (nm)                  (au**2)     (au)      (au)      (au)
-----------------------------------------------------------------------------
   0   16595.0    602.6   0.147214642   2.92045  -0.58238   1.40285  -0.78314
   1   18111.5    552.1   0.122624418   2.22894  -0.95752   1.10739  -0.29288
   2   22551.3    443.4   0.166247953   2.42695   0.86618   1.28948   0.11792
   3   26616.8    375.7   0.262375359   3.24521  -1.15449   1.33602  -0.35695
   4   26963.2    370.9   0.000755214   0.00922  -0.05320  -0.04401  -0.06674
   5   27439.0    364.4   0.002379624   0.02855   0.13669   0.05322   0.08387
   6   27604.4    362.3   0.002781210   0.03317   0.07821  -0.05626  -0.15456
   7   28235.9    354.2   0.090624096   1.05662   0.42332  -0.91506  -0.20020
   8   29285.6    341.5   0.257486884   2.89452   0.04342  -1.61560   0.53148
   9   30126.8    331.9   0.408142001   4.45999  -0.98395   1.46880  -1.15520
  10   31022.8    322.3   0.001115527   0.01184   0.09488  -0.03549   0.03970
  11   31225.8    320.2   0.059140131   0.62351   0.45609  -0.58146   0.27822
  12   31725.2    315.2   0.199471544   2.06991  -0.17742   1.32686  -0.52713
  13   32152.2    311.0   0.030284296   0.31009   0.02552   0.53672  -0.14619
  14   33050.4    302.6   0.282561127   2.81457  -1.11548   1.20368   0.34847
  15   33601.4    297.6   0.583023666   5.71221  -1.46636  -1.74660  -0.71510
  16   35026.5    285.5   0.007941130   0.07464  -0.01619   0.24783   0.11383
  17   36444.5    274.4   0.035976810   0.32499   0.34753  -0.45188   0.00441
  18   36793.8    271.8   0.336950678   3.01486  -1.16414   1.26587  -0.23918
  19   37310.9    268.0   0.005257486   0.04639   0.04949  -0.20927  -0.01204
  20   37787.0    264.6   0.064895714   0.56539   0.32313  -0.64933   0.19835
  21   38413.3    260.3   0.065181523   0.55862  -0.62428  -0.22546  -0.34360
  22   39270.1    254.6   0.013483324   0.11303   0.25442   0.02660  -0.21817
  23   39957.6    250.3   0.218674626   1.80167  -1.00074   0.57103  -0.68856
  24   40113.2    249.3   0.049555484   0.40671   0.30392  -0.47408   0.29931
  25   40225.9    248.6   0.172764819   1.41392   0.95047  -0.01674   0.71432

FINAL SINGLE POINT ENERGY     -5306.181987759051

DIPOLE MOMENT
-------------
                                X             Y             Z
Electronic contribution:      9.93147     -25.69030     -25.39336
Nuclear contribution   :    -11.32031      24.93816      25.45194
                        -----------------------------------------
Total Dipole Moment    :     -1.38883      -0.75213       0.05858
                        -----------------------------------------
Magnitude (a.u.)       :      1.58050
Magnitude (Debye)      :      4.01732

Rotational constants in cm-1:     0.002654     0.000237     0.000230
Rotational constants in MHz :    79.571796     7.102682     6.885258

                             ****ORCA TERMINATED NORMALLY****
TOTAL RUN TIME: 0 days 0 hours 7 minutes 16 seconds 954 msec
