                         Program Version 4.2.0 -  RELEASE  -
|  1> # ORCA input file
|  2> # SCF done       -130.625084031146          0.000291492350
|  3> ! CAM-B3LYP def2-SVP def2/J RIJCOSX Grid4 TightSCF
|  4> %maxcore 5000
|  5> %tddft
|  6>     Mode sTDDFT
|  7>     Ethresh 5.0
|  8>     maxcore 5000
|  9> end
| 10>
| 11> %pal
| 12>   nprocs 6
| 13>   end
| 14> * xyz 0 1
| 15>    N        2.42718         3.29354         1.45439
| 16>    C        2.39832         2.89812         0.05444
| 17>    C        2.76663         1.40682        -0.09943
| 18>    C        4.20703         1.17821        -0.44804
| 19>    C        4.61434         0.72201        -1.67739
| 20>    C        3.85599         0.32485        -2.84066
| 21>    S        4.07459        -1.28210        -3.46114
| 22>    C        2.97206        -0.96657        -4.75615
| 23>    C        2.72372        -2.01135        -5.70096
| 24>    N        3.36301        -3.17109        -5.49822
| 25>    C        3.12780        -4.10836        -6.38717
| 26>    N        2.32130        -3.99206        -7.43303
| 27>    C        1.72941        -2.81418        -7.53976
| 28>    N        1.88630        -1.79366        -6.72205
| 29>    C        2.46908         0.31829        -4.70589
| 30>    C        2.97717         1.05143        -3.61541
| 31>    C        2.61666         2.48484        -3.39396
| 32>    C        2.10795         3.12584        -4.68198
| 33>    F        1.60298         4.36998        -4.36725
| 34>    C        1.00326         2.26641        -5.30000
| 35>    F        0.50498         2.89281        -6.42139
| 36>    C        1.54076         0.89921        -5.71726
| 37>    S        6.33673         0.49043        -1.73630
| 38>    C        6.50575         1.02079        -0.08547
| 39>    C        7.81716         1.08706         0.51040
| 40>    S        8.31217         2.48604         1.40461
| 41>    C        9.86280         1.78754         1.71604
| 42>    C       10.78742         2.52751         2.51590
| 43>    N       10.36666         3.70891         2.98990
| 44>    C       11.23412         4.36376         3.72582
| 45>    N       12.45641         3.94957         4.03058
| 46>    C       12.77627         2.77193         3.51949
| 47>    N       12.00381         2.02323         2.76107
| 48>    C        9.98631         0.53573         1.14555
| 49>    C        8.82761         0.14503         0.44985
| 50>    C        8.71312        -1.20341        -0.19095
| 51>    C       10.08048        -1.84558        -0.40690
| 52>    F        9.88024        -3.16680        -0.74819
| 53>    C       10.92442        -1.76534         0.86492
| 54>    F       12.12879        -2.40406         0.66007
| 55>    C       11.20956        -0.31149         1.22919
| 56>    C        5.28776         1.35459         0.45995
| 57>    C        5.09368         1.72776         1.89450
| 58>    C        4.87915         0.48178         2.76841
| 59>    N        6.08200        -0.33466         2.79549
| 60>    H        2.33503         4.29896         1.54273
| 61>    H        1.65874         2.86471         1.96004
| 62>    H        3.12780         3.51423        -0.47612
| 63>    H        1.41153         3.07314        -0.40350
| 64>    H        2.15078         0.95121        -0.87556
| 65>    H        2.54273         0.90637         0.84398
| 66>    H        3.63483        -5.05600        -6.25409
| 67>    H        1.05537        -2.67186        -8.37571
| 68>    H        3.47603         3.03977        -3.01371
| 69>    H        1.81817         2.56665        -2.65198
| 70>    H        2.90911         3.29358        -5.41159
| 71>    H        0.16263         2.18749        -4.59874
| 72>    H        2.07416         1.01648        -6.66575
| 73>    H        0.71848         0.20984        -5.91531
| 74>    H       10.92426         5.32404         4.11957
| 75>    H       13.76402         2.38681         3.74251
| 76>    H        8.19376        -1.14698        -1.14783
| 77>    H        8.13243        -1.86736         0.45903
| 78>    H       10.62299        -1.39184        -1.24529
| 79>    H       10.42574        -2.30734         1.67813
| 80>    H       11.96353         0.07380         0.53509
| 81>    H       11.64649        -0.24518         2.22626
| 82>    H        4.22296         2.37883         1.98131
| 83>    H        5.96934         2.25181         2.26938
| 84>    H        3.99419        -0.07199         2.41077
| 85>    H        4.68048         0.81056         3.79120
| 86>    H        6.24118        -0.74780         1.88249
| 87>    H        5.98211        -1.09017         3.46405
| 88> *
| 89>
| 90>                          ****END OF INPUT****

CARTESIAN COORDINATES (ANGSTROEM)
---------------------------------
  N      2.427180    3.293540    1.454390
  C      2.398320    2.898120    0.054440
  C      2.766630    1.406820   -0.099430
  C      4.207030    1.178210   -0.448040
  C      4.614340    0.722010   -1.677390
  C      3.855990    0.324850   -2.840660
  S      4.074590   -1.282100   -3.461140
  C      2.972060   -0.966570   -4.756150
  C      2.723720   -2.011350   -5.700960
  N      3.363010   -3.171090   -5.498220
  C      3.127800   -4.108360   -6.387170
  N      2.321300   -3.992060   -7.433030
  C      1.729410   -2.814180   -7.539760
  N      1.886300   -1.793660   -6.722050
  C      2.469080    0.318290   -4.705890
  C      2.977170    1.051430   -3.615410
  C      2.616660    2.484840   -3.393960
  C      2.107950    3.125840   -4.681980
  F      1.602980    4.369980   -4.367250
  C      1.003260    2.266410   -5.300000
  F      0.504980    2.892810   -6.421390
  C      1.540760    0.899210   -5.717260
  S      6.336730    0.490430   -1.736300
  C      6.505750    1.020790   -0.085470
  C      7.817160    1.087060    0.510400
  S      8.312170    2.486040    1.404610
  C      9.862800    1.787540    1.716040
  C     10.787420    2.527510    2.515900
  N     10.366660    3.708910    2.989900
  C     11.234120    4.363760    3.725820
  N     12.456410    3.949570    4.030580
  C     12.776270    2.771930    3.519490
  N     12.003810    2.023230    2.761070
  C      9.986310    0.535730    1.145550
  C      8.827610    0.145030    0.449850
  C      8.713120   -1.203410   -0.190950
  C     10.080480   -1.845580   -0.406900
  F      9.880240   -3.166800   -0.748190
  C     10.924420   -1.765340    0.864920
  F     12.128790   -2.404060    0.660070
  C     11.209560   -0.311490    1.229190
  C      5.287760    1.354590    0.459950
  C      5.093680    1.727760    1.894500
  C      4.879150    0.481780    2.768410
  N      6.082000   -0.334660    2.795490
  H      2.335030    4.298960    1.542730
  H      1.658740    2.864710    1.960040
  H      3.127800    3.514230   -0.476120
  H      1.411530    3.073140   -0.403500
  H      2.150780    0.951210   -0.875560
  H      2.542730    0.906370    0.843980
  H      3.634830   -5.056000   -6.254090
  H      1.055370   -2.671860   -8.375710
  H      3.476030    3.039770   -3.013710
  H      1.818170    2.566650   -2.651980
  H      2.909110    3.293580   -5.411590
  H      0.162630    2.187490   -4.598740
  H      2.074160    1.016480   -6.665750
  H      0.718480    0.209840   -5.915310
  H     10.924260    5.324040    4.119570
  H     13.764020    2.386810    3.742510
  H      8.193760   -1.146980   -1.147830
  H      8.132430   -1.867360    0.459030
  H     10.622990   -1.391840   -1.245290
  H     10.425740   -2.307340    1.678130
  H     11.963530    0.073800    0.535090
  H     11.646490   -0.245180    2.226260
  H      4.222960    2.378830    1.981310
  H      5.969340    2.251810    2.269380
  H      3.994190   -0.071990    2.410770
  H      4.680480    0.810560    3.791200
  H      6.241180   -0.747800    1.882490
  H      5.982110   -1.090170    3.464050

 Total Charge           Charge          ....    0
 Multiplicity           Mult            ....    1
 Number of Electrons    NEL             ....  348
 Basis Dimension        Dim             ....  782

ORBITAL ENERGIES
----------------

  NO   OCC          E(Eh)            E(eV)
   0   2.0000     -88.961823     -2420.7743
   1   2.0000     -88.955622     -2420.6055
   2   2.0000     -88.953484     -2420.5474
   3   2.0000     -24.748348      -673.4368
   4   2.0000     -24.745681      -673.3642
   5   2.0000     -24.740722      -673.2293
   6   2.0000     -24.738853      -673.1784
   7   2.0000     -14.422830      -392.4651
   8   2.0000     -14.422113      -392.4456
   9   2.0000     -14.416294      -392.2873
  10   2.0000     -14.416199      -392.2847
  11   2.0000     -14.415790      -392.2736
  12   2.0000     -14.410281      -392.1237
  13   2.0000     -14.398088      -391.7919
  14   2.0000     -14.373921      -391.1343
  15   2.0000     -10.369183      -282.1598
  16   2.0000     -10.362705      -281.9835
  17   2.0000     -10.355382      -281.7843
  18   2.0000     -10.354798      -281.7684
  19   2.0000     -10.349410      -281.6218
  20   2.0000     -10.349112      -281.6137
  21   2.0000     -10.348155      -281.5876
  22   2.0000     -10.346040      -281.5300
  23   2.0000     -10.340608      -281.3822
  24   2.0000     -10.338091      -281.3137
  25   2.0000     -10.315178      -280.6903
  26   2.0000     -10.307670      -280.4860
  27   2.0000     -10.305645      -280.4309
  28   2.0000     -10.302679      -280.3502
  29   2.0000     -10.300327      -280.2862
  30   2.0000     -10.299699      -280.2690
  31   2.0000     -10.296033      -280.1693
  32   2.0000     -10.291065      -280.0341
  33   2.0000     -10.289497      -279.9914
  34   2.0000     -10.287297      -279.9316
  35   2.0000     -10.285598      -279.8853
  36   2.0000     -10.282446      -279.7996
  37   2.0000     -10.280931      -279.7583
  38   2.0000     -10.280236      -279.7395
  39   2.0000     -10.277228      -279.6576
  40   2.0000     -10.277210      -279.6571
  41   2.0000     -10.277008      -279.6516
  42   2.0000     -10.276942      -279.6498
  43   2.0000     -10.268562      -279.4218
  44   2.0000     -10.243137      -278.7299
  45   2.0000      -8.056794      -219.2365
  46   2.0000      -8.051018      -219.0793
  47   2.0000      -8.048144      -219.0011
  48   2.0000      -6.025913      -163.9734
  49   2.0000      -6.021817      -163.8620
  50   2.0000      -6.020330      -163.8215
  51   2.0000      -6.019167      -163.7899
  52   2.0000      -6.017404      -163.7419
  53   2.0000      -6.016154      -163.7079
  54   2.0000      -6.013159      -163.6264
  55   2.0000      -6.013104      -163.6249
  56   2.0000      -6.010440      -163.5524
  57   2.0000      -1.267056       -34.4784
  58   2.0000      -1.259667       -34.2773
  59   2.0000      -1.252146       -34.0726
  60   2.0000      -1.244839       -33.8738
  61   2.0000      -1.125683       -30.6314
  62   2.0000      -1.119288       -30.4574
  63   2.0000      -1.012021       -27.5385
  64   2.0000      -1.004402       -27.3312
  65   2.0000      -0.995661       -27.0933
  66   2.0000      -0.994472       -27.0610
  67   2.0000      -0.989273       -26.9195
  68   2.0000      -0.983429       -26.7605
  69   2.0000      -0.978672       -26.6310
  70   2.0000      -0.969933       -26.3932
  71   2.0000      -0.954112       -25.9627
  72   2.0000      -0.919609       -25.0238
  73   2.0000      -0.911714       -24.8090
  74   2.0000      -0.889952       -24.2168
  75   2.0000      -0.877055       -23.8659
  76   2.0000      -0.863213       -23.4892
  77   2.0000      -0.847709       -23.0673
  78   2.0000      -0.829287       -22.5660
  79   2.0000      -0.823998       -22.4221
  80   2.0000      -0.820559       -22.3285
  81   2.0000      -0.814905       -22.1747
  82   2.0000      -0.797354       -21.6971
  83   2.0000      -0.778885       -21.1945
  84   2.0000      -0.771825       -21.0024
  85   2.0000      -0.766841       -20.8668
  86   2.0000      -0.762680       -20.7536
  87   2.0000      -0.737479       -20.0678
  88   2.0000      -0.733769       -19.9669
  89   2.0000      -0.725657       -19.7461
  90   2.0000      -0.705701       -19.2031
  91   2.0000      -0.699117       -19.0239
  92   2.0000      -0.690422       -18.7873
  93   2.0000      -0.682131       -18.5617
  94   2.0000      -0.680712       -18.5231
  95   2.0000      -0.658661       -17.9231
  96   2.0000      -0.652853       -17.7650
  97   2.0000      -0.646909       -17.6033
  98   2.0000      -0.640593       -17.4314
  99   2.0000      -0.623537       -16.9673
 100   2.0000      -0.622461       -16.9380
 101   2.0000      -0.616677       -16.7806
 102   2.0000      -0.605038       -16.4639
 103   2.0000      -0.600907       -16.3515
 104   2.0000      -0.592029       -16.1099
 105   2.0000      -0.581219       -15.8158
 106   2.0000      -0.577983       -15.7277
 107   2.0000      -0.573043       -15.5933
 108   2.0000      -0.568644       -15.4736
 109   2.0000      -0.565689       -15.3932
 110   2.0000      -0.563454       -15.3324
 111   2.0000      -0.562972       -15.3192
 112   2.0000      -0.558354       -15.1936
 113   2.0000      -0.553436       -15.0597
 114   2.0000      -0.551299       -15.0016
 115   2.0000      -0.549484       -14.9522
 116   2.0000      -0.546403       -14.8684
 117   2.0000      -0.540270       -14.7015
 118   2.0000      -0.534784       -14.5522
 119   2.0000      -0.530991       -14.4490
 120   2.0000      -0.522102       -14.2071
 121   2.0000      -0.521592       -14.1932
 122   2.0000      -0.517054       -14.0698
 123   2.0000      -0.513640       -13.9769
 124   2.0000      -0.512897       -13.9566
 125   2.0000      -0.508994       -13.8504
 126   2.0000      -0.502671       -13.6784
 127   2.0000      -0.495387       -13.4802
 128   2.0000      -0.493465       -13.4279
 129   2.0000      -0.490225       -13.3397
 130   2.0000      -0.487294       -13.2599
 131   2.0000      -0.484929       -13.1956
 132   2.0000      -0.480522       -13.0757
 133   2.0000      -0.479298       -13.0424
 134   2.0000      -0.474080       -12.9004
 135   2.0000      -0.466963       -12.7067
 136   2.0000      -0.463059       -12.6005
 137   2.0000      -0.457755       -12.4562
 138   2.0000      -0.457316       -12.4442
 139   2.0000      -0.453922       -12.3519
 140   2.0000      -0.453340       -12.3360
 141   2.0000      -0.451314       -12.2809
 142   2.0000      -0.447700       -12.1825
 143   2.0000      -0.447311       -12.1719
 144   2.0000      -0.438151       -11.9227
 145   2.0000      -0.437400       -11.9023
 146   2.0000      -0.429113       -11.6768
 147   2.0000      -0.425819       -11.5871
 148   2.0000      -0.421455       -11.4684
 149   2.0000      -0.419538       -11.4162
 150   2.0000      -0.415273       -11.3002
 151   2.0000      -0.410355       -11.1663
 152   2.0000      -0.408281       -11.1099
 153   2.0000      -0.406939       -11.0734
 154   2.0000      -0.405679       -11.0391
 155   2.0000      -0.402647       -10.9566
 156   2.0000      -0.402018       -10.9395
 157   2.0000      -0.399790       -10.8788
 158   2.0000      -0.395106       -10.7514
 159   2.0000      -0.394182       -10.7262
 160   2.0000      -0.383820       -10.4443
 161   2.0000      -0.375954       -10.2302
 162   2.0000      -0.345187        -9.3930
 163   2.0000      -0.342050        -9.3077
 164   2.0000      -0.339333        -9.2337
 165   2.0000      -0.335930        -9.1411
 166   2.0000      -0.328394        -8.9361
 167   2.0000      -0.325951        -8.8696
 168   2.0000      -0.317001        -8.6260
 169   2.0000      -0.308882        -8.4051
 170   2.0000      -0.305509        -8.3133
 171   2.0000      -0.301188        -8.1957
 172   2.0000      -0.290931        -7.9166
 173   2.0000      -0.260743        -7.0952
 174   0.0000      -0.054794        -1.4910
 175   0.0000      -0.039779        -1.0824
 176   0.0000      -0.009135        -0.2486
 177   0.0000      -0.003124        -0.0850
 178   0.0000       0.004717         0.1284

MULLIKEN ATOMIC CHARGES
-----------------------
   0 N :   -0.203217
   1 C :    0.076673
   2 C :    0.117772
   3 C :   -0.044783
   4 C :   -0.192701
   5 C :   -0.170018
   6 S :    0.208934
   7 C :   -0.080653
   8 C :   -0.072678
   9 N :   -0.095420
  10 C :    0.106405
  11 N :   -0.129818
  12 C :    0.103523
  13 N :   -0.097272
  14 C :   -0.137589
  15 C :   -0.062835
  16 C :    0.148266
  17 C :    0.187380
  18 F :   -0.247996
  19 C :    0.211896
  20 F :   -0.247548
  21 C :    0.173166
  22 S :    0.147544
  23 C :   -0.195242
  24 C :   -0.100330
  25 S :    0.214869
  26 C :   -0.085349
  27 C :   -0.074088
  28 N :   -0.094758
  29 C :    0.104090
  30 N :   -0.131490
  31 C :    0.102975
  32 N :   -0.098535
  33 C :   -0.126728
  34 C :   -0.089205
  35 C :    0.157703
  36 C :    0.186589
  37 F :   -0.248395
  38 C :    0.200879
  39 F :   -0.248177
  40 C :    0.177170
  41 C :   -0.080765
  42 C :    0.149902
  43 C :    0.093794
  44 N :   -0.233414
  45 H :    0.103459
  46 H :    0.099529
  47 H :    0.021744
  48 H :    0.007480
  49 H :    0.004802
  50 H :    0.000440
  51 H :    0.025764
  52 H :    0.024564
  53 H :    0.033388
  54 H :    0.021606
  55 H :    0.009373
  56 H :   -0.000189
  57 H :    0.030795
  58 H :    0.034243
  59 H :    0.021487
  60 H :    0.020953
  61 H :    0.022385
  62 H :    0.021336
  63 H :    0.003856
  64 H :    0.001829
  65 H :    0.027154
  66 H :    0.034158
  67 H :   -0.009278
  68 H :   -0.007426
  69 H :   -0.023775
  70 H :    0.001411
  71 H :    0.098051
  72 H :    0.090331
Sum of atomic charges:   -0.0000000

LOEWDIN ATOMIC CHARGES
----------------------
   0 N :   -0.087084
   1 C :    0.022528
   2 C :   -0.031376
   3 C :   -0.046131
   4 C :   -0.206618
   5 C :   -0.183001
   6 S :    0.486232
   7 C :   -0.212272
   8 C :    0.038676
   9 N :   -0.113232
  10 C :    0.076723
  11 N :   -0.113712
  12 C :    0.075017
  13 N :   -0.100434
  14 C :   -0.026298
  15 C :   -0.069888
  16 C :   -0.036729
  17 C :    0.095549
  18 F :   -0.126389
  19 C :    0.092949
  20 F :   -0.124512
  21 C :   -0.037317
  22 S :    0.444548
  23 C :   -0.203481
  24 C :   -0.170959
  25 S :    0.509679
  26 C :   -0.211660
  27 C :    0.040596
  28 N :   -0.114352
  29 C :    0.074189
  30 N :   -0.117188
  31 C :    0.073660
  32 N :   -0.100837
  33 C :   -0.023485
  34 C :   -0.071119
  35 C :   -0.042353
  36 C :    0.094270
  37 F :   -0.126677
  38 C :    0.092430
  39 F :   -0.126030
  40 C :   -0.036934
  41 C :   -0.043162
  42 C :   -0.049679
  43 C :    0.026628
  44 N :   -0.122978
  45 H :    0.059499
  46 H :    0.055314
  47 H :    0.022924
  48 H :    0.004674
  49 H :    0.030583
  50 H :    0.030068
  51 H :    0.024678
  52 H :    0.023844
  53 H :    0.040402
  54 H :    0.034183
  55 H :    0.020601
  56 H :    0.017600
  57 H :    0.046641
  58 H :    0.042758
  59 H :    0.022892
  60 H :    0.022708
  61 H :    0.023059
  62 H :    0.036824
  63 H :    0.019253
  64 H :    0.018264
  65 H :    0.044896
  66 H :    0.041010
  67 H :    0.020973
  68 H :    0.013908
  69 H :   -0.005864
  70 H :    0.019090
  71 H :    0.047648
  72 H :    0.053783

  Mayer bond orders larger than 0.100000
B(  0-N ,  1-C ) :   1.0595 B(  0-N , 45-H ) :   0.9671 B(  0-N , 46-H ) :   0.9697
B(  0-N , 67-H ) :   0.1665 B(  1-C ,  2-C ) :   1.0455 B(  1-C , 47-H ) :   0.9542
B(  1-C , 48-H ) :   0.9466 B(  2-C ,  3-C ) :   1.1045 B(  2-C , 49-H ) :   0.9067
B(  2-C , 50-H ) :   0.9081 B(  3-C ,  4-C ) :   1.5951 B(  3-C , 41-C ) :   1.2353
B(  4-C ,  5-C ) :   0.9948 B(  4-C , 22-S ) :   1.1288 B(  4-C , 23-C ) :   0.1235
B(  5-C ,  6-S ) :   1.1683 B(  5-C ,  7-C ) :   0.1248 B(  5-C , 15-C ) :   1.5554
B(  6-S ,  7-C ) :   1.1188 B(  7-C ,  8-C ) :   1.0553 B(  7-C , 14-C ) :   1.5544
B(  8-C ,  9-N ) :   1.5800 B(  8-C , 13-N ) :   1.5354 B(  9-N , 10-C ) :   1.5270
B( 10-C , 11-N ) :   1.4953 B( 10-C , 51-H ) :   0.9768 B( 11-N , 12-C ) :   1.5145
B( 12-C , 13-N ) :   1.5000 B( 12-C , 52-H ) :   0.9771 B( 14-C , 15-C ) :   1.2961
B( 14-C , 21-C ) :   1.0272 B( 15-C , 16-C ) :   1.0167 B( 16-C , 17-C ) :   1.0322
B( 16-C , 53-H ) :   0.9044 B( 16-C , 54-H ) :   0.8913 B( 17-C , 18-F ) :   1.0282
B( 17-C , 19-C ) :   1.0135 B( 17-C , 55-H ) :   0.9410 B( 19-C , 20-F ) :   1.0271
B( 19-C , 21-C ) :   1.0107 B( 19-C , 56-H ) :   0.9325 B( 21-C , 57-H ) :   0.8988
B( 21-C , 58-H ) :   0.8947 B( 22-S , 23-C ) :   1.1177 B( 23-C , 24-C ) :   1.0191
B( 23-C , 41-C ) :   1.5708 B( 24-C , 25-S ) :   1.1751 B( 24-C , 26-C ) :   0.1204
B( 24-C , 34-C ) :   1.5320 B( 25-S , 26-C ) :   1.1276 B( 26-C , 27-C ) :   1.0610
B( 26-C , 33-C ) :   1.5457 B( 27-C , 28-N ) :   1.5778 B( 27-C , 32-N ) :   1.5269
B( 28-N , 29-C ) :   1.5304 B( 29-C , 30-N ) :   1.4947 B( 29-C , 59-H ) :   0.9770
B( 30-N , 31-C ) :   1.5126 B( 31-C , 32-N ) :   1.5051 B( 31-C , 60-H ) :   0.9772
B( 33-C , 34-C ) :   1.3109 B( 33-C , 40-C ) :   1.0245 B( 34-C , 35-C ) :   1.0157
B( 35-C , 36-C ) :   1.0318 B( 35-C , 61-H ) :   0.8948 B( 35-C , 62-H ) :   0.8984
B( 36-C , 37-F ) :   1.0265 B( 36-C , 38-C ) :   1.0120 B( 36-C , 63-H ) :   0.9385
B( 38-C , 39-F ) :   1.0280 B( 38-C , 40-C ) :   1.0134 B( 38-C , 64-H ) :   0.9361
B( 40-C , 65-H ) :   0.8997 B( 40-C , 66-H ) :   0.8920 B( 41-C , 42-C ) :   1.1001
B( 42-C , 43-C ) :   1.0793 B( 42-C , 67-H ) :   0.8461 B( 42-C , 68-H ) :   0.8805
B( 43-C , 44-N ) :   1.0958 B( 43-C , 69-H ) :   0.9390 B( 43-C , 70-H ) :   0.9444
B( 44-N , 71-H ) :   0.9606 B( 44-N , 72-H ) :   0.9692

-----------------------------------------------------------------------------
         ABSORPTION SPECTRUM VIA TRANSITION ELECTRIC DIPOLE MOMENTS
-----------------------------------------------------------------------------
State   Energy  Wavelength   fosc         T2         TX        TY        TZ
        (cm-1)    (nm)                  (au**2)     (au)      (au)      (au)
-----------------------------------------------------------------------------
   0   27948.7    357.8   1.199708054  14.13152  -2.49216  -1.48602  -2.39006
   1   31694.9    315.5   0.089878397   0.93356  -0.84381   0.25500   0.39563
   2   33740.7    296.4   0.146688908   1.43126  -0.61798  -0.36413  -0.95748
   3   36608.1    273.2   0.054369073   0.48893  -0.69270   0.04985  -0.08133
   4   37293.0    268.1   0.076538641   0.67566  -0.46143   0.51004   0.45012
   5   37844.1    264.2   0.105664334   0.91919   0.09754  -0.81085  -0.50219
   6   38817.5    257.6   0.009423278   0.07992   0.25424  -0.05941   0.10840
   7   39414.9    253.7   0.053088282   0.44342   0.32522  -0.08071   0.57544

FINAL SINGLE POINT ENERGY     -3189.253337357944

DIPOLE MOMENT
-------------
                                X             Y             Z
Electronic contribution:     18.66478      -7.85539     -24.84243
Nuclear contribution   :    -20.39856       8.16665      25.75308
                        -----------------------------------------
Total Dipole Moment    :     -1.73378       0.31126       0.91065
                        -----------------------------------------
Magnitude (a.u.)       :      1.98296
Magnitude (Debye)      :      5.04029

Rotational constants in cm-1:     0.003291     0.001037     0.000868
Rotational constants in MHz :    98.658829    31.087106    26.027227

                             ****ORCA TERMINATED NORMALLY****
TOTAL RUN TIME: 0 days 0 hours 4 minutes 59 seconds 810 msec
