                         Program Version 4.2.0 -  RELEASE  -
|  1> # ORCA input file
|  2> # SCF done       -228.056612459515          0.000662935866
|  3> ! CAM-B3LYP def2-SVP def2/J RIJCOSX Grid4 TightSCF
|  4> %maxcore 5000
|  5> %tddft
|  6>     Mode sTDDFT
|  7>     Ethresh 5.0
|  8>     maxcore 5000
|  9> end
| 10>
| 11> %pal
| 12>   nprocs 6
| 13>   end
| 14> * xyz 0 1
| 15>    N        5.30261         5.64970        -0.32869
| 16>    C        6.12745         5.68954         0.46765
| 17>    C        7.19057         5.73403         1.38928
| 18>    C        8.34909         6.41222         0.95976
| 19>    N        9.29554         6.96350         0.61985
| 20>    C        7.14683         5.12463         2.61446
| 21>    S        8.49993         5.09833         3.69797
| 22>    C        7.61689         4.02202         4.95291
| 23>    C        8.43917         2.75353         5.03059
| 24>    C        9.78888         2.87318         5.35604
| 25>    C       10.60046         1.75776         5.41497
| 26>    C       10.07793         0.50405         5.14025
| 27>    C        8.74355         0.38012         4.80151
| 28>    C        7.92619         1.49764         4.74169
| 29>    C        7.54131         4.78852         6.26038
| 30>    C        6.93038         6.03927         6.26121
| 31>    C        6.81638         6.76315         7.43215
| 32>    C        7.31316         6.24754         8.61765
| 33>    C        7.92173         5.00518         8.62315
| 34>    C        8.03584         4.27491         7.45308
| 35>    C        6.23161         3.82525         4.39246
| 36>    C        5.24780         3.08724         5.12486
| 37>    S        5.18760         3.20333         6.86851
| 38>    C        3.79421         2.17431         6.94909
| 39>    C        3.17264         1.93673         8.22771
| 40>    C        3.11634         2.94044         9.20849
| 41>    N        2.51576         2.77075        10.35830
| 42>    C        1.94490         1.58447        10.59356
| 43>    C        1.23552         1.47540        11.83669
| 44>    S        1.20012         2.87081        12.84812
| 45>    C        0.19471         2.04394        14.00366
| 46>    C       -0.25503         2.73043        15.18482
| 47>    C       -0.24174         2.19444        16.44068
| 48>    C        0.42027         0.98812        16.74162
| 49>    N        1.03847         0.04272        16.94027
| 50>    C       -0.78552         3.03135        17.48352
| 51>    C       -0.96183         2.68815        18.79727
| 52>    C       -0.69280         1.40879        19.31893
| 53>    N       -0.52405         0.37655        19.79064
| 54>    C       -1.47894         3.61909        19.72133
| 55>    N       -1.89249         4.38365        20.46960
| 56>    S       -1.22377         4.58948        16.86166
| 57>    C       -0.72045         4.16173        15.11015
| 58>    C       -1.94938         4.41436        14.26532
| 59>    C       -2.52116         5.68426        14.32302
| 60>    C       -3.65369         5.97991        13.59081
| 61>    C       -4.23776         5.00890        12.79248
| 62>    C       -3.68282         3.74417        12.73960
| 63>    C       -2.54683         3.44544        13.47469
| 64>    C        0.46008         5.03811        14.72363
| 65>    C        1.57723         5.06835        15.55211
| 66>    C        2.67479         5.83927        15.22136
| 67>    C        2.67194         6.58683        14.05581
| 68>    C        1.56676         6.55583        13.22467
| 69>    C        0.46495         5.78540        13.55216
| 70>    C       -0.09382         0.74674        13.60009
| 71>    C        0.49454         0.43739        12.35792
| 72>    C        0.22694        -0.86214        11.67573
| 73>    C       -1.23354        -1.24028        11.97115
| 74>    C       -2.16129        -0.17332        11.46416
| 75>    O       -2.97477         0.43053        12.10049
| 76>    C       -2.01664         0.15794         9.94411
| 77>    F       -1.61203        -0.89265         9.21508
| 78>    F       -3.17591         0.56911         9.43142
| 79>    F       -1.12293         1.14005         9.74470
| 80>    C       -1.39501        -1.43997        13.47777
| 81>    C       -1.04197        -0.18476        14.29335
| 82>    N        2.00080         0.54195         9.76386
| 83>    C        2.60277         0.71613         8.60774
| 84>    C        3.42989         1.73175         5.69981
| 85>    C        4.24725         2.24772         4.67218
| 86>    C        3.89203         1.80981         3.29524
| 87>    C        2.40538         2.15784         3.09570
| 88>    C        2.07973         3.60887         3.43210
| 89>    O        2.28329         4.13555         4.49700
| 90>    C        1.03368         4.23949         2.46667
| 91>    F        1.21702         3.93052         1.18174
| 92>    F       -0.18679         3.75028         2.79336
| 93>    F        0.96137         5.55935         2.57316
| 94>    C        1.54548         1.30318         4.05913
| 95>    C        2.29149         0.83864         5.32980
| 96>    C        6.01498         4.43724         3.18397
| 97>    C        4.73325         4.52462         2.62378
| 98>    N        3.63426         4.58518         2.29070
| 99>    H       10.20060         3.85250         5.55544
|100>    H       11.64346         1.86890         5.66892
|101>    H       10.71119        -0.36883         5.18136
|102>    H        8.32950        -0.59060         4.57366
|103>    H        6.89022         1.37463         4.46583
|104>    H        6.54115         6.45150         5.34089
|105>    H        6.33818         7.73047         7.41646
|106>    H        7.22467         6.81211         9.53324
|107>    H        8.30931         4.59440         9.54305
|108>    H        8.49554         3.29912         7.47695
|109>    H        3.56582         3.91054         9.03551
|110>    H       -2.07086         6.44002        14.95157
|111>    H       -4.08286         6.96873        13.64753
|112>    H       -5.12429         5.23787        12.22112
|113>    H       -4.12929         2.97228        12.13212
|114>    H       -2.14221         2.44894        13.41569
|115>    H        1.59043         4.49188        16.46646
|116>    H        3.53226         5.85483        15.87675
|117>    H        3.52899         7.18995        13.79754
|118>    H        1.55682         7.13103        12.31157
|119>    H       -0.38425         5.76018        12.88743
|120>    H        0.87604        -1.64047        12.08331
|121>    H        0.44536        -0.77658        10.61241
|122>    H       -1.48070        -2.16577        11.43779
|123>    H       -0.74348        -2.26237        13.77422
|124>    H       -2.42159        -1.72796        13.70547
|125>    H       -0.61469        -0.51214        15.24205
|126>    H       -1.95494         0.36908        14.53018
|127>    H        2.66240        -0.15965         7.97529
|128>    H        3.98797         0.72124         3.22757
|129>    H        4.51392         2.24717         2.51916
|130>    H        2.12333         1.95504         2.06146
|131>    H        1.19041         0.42306         3.52237
|132>    H        0.66641         1.87617         4.35561
|133>    H        2.69681        -0.16355         5.15319
|134>    H        1.58213         0.76742         6.15384
|135> *
|136>
|137>                          ****END OF INPUT****

CARTESIAN COORDINATES (ANGSTROEM)
---------------------------------
  N      5.302610    5.649700   -0.328690
  C      6.127450    5.689540    0.467650
  C      7.190570    5.734030    1.389280
  C      8.349090    6.412220    0.959760
  N      9.295540    6.963500    0.619850
  C      7.146830    5.124630    2.614460
  S      8.499930    5.098330    3.697970
  C      7.616890    4.022020    4.952910
  C      8.439170    2.753530    5.030590
  C      9.788880    2.873180    5.356040
  C     10.600460    1.757760    5.414970
  C     10.077930    0.504050    5.140250
  C      8.743550    0.380120    4.801510
  C      7.926190    1.497640    4.741690
  C      7.541310    4.788520    6.260380
  C      6.930380    6.039270    6.261210
  C      6.816380    6.763150    7.432150
  C      7.313160    6.247540    8.617650
  C      7.921730    5.005180    8.623150
  C      8.035840    4.274910    7.453080
  C      6.231610    3.825250    4.392460
  C      5.247800    3.087240    5.124860
  S      5.187600    3.203330    6.868510
  C      3.794210    2.174310    6.949090
  C      3.172640    1.936730    8.227710
  C      3.116340    2.940440    9.208490
  N      2.515760    2.770750   10.358300
  C      1.944900    1.584470   10.593560
  C      1.235520    1.475400   11.836690
  S      1.200120    2.870810   12.848120
  C      0.194710    2.043940   14.003660
  C     -0.255030    2.730430   15.184820
  C     -0.241740    2.194440   16.440680
  C      0.420270    0.988120   16.741620
  N      1.038470    0.042720   16.940270
  C     -0.785520    3.031350   17.483520
  C     -0.961830    2.688150   18.797270
  C     -0.692800    1.408790   19.318930
  N     -0.524050    0.376550   19.790640
  C     -1.478940    3.619090   19.721330
  N     -1.892490    4.383650   20.469600
  S     -1.223770    4.589480   16.861660
  C     -0.720450    4.161730   15.110150
  C     -1.949380    4.414360   14.265320
  C     -2.521160    5.684260   14.323020
  C     -3.653690    5.979910   13.590810
  C     -4.237760    5.008900   12.792480
  C     -3.682820    3.744170   12.739600
  C     -2.546830    3.445440   13.474690
  C      0.460080    5.038110   14.723630
  C      1.577230    5.068350   15.552110
  C      2.674790    5.839270   15.221360
  C      2.671940    6.586830   14.055810
  C      1.566760    6.555830   13.224670
  C      0.464950    5.785400   13.552160
  C     -0.093820    0.746740   13.600090
  C      0.494540    0.437390   12.357920
  C      0.226940   -0.862140   11.675730
  C     -1.233540   -1.240280   11.971150
  C     -2.161290   -0.173320   11.464160
  O     -2.974770    0.430530   12.100490
  C     -2.016640    0.157940    9.944110
  F     -1.612030   -0.892650    9.215080
  F     -3.175910    0.569110    9.431420
  F     -1.122930    1.140050    9.744700
  C     -1.395010   -1.439970   13.477770
  C     -1.041970   -0.184760   14.293350
  N      2.000800    0.541950    9.763860
  C      2.602770    0.716130    8.607740
  C      3.429890    1.731750    5.699810
  C      4.247250    2.247720    4.672180
  C      3.892030    1.809810    3.295240
  C      2.405380    2.157840    3.095700
  C      2.079730    3.608870    3.432100
  O      2.283290    4.135550    4.497000
  C      1.033680    4.239490    2.466670
  F      1.217020    3.930520    1.181740
  F     -0.186790    3.750280    2.793360
  F      0.961370    5.559350    2.573160
  C      1.545480    1.303180    4.059130
  C      2.291490    0.838640    5.329800
  C      6.014980    4.437240    3.183970
  C      4.733250    4.524620    2.623780
  N      3.634260    4.585180    2.290700
  H     10.200600    3.852500    5.555440
  H     11.643460    1.868900    5.668920
  H     10.711190   -0.368830    5.181360
  H      8.329500   -0.590600    4.573660
  H      6.890220    1.374630    4.465830
  H      6.541150    6.451500    5.340890
  H      6.338180    7.730470    7.416460
  H      7.224670    6.812110    9.533240
  H      8.309310    4.594400    9.543050
  H      8.495540    3.299120    7.476950
  H      3.565820    3.910540    9.035510
  H     -2.070860    6.440020   14.951570
  H     -4.082860    6.968730   13.647530
  H     -5.124290    5.237870   12.221120
  H     -4.129290    2.972280   12.132120
  H     -2.142210    2.448940   13.415690
  H      1.590430    4.491880   16.466460
  H      3.532260    5.854830   15.876750
  H      3.528990    7.189950   13.797540
  H      1.556820    7.131030   12.311570
  H     -0.384250    5.760180   12.887430
  H      0.876040   -1.640470   12.083310
  H      0.445360   -0.776580   10.612410
  H     -1.480700   -2.165770   11.437790
  H     -0.743480   -2.262370   13.774220
  H     -2.421590   -1.727960   13.705470
  H     -0.614690   -0.512140   15.242050
  H     -1.954940    0.369080   14.530180
  H      2.662400   -0.159650    7.975290
  H      3.987970    0.721240    3.227570
  H      4.513920    2.247170    2.519160
  H      2.123330    1.955040    2.061460
  H      1.190410    0.423060    3.522370
  H      0.666410    1.876170    4.355610
  H      2.696810   -0.163550    5.153190
  H      1.582130    0.767420    6.153840

 Total Charge           Charge          ....    0
 Multiplicity           Mult            ....    1
 Number of Electrons    NEL             ....  610
 Basis Dimension        Dim             .... 1372

ORBITAL ENERGIES
----------------

  NO   OCC          E(Eh)            E(eV)
   0   2.0000     -88.982219     -2421.3293
   1   2.0000     -88.978396     -2421.2253
   2   2.0000     -88.974067     -2421.1074
   3   2.0000     -88.968189     -2420.9475
   4   2.0000     -24.825881      -675.5466
   5   2.0000     -24.823259      -675.4752
   6   2.0000     -24.817770      -675.3259
   7   2.0000     -24.794967      -674.7054
   8   2.0000     -24.794224      -674.6851
   9   2.0000     -24.791426      -674.6090
  10   2.0000     -19.263241      -524.1794
  11   2.0000     -19.219919      -523.0006
  12   2.0000     -14.442865      -393.0103
  13   2.0000     -14.437441      -392.8627
  14   2.0000     -14.436171      -392.8282
  15   2.0000     -14.421421      -392.4268
  16   2.0000     -14.415225      -392.2582
  17   2.0000     -14.412423      -392.1820
  18   2.0000     -14.408127      -392.0651
  19   2.0000     -14.403246      -391.9323
  20   2.0000     -10.532818      -286.6125
  21   2.0000     -10.503934      -285.8266
  22   2.0000     -10.404128      -283.1107
  23   2.0000     -10.385833      -282.6129
  24   2.0000     -10.374305      -282.2992
  25   2.0000     -10.372503      -282.2502
  26   2.0000     -10.366767      -282.0941
  27   2.0000     -10.366595      -282.0894
  28   2.0000     -10.364599      -282.0351
  29   2.0000     -10.355164      -281.7783
  30   2.0000     -10.353240      -281.7260
  31   2.0000     -10.352118      -281.6955
  32   2.0000     -10.348841      -281.6063
  33   2.0000     -10.347562      -281.5715
  34   2.0000     -10.347398      -281.5670
  35   2.0000     -10.346882      -281.5530
  36   2.0000     -10.343769      -281.4683
  37   2.0000     -10.339566      -281.3539
  38   2.0000     -10.333696      -281.1942
  39   2.0000     -10.330932      -281.1189
  40   2.0000     -10.324070      -280.9322
  41   2.0000     -10.322108      -280.8788
  42   2.0000     -10.320527      -280.8358
  43   2.0000     -10.316644      -280.7302
  44   2.0000     -10.315520      -280.6996
  45   2.0000     -10.314687      -280.6769
  46   2.0000     -10.314227      -280.6644
  47   2.0000     -10.311375      -280.5868
  48   2.0000     -10.311160      -280.5809
  49   2.0000     -10.309575      -280.5378
  50   2.0000     -10.307775      -280.4888
  51   2.0000     -10.305878      -280.4372
  52   2.0000     -10.305623      -280.4303
  53   2.0000     -10.305030      -280.4141
  54   2.0000     -10.304316      -280.3947
  55   2.0000     -10.302536      -280.3462
  56   2.0000     -10.301131      -280.3080
  57   2.0000     -10.299800      -280.2718
  58   2.0000     -10.299334      -280.2591
  59   2.0000     -10.296835      -280.1911
  60   2.0000     -10.295883      -280.1652
  61   2.0000     -10.294834      -280.1367
  62   2.0000     -10.294670      -280.1322
  63   2.0000     -10.294392      -280.1247
  64   2.0000     -10.293890      -280.1110
  65   2.0000     -10.293440      -280.0987
  66   2.0000     -10.291949      -280.0582
  67   2.0000     -10.291860      -280.0558
  68   2.0000     -10.291840      -280.0552
  69   2.0000     -10.291473      -280.0452
  70   2.0000     -10.290430      -280.0168
  71   2.0000     -10.290374      -280.0153
  72   2.0000     -10.286391      -279.9069
  73   2.0000     -10.285210      -279.8748
  74   2.0000     -10.284564      -279.8572
  75   2.0000     -10.283942      -279.8403
  76   2.0000     -10.283086      -279.8170
  77   2.0000     -10.282121      -279.7907
  78   2.0000     -10.281894      -279.7846
  79   2.0000     -10.281118      -279.7634
  80   2.0000     -10.278388      -279.6892
  81   2.0000     -10.277650      -279.6691
  82   2.0000     -10.275933      -279.6223
  83   2.0000     -10.274093      -279.5723
  84   2.0000      -8.076435      -219.7710
  85   2.0000      -8.073306      -219.6858
  86   2.0000      -8.067755      -219.5348
  87   2.0000      -8.063162      -219.4098
  88   2.0000      -6.045937      -164.5183
  89   2.0000      -6.043264      -164.4456
  90   2.0000      -6.041564      -164.3993
  91   2.0000      -6.039413      -164.3408
  92   2.0000      -6.038429      -164.3140
  93   2.0000      -6.037064      -164.2769
  94   2.0000      -6.033516      -164.1803
  95   2.0000      -6.033067      -164.1681
  96   2.0000      -6.032729      -164.1589
  97   2.0000      -6.030099      -164.0873
  98   2.0000      -6.029253      -164.0643
  99   2.0000      -6.023440      -163.9061
 100   2.0000      -1.411815       -38.4174
 101   2.0000      -1.383552       -37.6484
 102   2.0000      -1.315913       -35.8078
 103   2.0000      -1.312855       -35.7246
 104   2.0000      -1.288272       -35.0557
 105   2.0000      -1.283401       -34.9231
 106   2.0000      -1.181032       -32.1375
 107   2.0000      -1.145074       -31.1591
 108   2.0000      -1.111991       -30.2588
 109   2.0000      -1.052440       -28.6384
 110   2.0000      -1.039098       -28.2753
 111   2.0000      -1.026603       -27.9353
 112   2.0000      -1.018806       -27.7231
 113   2.0000      -1.010543       -27.4983
 114   2.0000      -1.007008       -27.4021
 115   2.0000      -1.005844       -27.3704
 116   2.0000      -1.002213       -27.2716
 117   2.0000      -0.998102       -27.1597
 118   2.0000      -0.991724       -26.9862
 119   2.0000      -0.982922       -26.7467
 120   2.0000      -0.980388       -26.6777
 121   2.0000      -0.971143       -26.4262
 122   2.0000      -0.968881       -26.3646
 123   2.0000      -0.958480       -26.0816
 124   2.0000      -0.952867       -25.9288
 125   2.0000      -0.948747       -25.8167
 126   2.0000      -0.945081       -25.7170
 127   2.0000      -0.931669       -25.3520
 128   2.0000      -0.924086       -25.1457
 129   2.0000      -0.913527       -24.8583
 130   2.0000      -0.903574       -24.5875
 131   2.0000      -0.886369       -24.1193
 132   2.0000      -0.877097       -23.8670
 133   2.0000      -0.869155       -23.6509
 134   2.0000      -0.868464       -23.6321
 135   2.0000      -0.864312       -23.5191
 136   2.0000      -0.860488       -23.4151
 137   2.0000      -0.858720       -23.3670
 138   2.0000      -0.852414       -23.1954
 139   2.0000      -0.851683       -23.1755
 140   2.0000      -0.849269       -23.1098
 141   2.0000      -0.845796       -23.0153
 142   2.0000      -0.843141       -22.9430
 143   2.0000      -0.839309       -22.8388
 144   2.0000      -0.833973       -22.6935
 145   2.0000      -0.823982       -22.4217
 146   2.0000      -0.814892       -22.1744
 147   2.0000      -0.811699       -22.0875
 148   2.0000      -0.791686       -21.5429
 149   2.0000      -0.772984       -21.0340
 150   2.0000      -0.771923       -21.0051
 151   2.0000      -0.759747       -20.6738
 152   2.0000      -0.757552       -20.6140
 153   2.0000      -0.750166       -20.4131
 154   2.0000      -0.739413       -20.1205
 155   2.0000      -0.737030       -20.0556
 156   2.0000      -0.732689       -19.9375
 157   2.0000      -0.724591       -19.7171
 158   2.0000      -0.722928       -19.6719
 159   2.0000      -0.718620       -19.5547
 160   2.0000      -0.710135       -19.3237
 161   2.0000      -0.709467       -19.3056
 162   2.0000      -0.705557       -19.1992
 163   2.0000      -0.703042       -19.1307
 164   2.0000      -0.699539       -19.0354
 165   2.0000      -0.698271       -19.0009
 166   2.0000      -0.694801       -18.9065
 167   2.0000      -0.693427       -18.8691
 168   2.0000      -0.689906       -18.7733
 169   2.0000      -0.687812       -18.7163
 170   2.0000      -0.686179       -18.6719
 171   2.0000      -0.682873       -18.5819
 172   2.0000      -0.675263       -18.3749
 173   2.0000      -0.670970       -18.2580
 174   2.0000      -0.667173       -18.1547
 175   2.0000      -0.664821       -18.0907
 176   2.0000      -0.660438       -17.9714
 177   2.0000      -0.655391       -17.8341
 178   2.0000      -0.646465       -17.5912
 179   2.0000      -0.644098       -17.5268
 180   2.0000      -0.636267       -17.3137
 181   2.0000      -0.630304       -17.1515
 182   2.0000      -0.627472       -17.0744
 183   2.0000      -0.623879       -16.9766
 184   2.0000      -0.614218       -16.7137
 185   2.0000      -0.610916       -16.6239
 186   2.0000      -0.604704       -16.4548
 187   2.0000      -0.603376       -16.4187
 188   2.0000      -0.600514       -16.3408
 189   2.0000      -0.591678       -16.1004
 190   2.0000      -0.579923       -15.7805
 191   2.0000      -0.578011       -15.7285
 192   2.0000      -0.573349       -15.6016
 193   2.0000      -0.572682       -15.5835
 194   2.0000      -0.572289       -15.5728
 195   2.0000      -0.568294       -15.4641
 196   2.0000      -0.564585       -15.3632
 197   2.0000      -0.564072       -15.3492
 198   2.0000      -0.562833       -15.3155
 199   2.0000      -0.559783       -15.2325
 200   2.0000      -0.555640       -15.1197
 201   2.0000      -0.554941       -15.1007
 202   2.0000      -0.550362       -14.9761
 203   2.0000      -0.549379       -14.9494
 204   2.0000      -0.548023       -14.9125
 205   2.0000      -0.545406       -14.8413
 206   2.0000      -0.544777       -14.8241
 207   2.0000      -0.543864       -14.7993
 208   2.0000      -0.540983       -14.7209
 209   2.0000      -0.538557       -14.6549
 210   2.0000      -0.536931       -14.6106
 211   2.0000      -0.535936       -14.5836
 212   2.0000      -0.534823       -14.5533
 213   2.0000      -0.532034       -14.4774
 214   2.0000      -0.529786       -14.4162
 215   2.0000      -0.529108       -14.3978
 216   2.0000      -0.527847       -14.3634
 217   2.0000      -0.526824       -14.3356
 218   2.0000      -0.525756       -14.3066
 219   2.0000      -0.524009       -14.2590
 220   2.0000      -0.522027       -14.2051
 221   2.0000      -0.520004       -14.1500
 222   2.0000      -0.516664       -14.0591
 223   2.0000      -0.515369       -14.0239
 224   2.0000      -0.514416       -13.9980
 225   2.0000      -0.512076       -13.9343
 226   2.0000      -0.510234       -13.8842
 227   2.0000      -0.509858       -13.8739
 228   2.0000      -0.507235       -13.8026
 229   2.0000      -0.507065       -13.7979
 230   2.0000      -0.506552       -13.7840
 231   2.0000      -0.504383       -13.7249
 232   2.0000      -0.502461       -13.6727
 233   2.0000      -0.500452       -13.6180
 234   2.0000      -0.496744       -13.5171
 235   2.0000      -0.496198       -13.5022
 236   2.0000      -0.491982       -13.3875
 237   2.0000      -0.490889       -13.3578
 238   2.0000      -0.489830       -13.3289
 239   2.0000      -0.488955       -13.3052
 240   2.0000      -0.484744       -13.1905
 241   2.0000      -0.482161       -13.1203
 242   2.0000      -0.478284       -13.0148
 243   2.0000      -0.475974       -12.9519
 244   2.0000      -0.472719       -12.8633
 245   2.0000      -0.472173       -12.8485
 246   2.0000      -0.470328       -12.7983
 247   2.0000      -0.465789       -12.6748
 248   2.0000      -0.464465       -12.6387
 249   2.0000      -0.458601       -12.4792
 250   2.0000      -0.457259       -12.4426
 251   2.0000      -0.452483       -12.3127
 252   2.0000      -0.452043       -12.3007
 253   2.0000      -0.451039       -12.2734
 254   2.0000      -0.449742       -12.2381
 255   2.0000      -0.448016       -12.1911
 256   2.0000      -0.446237       -12.1427
 257   2.0000      -0.444837       -12.1046
 258   2.0000      -0.441602       -12.0166
 259   2.0000      -0.441251       -12.0071
 260   2.0000      -0.439418       -11.9572
 261   2.0000      -0.438132       -11.9222
 262   2.0000      -0.437107       -11.8943
 263   2.0000      -0.436712       -11.8835
 264   2.0000      -0.435173       -11.8417
 265   2.0000      -0.435028       -11.8377
 266   2.0000      -0.432994       -11.7824
 267   2.0000      -0.431937       -11.7536
 268   2.0000      -0.430298       -11.7090
 269   2.0000      -0.429593       -11.6898
 270   2.0000      -0.427833       -11.6419
 271   2.0000      -0.426835       -11.6148
 272   2.0000      -0.425368       -11.5748
 273   2.0000      -0.422698       -11.5022
 274   2.0000      -0.422091       -11.4857
 275   2.0000      -0.420669       -11.4470
 276   2.0000      -0.420135       -11.4324
 277   2.0000      -0.418204       -11.3799
 278   2.0000      -0.416898       -11.3444
 279   2.0000      -0.415418       -11.3041
 280   2.0000      -0.411977       -11.2105
 281   2.0000      -0.407466       -11.0877
 282   2.0000      -0.404500       -11.0070
 283   2.0000      -0.399639       -10.8747
 284   2.0000      -0.394358       -10.7310
 285   2.0000      -0.391410       -10.6508
 286   2.0000      -0.382157       -10.3990
 287   2.0000      -0.368465       -10.0265
 288   2.0000      -0.367528       -10.0009
 289   2.0000      -0.356512        -9.7012
 290   2.0000      -0.349782        -9.5180
 291   2.0000      -0.345035        -9.3889
 292   2.0000      -0.343186        -9.3386
 293   2.0000      -0.341827        -9.3016
 294   2.0000      -0.340601        -9.2682
 295   2.0000      -0.333866        -9.0850
 296   2.0000      -0.330053        -8.9812
 297   2.0000      -0.329459        -8.9650
 298   2.0000      -0.325348        -8.8532
 299   2.0000      -0.320322        -8.7164
 300   2.0000      -0.318772        -8.6742
 301   2.0000      -0.317130        -8.6295
 302   2.0000      -0.305600        -8.3158
 303   2.0000      -0.296969        -8.0809
 304   2.0000      -0.284409        -7.7392
 305   0.0000      -0.098816        -2.6889
 306   0.0000      -0.085989        -2.3399
 307   0.0000      -0.047505        -1.2927
 308   0.0000      -0.028688        -0.7806
 309   0.0000      -0.028147        -0.7659

MULLIKEN ATOMIC CHARGES
-----------------------
   0 N :    0.190367
   1 C :   -0.194332
   2 C :   -0.307238
   3 C :   -0.212055
   4 N :    0.159801
   5 C :    0.106508
   6 S :    0.169312
   7 C :   -0.284634
   8 C :    0.083410
   9 C :   -0.010364
  10 C :    0.025180
  11 C :    0.032830
  12 C :    0.030659
  13 C :    0.023909
  14 C :    0.044838
  15 C :    0.011256
  16 C :    0.030220
  17 C :    0.033186
  18 C :    0.022598
  19 C :    0.024577
  20 C :    0.124060
  21 C :   -0.202844
  22 S :    0.152074
  23 C :   -0.075333
  24 C :   -0.027994
  25 C :    0.049203
  26 N :   -0.061426
  27 C :   -0.080532
  28 C :   -0.030873
  29 S :    0.206583
  30 C :   -0.199566
  31 C :    0.120692
  32 C :   -0.093818
  33 C :   -0.237693
  34 N :    0.200988
  35 C :    0.095208
  36 C :   -0.305400
  37 C :   -0.191175
  38 N :    0.190849
  39 C :   -0.209011
  40 N :    0.155066
  41 S :    0.163761
  42 C :   -0.277029
  43 C :    0.090144
  44 C :   -0.018853
  45 C :    0.028806
  46 C :    0.032381
  47 C :    0.034410
  48 C :    0.014590
  49 C :    0.062176
  50 C :   -0.000913
  51 C :    0.027984
  52 C :    0.035016
  53 C :    0.029613
  54 C :    0.023811
  55 C :   -0.016914
  56 C :   -0.160787
  57 C :    0.198163
  58 C :   -0.156258
  59 C :    0.005709
  60 O :   -0.139990
  61 C :    0.514860
  62 F :   -0.159053
  63 F :   -0.140071
  64 F :   -0.158504
  65 C :    0.103761
  66 C :    0.112758
  67 N :   -0.056849
  68 C :    0.046248
  69 C :   -0.073386
  70 C :   -0.010405
  71 C :    0.211441
  72 C :   -0.125435
  73 C :   -0.057134
  74 O :   -0.182371
  75 C :    0.543630
  76 F :   -0.154020
  77 F :   -0.181560
  78 F :   -0.138651
  79 C :    0.088365
  80 C :    0.152887
  81 C :   -0.117210
  82 C :   -0.167312
  83 N :    0.177967
  84 H :   -0.003195
  85 H :   -0.004060
  86 H :   -0.004620
  87 H :   -0.013604
  88 H :   -0.023446
  89 H :   -0.004057
  90 H :   -0.003366
  91 H :   -0.004093
  92 H :   -0.008813
  93 H :    0.009848
  94 H :    0.019388
  95 H :   -0.006516
  96 H :   -0.009804
  97 H :   -0.009067
  98 H :   -0.008507
  99 H :   -0.037715
 100 H :   -0.006223
 101 H :   -0.007421
 102 H :   -0.010343
 103 H :   -0.011458
 104 H :    0.014142
 105 H :    0.027277
 106 H :    0.037822
 107 H :    0.041870
 108 H :    0.013344
 109 H :    0.016072
 110 H :    0.040354
 111 H :    0.031437
 112 H :    0.012543
 113 H :    0.015541
 114 H :    0.030812
 115 H :    0.033706
 116 H :    0.009175
 117 H :    0.027878
 118 H :    0.015565
 119 H :    0.014676
Sum of atomic charges:   -0.0000000

LOEWDIN ATOMIC CHARGES
----------------------
   0 N :   -0.033780
   1 C :   -0.038537
   2 C :   -0.170723
   3 C :   -0.036551
   4 N :   -0.038779
   5 C :   -0.074070
   6 S :    0.417876
   7 C :   -0.094713
   8 C :   -0.039109
   9 C :   -0.022302
  10 C :   -0.014630
  11 C :   -0.014525
  12 C :   -0.016517
  13 C :   -0.025209
  14 C :   -0.068169
  15 C :   -0.014921
  16 C :   -0.013543
  17 C :   -0.009465
  18 C :   -0.020300
  19 C :   -0.020860
  20 C :    0.052384
  21 C :   -0.192666
  22 S :    0.488226
  23 C :   -0.153873
  24 C :   -0.088469
  25 C :    0.058694
  26 N :   -0.084363
  27 C :    0.021336
  28 C :   -0.187388
  29 S :    0.528880
  30 C :   -0.186785
  31 C :    0.042604
  32 C :   -0.097851
  33 C :   -0.029091
  34 N :   -0.024044
  35 C :   -0.074454
  36 C :   -0.169291
  37 C :   -0.036245
  38 N :   -0.036167
  39 C :   -0.035713
  40 N :   -0.041624
  41 S :    0.416546
  42 C :   -0.093950
  43 C :   -0.041933
  44 C :   -0.026083
  45 C :   -0.017125
  46 C :   -0.016689
  47 C :   -0.010164
  48 C :   -0.023069
  49 C :   -0.062306
  50 C :   -0.017704
  51 C :   -0.016026
  52 C :   -0.010951
  53 C :   -0.018676
  54 C :   -0.018845
  55 C :   -0.030811
  56 C :   -0.046731
  57 C :   -0.016113
  58 C :   -0.063970
  59 C :    0.058045
  60 O :   -0.082078
  61 C :    0.139277
  62 F :   -0.055828
  63 F :   -0.040044
  64 F :   -0.052549
  65 C :   -0.012671
  66 C :   -0.033143
  67 N :   -0.071306
  68 C :    0.057005
  69 C :   -0.046653
  70 C :   -0.017489
  71 C :   -0.008793
  72 C :   -0.048240
  73 C :    0.033262
  74 O :   -0.143517
  75 C :    0.128715
  76 F :   -0.047529
  77 F :   -0.074562
  78 F :   -0.033190
  79 C :   -0.009314
  80 C :   -0.024558
  81 C :   -0.113262
  82 C :    0.031885
  83 N :   -0.006090
  84 H :    0.027066
  85 H :    0.033632
  86 H :    0.032178
  87 H :    0.030609
  88 H :    0.028818
  89 H :    0.029650
  90 H :    0.034367
  91 H :    0.032300
  92 H :    0.031961
  93 H :    0.033903
  94 H :    0.026433
  95 H :    0.025348
  96 H :    0.031418
  97 H :    0.030557
  98 H :    0.031389
  99 H :    0.026801
 100 H :    0.028268
 101 H :    0.032390
 102 H :    0.030035
 103 H :    0.031110
 104 H :    0.034906
 105 H :    0.044069
 106 H :    0.025521
 107 H :    0.048720
 108 H :    0.031375
 109 H :    0.033673
 110 H :    0.044366
 111 H :    0.036101
 112 H :    0.028289
 113 H :    0.039799
 114 H :    0.033265
 115 H :    0.036766
 116 H :    0.031615
 117 H :    0.031845
 118 H :    0.036303
 119 H :    0.037114

  Mayer bond orders larger than 0.100000
B(  0-N ,  1-C ) :   3.0188 B(  1-C ,  2-C ) :   1.1522 B(  2-C ,  3-C ) :   1.1381
B(  2-C ,  5-C ) :   1.6412 B(  3-C ,  4-N ) :   3.0383 B(  5-C ,  6-S ) :   1.0981
B(  5-C , 81-C ) :   1.0843 B(  6-S ,  7-C ) :   1.0520 B(  7-C ,  8-C ) :   0.8928
B(  7-C , 14-C ) :   0.8781 B(  7-C , 20-C ) :   0.9008 B(  8-C ,  9-C ) :   1.3523
B(  8-C , 13-C ) :   1.4617 B(  9-C , 10-C ) :   1.4156 B(  9-C , 84-H ) :   0.9954
B( 10-C , 11-C ) :   1.3696 B( 10-C , 85-H ) :   0.9905 B( 11-C , 12-C ) :   1.4062
B( 11-C , 86-H ) :   0.9942 B( 12-C , 13-C ) :   1.3590 B( 12-C , 87-H ) :   0.9855
B( 13-C , 88-H ) :   0.9736 B( 14-C , 15-C ) :   1.3658 B( 14-C , 19-C ) :   1.4081
B( 15-C , 16-C ) :   1.4165 B( 15-C , 89-H ) :   0.9949 B( 16-C , 17-C ) :   1.3693
B( 16-C , 90-H ) :   0.9893 B( 17-C , 18-C ) :   1.3951 B( 17-C , 91-H ) :   0.9932
B( 18-C , 19-C ) :   1.3739 B( 18-C , 92-H ) :   0.9889 B( 19-C , 93-H ) :   0.9800
B( 20-C , 21-C ) :   1.1418 B( 20-C , 81-C ) :   1.6681 B( 21-C , 22-S ) :   1.1002
B( 21-C , 23-C ) :   0.1121 B( 21-C , 70-C ) :   1.4960 B( 22-S , 23-C ) :   1.1335
B( 23-C , 24-C ) :   1.0056 B( 23-C , 69-C ) :   1.5592 B( 24-C , 25-C ) :   1.3146
B( 24-C , 68-C ) :   1.3414 B( 25-C , 26-N ) :   1.5867 B( 25-C , 94-H ) :   0.9820
B( 26-N , 27-C ) :   1.5762 B( 27-C , 28-C ) :   1.0184 B( 27-C , 67-N ) :   1.5424
B( 28-C , 29-S ) :   1.1396 B( 28-C , 30-C ) :   0.1253 B( 28-C , 56-C ) :   1.5303
B( 29-S , 30-C ) :   1.1226 B( 30-C , 31-C ) :   1.0915 B( 30-C , 55-C ) :   1.5065
B( 31-C , 32-C ) :   1.7137 B( 31-C , 42-C ) :   0.9111 B( 32-C , 33-C ) :   1.1517
B( 32-C , 35-C ) :   1.0824 B( 33-C , 34-N ) :   2.9465 B( 35-C , 36-C ) :   1.6401
B( 35-C , 41-S ) :   1.1015 B( 36-C , 37-C ) :   1.1537 B( 36-C , 39-C ) :   1.1354
B( 37-C , 38-N ) :   3.0237 B( 39-C , 40-N ) :   3.0377 B( 41-S , 42-C ) :   1.0500
B( 42-C , 43-C ) :   0.8971 B( 42-C , 49-C ) :   0.8736 B( 43-C , 44-C ) :   1.3486
B( 43-C , 48-C ) :   1.4535 B( 44-C , 45-C ) :   1.4166 B( 44-C , 95-H ) :   0.9947
B( 45-C , 46-C ) :   1.3652 B( 45-C , 96-H ) :   0.9907 B( 46-C , 47-C ) :   1.3966
B( 46-C , 97-H ) :   0.9945 B( 47-C , 48-C ) :   1.3707 B( 47-C , 98-H ) :   0.9847
B( 48-C , 99-H ) :   0.9815 B( 49-C , 50-C ) :   1.3660 B( 49-C , 54-C ) :   1.4145
B( 50-C , 51-C ) :   1.4196 B( 50-C ,100-H ) :   0.9929 B( 51-C , 52-C ) :   1.3718
B( 51-C ,101-H ) :   0.9880 B( 52-C , 53-C ) :   1.3951 B( 52-C ,102-H ) :   0.9925
B( 53-C , 54-C ) :   1.3741 B( 53-C ,103-H ) :   0.9877 B( 54-C ,104-H ) :   0.9798
B( 55-C , 56-C ) :   1.3080 B( 55-C , 66-C ) :   1.0798 B( 56-C , 57-C ) :   1.0485
B( 57-C , 58-C ) :   1.0248 B( 57-C ,105-H ) :   0.8954 B( 57-C ,106-H ) :   0.8838
B( 58-C , 59-C ) :   0.9115 B( 58-C , 65-C ) :   1.0682 B( 58-C ,107-H ) :   0.8914
B( 59-C , 60-O ) :   2.1771 B( 59-C , 61-C ) :   0.8730 B( 61-C , 62-F ) :   1.1306
B( 61-C , 63-F ) :   1.1882 B( 61-C , 64-F ) :   1.1335 B( 65-C , 66-C ) :   1.0859
B( 65-C ,108-H ) :   0.9356 B( 65-C ,109-H ) :   0.9257 B( 66-C ,110-H ) :   0.8845
B( 66-C ,111-H ) :   0.9058 B( 67-N , 68-C ) :   1.5403 B( 68-C ,112-H ) :   0.9863
B( 69-C , 70-C ) :   1.2767 B( 69-C , 80-C ) :   1.0972 B( 70-C , 71-C ) :   1.0775
B( 71-C , 72-C ) :   1.0731 B( 71-C ,113-H ) :   0.8898 B( 71-C ,114-H ) :   0.9078
B( 72-C , 73-C ) :   0.8811 B( 72-C , 79-C ) :   1.0510 B( 72-C ,115-H ) :   0.9109
B( 73-C , 74-O ) :   2.1356 B( 73-C , 75-C ) :   0.8659 B( 73-C , 83-N ) :   0.1533
B( 75-C , 76-F ) :   1.1464 B( 75-C , 77-F ) :   1.1258 B( 75-C , 78-F ) :   1.1965
B( 79-C , 80-C ) :   1.0849 B( 79-C ,116-H ) :   0.9262 B( 79-C ,117-H ) :   0.9306
B( 80-C ,118-H ) :   0.8893 B( 80-C ,119-H ) :   0.9047 B( 81-C , 82-C ) :   1.1794
B( 82-C , 83-N ) :   2.7910

-----------------------------------------------------------------------------
         ABSORPTION SPECTRUM VIA TRANSITION ELECTRIC DIPOLE MOMENTS
-----------------------------------------------------------------------------
State   Energy  Wavelength   fosc         T2         TX        TY        TZ
        (cm-1)    (nm)                  (au**2)     (au)      (au)      (au)
-----------------------------------------------------------------------------
   0   24386.4    410.1   1.892220537  25.54461   1.98474   1.12073  -4.51103
   1   26909.9    371.6   0.171303568   2.09570  -0.09348  -0.99695  -1.04549
   2   27909.5    358.3   0.087278040   1.02951   0.75701  -0.49354   0.46137
   3   28109.1    355.8   0.087891197   1.02938  -0.22866  -0.69008  -0.70773
   4   28512.9    350.7   0.031242350   0.36073   0.05797  -0.59058  -0.09263
   5   30622.1    326.6   0.076617772   0.82370  -0.31497  -0.62979   0.57259
   6   31810.6    314.4   0.009250260   0.09573  -0.03961   0.21527  -0.21868
   7   32161.6    310.9   0.032793789   0.33568   0.24604   0.15553   0.50096
   8   32369.7    308.9   0.030777232   0.31302   0.05987   0.36982  -0.41553
   9   33164.7    301.5   0.009655562   0.09585  -0.22805  -0.01206   0.20903
  10   33598.0    297.6   0.005782407   0.05666   0.18222  -0.08994  -0.12395
  11   34031.0    293.8   0.009551599   0.09240  -0.01411   0.00444   0.30362
  12   34417.5    290.5   0.061866666   0.59177   0.11801   0.48601  -0.58450
  13   34710.5    288.1   0.145518376   1.38017  -0.56974  -0.46743   0.91492
  14   35111.3    284.8   0.028061963   0.26312  -0.08130   0.19888  -0.46578
  15   35642.6    280.6   0.012814762   0.11836   0.17475   0.27029   0.12152
  16   35988.1    277.9   0.007868058   0.07198  -0.15760  -0.12260   0.17919
  17   36536.2    273.7   0.046551175   0.41945  -0.09164   0.09188   0.63452
  18   36931.8    270.8   0.055689904   0.49642  -0.35539   0.14726   0.59029
  19   37273.7    268.3   0.030101379   0.26586  -0.35459  -0.17489   0.33098
  20   37558.8    266.2   0.022516575   0.19736  -0.27652  -0.34650  -0.02886
  21   37853.6    264.2   0.019526448   0.16982  -0.00938   0.29907   0.28336
  22   38612.0    259.0   0.052308160   0.44599  -0.30013  -0.00024   0.59658
  23   39295.7    254.5   0.018043944   0.15117  -0.11270   0.28204  -0.24274
  24   39751.4    251.6   0.055900412   0.46295   0.10967   0.51953   0.42546
  25   39820.8    251.1   0.007752870   0.06410   0.18364   0.15833   0.07281

FINAL SINGLE POINT ENERGY     -5235.686323906702

DIPOLE MOMENT
-------------
                                X             Y             Z
Electronic contribution:    -22.45924      11.34255     -25.88684
Nuclear contribution   :     24.30869     -13.41783      24.53498
                        -----------------------------------------
Total Dipole Moment    :      1.84945      -2.07528      -1.35186
                        -----------------------------------------
Magnitude (a.u.)       :      3.09108
Magnitude (Debye)      :      7.85689

Rotational constants in cm-1:     0.001292     0.000338     0.000316
Rotational constants in MHz :    38.718342    10.145372     9.478269

                             ****ORCA TERMINATED NORMALLY****
TOTAL RUN TIME: 0 days 0 hours 27 minutes 56 seconds 125 msec
