                         Program Version 4.2.0 -  RELEASE  -
|  1> # ORCA input file
|  2> # SCF done       -148.422477954449          0.000469457616
|  3> ! CAM-B3LYP def2-SVP def2/J RIJCOSX Grid4 TightSCF
|  4> %maxcore 5000
|  5> %tddft
|  6>     Mode sTDDFT
|  7>     Ethresh 5.0
|  8>     maxcore 5000
|  9> end
| 10>
| 11> %pal
| 12>   nprocs 6
| 13>   end
| 14> * xyz 0 1
| 15>    O        2.77460         0.96322        -7.79838
| 16>    C        3.53565         1.60355        -7.11986
| 17>    C        3.48015         1.77063        -5.67591
| 18>    O        4.42447         2.58479        -5.14645
| 19>    N        4.30432         2.61149        -3.81520
| 20>    C        3.31928         1.82675        -3.48828
| 21>    C        2.72111         1.23829        -4.63757
| 22>    C        1.60083         0.31533        -4.63598
| 23>    C        1.41198        -0.50814        -3.51209
| 24>    C        0.36274        -1.39578        -3.43397
| 25>    C       -0.53309        -1.45798        -4.49544
| 26>    C       -0.34154        -0.62506        -5.61981
| 27>    C        0.71484         0.25896        -5.71024
| 28>    O       -1.30962        -0.81642        -6.55263
| 29>    C       -2.13342        -1.77878        -6.05967
| 30>    C       -3.25342        -2.29188        -6.68119
| 31>    C       -3.97984        -3.27068        -6.00428
| 32>    C       -5.17523        -3.85302        -6.60882
| 33>    C       -6.31994        -4.14063        -5.84776
| 34>    N       -6.47850        -3.92260        -4.53566
| 35>    S       -7.94425        -4.38823        -4.10096
| 36>    N       -8.47537        -4.88573        -5.52368
| 37>    C       -7.51463        -4.70524        -6.43926
| 38>    C       -7.59107        -5.02902        -7.80437
| 39>    C       -8.79706        -5.61883        -8.37975
| 40>    C       -8.70317        -6.62260        -9.35778
| 41>    C       -9.82305        -7.20347        -9.90939
| 42>    C      -11.07486        -6.77659        -9.48077
| 43>    C      -11.16480        -5.77321        -8.49265
| 44>    C      -10.04773        -5.19055        -7.93309
| 45>    O      -12.46042        -5.48136        -8.19108
| 46>    C      -13.22397        -6.29179        -8.97184
| 47>    C      -14.60145        -6.34278        -8.99093
| 48>    C      -15.20716        -7.23926        -9.87451
| 49>    C      -16.65585        -7.32188        -9.89029
| 50>    C      -17.51585        -7.02607        -8.79543
| 51>    N      -18.76557        -7.19658        -9.11387
| 52>    O      -18.81288        -7.58898       -10.39080
| 53>    C      -17.55626        -7.68101       -10.88980
| 54>    C      -17.47371        -8.04707       -12.29476
| 55>    O      -16.47000        -8.22549       -12.93571
| 56>    C      -14.42479        -8.05890       -10.70188
| 57>    C      -13.04813        -8.00906       -10.66922
| 58>    C      -12.43174        -7.11888        -9.79770
| 59>    C       -6.44339        -4.74438        -8.56004
| 60>    N       -6.46976        -4.98194        -9.89668
| 61>    C       -5.42110        -4.74021       -10.60181
| 62>    F       -5.48341        -4.97094       -11.91190
| 63>    C       -4.22249        -4.24639       -10.00657
| 64>    F       -3.12862        -4.05842       -10.74102
| 65>    N       -4.16331        -3.97054        -8.75125
| 66>    C       -5.25723        -4.17142        -7.97275
| 67>    C       -3.57111        -3.70239        -4.73113
| 68>    C       -2.44807        -3.19337        -4.11981
| 69>    C       -1.71401        -2.21769        -4.78527
| 70>    H        4.39635         2.14396        -7.55464
| 71>    H        3.04198         1.71378        -2.46005
| 72>    H        2.12305        -0.45835        -2.70178
| 73>    H        0.23574        -2.02983        -2.57033
| 74>    H        0.84410         0.87440        -6.58351
| 75>    H       -3.55867        -1.93374        -7.64888
| 76>    H       -7.72642        -6.95296        -9.66936
| 77>    H       -9.73429        -7.97618       -10.65686
| 78>    H      -10.14205        -4.42120        -7.18605
| 79>    H      -15.18179        -5.69051        -8.35890
| 80>    H      -17.25132        -6.72303        -7.80288
| 81>    H      -18.47940        -8.14767       -12.74228
| 82>    H      -14.91444        -8.73990       -11.37733
| 83>    H      -12.45890        -8.64599       -11.30973
| 84>    H       -4.14971        -4.46332        -4.23323
| 85>    H       -2.14062        -3.54256        -3.14636
| 86> *
| 87>
| 88>                          ****END OF INPUT****

CARTESIAN COORDINATES (ANGSTROEM)
---------------------------------
  O      2.774600    0.963220   -7.798380
  C      3.535650    1.603550   -7.119860
  C      3.480150    1.770630   -5.675910
  O      4.424470    2.584790   -5.146450
  N      4.304320    2.611490   -3.815200
  C      3.319280    1.826750   -3.488280
  C      2.721110    1.238290   -4.637570
  C      1.600830    0.315330   -4.635980
  C      1.411980   -0.508140   -3.512090
  C      0.362740   -1.395780   -3.433970
  C     -0.533090   -1.457980   -4.495440
  C     -0.341540   -0.625060   -5.619810
  C      0.714840    0.258960   -5.710240
  O     -1.309620   -0.816420   -6.552630
  C     -2.133420   -1.778780   -6.059670
  C     -3.253420   -2.291880   -6.681190
  C     -3.979840   -3.270680   -6.004280
  C     -5.175230   -3.853020   -6.608820
  C     -6.319940   -4.140630   -5.847760
  N     -6.478500   -3.922600   -4.535660
  S     -7.944250   -4.388230   -4.100960
  N     -8.475370   -4.885730   -5.523680
  C     -7.514630   -4.705240   -6.439260
  C     -7.591070   -5.029020   -7.804370
  C     -8.797060   -5.618830   -8.379750
  C     -8.703170   -6.622600   -9.357780
  C     -9.823050   -7.203470   -9.909390
  C    -11.074860   -6.776590   -9.480770
  C    -11.164800   -5.773210   -8.492650
  C    -10.047730   -5.190550   -7.933090
  O    -12.460420   -5.481360   -8.191080
  C    -13.223970   -6.291790   -8.971840
  C    -14.601450   -6.342780   -8.990930
  C    -15.207160   -7.239260   -9.874510
  C    -16.655850   -7.321880   -9.890290
  C    -17.515850   -7.026070   -8.795430
  N    -18.765570   -7.196580   -9.113870
  O    -18.812880   -7.588980  -10.390800
  C    -17.556260   -7.681010  -10.889800
  C    -17.473710   -8.047070  -12.294760
  O    -16.470000   -8.225490  -12.935710
  C    -14.424790   -8.058900  -10.701880
  C    -13.048130   -8.009060  -10.669220
  C    -12.431740   -7.118880   -9.797700
  C     -6.443390   -4.744380   -8.560040
  N     -6.469760   -4.981940   -9.896680
  C     -5.421100   -4.740210  -10.601810
  F     -5.483410   -4.970940  -11.911900
  C     -4.222490   -4.246390  -10.006570
  F     -3.128620   -4.058420  -10.741020
  N     -4.163310   -3.970540   -8.751250
  C     -5.257230   -4.171420   -7.972750
  C     -3.571110   -3.702390   -4.731130
  C     -2.448070   -3.193370   -4.119810
  C     -1.714010   -2.217690   -4.785270
  H      4.396350    2.143960   -7.554640
  H      3.041980    1.713780   -2.460050
  H      2.123050   -0.458350   -2.701780
  H      0.235740   -2.029830   -2.570330
  H      0.844100    0.874400   -6.583510
  H     -3.558670   -1.933740   -7.648880
  H     -7.726420   -6.952960   -9.669360
  H     -9.734290   -7.976180  -10.656860
  H    -10.142050   -4.421200   -7.186050
  H    -15.181790   -5.690510   -8.358900
  H    -17.251320   -6.723030   -7.802880
  H    -18.479400   -8.147670  -12.742280
  H    -14.914440   -8.739900  -11.377330
  H    -12.458900   -8.645990  -11.309730
  H     -4.149710   -4.463320   -4.233230
  H     -2.140620   -3.542560   -3.146360

 Total Charge           Charge          ....    0
 Multiplicity           Mult            ....    1
 Number of Electrons    NEL             ....  380
 Basis Dimension        Dim             ....  854

ORBITAL ENERGIES
----------------

  NO   OCC          E(Eh)            E(eV)
   0   2.0000     -89.039898     -2422.8988
   1   2.0000     -24.810012      -675.1148
   2   2.0000     -24.809632      -675.1044
   3   2.0000     -19.323459      -525.8180
   4   2.0000     -19.323382      -525.8160
   5   2.0000     -19.280651      -524.6532
   6   2.0000     -19.278792      -524.6026
   7   2.0000     -19.227850      -523.2164
   8   2.0000     -19.227757      -523.2139
   9   2.0000     -14.472075      -393.8052
  10   2.0000     -14.471813      -393.7980
  11   2.0000     -14.447696      -393.1418
  12   2.0000     -14.447528      -393.1372
  13   2.0000     -14.445850      -393.0916
  14   2.0000     -14.445773      -393.0895
  15   2.0000     -10.425765      -283.6995
  16   2.0000     -10.425493      -283.6921
  17   2.0000     -10.374642      -282.3083
  18   2.0000     -10.374394      -282.3016
  19   2.0000     -10.345941      -281.5274
  20   2.0000     -10.345572      -281.5173
  21   2.0000     -10.340641      -281.3831
  22   2.0000     -10.340348      -281.3752
  23   2.0000     -10.335070      -281.2315
  24   2.0000     -10.334593      -281.2186
  25   2.0000     -10.334343      -281.2118
  26   2.0000     -10.333157      -281.1795
  27   2.0000     -10.330782      -281.1149
  28   2.0000     -10.330297      -281.1017
  29   2.0000     -10.315386      -280.6959
  30   2.0000     -10.315252      -280.6923
  31   2.0000     -10.309260      -280.5292
  32   2.0000     -10.308908      -280.5196
  33   2.0000     -10.307447      -280.4799
  34   2.0000     -10.307181      -280.4726
  35   2.0000     -10.296045      -280.1696
  36   2.0000     -10.295911      -280.1660
  37   2.0000     -10.290157      -280.0094
  38   2.0000     -10.289735      -279.9979
  39   2.0000     -10.284754      -279.8624
  40   2.0000     -10.283024      -279.8153
  41   2.0000     -10.282319      -279.7961
  42   2.0000     -10.282264      -279.7946
  43   2.0000     -10.280149      -279.7371
  44   2.0000     -10.279848      -279.7289
  45   2.0000     -10.279829      -279.7284
  46   2.0000     -10.279240      -279.7123
  47   2.0000     -10.278215      -279.6845
  48   2.0000     -10.277244      -279.6580
  49   2.0000     -10.276958      -279.6502
  50   2.0000     -10.276796      -279.6458
  51   2.0000     -10.276698      -279.6432
  52   2.0000     -10.271470      -279.5009
  53   2.0000     -10.270760      -279.4816
  54   2.0000     -10.270663      -279.4789
  55   2.0000      -8.131182      -221.2607
  56   2.0000      -6.102128      -166.0473
  57   2.0000      -6.094346      -165.8356
  58   2.0000      -6.094296      -165.8342
  59   2.0000      -1.337990       -36.4086
  60   2.0000      -1.323877       -36.0245
  61   2.0000      -1.264828       -34.4177
  62   2.0000      -1.264631       -34.4124
  63   2.0000      -1.200234       -32.6600
  64   2.0000      -1.199727       -32.6462
  65   2.0000      -1.140927       -31.0462
  66   2.0000      -1.140860       -31.0444
  67   2.0000      -1.135997       -30.9121
  68   2.0000      -1.107200       -30.1284
  69   2.0000      -1.033039       -28.1104
  70   2.0000      -0.990528       -26.9536
  71   2.0000      -0.977140       -26.5893
  72   2.0000      -0.973410       -26.4878
  73   2.0000      -0.973215       -26.4825
  74   2.0000      -0.962291       -26.1853
  75   2.0000      -0.961997       -26.1773
  76   2.0000      -0.956453       -26.0264
  77   2.0000      -0.947585       -25.7851
  78   2.0000      -0.919366       -25.0172
  79   2.0000      -0.917803       -24.9747
  80   2.0000      -0.895801       -24.3760
  81   2.0000      -0.878530       -23.9060
  82   2.0000      -0.877730       -23.8843
  83   2.0000      -0.859448       -23.3868
  84   2.0000      -0.854352       -23.2481
  85   2.0000      -0.853280       -23.2189
  86   2.0000      -0.830919       -22.6105
  87   2.0000      -0.828379       -22.5413
  88   2.0000      -0.827656       -22.5217
  89   2.0000      -0.811325       -22.0773
  90   2.0000      -0.805351       -21.9147
  91   2.0000      -0.776818       -21.1383
  92   2.0000      -0.770282       -20.9604
  93   2.0000      -0.759900       -20.6779
  94   2.0000      -0.751556       -20.4509
  95   2.0000      -0.739543       -20.1240
  96   2.0000      -0.736769       -20.0485
  97   2.0000      -0.725373       -19.7384
  98   2.0000      -0.721549       -19.6343
  99   2.0000      -0.711012       -19.3476
 100   2.0000      -0.707290       -19.2463
 101   2.0000      -0.704941       -19.1824
 102   2.0000      -0.692768       -18.8512
 103   2.0000      -0.685651       -18.6575
 104   2.0000      -0.679612       -18.4932
 105   2.0000      -0.671758       -18.2795
 106   2.0000      -0.667969       -18.1764
 107   2.0000      -0.665231       -18.1018
 108   2.0000      -0.655910       -17.8482
 109   2.0000      -0.647407       -17.6168
 110   2.0000      -0.641897       -17.4669
 111   2.0000      -0.628371       -17.0988
 112   2.0000      -0.619730       -16.8637
 113   2.0000      -0.618985       -16.8434
 114   2.0000      -0.613505       -16.6943
 115   2.0000      -0.612121       -16.6567
 116   2.0000      -0.603484       -16.4216
 117   2.0000      -0.601875       -16.3779
 118   2.0000      -0.600587       -16.3428
 119   2.0000      -0.597610       -16.2618
 120   2.0000      -0.589445       -16.0396
 121   2.0000      -0.586279       -15.9534
 122   2.0000      -0.583472       -15.8771
 123   2.0000      -0.577122       -15.7043
 124   2.0000      -0.565766       -15.3953
 125   2.0000      -0.560905       -15.2630
 126   2.0000      -0.555513       -15.1163
 127   2.0000      -0.554403       -15.0861
 128   2.0000      -0.553958       -15.0740
 129   2.0000      -0.548805       -14.9337
 130   2.0000      -0.546772       -14.8784
 131   2.0000      -0.544917       -14.8279
 132   2.0000      -0.538189       -14.6449
 133   2.0000      -0.534682       -14.5494
 134   2.0000      -0.533521       -14.5178
 135   2.0000      -0.532158       -14.4808
 136   2.0000      -0.526228       -14.3194
 137   2.0000      -0.523877       -14.2554
 138   2.0000      -0.522603       -14.2207
 139   2.0000      -0.518517       -14.1096
 140   2.0000      -0.515975       -14.0404
 141   2.0000      -0.514539       -14.0013
 142   2.0000      -0.511840       -13.9279
 143   2.0000      -0.510288       -13.8856
 144   2.0000      -0.507105       -13.7990
 145   2.0000      -0.502968       -13.6865
 146   2.0000      -0.499908       -13.6032
 147   2.0000      -0.497823       -13.5465
 148   2.0000      -0.487641       -13.2694
 149   2.0000      -0.486924       -13.2499
 150   2.0000      -0.486361       -13.2346
 151   2.0000      -0.483868       -13.1667
 152   2.0000      -0.478813       -13.0292
 153   2.0000      -0.473007       -12.8712
 154   2.0000      -0.468080       -12.7371
 155   2.0000      -0.461015       -12.5449
 156   2.0000      -0.459062       -12.4917
 157   2.0000      -0.456374       -12.4186
 158   2.0000      -0.453692       -12.3456
 159   2.0000      -0.451935       -12.2978
 160   2.0000      -0.445392       -12.1197
 161   2.0000      -0.434920       -11.8348
 162   2.0000      -0.428973       -11.6730
 163   2.0000      -0.427474       -11.6322
 164   2.0000      -0.422250       -11.4900
 165   2.0000      -0.419125       -11.4050
 166   2.0000      -0.416304       -11.3282
 167   2.0000      -0.410382       -11.1671
 168   2.0000      -0.406304       -11.0561
 169   2.0000      -0.402983       -10.9657
 170   2.0000      -0.398832       -10.8528
 171   2.0000      -0.397539       -10.8176
 172   2.0000      -0.386828       -10.5261
 173   2.0000      -0.386481       -10.5167
 174   2.0000      -0.377065       -10.2605
 175   2.0000      -0.371281       -10.1031
 176   2.0000      -0.367053        -9.9880
 177   2.0000      -0.365031        -9.9330
 178   2.0000      -0.347831        -9.4650
 179   2.0000      -0.347728        -9.4622
 180   2.0000      -0.345956        -9.4139
 181   2.0000      -0.338510        -9.2113
 182   2.0000      -0.336056        -9.1445
 183   2.0000      -0.333017        -9.0619
 184   2.0000      -0.332585        -9.0501
 185   2.0000      -0.303978        -8.2717
 186   2.0000      -0.294624        -8.0171
 187   2.0000      -0.294310        -8.0086
 188   2.0000      -0.281547        -7.6613
 189   2.0000      -0.258509        -7.0344
 190   0.0000      -0.098582        -2.6826
 191   0.0000      -0.053426        -1.4538
 192   0.0000      -0.052842        -1.4379
 193   0.0000      -0.019513        -0.5310
 194   0.0000      -0.014135        -0.3846

MULLIKEN ATOMIC CHARGES
-----------------------
   0 O :   -0.160338
   1 C :    0.157985
   2 C :    0.068742
   3 O :   -0.170203
   4 N :    0.037115
   5 C :   -0.000252
   6 C :   -0.029087
   7 C :    0.103551
   8 C :   -0.026144
   9 C :   -0.037488
  10 C :    0.065188
  11 C :    0.206433
  12 C :   -0.094456
  13 O :   -0.206578
  14 C :    0.204089
  15 C :   -0.063392
  16 C :   -0.005500
  17 C :    0.085595
  18 C :   -0.009260
  19 N :   -0.278819
  20 S :    0.536559
  21 N :   -0.281236
  22 C :   -0.008819
  23 C :    0.091113
  24 C :   -0.004634
  25 C :    0.043723
  26 C :   -0.057618
  27 C :    0.077150
  28 C :    0.205400
  29 C :   -0.080270
  30 O :   -0.212101
  31 C :    0.221228
  32 C :   -0.142692
  33 C :    0.109069
  34 C :   -0.025137
  35 C :    0.000234
  36 N :    0.038886
  37 O :   -0.171600
  38 C :    0.068377
  39 C :    0.157618
  40 O :   -0.162127
  41 C :    0.004575
  42 C :   -0.047382
  43 C :    0.068776
  44 C :   -0.068070
  45 N :    0.011978
  46 C :    0.128773
  47 F :   -0.141890
  48 C :    0.129723
  49 F :   -0.139699
  50 N :    0.014390
  51 C :   -0.061898
  52 C :    0.033419
  53 C :   -0.053228
  54 C :    0.071582
  55 H :    0.008233
  56 H :    0.020568
  57 H :   -0.023897
  58 H :   -0.024919
  59 H :   -0.012292
  60 H :   -0.022924
  61 H :   -0.023244
  62 H :   -0.024453
  63 H :   -0.018876
  64 H :   -0.023327
  65 H :    0.020517
  66 H :    0.008849
  67 H :   -0.014298
  68 H :   -0.021575
  69 H :   -0.020370
  70 H :   -0.029347
Sum of atomic charges:    0.0000000

LOEWDIN ATOMIC CHARGES
----------------------
   0 O :   -0.115219
   1 C :    0.097163
   2 C :   -0.026910
   3 O :    0.033534
   4 N :   -0.006984
   5 C :   -0.024393
   6 C :   -0.038515
   7 C :   -0.025853
   8 C :   -0.028020
   9 C :   -0.011811
  10 C :   -0.039930
  11 C :    0.060923
  12 C :   -0.017727
  13 O :   -0.015230
  14 C :    0.056476
  15 C :   -0.016455
  16 C :   -0.014605
  17 C :   -0.013938
  18 C :   -0.043735
  19 N :   -0.284976
  20 S :    0.674812
  21 N :   -0.285959
  22 C :   -0.043374
  23 C :   -0.014550
  24 C :   -0.014600
  25 C :   -0.008779
  26 C :   -0.015299
  27 C :   -0.040911
  28 C :    0.055393
  29 C :   -0.019922
  30 O :   -0.021983
  31 C :    0.059145
  32 C :   -0.036634
  33 C :   -0.024135
  34 C :   -0.038059
  35 C :   -0.024292
  36 N :   -0.006463
  37 O :    0.033331
  38 C :   -0.026465
  39 C :    0.096923
  40 O :   -0.116310
  41 C :   -0.012268
  42 C :   -0.007230
  43 C :   -0.038975
  44 C :   -0.009716
  45 N :   -0.032559
  46 C :    0.054119
  47 F :   -0.031649
  48 C :    0.054155
  49 F :   -0.029770
  50 N :   -0.032879
  51 C :   -0.010008
  52 C :   -0.011323
  53 C :   -0.016410
  54 C :   -0.041734
  55 H :    0.009832
  56 H :    0.033616
  57 H :    0.027090
  58 H :    0.031318
  59 H :    0.036681
  60 H :    0.034057
  61 H :    0.026419
  62 H :    0.031254
  63 H :    0.034188
  64 H :    0.034079
  65 H :    0.033644
  66 H :    0.009894
  67 H :    0.029021
  68 H :    0.032906
  69 H :    0.027004
  70 H :    0.029579

  Mayer bond orders larger than 0.100000
B(  0-O ,  1-C ) :   2.1568 B(  1-C ,  2-C ) :   1.0026 B(  1-C , 55-H ) :   0.9459
B(  2-C ,  3-O ) :   1.1173 B(  2-C ,  4-N ) :   0.1064 B(  2-C ,  6-C ) :   1.4836
B(  3-O ,  4-N ) :   1.0489 B(  4-N ,  5-C ) :   1.7171 B(  5-C ,  6-C ) :   1.2171
B(  5-C , 56-H ) :   0.9884 B(  6-C ,  7-C ) :   1.0147 B(  7-C ,  8-C ) :   1.3183
B(  7-C , 12-C ) :   1.3468 B(  8-C ,  9-C ) :   1.4152 B(  8-C , 57-H ) :   0.9900
B(  9-C , 10-C ) :   1.3182 B(  9-C , 58-H ) :   0.9981 B( 10-C , 11-C ) :   1.2814
B( 10-C , 54-C ) :   1.0577 B( 11-C , 12-C ) :   1.3538 B( 11-C , 13-O ) :   1.1035
B( 12-C , 59-H ) :   1.0007 B( 13-O , 14-C ) :   1.0949 B( 14-C , 15-C ) :   1.3574
B( 14-C , 54-C ) :   1.2830 B( 15-C , 16-C ) :   1.3422 B( 15-C , 60-H ) :   1.0024
B( 16-C , 17-C ) :   0.9981 B( 16-C , 52-C ) :   1.3380 B( 17-C , 18-C ) :   1.2443
B( 17-C , 23-C ) :   0.1411 B( 17-C , 51-C ) :   1.3769 B( 18-C , 19-N ) :   1.4883
B( 18-C , 22-C ) :   1.1035 B( 19-N , 20-S ) :   1.2943 B( 19-N , 21-N ) :   0.1596
B( 20-S , 21-N ) :   1.2936 B( 21-N , 22-C ) :   1.4864 B( 22-C , 23-C ) :   1.2458
B( 23-C , 24-C ) :   1.0012 B( 23-C , 44-C ) :   1.3730 B( 24-C , 25-C ) :   1.3368
B( 24-C , 29-C ) :   1.3406 B( 25-C , 26-C ) :   1.4186 B( 25-C , 61-H ) :   0.9816
B( 26-C , 27-C ) :   1.3121 B( 26-C , 62-H ) :   1.0013 B( 27-C , 28-C ) :   1.2872
B( 27-C , 43-C ) :   1.0531 B( 28-C , 29-C ) :   1.3527 B( 28-C , 30-O ) :   1.0892
B( 29-C , 63-H ) :   1.0039 B( 30-O , 31-C ) :   1.1041 B( 31-C , 32-C ) :   1.3499
B( 31-C , 43-C ) :   1.2836 B( 32-C , 33-C ) :   1.3138 B( 32-C , 64-H ) :   1.0110
B( 33-C , 34-C ) :   1.0181 B( 33-C , 41-C ) :   1.3459 B( 34-C , 35-C ) :   1.2170
B( 34-C , 38-C ) :   1.4793 B( 35-C , 36-N ) :   1.7184 B( 35-C , 65-H ) :   0.9870
B( 36-N , 37-O ) :   1.0497 B( 36-N , 38-C ) :   0.1062 B( 37-O , 38-C ) :   1.1146
B( 38-C , 39-C ) :   1.0036 B( 39-C , 40-O ) :   2.1542 B( 39-C , 66-H ) :   0.9457
B( 41-C , 42-C ) :   1.4171 B( 41-C , 67-H ) :   0.9802 B( 42-C , 43-C ) :   1.3161
B( 42-C , 68-H ) :   1.0013 B( 44-C , 45-N ) :   1.3877 B( 44-C , 51-C ) :   1.0946
B( 45-N , 46-C ) :   1.7158 B( 46-C , 47-F ) :   1.1750 B( 46-C , 48-C ) :   1.0739
B( 48-C , 49-F ) :   1.1764 B( 48-C , 50-N ) :   1.7163 B( 50-N , 51-C ) :   1.3892
B( 52-C , 53-C ) :   1.4187 B( 52-C , 69-H ) :   0.9816 B( 53-C , 54-C ) :   1.3125
B( 53-C , 70-H ) :   0.9994

-----------------------------------------------------------------------------
         ABSORPTION SPECTRUM VIA TRANSITION ELECTRIC DIPOLE MOMENTS
-----------------------------------------------------------------------------
State   Energy  Wavelength   fosc         T2         TX        TY        TZ
        (cm-1)    (nm)                  (au**2)     (au)      (au)      (au)
-----------------------------------------------------------------------------
   0   18159.4    550.7   0.658610276  11.93995   2.93763   1.39628   1.16649
   1   24551.7    407.3   0.004228893   0.05670  -0.16060   0.13667   0.11061
   2   25654.0    389.8   0.005971817   0.07664  -0.05091  -0.01920   0.27143
   3   25767.4    388.1   0.011451625   0.14631  -0.21474   0.31584  -0.02094
   4   29814.2    335.4   0.612903510   6.76775  -2.37474  -0.98357  -0.40117
   5   30304.6    330.0   0.478849210   5.20195   2.04554   0.92898   0.39332
   6   30483.4    328.0   0.075336306   0.81361  -0.15226   0.52880  -0.71470
   7   31964.5    312.8   0.251693063   2.59227   1.36334   0.82593   0.22672
   8   32208.5    310.5   0.106660004   1.09020  -0.27907   0.06926  -1.00376
   9   32526.6    307.4   0.233875772   2.36713  -0.92775   0.00081   1.22736
  10   32544.2    307.3   0.018286847   0.18499   0.01729   0.13215   0.40893
  11   32855.0    304.4   0.018290388   0.18327   0.37148   0.07282  -0.19993
  12   33312.5    300.2   0.024808059   0.24517   0.29784  -0.08007  -0.38736
  13   34294.4    291.6   0.024978727   0.23979   0.29125  -0.15580   0.36151
  14   34426.2    290.5   0.022289791   0.21315  -0.23890   0.31855   0.23368
  15   36106.9    277.0   0.189580972   1.72854  -1.00713  -0.46633  -0.70482
  16   36789.1    271.8   0.002719189   0.02433  -0.08497   0.00923  -0.13049
  17   36917.0    270.9   0.014959310   0.13340   0.14542   0.03523   0.33319
  18   37741.7    265.0   0.158379861   1.38151   0.29864   0.12697  -1.12969
  19   38365.5    260.7   0.004058605   0.03483  -0.14209   0.02638   0.11807
  20   39268.2    254.7   0.617420648   5.17626  -1.95150  -0.96412  -0.66210
  21   40076.6    249.5   0.106293190   0.87315   0.82332   0.34194   0.27995
  22   40252.4    248.4   0.097214267   0.79509  -0.44914   0.16641   0.75211

FINAL SINGLE POINT ENERGY     -2908.368620440111

DIPOLE MOMENT
-------------
                                X             Y             Z
Electronic contribution:      4.54507       0.84645     -10.18159
Nuclear contribution   :     -4.55622      -1.37810      11.90193
                        -----------------------------------------
Total Dipole Moment    :     -0.01116      -0.53165       1.72034
                        -----------------------------------------
Magnitude (a.u.)       :      1.80065
Magnitude (Debye)      :      4.57689

Rotational constants in cm-1:     0.005181     0.000394     0.000376
Rotational constants in MHz :   155.320501    11.824466    11.283605

                             ****ORCA TERMINATED NORMALLY****
TOTAL RUN TIME: 0 days 0 hours 5 minutes 27 seconds 135 msec
