                         Program Version 4.2.0 -  RELEASE  -
|  1> # ORCA input file
|  2> # SCF done       -161.618506051229          0.000994311067
|  3> ! CAM-B3LYP def2-SVP def2/J RIJCOSX Grid4 TightSCF
|  4> %maxcore 5000
|  5> %tddft
|  6>     Mode sTDDFT
|  7>     Ethresh 5.0
|  8>     maxcore 5000
|  9> end
| 10>
| 11> %pal
| 12>   nprocs 6
| 13>   end
| 14> * xyz 0 1
| 15>    C        8.87239        -1.85064         3.83975
| 16>    N        7.52526        -1.72469         3.37643
| 17>    N        6.63520        -1.04461         4.04524
| 18>    C        5.52802        -1.10970         3.29000
| 19>    C        4.23582        -0.56592         3.47642
| 20>    C        3.84853         0.24446         4.59419
| 21>    C        4.59963         1.01672         5.41611
| 22>    C        4.03228         1.45187         6.72714
| 23>    O        2.87266         1.43023         7.05940
| 24>    C        5.20639         1.85266         7.53405
| 25>    C        5.25120         2.22545         8.86263
| 26>    C        6.49888         2.53338         9.38462
| 27>    F        6.59218         2.90107        10.67165
| 28>    C        7.66004         2.47335         8.62633
| 29>    C        7.60131         2.10659         7.29106
| 30>    C        6.36698         1.79601         6.73853
| 31>    C        5.98734         1.43069         5.37794
| 32>    C        6.73629         1.63897         4.25318
| 33>    C        6.21045         1.56925         2.94558
| 34>    N        5.82217         1.56649         1.86591
| 35>    C        8.10768         1.95917         4.26490
| 36>    N        9.23986         2.14327         4.21108
| 37>    C        3.30074        -0.90188         2.50106
| 38>    C        3.61169        -1.65321         1.37137
| 39>    C        4.88370        -2.16548         1.14204
| 40>    C        5.22863        -2.91479        -0.03572
| 41>    C        6.43902        -3.39786        -0.38234
| 42>    C        6.34780        -4.08593        -1.67804
| 43>    O        7.21020        -4.63628        -2.31019
| 44>    N        5.00665        -3.96461        -2.07607
| 45>    C        4.49350        -4.44435        -3.28619
| 46>    C        4.88662        -5.65365        -3.82534
| 47>    C        4.36812        -6.11893        -5.03275
| 48>    C        3.39124        -5.44514        -5.75894
| 49>    C        2.90641        -5.99912        -6.98771
| 50>    C        1.76755        -5.74171        -7.67826
| 51>    C        1.68422        -6.12724        -9.11536
| 52>    O        2.41279        -6.88376        -9.71160
| 53>    C        0.55491        -5.33681        -9.65643
| 54>    C        0.12454        -5.23414       -10.96413
| 55>    C       -0.95672        -4.39929       -11.20336
| 56>    F       -1.41028        -4.26631       -12.46091
| 57>    C       -1.59020        -3.69132       -10.19194
| 58>    C       -1.15401        -3.80901        -8.88135
| 59>    C       -0.07451        -4.63692        -8.60953
| 60>    C        0.57307        -4.99329        -7.35090
| 61>    C        0.04121        -4.83761        -6.10024
| 62>    C        0.54904        -5.49983        -4.96229
| 63>    N        0.89558        -6.06404        -4.02539
| 64>    C       -1.08474        -4.04267        -5.81492
| 65>    N       -1.95504        -3.35359        -5.52163
| 66>    C        3.00082        -4.19132        -5.23275
| 67>    N        2.16707        -3.24795        -5.69522
| 68>    N        2.24017        -2.28666        -4.81212
| 69>    C        1.45587        -1.09735        -4.93551
| 70>    N        3.04007        -2.47180        -3.80844
| 71>    C        3.55944        -3.69165        -4.01685
| 72>    C        4.25196        -3.29781        -1.11394
| 73>    O        3.06365        -3.13672        -1.15021
| 74>    C        5.84769        -1.89221         2.13987
| 75>    N        7.13602        -2.24987         2.25166
| 76>    H        8.87361        -2.19808         4.87240
| 77>    H        9.37235        -0.88079         3.79574
| 78>    H        9.38710        -2.56063         3.19716
| 79>    H        2.79519         0.19598         4.85618
| 80>    H        4.35942         2.27716         9.46658
| 81>    H        8.60249         2.71757         9.09079
| 82>    H        8.50638         2.05841         6.70758
| 83>    H        2.29439        -0.52401         2.60546
| 84>    H        2.83912        -1.84292         0.64346
| 85>    H        7.35672        -3.30596         0.16652
| 86>    H        5.61778        -6.25031        -3.30466
| 87>    H        4.71205        -7.07415        -5.40044
| 88>    H        3.58604        -6.68854        -7.48069
| 89>    H        0.60444        -5.77778       -11.76217
| 90>    H       -2.42351        -3.05329       -10.44129
| 91>    H       -1.64764        -3.25458        -8.09978
| 92>    H        1.71783        -0.57173        -5.85443
| 93>    H        1.66076        -0.47229        -4.06979
| 94>    H        0.39686        -1.35792        -4.96893
| 95> *
| 96>
| 97>                          ****END OF INPUT****

CARTESIAN COORDINATES (ANGSTROEM)
---------------------------------
  C      8.872390   -1.850640    3.839750
  N      7.525260   -1.724690    3.376430
  N      6.635200   -1.044610    4.045240
  C      5.528020   -1.109700    3.290000
  C      4.235820   -0.565920    3.476420
  C      3.848530    0.244460    4.594190
  C      4.599630    1.016720    5.416110
  C      4.032280    1.451870    6.727140
  O      2.872660    1.430230    7.059400
  C      5.206390    1.852660    7.534050
  C      5.251200    2.225450    8.862630
  C      6.498880    2.533380    9.384620
  F      6.592180    2.901070   10.671650
  C      7.660040    2.473350    8.626330
  C      7.601310    2.106590    7.291060
  C      6.366980    1.796010    6.738530
  C      5.987340    1.430690    5.377940
  C      6.736290    1.638970    4.253180
  C      6.210450    1.569250    2.945580
  N      5.822170    1.566490    1.865910
  C      8.107680    1.959170    4.264900
  N      9.239860    2.143270    4.211080
  C      3.300740   -0.901880    2.501060
  C      3.611690   -1.653210    1.371370
  C      4.883700   -2.165480    1.142040
  C      5.228630   -2.914790   -0.035720
  C      6.439020   -3.397860   -0.382340
  C      6.347800   -4.085930   -1.678040
  O      7.210200   -4.636280   -2.310190
  N      5.006650   -3.964610   -2.076070
  C      4.493500   -4.444350   -3.286190
  C      4.886620   -5.653650   -3.825340
  C      4.368120   -6.118930   -5.032750
  C      3.391240   -5.445140   -5.758940
  C      2.906410   -5.999120   -6.987710
  C      1.767550   -5.741710   -7.678260
  C      1.684220   -6.127240   -9.115360
  O      2.412790   -6.883760   -9.711600
  C      0.554910   -5.336810   -9.656430
  C      0.124540   -5.234140  -10.964130
  C     -0.956720   -4.399290  -11.203360
  F     -1.410280   -4.266310  -12.460910
  C     -1.590200   -3.691320  -10.191940
  C     -1.154010   -3.809010   -8.881350
  C     -0.074510   -4.636920   -8.609530
  C      0.573070   -4.993290   -7.350900
  C      0.041210   -4.837610   -6.100240
  C      0.549040   -5.499830   -4.962290
  N      0.895580   -6.064040   -4.025390
  C     -1.084740   -4.042670   -5.814920
  N     -1.955040   -3.353590   -5.521630
  C      3.000820   -4.191320   -5.232750
  N      2.167070   -3.247950   -5.695220
  N      2.240170   -2.286660   -4.812120
  C      1.455870   -1.097350   -4.935510
  N      3.040070   -2.471800   -3.808440
  C      3.559440   -3.691650   -4.016850
  C      4.251960   -3.297810   -1.113940
  O      3.063650   -3.136720   -1.150210
  C      5.847690   -1.892210    2.139870
  N      7.136020   -2.249870    2.251660
  H      8.873610   -2.198080    4.872400
  H      9.372350   -0.880790    3.795740
  H      9.387100   -2.560630    3.197160
  H      2.795190    0.195980    4.856180
  H      4.359420    2.277160    9.466580
  H      8.602490    2.717570    9.090790
  H      8.506380    2.058410    6.707580
  H      2.294390   -0.524010    2.605460
  H      2.839120   -1.842920    0.643460
  H      7.356720   -3.305960    0.166520
  H      5.617780   -6.250310   -3.304660
  H      4.712050   -7.074150   -5.400440
  H      3.586040   -6.688540   -7.480690
  H      0.604440   -5.777780  -11.762170
  H     -2.423510   -3.053290  -10.441290
  H     -1.647640   -3.254580   -8.099780
  H      1.717830   -0.571730   -5.854430
  H      1.660760   -0.472290   -4.069790
  H      0.396860   -1.357920   -4.968930

 Total Charge           Charge          ....    0
 Multiplicity           Mult            ....    1
 Number of Electrons    NEL             ....  410
 Basis Dimension        Dim             ....  949

ORBITAL ENERGIES
----------------

  NO   OCC          E(Eh)            E(eV)
   0   2.0000     -24.798137      -674.7916
   1   2.0000     -24.789529      -674.5574
   2   2.0000     -19.227681      -523.2118
   3   2.0000     -19.227014      -523.1937
   4   2.0000     -19.224250      -523.1184
   5   2.0000     -19.216562      -522.9092
   6   2.0000     -14.561356      -396.2346
   7   2.0000     -14.548476      -395.8842
   8   2.0000     -14.472319      -393.8118
   9   2.0000     -14.462715      -393.5505
  10   2.0000     -14.458573      -393.4378
  11   2.0000     -14.448935      -393.1755
  12   2.0000     -14.443001      -393.0140
  13   2.0000     -14.426833      -392.5741
  14   2.0000     -14.419469      -392.3737
  15   2.0000     -14.415606      -392.2686
  16   2.0000     -14.406832      -392.0298
  17   2.0000     -10.406442      -283.1737
  18   2.0000     -10.402784      -283.0742
  19   2.0000     -10.384658      -282.5809
  20   2.0000     -10.377432      -282.3843
  21   2.0000     -10.375176      -282.3229
  22   2.0000     -10.366471      -282.0860
  23   2.0000     -10.348562      -281.5987
  24   2.0000     -10.344922      -281.4996
  25   2.0000     -10.341250      -281.3997
  26   2.0000     -10.336343      -281.2662
  27   2.0000     -10.333413      -281.1864
  28   2.0000     -10.332425      -281.1596
  29   2.0000     -10.329218      -281.0723
  30   2.0000     -10.323252      -280.9100
  31   2.0000     -10.322003      -280.8760
  32   2.0000     -10.321177      -280.8535
  33   2.0000     -10.321092      -280.8512
  34   2.0000     -10.320581      -280.8373
  35   2.0000     -10.320476      -280.8344
  36   2.0000     -10.318183      -280.7720
  37   2.0000     -10.316637      -280.7300
  38   2.0000     -10.315263      -280.6926
  39   2.0000     -10.313713      -280.6504
  40   2.0000     -10.311922      -280.6017
  41   2.0000     -10.310837      -280.5721
  42   2.0000     -10.310234      -280.5557
  43   2.0000     -10.308604      -280.5114
  44   2.0000     -10.308570      -280.5105
  45   2.0000     -10.308127      -280.4984
  46   2.0000     -10.307461      -280.4803
  47   2.0000     -10.307331      -280.4767
  48   2.0000     -10.306718      -280.4601
  49   2.0000     -10.304921      -280.4112
  50   2.0000     -10.302942      -280.3573
  51   2.0000     -10.302813      -280.3538
  52   2.0000     -10.301054      -280.3059
  53   2.0000     -10.298433      -280.2346
  54   2.0000     -10.298082      -280.2251
  55   2.0000     -10.298064      -280.2246
  56   2.0000     -10.297671      -280.2139
  57   2.0000     -10.295322      -280.1499
  58   2.0000     -10.294942      -280.1396
  59   2.0000     -10.292850      -280.0827
  60   2.0000     -10.284994      -279.8689
  61   2.0000      -1.314231       -35.7620
  62   2.0000      -1.305060       -35.5125
  63   2.0000      -1.238688       -33.7064
  64   2.0000      -1.225829       -33.3565
  65   2.0000      -1.173261       -31.9261
  66   2.0000      -1.149099       -31.2686
  67   2.0000      -1.143076       -31.1047
  68   2.0000      -1.131595       -30.7923
  69   2.0000      -1.067711       -29.0539
  70   2.0000      -1.028154       -27.9775
  71   2.0000      -1.016464       -27.6594
  72   2.0000      -1.011318       -27.5194
  73   2.0000      -1.007374       -27.4120
  74   2.0000      -1.004012       -27.3206
  75   2.0000      -0.998218       -27.1629
  76   2.0000      -0.997406       -27.1408
  77   2.0000      -0.996024       -27.1032
  78   2.0000      -0.990521       -26.9534
  79   2.0000      -0.985042       -26.8044
  80   2.0000      -0.959612       -26.1124
  81   2.0000      -0.949866       -25.8472
  82   2.0000      -0.947180       -25.7741
  83   2.0000      -0.938346       -25.5337
  84   2.0000      -0.927543       -25.2397
  85   2.0000      -0.911205       -24.7951
  86   2.0000      -0.902363       -24.5545
  87   2.0000      -0.896022       -24.3820
  88   2.0000      -0.880905       -23.9706
  89   2.0000      -0.874385       -23.7932
  90   2.0000      -0.864524       -23.5249
  91   2.0000      -0.856182       -23.2979
  92   2.0000      -0.834642       -22.7118
  93   2.0000      -0.828924       -22.5562
  94   2.0000      -0.820712       -22.3327
  95   2.0000      -0.798975       -21.7412
  96   2.0000      -0.783022       -21.3071
  97   2.0000      -0.777906       -21.1679
  98   2.0000      -0.772035       -21.0081
  99   2.0000      -0.766054       -20.8454
 100   2.0000      -0.751305       -20.4441
 101   2.0000      -0.749150       -20.3854
 102   2.0000      -0.739536       -20.1238
 103   2.0000      -0.731678       -19.9100
 104   2.0000      -0.717611       -19.5272
 105   2.0000      -0.714405       -19.4400
 106   2.0000      -0.707780       -19.2597
 107   2.0000      -0.705538       -19.1987
 108   2.0000      -0.696223       -18.9452
 109   2.0000      -0.691170       -18.8077
 110   2.0000      -0.686271       -18.6744
 111   2.0000      -0.676369       -18.4049
 112   2.0000      -0.666588       -18.1388
 113   2.0000      -0.655307       -17.8318
 114   2.0000      -0.644448       -17.5363
 115   2.0000      -0.640087       -17.4177
 116   2.0000      -0.635410       -17.2904
 117   2.0000      -0.631117       -17.1736
 118   2.0000      -0.623622       -16.9696
 119   2.0000      -0.622588       -16.9415
 120   2.0000      -0.619643       -16.8613
 121   2.0000      -0.617381       -16.7998
 122   2.0000      -0.610234       -16.6053
 123   2.0000      -0.606985       -16.5169
 124   2.0000      -0.603215       -16.4143
 125   2.0000      -0.595477       -16.2038
 126   2.0000      -0.593623       -16.1533
 127   2.0000      -0.587030       -15.9739
 128   2.0000      -0.583908       -15.8889
 129   2.0000      -0.581327       -15.8187
 130   2.0000      -0.575112       -15.6496
 131   2.0000      -0.571829       -15.5603
 132   2.0000      -0.570787       -15.5319
 133   2.0000      -0.568448       -15.4683
 134   2.0000      -0.562666       -15.3109
 135   2.0000      -0.559873       -15.2349
 136   2.0000      -0.551249       -15.0002
 137   2.0000      -0.550038       -14.9673
 138   2.0000      -0.546907       -14.8821
 139   2.0000      -0.540342       -14.7034
 140   2.0000      -0.539758       -14.6876
 141   2.0000      -0.535174       -14.5628
 142   2.0000      -0.532747       -14.4968
 143   2.0000      -0.529675       -14.4132
 144   2.0000      -0.528035       -14.3686
 145   2.0000      -0.526419       -14.3246
 146   2.0000      -0.524414       -14.2700
 147   2.0000      -0.522761       -14.2251
 148   2.0000      -0.520461       -14.1625
 149   2.0000      -0.514876       -14.0105
 150   2.0000      -0.514197       -13.9920
 151   2.0000      -0.512043       -13.9334
 152   2.0000      -0.507328       -13.8051
 153   2.0000      -0.504465       -13.7272
 154   2.0000      -0.503054       -13.6888
 155   2.0000      -0.496904       -13.5215
 156   2.0000      -0.494162       -13.4468
 157   2.0000      -0.491878       -13.3847
 158   2.0000      -0.487838       -13.2748
 159   2.0000      -0.487107       -13.2549
 160   2.0000      -0.483610       -13.1597
 161   2.0000      -0.478840       -13.0299
 162   2.0000      -0.472894       -12.8681
 163   2.0000      -0.468921       -12.7600
 164   2.0000      -0.466251       -12.6873
 165   2.0000      -0.462889       -12.5959
 166   2.0000      -0.462545       -12.5865
 167   2.0000      -0.462115       -12.5748
 168   2.0000      -0.458678       -12.4813
 169   2.0000      -0.457721       -12.4552
 170   2.0000      -0.452630       -12.3167
 171   2.0000      -0.451751       -12.2928
 172   2.0000      -0.449048       -12.2192
 173   2.0000      -0.447994       -12.1905
 174   2.0000      -0.445536       -12.1237
 175   2.0000      -0.437342       -11.9007
 176   2.0000      -0.435463       -11.8496
 177   2.0000      -0.431642       -11.7456
 178   2.0000      -0.430044       -11.7021
 179   2.0000      -0.423907       -11.5351
 180   2.0000      -0.419322       -11.4103
 181   2.0000      -0.417839       -11.3700
 182   2.0000      -0.414709       -11.2848
 183   2.0000      -0.406618       -11.0646
 184   2.0000      -0.404321       -11.0021
 185   2.0000      -0.402131       -10.9425
 186   2.0000      -0.393882       -10.7181
 187   2.0000      -0.389758       -10.6058
 188   2.0000      -0.380440       -10.3523
 189   2.0000      -0.377192       -10.2639
 190   2.0000      -0.372984       -10.1494
 191   2.0000      -0.366120        -9.9626
 192   2.0000      -0.359832        -9.7915
 193   2.0000      -0.358583        -9.7575
 194   2.0000      -0.350264        -9.5312
 195   2.0000      -0.349437        -9.5087
 196   2.0000      -0.347419        -9.4537
 197   2.0000      -0.345879        -9.4118
 198   2.0000      -0.340497        -9.2654
 199   2.0000      -0.336264        -9.1502
 200   2.0000      -0.329072        -8.9545
 201   2.0000      -0.311029        -8.4635
 202   2.0000      -0.299882        -8.1602
 203   2.0000      -0.296770        -8.0755
 204   2.0000      -0.281283        -7.6541
 205   0.0000      -0.106058        -2.8860
 206   0.0000      -0.084335        -2.2949
 207   0.0000      -0.072247        -1.9659
 208   0.0000      -0.057133        -1.5547
 209   0.0000      -0.056536        -1.5384

MULLIKEN ATOMIC CHARGES
-----------------------
   0 C :    0.136730
   1 N :   -0.058628
   2 N :   -0.065804
   3 C :   -0.030846
   4 C :    0.068893
   5 C :    0.001450
   6 C :   -0.108494
   7 C :    0.133396
   8 O :   -0.131031
   9 C :   -0.004631
  10 C :   -0.092700
  11 C :    0.311883
  12 F :   -0.183243
  13 C :   -0.028267
  14 C :   -0.023378
  15 C :    0.028354
  16 C :    0.297823
  17 C :   -0.307540
  18 C :   -0.219911
  19 N :    0.178132
  20 C :   -0.177714
  21 N :    0.136240
  22 C :   -0.000319
  23 C :   -0.026914
  24 C :    0.075581
  25 C :   -0.003118
  26 C :   -0.117349
  27 C :    0.229923
  28 O :   -0.149524
  29 N :   -0.248324
  30 C :    0.138018
  31 C :   -0.039152
  32 C :   -0.014822
  33 C :    0.080245
  34 C :   -0.004190
  35 C :   -0.114152
  36 C :    0.134509
  37 O :   -0.136035
  38 C :   -0.010160
  39 C :   -0.091985
  40 C :    0.309194
  41 F :   -0.187397
  42 C :   -0.031466
  43 C :   -0.024875
  44 C :    0.030134
  45 C :    0.296957
  46 C :   -0.302711
  47 C :   -0.219823
  48 N :    0.175150
  49 C :   -0.177843
  50 N :    0.130604
  51 C :   -0.036585
  52 N :   -0.076977
  53 N :   -0.065291
  54 C :    0.139501
  55 N :   -0.022043
  56 C :    0.019975
  57 C :    0.214104
  58 O :   -0.130999
  59 C :    0.005490
  60 N :   -0.058485
  61 H :    0.054240
  62 H :    0.069466
  63 H :    0.056411
  64 H :    0.024073
  65 H :    0.008305
  66 H :    0.010942
  67 H :    0.007082
  68 H :   -0.006761
  69 H :    0.016875
  70 H :    0.017102
  71 H :   -0.012755
  72 H :   -0.008394
  73 H :    0.018557
  74 H :    0.005575
  75 H :    0.009336
  76 H :    0.006354
  77 H :    0.052084
  78 H :    0.056243
  79 H :    0.065707
Sum of atomic charges:   -0.0000000

LOEWDIN ATOMIC CHARGES
----------------------
   0 C :    0.033180
   1 N :    0.164921
   2 N :   -0.085732
   3 C :   -0.042022
   4 C :   -0.033616
   5 C :    0.071518
   6 C :   -0.077084
   7 C :    0.087429
   8 O :   -0.128099
   9 C :   -0.036295
  10 C :   -0.012498
  11 C :    0.100480
  12 F :   -0.057298
  13 C :   -0.025704
  14 C :    0.009119
  15 C :   -0.018179
  16 C :    0.074313
  17 C :   -0.130673
  18 C :   -0.023097
  19 N :   -0.046839
  20 C :   -0.015082
  21 N :   -0.059440
  22 C :    0.019868
  23 C :    0.007927
  24 C :   -0.011903
  25 C :   -0.019349
  26 C :   -0.008377
  27 C :    0.092234
  28 O :   -0.133781
  29 N :   -0.027516
  30 C :    0.049804
  31 C :   -0.024333
  32 C :    0.027398
  33 C :   -0.049997
  34 C :    0.074320
  35 C :   -0.086182
  36 C :    0.086864
  37 O :   -0.134455
  38 C :   -0.036800
  39 C :   -0.014242
  40 C :    0.098493
  41 F :   -0.061031
  42 C :   -0.028447
  43 C :    0.007999
  44 C :   -0.017462
  45 C :    0.073213
  46 C :   -0.130898
  47 C :   -0.022803
  48 N :   -0.048265
  49 C :   -0.014432
  50 N :   -0.063851
  51 C :   -0.035603
  52 N :   -0.096546
  53 N :    0.165257
  54 C :    0.033466
  55 N :   -0.065910
  56 C :   -0.055476
  57 C :    0.105930
  58 O :   -0.116013
  59 C :   -0.034955
  60 N :   -0.079684
  61 H :    0.042829
  62 H :    0.045813
  63 H :    0.043987
  64 H :    0.049318
  65 H :    0.049757
  66 H :    0.045330
  67 H :    0.041712
  68 H :    0.038642
  69 H :    0.040928
  70 H :    0.039620
  71 H :    0.038976
  72 H :    0.037642
  73 H :    0.046973
  74 H :    0.048524
  75 H :    0.044275
  76 H :    0.041299
  77 H :    0.040938
  78 H :    0.044676
  79 H :    0.044995

  Mayer bond orders larger than 0.100000
B(  0-C ,  1-N ) :   0.9488 B(  0-C , 61-H ) :   0.9683 B(  0-C , 62-H ) :   0.9633
B(  0-C , 63-H ) :   0.9652 B(  1-N ,  2-N ) :   1.2175 B(  1-N , 60-N ) :   1.2481
B(  2-N ,  3-C ) :   1.4639 B(  2-N , 60-N ) :   0.1540 B(  3-C ,  4-C ) :   1.1733
B(  3-C , 59-C ) :   1.2349 B(  4-C ,  5-C ) :   1.0656 B(  4-C , 22-C ) :   1.4037
B(  4-C , 24-C ) :   0.1078 B(  5-C ,  6-C ) :   1.7040 B(  5-C , 64-H ) :   0.9436
B(  6-C ,  7-C ) :   0.9325 B(  6-C , 16-C ) :   1.0271 B(  7-C ,  8-O ) :   2.2746
B(  7-C ,  9-C ) :   0.9243 B(  9-C , 10-C ) :   1.3370 B(  9-C , 15-C ) :   1.3311
B( 10-C , 11-C ) :   1.3170 B( 10-C , 65-H ) :   1.0182 B( 11-C , 12-F ) :   1.0912
B( 11-C , 13-C ) :   1.3578 B( 13-C , 14-C ) :   1.3516 B( 13-C , 66-H ) :   0.9897
B( 14-C , 15-C ) :   1.3626 B( 14-C , 67-H ) :   0.9874 B( 15-C , 16-C ) :   1.0271
B( 16-C , 17-C ) :   1.6598 B( 17-C , 18-C ) :   1.1543 B( 17-C , 20-C ) :   1.1461
B( 18-C , 19-N ) :   3.0158 B( 20-C , 21-N ) :   2.9367 B( 22-C , 23-C ) :   1.2399
B( 22-C , 68-H ) :   0.9956 B( 23-C , 24-C ) :   1.4593 B( 23-C , 69-H ) :   0.9802
B( 24-C , 25-C ) :   1.0770 B( 24-C , 59-C ) :   1.1930 B( 25-C , 26-C ) :   1.6827
B( 25-C , 57-C ) :   0.8889 B( 26-C , 27-C ) :   0.9243 B( 26-C , 70-H ) :   1.0126
B( 27-C , 28-O ) :   2.1752 B( 27-C , 29-N ) :   0.9947 B( 29-N , 30-C ) :   0.9375
B( 29-N , 57-C ) :   1.0363 B( 30-C , 31-C ) :   1.4727 B( 30-C , 33-C ) :   0.1003
B( 30-C , 56-C ) :   1.2709 B( 31-C , 32-C ) :   1.2167 B( 31-C , 71-H ) :   1.0094
B( 32-C , 33-C ) :   1.3846 B( 32-C , 72-H ) :   0.9997 B( 33-C , 34-C ) :   1.0831
B( 33-C , 51-C ) :   1.1673 B( 34-C , 35-C ) :   1.6814 B( 34-C , 73-H ) :   0.9448
B( 35-C , 36-C ) :   0.9401 B( 35-C , 45-C ) :   1.0354 B( 36-C , 37-O ) :   2.2707
B( 36-C , 38-C ) :   0.9232 B( 38-C , 39-C ) :   1.3408 B( 38-C , 44-C ) :   1.3316
B( 39-C , 40-C ) :   1.3162 B( 39-C , 74-H ) :   1.0171 B( 40-C , 41-F ) :   1.0865
B( 40-C , 42-C ) :   1.3592 B( 42-C , 43-C ) :   1.3509 B( 42-C , 75-H ) :   0.9898
B( 43-C , 44-C ) :   1.3636 B( 43-C , 76-H ) :   0.9864 B( 44-C , 45-C ) :   1.0248
B( 45-C , 46-C ) :   1.6562 B( 46-C , 47-C ) :   1.1510 B( 46-C , 49-C ) :   1.1477
B( 47-C , 48-N ) :   3.0218 B( 49-C , 50-N ) :   2.9393 B( 51-C , 52-N ) :   1.4641
B( 51-C , 56-C ) :   1.2529 B( 52-N , 53-N ) :   1.1978 B( 52-N , 55-N ) :   0.1565
B( 53-N , 54-C ) :   0.9484 B( 53-N , 55-N ) :   1.2758 B( 54-C , 77-H ) :   0.9689
B( 54-C , 78-H ) :   0.9655 B( 54-C , 79-H ) :   0.9647 B( 55-N , 56-C ) :   1.4339
B( 57-C , 58-O ) :   2.1669 B( 59-C , 60-N ) :   1.4638

-----------------------------------------------------------------------------
         ABSORPTION SPECTRUM VIA TRANSITION ELECTRIC DIPOLE MOMENTS
-----------------------------------------------------------------------------
State   Energy  Wavelength   fosc         T2         TX        TY        TZ
        (cm-1)    (nm)                  (au**2)     (au)      (au)      (au)
-----------------------------------------------------------------------------
   0   22942.4    435.9   0.740441007  10.62495   0.93002   1.77224   2.57278
   1   24635.5    405.9   0.458032178   6.12084  -1.65198  -0.56887  -1.75162
   2   25176.5    397.2   0.172507531   2.25574  -0.65463   1.21028   0.60201
   3   26377.0    379.1   0.071165006   0.88821  -0.24316   0.17799   0.89297
   4   27884.4    358.6   0.046043541   0.54360  -0.14756  -0.06553   0.71940
   5   29751.3    336.1   0.013727845   0.15190  -0.15121   0.14348   0.32933
   6   30169.2    331.5   0.067909788   0.74104  -0.30098   0.40183   0.69928
   7   30557.0    327.3   0.201260266   2.16832  -0.07865   0.41719   1.40999
   8   30690.3    325.8   0.029820326   0.31988  -0.44230  -0.19925  -0.29077
   9   31153.7    321.0   0.070965527   0.74992  -0.81111   0.15184  -0.26259
  10   31464.1    317.8   0.150864650   1.57851   0.16128   0.19612   1.23046
  11   31693.5    315.5   0.029870558   0.31028  -0.08371  -0.13368  -0.53423
  12   32517.5    307.5   0.008799652   0.08909   0.26528   0.13233  -0.03473
  13   33122.7    301.9   0.124269262   1.23513   0.25270   0.28311  -1.04457
  14   33226.0    301.0   0.200296656   1.98459   0.86436  -0.70510  -0.86042
  15   33386.9    299.5   0.106837462   1.05347   0.13515  -0.00576   1.01743
  16   34051.5    293.7   0.000948087   0.00917  -0.05904  -0.04900  -0.05726
  17   34344.6    291.2   0.006871512   0.06587  -0.03323   0.07636  -0.24276
  18   34746.2    287.8   0.552120170   5.23121   0.86234  -0.31778  -2.09442
  19   34927.5    286.3   0.129309783   1.21882   0.29015   0.07754   1.06236
  20   34997.1    285.7   0.128048094   1.20453  -0.04532  -0.06475  -1.09466
  21   36083.2    277.1   0.295741523   2.69826  -0.17870  -0.30862  -1.60346
  22   37168.6    269.0   0.002924603   0.02590   0.00949  -0.06704   0.14601
  23   37395.6    267.4   0.055436924   0.48804  -0.57635  -0.08736   0.38501
  24   37565.7    266.2   0.240145826   2.10455   0.39503  -0.27051   1.36943
  25   38676.3    258.6   0.027848570   0.23705  -0.14851   0.23378   0.40042
  26   38758.3    258.0   0.029502844   0.25060  -0.14060  -0.01387   0.48025
  27   38811.4    257.7   0.038097153   0.32315  -0.00214  -0.25000  -0.51054
  28   38895.4    257.1   0.000685503   0.00580  -0.06748  -0.03534   0.00002
  29   39254.6    254.7   0.030316089   0.25425   0.39435  -0.08644   0.30210
  30   39504.7    253.1   0.010291378   0.08576  -0.24421  -0.12733   0.09956
  31   39775.5    251.4   0.005134707   0.04250  -0.20018   0.00530  -0.04899
  32   40072.3    249.5   0.006065086   0.04983  -0.13707   0.03911  -0.17178

FINAL SINGLE POINT ENERGY     -2787.427526791720

DIPOLE MOMENT
-------------
                                X             Y             Z
Electronic contribution:     -6.59676       0.78786      -1.20458
Nuclear contribution   :      7.79213      -0.12122       2.68769
                        -----------------------------------------
Total Dipole Moment    :      1.19536       0.66664       1.48311
                        -----------------------------------------
Magnitude (a.u.)       :      2.01814
Magnitude (Debye)      :      5.12971

Rotational constants in cm-1:     0.004338     0.000412     0.000393
Rotational constants in MHz :   130.047346    12.348944    11.775636

                             ****ORCA TERMINATED NORMALLY****
TOTAL RUN TIME: 0 days 0 hours 6 minutes 56 seconds 614 msec
