                         Program Version 4.2.0 -  RELEASE  -
|  1> # ORCA input file
|  2> # SCF done       -188.203860291010          0.000720362279
|  3> ! CAM-B3LYP def2-SVP def2/J RIJCOSX Grid4 TightSCF
|  4> %maxcore 5000
|  5> %tddft
|  6>     Mode sTDDFT
|  7>     Ethresh 5.0
|  8>     maxcore 5000
|  9> end
| 10>
| 11> %pal
| 12>   nprocs 6
| 13>   end
| 14> * xyz 0 1
| 15>    C        3.03924         0.09867         6.58185
| 16>    C        2.23294         0.69046         7.51378
| 17>    F        1.78862        -0.03211         8.56031
| 18>    C        1.84517         2.03379         7.42750
| 19>    C        2.28886         2.78327         6.37315
| 20>    C        3.12358         2.22460         5.38442
| 21>    C        3.50403         0.85552         5.48905
| 22>    C        4.33370         0.26922         4.50387
| 23>    C        4.76964         1.03101         3.45480
| 24>    C        4.40086         2.40376         3.36501
| 25>    C        3.59535         2.99257         4.29490
| 26>    C        5.03660         2.99882         2.16999
| 27>    O        4.91566         4.13036         1.75587
| 28>    C        5.90864         1.93207         1.61873
| 29>    C        5.59774         0.70052         2.29577
| 30>    C        5.80554        -0.57506         1.82030
| 31>    C        6.36973        -0.85294         0.56445
| 32>    N        6.78095        -1.13050        -0.47266
| 33>    C        5.40404        -1.74140         2.49718
| 34>    N        5.12130        -2.72446         3.02000
| 35>    C        6.84508         2.24487         0.66509
| 36>    C        8.01992         1.54558         0.33809
| 37>    C        8.70707         0.71348         1.18898
| 38>    C        9.89309         0.06734         0.80552
| 39>    C       10.26525        -0.06409        -0.51330
| 40>    C        9.29463         0.51428        -1.52078
| 41>    C        8.72261         1.83199        -0.97012
| 42>    N        7.85685         2.48893        -1.91601
| 43>    C        8.11609         2.33754        -3.13741
| 44>    C        9.26112         1.51925        -3.59572
| 45>    N        9.83816         0.69334        -2.84054
| 46>    F        9.72337         1.71887        -4.82179
| 47>    F        7.35752         2.92692        -4.05037
| 48>    C       11.39455        -0.81200        -0.90136
| 49>    C       11.78537        -1.23999        -2.16502
| 50>    C       12.94722        -1.99757        -2.13641
| 51>    C       13.47692        -2.15351        -0.82897
| 52>    S       12.52512        -1.37406         0.35030
| 53>    C       14.64047        -2.92885        -0.89962
| 54>    C       14.86747        -3.28371        -2.25152
| 55>    C       13.80337        -2.70443        -3.06560
| 56>    C       13.65181        -2.82173        -4.41767
| 57>    C       14.56759        -3.54231        -5.21081
| 58>    N       15.31369        -4.12689        -5.85736
| 59>    C       12.57077        -2.24202        -5.11442
| 60>    N       11.69529        -1.78718        -5.69844
| 61>    C       15.98908        -4.07034        -2.42170
| 62>    C       16.64513        -4.33563        -1.21071
| 63>    S       15.83281        -3.57142         0.15155
| 64>    C       17.79082        -5.12053        -1.06711
| 65>    C       18.46093        -5.41388         0.10012
| 66>    C       19.60187        -6.24356         0.21782
| 67>    C       20.06803        -6.37966         1.49158
| 68>    C       19.32504        -5.65728         2.44870
| 69>    S       18.00487        -4.80356         1.67458
| 70>    C       19.52900        -5.56674         3.81262
| 71>    C       20.51994        -6.20579         4.59420
| 72>    C       20.45053        -5.90538         5.91700
| 73>    C       19.40630        -5.00285         6.27314
| 74>    S       18.51085        -4.56856         4.82080
| 75>    C       19.17262        -4.57563         7.54748
| 76>    C       18.19544        -3.66879         8.06581
| 77>    C       18.16597        -3.45546         9.47321
| 78>    O       19.07278        -4.15153        10.21251
| 79>    C       19.08306        -3.98406        11.60990
| 80>    C       17.24042        -2.57628        10.00814
| 81>    C       16.34208        -1.89486         9.19999
| 82>    C       16.35719        -2.08935         7.82295
| 83>    C       17.28011        -2.97297         7.27666
| 84>    O       15.52870        -1.47374         6.93624
| 85>    C       14.58096        -0.55605         7.42575
| 86>    H        3.31411        -0.94020         6.67770
| 87>    H        1.20661         2.44665         8.19230
| 88>    H        2.00342         3.82079         6.28477
| 89>    H        4.61034        -0.76778         4.61069
| 90>    H        3.31918         4.03224         4.20241
| 91>    H        6.67935         3.17773         0.13730
| 92>    H        8.36201         0.58868         2.20510
| 93>    H       10.48948        -0.40755         1.57083
| 94>    H        8.46712        -0.21774        -1.59750
| 95>    H        9.55750         2.52873        -0.76659
| 96>    H       11.22449        -0.99511        -3.04703
| 97>    H       16.34407        -4.45515        -3.36050
| 98>    H       18.18663        -5.55138        -1.97759
| 99>    H       20.03908        -6.71632        -0.64371
|100>    H       20.92250        -6.97324         1.76254
|101>    H       21.24700        -6.86733         4.15874
|102>    H       21.11809        -6.29781         6.66375
|103>    H       19.83526        -4.98779         8.29748
|104>    H       19.87906        -4.63070        11.97585
|105>    H       18.13343        -4.29171        12.05852
|106>    H       19.30194        -2.94892        11.88987
|107>    H       17.19990        -2.40109        11.07130
|108>    H       15.64193        -1.21889         9.66368
|109>    H       17.26796        -3.09629         6.20750
|110>    H       14.04380        -0.19472         6.55057
|111>    H       15.06152         0.28954         7.92854
|112>    H       13.87325        -1.03340         8.11112
|113> *
|114>
|115>                          ****END OF INPUT****

CARTESIAN COORDINATES (ANGSTROEM)
---------------------------------
  C      3.039240    0.098670    6.581850
  C      2.232940    0.690460    7.513780
  F      1.788620   -0.032110    8.560310
  C      1.845170    2.033790    7.427500
  C      2.288860    2.783270    6.373150
  C      3.123580    2.224600    5.384420
  C      3.504030    0.855520    5.489050
  C      4.333700    0.269220    4.503870
  C      4.769640    1.031010    3.454800
  C      4.400860    2.403760    3.365010
  C      3.595350    2.992570    4.294900
  C      5.036600    2.998820    2.169990
  O      4.915660    4.130360    1.755870
  C      5.908640    1.932070    1.618730
  C      5.597740    0.700520    2.295770
  C      5.805540   -0.575060    1.820300
  C      6.369730   -0.852940    0.564450
  N      6.780950   -1.130500   -0.472660
  C      5.404040   -1.741400    2.497180
  N      5.121300   -2.724460    3.020000
  C      6.845080    2.244870    0.665090
  C      8.019920    1.545580    0.338090
  C      8.707070    0.713480    1.188980
  C      9.893090    0.067340    0.805520
  C     10.265250   -0.064090   -0.513300
  C      9.294630    0.514280   -1.520780
  C      8.722610    1.831990   -0.970120
  N      7.856850    2.488930   -1.916010
  C      8.116090    2.337540   -3.137410
  C      9.261120    1.519250   -3.595720
  N      9.838160    0.693340   -2.840540
  F      9.723370    1.718870   -4.821790
  F      7.357520    2.926920   -4.050370
  C     11.394550   -0.812000   -0.901360
  C     11.785370   -1.239990   -2.165020
  C     12.947220   -1.997570   -2.136410
  C     13.476920   -2.153510   -0.828970
  S     12.525120   -1.374060    0.350300
  C     14.640470   -2.928850   -0.899620
  C     14.867470   -3.283710   -2.251520
  C     13.803370   -2.704430   -3.065600
  C     13.651810   -2.821730   -4.417670
  C     14.567590   -3.542310   -5.210810
  N     15.313690   -4.126890   -5.857360
  C     12.570770   -2.242020   -5.114420
  N     11.695290   -1.787180   -5.698440
  C     15.989080   -4.070340   -2.421700
  C     16.645130   -4.335630   -1.210710
  S     15.832810   -3.571420    0.151550
  C     17.790820   -5.120530   -1.067110
  C     18.460930   -5.413880    0.100120
  C     19.601870   -6.243560    0.217820
  C     20.068030   -6.379660    1.491580
  C     19.325040   -5.657280    2.448700
  S     18.004870   -4.803560    1.674580
  C     19.529000   -5.566740    3.812620
  C     20.519940   -6.205790    4.594200
  C     20.450530   -5.905380    5.917000
  C     19.406300   -5.002850    6.273140
  S     18.510850   -4.568560    4.820800
  C     19.172620   -4.575630    7.547480
  C     18.195440   -3.668790    8.065810
  C     18.165970   -3.455460    9.473210
  O     19.072780   -4.151530   10.212510
  C     19.083060   -3.984060   11.609900
  C     17.240420   -2.576280   10.008140
  C     16.342080   -1.894860    9.199990
  C     16.357190   -2.089350    7.822950
  C     17.280110   -2.972970    7.276660
  O     15.528700   -1.473740    6.936240
  C     14.580960   -0.556050    7.425750
  H      3.314110   -0.940200    6.677700
  H      1.206610    2.446650    8.192300
  H      2.003420    3.820790    6.284770
  H      4.610340   -0.767780    4.610690
  H      3.319180    4.032240    4.202410
  H      6.679350    3.177730    0.137300
  H      8.362010    0.588680    2.205100
  H     10.489480   -0.407550    1.570830
  H      8.467120   -0.217740   -1.597500
  H      9.557500    2.528730   -0.766590
  H     11.224490   -0.995110   -3.047030
  H     16.344070   -4.455150   -3.360500
  H     18.186630   -5.551380   -1.977590
  H     20.039080   -6.716320   -0.643710
  H     20.922500   -6.973240    1.762540
  H     21.247000   -6.867330    4.158740
  H     21.118090   -6.297810    6.663750
  H     19.835260   -4.987790    8.297480
  H     19.879060   -4.630700   11.975850
  H     18.133430   -4.291710   12.058520
  H     19.301940   -2.948920   11.889870
  H     17.199900   -2.401090   11.071300
  H     15.641930   -1.218890    9.663680
  H     17.267960   -3.096290    6.207500
  H     14.043800   -0.194720    6.550570
  H     15.061520    0.289540    7.928540
  H     13.873250   -1.033400    8.111120

 Total Charge           Charge          ....    0
 Multiplicity           Mult            ....    1
 Number of Electrons    NEL             ....  514
 Basis Dimension        Dim             .... 1145

ORBITAL ENERGIES
----------------

  NO   OCC          E(Eh)            E(eV)
   0   2.0000     -88.981238     -2421.3026
   1   2.0000     -88.980012     -2421.2692
   2   2.0000     -88.957229     -2420.6493
   3   2.0000     -88.954882     -2420.5854
   4   2.0000     -24.804061      -674.9528
   5   2.0000     -24.803582      -674.9398
   6   2.0000     -24.779777      -674.2920
   7   2.0000     -19.253275      -523.9083
   8   2.0000     -19.242913      -523.6263
   9   2.0000     -19.199609      -522.4479
  10   2.0000     -14.432988      -392.7416
  11   2.0000     -14.432168      -392.7193
  12   2.0000     -14.422575      -392.4582
  13   2.0000     -14.419903      -392.3855
  14   2.0000     -14.410883      -392.1401
  15   2.0000     -14.404298      -391.9609
  16   2.0000     -10.418860      -283.5116
  17   2.0000     -10.418232      -283.4945
  18   2.0000     -10.362773      -281.9854
  19   2.0000     -10.355229      -281.7801
  20   2.0000     -10.351730      -281.6849
  21   2.0000     -10.343518      -281.4614
  22   2.0000     -10.335905      -281.2543
  23   2.0000     -10.333150      -281.1793
  24   2.0000     -10.331545      -281.1356
  25   2.0000     -10.331265      -281.1280
  26   2.0000     -10.329849      -281.0895
  27   2.0000     -10.327849      -281.0351
  28   2.0000     -10.326346      -280.9942
  29   2.0000     -10.324822      -280.9527
  30   2.0000     -10.324623      -280.9473
  31   2.0000     -10.324124      -280.9337
  32   2.0000     -10.323236      -280.9095
  33   2.0000     -10.323020      -280.9036
  34   2.0000     -10.319868      -280.8179
  35   2.0000     -10.319382      -280.8047
  36   2.0000     -10.315695      -280.7043
  37   2.0000     -10.315527      -280.6998
  38   2.0000     -10.315096      -280.6880
  39   2.0000     -10.314943      -280.6839
  40   2.0000     -10.313346      -280.6404
  41   2.0000     -10.312975      -280.6303
  42   2.0000     -10.308434      -280.5068
  43   2.0000     -10.301830      -280.3270
  44   2.0000     -10.300896      -280.3016
  45   2.0000     -10.298349      -280.2323
  46   2.0000     -10.298261      -280.2299
  47   2.0000     -10.296728      -280.1882
  48   2.0000     -10.296077      -280.1705
  49   2.0000     -10.295938      -280.1667
  50   2.0000     -10.293869      -280.1104
  51   2.0000     -10.293625      -280.1038
  52   2.0000     -10.293401      -280.0977
  53   2.0000     -10.293362      -280.0966
  54   2.0000     -10.291806      -280.0543
  55   2.0000     -10.291509      -280.0462
  56   2.0000     -10.291011      -280.0326
  57   2.0000     -10.290564      -280.0205
  58   2.0000     -10.290342      -280.0144
  59   2.0000     -10.289794      -279.9995
  60   2.0000     -10.288226      -279.9569
  61   2.0000     -10.288054      -279.9522
  62   2.0000     -10.286956      -279.9223
  63   2.0000     -10.286778      -279.9175
  64   2.0000     -10.282621      -279.8044
  65   2.0000     -10.281855      -279.7835
  66   2.0000     -10.280923      -279.7581
  67   2.0000     -10.280044      -279.7342
  68   2.0000     -10.278129      -279.6821
  69   2.0000     -10.277009      -279.6516
  70   2.0000     -10.272631      -279.5325
  71   2.0000      -8.075370      -219.7420
  72   2.0000      -8.074679      -219.7232
  73   2.0000      -8.053297      -219.1413
  74   2.0000      -8.050669      -219.0698
  75   2.0000      -6.044702      -164.4847
  76   2.0000      -6.044000      -164.4656
  77   2.0000      -6.040455      -164.3691
  78   2.0000      -6.039793      -164.3511
  79   2.0000      -6.037638      -164.2925
  80   2.0000      -6.036907      -164.2726
  81   2.0000      -6.023009      -163.8944
  82   2.0000      -6.020432      -163.8243
  83   2.0000      -6.018850      -163.7812
  84   2.0000      -6.016327      -163.7126
  85   2.0000      -6.014368      -163.6593
  86   2.0000      -6.011649      -163.5853
  87   2.0000      -1.334068       -36.3018
  88   2.0000      -1.320037       -35.9200
  89   2.0000      -1.294144       -35.2154
  90   2.0000      -1.157167       -31.4881
  91   2.0000      -1.147886       -31.2356
  92   2.0000      -1.114611       -30.3301
  93   2.0000      -1.086028       -29.5523
  94   2.0000      -1.036269       -28.1983
  95   2.0000      -1.016751       -27.6672
  96   2.0000      -1.013108       -27.5681
  97   2.0000      -1.010239       -27.4900
  98   2.0000      -1.005072       -27.3494
  99   2.0000      -0.998536       -27.1716
 100   2.0000      -0.992999       -27.0209
 101   2.0000      -0.991408       -26.9776
 102   2.0000      -0.985942       -26.8289
 103   2.0000      -0.980975       -26.6937
 104   2.0000      -0.969045       -26.3691
 105   2.0000      -0.962891       -26.2016
 106   2.0000      -0.953716       -25.9519
 107   2.0000      -0.947630       -25.7863
 108   2.0000      -0.920365       -25.0444
 109   2.0000      -0.913019       -24.8445
 110   2.0000      -0.900841       -24.5131
 111   2.0000      -0.892950       -24.2984
 112   2.0000      -0.883292       -24.0356
 113   2.0000      -0.877569       -23.8799
 114   2.0000      -0.873737       -23.7756
 115   2.0000      -0.863305       -23.4917
 116   2.0000      -0.859582       -23.3904
 117   2.0000      -0.856864       -23.3165
 118   2.0000      -0.853699       -23.2303
 119   2.0000      -0.846617       -23.0376
 120   2.0000      -0.842547       -22.9269
 121   2.0000      -0.836847       -22.7718
 122   2.0000      -0.830034       -22.5864
 123   2.0000      -0.825926       -22.4746
 124   2.0000      -0.811049       -22.0698
 125   2.0000      -0.800787       -21.7905
 126   2.0000      -0.791189       -21.5294
 127   2.0000      -0.774903       -21.0862
 128   2.0000      -0.773891       -21.0587
 129   2.0000      -0.769356       -20.9352
 130   2.0000      -0.766393       -20.8546
 131   2.0000      -0.757050       -20.6004
 132   2.0000      -0.752958       -20.4890
 133   2.0000      -0.742251       -20.1977
 134   2.0000      -0.725145       -19.7322
 135   2.0000      -0.713398       -19.4126
 136   2.0000      -0.703627       -19.1467
 137   2.0000      -0.700977       -19.0745
 138   2.0000      -0.693485       -18.8707
 139   2.0000      -0.690162       -18.7803
 140   2.0000      -0.682947       -18.5839
 141   2.0000      -0.678939       -18.4749
 142   2.0000      -0.675731       -18.3876
 143   2.0000      -0.671035       -18.2598
 144   2.0000      -0.667464       -18.1626
 145   2.0000      -0.664754       -18.0889
 146   2.0000      -0.654642       -17.8137
 147   2.0000      -0.645158       -17.5556
 148   2.0000      -0.643314       -17.5055
 149   2.0000      -0.638452       -17.3732
 150   2.0000      -0.633884       -17.2489
 151   2.0000      -0.625820       -17.0294
 152   2.0000      -0.623747       -16.9730
 153   2.0000      -0.622782       -16.9468
 154   2.0000      -0.620984       -16.8978
 155   2.0000      -0.616471       -16.7750
 156   2.0000      -0.614696       -16.7267
 157   2.0000      -0.608401       -16.5554
 158   2.0000      -0.605530       -16.4773
 159   2.0000      -0.602183       -16.3862
 160   2.0000      -0.595030       -16.1916
 161   2.0000      -0.590660       -16.0727
 162   2.0000      -0.588654       -16.0181
 163   2.0000      -0.585176       -15.9234
 164   2.0000      -0.581628       -15.8269
 165   2.0000      -0.570573       -15.5261
 166   2.0000      -0.566381       -15.4120
 167   2.0000      -0.562452       -15.3051
 168   2.0000      -0.562345       -15.3022
 169   2.0000      -0.561275       -15.2731
 170   2.0000      -0.555559       -15.1175
 171   2.0000      -0.553548       -15.0628
 172   2.0000      -0.552082       -15.0229
 173   2.0000      -0.549851       -14.9622
 174   2.0000      -0.544397       -14.8138
 175   2.0000      -0.540323       -14.7029
 176   2.0000      -0.539228       -14.6731
 177   2.0000      -0.532786       -14.4979
 178   2.0000      -0.529833       -14.4175
 179   2.0000      -0.526459       -14.3257
 180   2.0000      -0.524514       -14.2727
 181   2.0000      -0.523013       -14.2319
 182   2.0000      -0.521654       -14.1949
 183   2.0000      -0.518921       -14.1206
 184   2.0000      -0.516433       -14.0529
 185   2.0000      -0.515215       -14.0197
 186   2.0000      -0.514502       -14.0003
 187   2.0000      -0.508837       -13.8462
 188   2.0000      -0.507380       -13.8065
 189   2.0000      -0.504281       -13.7222
 190   2.0000      -0.499142       -13.5823
 191   2.0000      -0.497519       -13.5382
 192   2.0000      -0.496352       -13.5064
 193   2.0000      -0.496045       -13.4981
 194   2.0000      -0.494677       -13.4608
 195   2.0000      -0.492746       -13.4083
 196   2.0000      -0.489434       -13.3182
 197   2.0000      -0.488205       -13.2847
 198   2.0000      -0.486255       -13.2317
 199   2.0000      -0.484735       -13.1903
 200   2.0000      -0.481195       -13.0940
 201   2.0000      -0.478714       -13.0265
 202   2.0000      -0.477260       -12.9869
 203   2.0000      -0.474136       -12.9019
 204   2.0000      -0.470667       -12.8075
 205   2.0000      -0.469251       -12.7690
 206   2.0000      -0.465081       -12.6555
 207   2.0000      -0.463398       -12.6097
 208   2.0000      -0.458235       -12.4692
 209   2.0000      -0.457447       -12.4478
 210   2.0000      -0.454478       -12.3670
 211   2.0000      -0.453037       -12.3278
 212   2.0000      -0.449683       -12.2365
 213   2.0000      -0.447986       -12.1903
 214   2.0000      -0.445698       -12.1281
 215   2.0000      -0.445115       -12.1122
 216   2.0000      -0.443169       -12.0592
 217   2.0000      -0.435518       -11.8510
 218   2.0000      -0.435334       -11.8460
 219   2.0000      -0.431828       -11.7506
 220   2.0000      -0.431722       -11.7478
 221   2.0000      -0.431337       -11.7373
 222   2.0000      -0.430366       -11.7109
 223   2.0000      -0.429649       -11.6913
 224   2.0000      -0.425801       -11.5866
 225   2.0000      -0.423441       -11.5224
 226   2.0000      -0.420908       -11.4535
 227   2.0000      -0.417833       -11.3698
 228   2.0000      -0.417046       -11.3484
 229   2.0000      -0.414619       -11.2823
 230   2.0000      -0.411141       -11.1877
 231   2.0000      -0.405868       -11.0442
 232   2.0000      -0.403606       -10.9827
 233   2.0000      -0.401543       -10.9265
 234   2.0000      -0.397141       -10.8068
 235   2.0000      -0.394751       -10.7417
 236   2.0000      -0.392037       -10.6679
 237   2.0000      -0.388541       -10.5727
 238   2.0000      -0.379244       -10.3197
 239   2.0000      -0.374261       -10.1842
 240   2.0000      -0.370431       -10.0799
 241   2.0000      -0.366861        -9.9828
 242   2.0000      -0.354004        -9.6329
 243   2.0000      -0.349106        -9.4997
 244   2.0000      -0.346627        -9.4322
 245   2.0000      -0.340803        -9.2737
 246   2.0000      -0.338099        -9.2002
 247   2.0000      -0.331471        -9.0198
 248   2.0000      -0.322834        -8.7848
 249   2.0000      -0.315308        -8.5800
 250   2.0000      -0.313570        -8.5327
 251   2.0000      -0.304971        -8.2987
 252   2.0000      -0.292524        -7.9600
 253   2.0000      -0.287023        -7.8103
 254   2.0000      -0.272456        -7.4139
 255   2.0000      -0.248171        -6.7531
 256   2.0000      -0.212496        -5.7823
 257   0.0000      -0.110069        -2.9951
 258   0.0000      -0.090233        -2.4554
 259   0.0000      -0.075315        -2.0494
 260   0.0000      -0.051364        -1.3977
 261   0.0000      -0.035955        -0.9784

MULLIKEN ATOMIC CHARGES
-----------------------
   0 C :   -0.097174
   1 C :    0.301354
   2 F :   -0.194418
   3 C :   -0.033996
   4 C :   -0.009935
   5 C :    0.101608
   6 C :    0.100438
   7 C :   -0.087972
   8 C :    0.032037
   9 C :    0.013640
  10 C :   -0.085595
  11 C :    0.136097
  12 O :   -0.147079
  13 C :   -0.128748
  14 C :    0.276885
  15 C :   -0.362841
  16 C :   -0.155699
  17 N :    0.143675
  18 C :   -0.175645
  19 N :    0.141089
  20 C :    0.068347
  21 C :   -0.091763
  22 C :    0.057377
  23 C :   -0.069656
  24 C :    0.061639
  25 C :    0.073529
  26 C :    0.075943
  27 N :   -0.065865
  28 C :    0.129134
  29 C :    0.136148
  30 N :   -0.086210
  31 F :   -0.134141
  32 F :   -0.135562
  33 C :   -0.095369
  34 C :   -0.025237
  35 C :    0.008494
  36 C :   -0.065028
  37 S :    0.156875
  38 C :   -0.107038
  39 C :    0.048516
  40 C :    0.305712
  41 C :   -0.301911
  42 C :   -0.189500
  43 N :    0.166221
  44 C :   -0.189951
  45 N :    0.181612
  46 C :   -0.061408
  47 C :   -0.036704
  48 S :    0.156103
  49 C :   -0.018422
  50 C :   -0.026656
  51 C :    0.029562
  52 C :    0.036281
  53 C :   -0.041586
  54 S :    0.061061
  55 C :   -0.023398
  56 C :    0.024424
  57 C :    0.044435
  58 C :   -0.004504
  59 S :    0.065212
  60 C :   -0.018676
  61 C :    0.043648
  62 C :    0.219272
  63 O :   -0.319594
  64 C :    0.180193
  65 C :   -0.089028
  66 C :   -0.093138
  67 C :    0.234942
  68 C :   -0.084025
  69 O :   -0.308518
  70 C :    0.179140
  71 H :   -0.004776
  72 H :    0.001079
  73 H :   -0.010694
  74 H :   -0.008340
  75 H :   -0.014190
  76 H :    0.031538
  77 H :    0.001487
  78 H :   -0.011238
  79 H :    0.069511
  80 H :    0.029970
  81 H :    0.030872
  82 H :    0.005195
  83 H :   -0.005023
  84 H :   -0.009370
  85 H :   -0.010511
  86 H :   -0.011735
  87 H :   -0.006403
  88 H :    0.000734
  89 H :    0.037606
  90 H :    0.024798
  91 H :    0.024509
  92 H :   -0.028264
  93 H :   -0.026950
  94 H :   -0.015004
  95 H :    0.035512
  96 H :    0.020368
  97 H :    0.020668
Sum of atomic charges:   -0.0000000

LOEWDIN ATOMIC CHARGES
----------------------
   0 C :   -0.043181
   1 C :    0.091111
   2 F :   -0.068573
   3 C :   -0.039851
   4 C :    0.003344
   5 C :   -0.019428
   6 C :    0.001539
   7 C :    0.007611
   8 C :   -0.017321
   9 C :   -0.056564
  10 C :    0.029865
  11 C :    0.079153
  12 O :   -0.150478
  13 C :   -0.107959
  14 C :    0.068764
  15 C :   -0.159982
  16 C :    0.005803
  17 N :   -0.064051
  18 C :   -0.021776
  19 N :   -0.065620
  20 C :    0.078713
  21 C :   -0.063794
  22 C :    0.036602
  23 C :   -0.073076
  24 C :    0.013465
  25 C :    0.012784
  26 C :    0.022600
  27 N :   -0.063297
  28 C :    0.054128
  29 C :    0.056579
  30 N :   -0.060090
  31 F :   -0.022916
  32 F :   -0.024814
  33 C :   -0.174207
  34 C :    0.007001
  35 C :   -0.088261
  36 C :   -0.146669
  37 S :    0.463328
  38 C :   -0.215005
  39 C :   -0.047604
  40 C :    0.080061
  41 C :   -0.103503
  42 C :   -0.015087
  43 N :   -0.039202
  44 C :   -0.019553
  45 N :   -0.027350
  46 C :   -0.033086
  47 C :   -0.146615
  48 S :    0.461926
  49 C :   -0.085615
  50 C :   -0.143444
  51 C :   -0.039325
  52 C :   -0.026333
  53 C :   -0.191842
  54 S :    0.374858
  55 C :   -0.158571
  56 C :   -0.044758
  57 C :   -0.010827
  58 C :   -0.151481
  59 S :    0.390599
  60 C :   -0.019362
  61 C :   -0.049863
  62 C :    0.053898
  63 O :   -0.104419
  64 C :    0.078121
  65 C :   -0.067841
  66 C :   -0.058772
  67 C :    0.040490
  68 C :   -0.031980
  69 O :   -0.108519
  70 C :    0.076017
  71 H :    0.042191
  72 H :    0.040750
  73 H :    0.035012
  74 H :    0.037998
  75 H :    0.038574
  76 H :    0.047642
  77 H :    0.036612
  78 H :    0.020087
  79 H :    0.053638
  80 H :    0.038774
  81 H :    0.040929
  82 H :    0.040478
  83 H :    0.043623
  84 H :    0.034806
  85 H :    0.033592
  86 H :    0.032777
  87 H :    0.036089
  88 H :    0.037930
  89 H :    0.029187
  90 H :    0.016055
  91 H :    0.015659
  92 H :    0.029473
  93 H :    0.028830
  94 H :    0.016907
  95 H :    0.028552
  96 H :    0.013679
  97 H :    0.013661

  Mayer bond orders larger than 0.100000
B(  0-C ,  1-C ) :   1.4399 B(  0-C ,  6-C ) :   1.2029 B(  0-C , 71-H ) :   1.0062
B(  1-C ,  2-F ) :   1.0844 B(  1-C ,  3-C ) :   1.2582 B(  3-C ,  4-C ) :   1.4572
B(  3-C , 72-H ) :   0.9931 B(  4-C ,  5-C ) :   1.2380 B(  4-C , 73-H ) :   0.9964
B(  5-C ,  6-C ) :   1.2588 B(  5-C , 10-C ) :   1.1840 B(  6-C ,  7-C ) :   1.1996
B(  7-C ,  8-C ) :   1.4653 B(  7-C , 74-H ) :   0.9942 B(  8-C ,  9-C ) :   1.2200
B(  8-C , 14-C ) :   0.9899 B(  9-C , 10-C ) :   1.4787 B(  9-C , 11-C ) :   0.9114
B( 10-C , 75-H ) :   1.0145 B( 11-C , 12-O ) :   2.2706 B( 11-C , 13-C ) :   0.9543
B( 13-C , 14-C ) :   1.0873 B( 13-C , 20-C ) :   1.5190 B( 14-C , 15-C ) :   1.6013
B( 15-C , 16-C ) :   1.1877 B( 15-C , 18-C ) :   1.1344 B( 16-C , 17-N ) :   2.9352
B( 18-C , 19-N ) :   2.9779 B( 20-C , 21-C ) :   1.2099 B( 20-C , 76-H ) :   0.9403
B( 21-C , 22-C ) :   1.5407 B( 21-C , 26-C ) :   0.9729 B( 22-C , 23-C ) :   1.2383
B( 22-C , 77-H ) :   0.9701 B( 23-C , 24-C ) :   1.5350 B( 23-C , 78-H ) :   0.9642
B( 24-C , 25-C ) :   0.9825 B( 24-C , 33-C ) :   1.2366 B( 25-C , 26-C ) :   1.0431
B( 25-C , 30-N ) :   1.0225 B( 25-C , 79-H ) :   0.8266 B( 26-C , 27-N ) :   1.0623
B( 26-C , 80-H ) :   0.8687 B( 27-N , 28-C ) :   1.9398 B( 28-C , 29-C ) :   0.9242
B( 28-C , 32-F ) :   1.1739 B( 29-C , 30-N ) :   1.9213 B( 29-C , 31-F ) :   1.1750
B( 33-C , 34-C ) :   1.4072 B( 33-C , 37-S ) :   1.0453 B( 34-C , 35-C ) :   1.2882
B( 34-C , 81-H ) :   0.9815 B( 35-C , 36-C ) :   1.3537 B( 35-C , 40-C ) :   1.0191
B( 36-C , 37-S ) :   1.1458 B( 36-C , 38-C ) :   1.2608 B( 38-C , 39-C ) :   1.3677
B( 38-C , 48-S ) :   1.0862 B( 39-C , 40-C ) :   0.9770 B( 39-C , 46-C ) :   1.3552
B( 40-C , 41-C ) :   1.7048 B( 41-C , 42-C ) :   1.1377 B( 41-C , 44-C ) :   1.1363
B( 42-C , 43-N ) :   2.9884 B( 44-C , 45-N ) :   2.9919 B( 46-C , 47-C ) :   1.3318
B( 46-C , 82-H ) :   1.0060 B( 47-C , 48-S ) :   1.1011 B( 47-C , 49-C ) :   1.2348
B( 49-C , 50-C ) :   1.5056 B( 49-C , 83-H ) :   0.9718 B( 50-C , 51-C ) :   1.1620
B( 50-C , 54-S ) :   1.0551 B( 51-C , 52-C ) :   1.5738 B( 51-C , 84-H ) :   1.0014
B( 52-C , 53-C ) :   1.1971 B( 52-C , 85-H ) :   0.9930 B( 53-C , 54-S ) :   1.0321
B( 53-C , 55-C ) :   1.5000 B( 55-C , 56-C ) :   1.1795 B( 55-C , 59-S ) :   1.0591
B( 56-C , 57-C ) :   1.5974 B( 56-C , 86-H ) :   0.9936 B( 57-C , 58-C ) :   1.1329
B( 57-C , 87-H ) :   0.9994 B( 58-C , 59-S ) :   1.0169 B( 58-C , 60-C ) :   1.5931
B( 60-C , 61-C ) :   1.1317 B( 60-C , 88-H ) :   0.9615 B( 61-C , 62-C ) :   1.2873
B( 61-C , 68-C ) :   1.3360 B( 62-C , 63-O ) :   1.1499 B( 62-C , 65-C ) :   1.3565
B( 63-O , 64-C ) :   0.9623 B( 64-C , 89-H ) :   0.9790 B( 64-C , 90-H ) :   0.9689
B( 64-C , 91-H ) :   0.9687 B( 65-C , 66-C ) :   1.3054 B( 65-C , 92-H ) :   0.9929
B( 66-C , 67-C ) :   1.3261 B( 66-C , 93-H ) :   0.9971 B( 67-C , 68-C ) :   1.3633
B( 67-C , 69-O ) :   1.1573 B( 68-C , 94-H ) :   0.9803 B( 69-O , 70-C ) :   0.9720
B( 70-C , 95-H ) :   0.9797 B( 70-C , 96-H ) :   0.9684 B( 70-C , 97-H ) :   0.9685

-----------------------------------------------------------------------------
         ABSORPTION SPECTRUM VIA TRANSITION ELECTRIC DIPOLE MOMENTS
-----------------------------------------------------------------------------
State   Energy  Wavelength   fosc         T2         TX        TY        TZ
        (cm-1)    (nm)                  (au**2)     (au)      (au)      (au)
-----------------------------------------------------------------------------
   0    7871.0   1270.5   0.509505203  21.31056   3.80978  -1.64498   2.02241
   1   12992.7    769.7   0.561712722  14.23285  -3.59517   1.13878   0.10370
   2   16070.0    622.3   0.656697081  13.45317  -1.15059   0.47255   3.45051
   3   17017.3    587.6   0.572018041  11.06612   0.08469  -0.16385  -3.32146
   4   20248.3    493.9   0.048288532   0.78511  -0.74674  -0.37057   0.30028
   5   22380.6    446.8   0.058178144   0.85578   0.52699  -0.66555  -0.36755
   6   22981.9    435.1   0.358327022   5.13299   1.33401  -1.57297  -0.93763
   7   24191.8    413.4   0.081825129   1.11351   0.74986  -0.51921  -0.53070
   8   24711.4    404.7   0.029038876   0.38686  -0.02049   0.18289   0.59413
   9   25452.9    392.9   0.165416105   2.13952  -0.73094   0.89166   0.90010
  10   26100.8    383.1   0.302706535   3.81806  -1.06435   1.14788   1.16943
  11   27154.9    368.3   0.082400770   0.99899   0.47680  -0.82716  -0.29574
  12   27704.5    361.0   0.064783631   0.76982   0.63184  -0.58792  -0.15798
  13   28641.7    349.1   0.063395352   0.72868   0.40475  -0.75133  -0.01873
  14   28801.5    347.2   0.017616407   0.20136   0.28225  -0.32202  -0.13417
  15   28930.1    345.7   0.075726981   0.86174   0.23902  -0.45638  -0.77222
  16   29386.2    340.3   0.129582743   1.45171  -0.63885   0.37941  -0.94849
  17   29985.2    333.5   0.300913805   3.30378  -0.10218   0.40558   1.76885
  18   30365.1    329.3   0.069042203   0.74854  -0.46870   0.60168   0.40847
  19   30697.6    325.8   0.347869976   3.73069   1.25472  -0.95992  -1.11127
  20   31088.0    321.7   0.001475932   0.01563   0.08996   0.00491  -0.08668
  21   31349.9    319.0   0.028332345   0.29752   0.26181  -0.20517  -0.43230
  22   31873.5    313.7   0.040048004   0.41364   0.22431  -0.29235  -0.52712
  23   32098.9    311.5   0.016870337   0.17303  -0.07861  -0.08182  -0.40019
  24   32323.1    309.4   0.092566567   0.94280  -0.06116   0.20035  -0.94811
  25   32504.1    307.7   0.077690758   0.78688  -0.48640   0.63554   0.38259
  26   33139.2    301.8   0.138456257   1.37545  -0.99915   0.40013   0.46590
  27   33315.9    300.2   0.024734056   0.24441  -0.11451   0.08128  -0.47402
  28   33637.9    297.3   0.079506441   0.77812   0.77245  -0.34097   0.25532
  29   34018.3    294.0   0.096888292   0.93764  -0.57434   0.69551   0.35220
  30   34280.3    291.7   0.167442937   1.60804  -0.36507  -0.10508  -1.20985
  31   34466.9    290.1   0.020175080   0.19270  -0.19487  -0.27308   0.28312
  32   34676.5    288.4   0.044799539   0.42532  -0.30849   0.04319   0.57296
  33   35480.5    281.8   0.126072190   1.16978   0.43742  -0.26666  -0.95255
  34   35627.1    280.7   0.380920604   3.51990  -1.20735   0.50690   1.34360
  35   35851.7    278.9   0.053603064   0.49222  -0.15518   0.66065  -0.17798
  36   36479.2    274.1   0.033460599   0.30197   0.24747   0.11829   0.47617
  37   37083.4    269.7   0.014993933   0.13311  -0.11696  -0.09524  -0.33220
  38   37296.2    268.1   0.023679465   0.20902  -0.22263   0.27140  -0.29291
  39   37583.9    266.1   0.020567304   0.18016  -0.07442  -0.13204  -0.39646
  40   37982.2    263.3   0.061392097   0.53212   0.23827  -0.50888  -0.46518
  41   38311.1    261.0   0.036385963   0.31267  -0.18432   0.31535   0.42338
  42   38440.1    260.1   0.054253013   0.46464   0.19513  -0.51403  -0.40291
  43   38797.7    257.7   0.000503955   0.00428  -0.05256   0.01732   0.03483
  44   39088.6    255.8   0.020361656   0.17149   0.02603  -0.29731   0.28709
  45   39326.3    254.3   0.017564688   0.14704   0.18246   0.21995   0.25568
  46   39620.5    252.4   0.022610824   0.18788  -0.38851   0.19189  -0.01079
  47   39745.5    251.6   0.005320136   0.04407   0.08047   0.18310  -0.06377
  48   40054.0    249.7   0.070902708   0.58276   0.26778  -0.62317   0.35031
  49   40195.4    248.8   0.067426855   0.55225  -0.33855   0.65370   0.10150

FINAL SINGLE POINT ENERGY     -4554.225657433711

DIPOLE MOMENT
-------------
                                X             Y             Z
Electronic contribution:    -44.65295      15.04743     -70.59909
Nuclear contribution   :     48.83484     -15.29642      75.86631
                        -----------------------------------------
Total Dipole Moment    :      4.18189      -0.24898       5.26722
                        -----------------------------------------
Magnitude (a.u.)       :      6.73006
Magnitude (Debye)      :     17.10646

Rotational constants in cm-1:     0.000813     0.000404     0.000285
Rotational constants in MHz :    24.374812    12.117065     8.539251

                             ****ORCA TERMINATED NORMALLY****
TOTAL RUN TIME: 0 days 0 hours 12 minutes 46 seconds 749 msec
