                         Program Version 4.2.0 -  RELEASE  -
|  1> # ORCA input file
|  2> # SCF done       -183.120403537116          0.000885994825
|  3> ! CAM-B3LYP def2-SVP def2/J RIJCOSX Grid4 TightSCF
|  4> %maxcore 5000
|  5> %tddft
|  6>     Mode sTDDFT
|  7>     Ethresh 5.0
|  8>     maxcore 5000
|  9> end
| 10>
| 11> %pal
| 12>   nprocs 6
| 13>   end
| 14> * xyz 0 1
| 15>    C        3.92366        11.92331         6.38054
| 16>    C        4.19942        12.33027         5.11174
| 17>    C        3.25984        11.82157         4.19329
| 18>    C        2.28350        11.03013         4.81233
| 19>    S        2.51833        10.91278         6.49901
| 20>    C        1.38095        10.56225         3.81812
| 21>    C        1.79161        11.05894         2.57479
| 22>    C        2.98868        11.87086         2.77127
| 23>    C        3.69345        12.53795         1.81081
| 24>    C        3.32116        12.51142         0.45126
| 25>    N        3.02245        12.49326        -0.65609
| 26>    C        4.83860        13.30244         2.11461
| 27>    N        5.77246        13.92325         2.35499
| 28>    C        0.96351        10.65840         1.52597
| 29>    C       -0.08133         9.86375         1.96160
| 30>    S       -0.02772         9.60320         3.70280
| 31>    C       -1.12617         9.28458         1.18351
| 32>    C       -2.16551         8.58761         1.74669
| 33>    C       -3.22937         8.02428         1.04276
| 34>    C       -3.36319         8.23392        -0.40694
| 35>    C       -2.44222         8.86282        -1.16789
| 36>    S       -0.98648         9.53365        -0.55479
| 37>    C       -4.61867         7.66501        -0.75550
| 38>    C       -5.22915         7.14398         0.38593
| 39>    C       -6.48412         6.56238         0.10068
| 40>    C       -6.78905         6.65830        -1.21969
| 41>    S       -5.57362         7.44831        -2.16814
| 42>    C       -4.35866         7.33475         1.51584
| 43>    C       -4.65844         6.89234         2.83064
| 44>    C       -3.75167         6.61141         3.80029
| 45>    C       -4.08163         6.23797         5.12870
| 46>    C       -5.29376         6.27469         5.78564
| 47>    C       -5.21002         5.85982         7.11529
| 48>   Cl       -6.57266         5.83534         8.15797
| 49>    C       -3.93638         5.47978         7.52076
| 50>    S       -2.82638         5.66304         6.19114
| 51>    C       -3.52240         5.01227         8.79107
| 52>    C       -2.28136         4.53195         9.18307
| 53>   Cl       -0.94051         4.41757         8.11752
| 54>    C       -2.20421         4.14284        10.52249
| 55>    C       -3.38460         4.33288        11.20471
| 56>    S       -4.61204         4.98332        10.14826
| 57>    C       -3.67541         4.07340        12.57520
| 58>    C       -4.84835         4.47910        13.16122
| 59>    C       -5.19506         4.26599        14.49322
| 60>    C       -4.30486         3.53308        15.39783
| 61>    C       -3.09730         3.04595        15.03956
| 62>    S       -2.42788         3.20785        13.46587
| 63>    C       -4.98985         3.49890        16.64335
| 64>    C       -6.21061         4.17079        16.54072
| 65>    C       -6.91432         4.15569        17.76649
| 66>    C       -6.22868         3.49443        18.73556
| 67>    S       -4.70597         2.86233        18.21356
| 68>    C       -6.35073         4.66726        15.19284
| 69>    C       -7.38283         5.44155        14.62096
| 70>    C       -8.50186         5.90724        15.23753
| 71>    C       -9.46327         6.72457        14.59528
| 72>    C       -9.46984         7.21097        13.29452
| 73>    C      -10.57866         8.00961        13.03546
| 74>    C      -11.43742         8.14165        14.13579
| 75>    S      -10.87018         7.27501        15.49704
| 76>    C      -12.52216         8.97730        13.75782
| 77>    C      -12.34582         9.36922        12.42214
| 78>    C      -11.12500         8.78100        11.92098
| 79>    C      -10.57700         8.91349        10.67633
| 80>    C      -11.18344         9.68103         9.66188
| 81>    N      -11.66834        10.30184         8.82783
| 82>    C       -9.35856         8.29773        10.32801
| 83>    N       -8.36353         7.80459        10.03920
| 84>    C      -13.38065        10.21157        11.96766
| 85>    C      -14.30165        10.43813        12.94167
| 86>    S      -13.94153         9.63618        14.44069
| 87>    H        4.46314        12.15340         7.27728
| 88>    H        5.03114        12.96012         4.85412
| 89>    H        1.09992        10.93003         0.49474
| 90>    H       -2.16920         8.51363         2.82553
| 91>    H       -2.55616         8.98893        -2.23303
| 92>    H       -7.12805         6.09896         0.82590
| 93>    H       -7.67161         6.30688        -1.71760
| 94>    H       -5.70780         6.73094         3.03968
| 95>    H       -2.69616         6.62187         3.57000
| 96>    H       -6.21146         6.60653         5.33813
| 97>    H       -1.31024         3.74868        10.97008
| 98>    H       -5.53972         5.00891        12.51929
| 99>    H       -2.45486         2.51843        15.72673
|100>    H       -7.87626         4.59992        17.94361
|101>    H       -6.52624         3.33134        19.75302
|102>    H       -7.23984         5.69879        13.58089
|103>    H       -8.69167         5.67192        16.27305
|104>    H       -8.69906         6.99298        12.57935
|105>    H      -13.44209        10.62754        10.97852
|106>    H      -15.18951        11.03512        12.88457
|107> *
|108>
|109>                          ****END OF INPUT****

CARTESIAN COORDINATES (ANGSTROEM)
---------------------------------
  C      3.923660   11.923310    6.380540
  C      4.199420   12.330270    5.111740
  C      3.259840   11.821570    4.193290
  C      2.283500   11.030130    4.812330
  S      2.518330   10.912780    6.499010
  C      1.380950   10.562250    3.818120
  C      1.791610   11.058940    2.574790
  C      2.988680   11.870860    2.771270
  C      3.693450   12.537950    1.810810
  C      3.321160   12.511420    0.451260
  N      3.022450   12.493260   -0.656090
  C      4.838600   13.302440    2.114610
  N      5.772460   13.923250    2.354990
  C      0.963510   10.658400    1.525970
  C     -0.081330    9.863750    1.961600
  S     -0.027720    9.603200    3.702800
  C     -1.126170    9.284580    1.183510
  C     -2.165510    8.587610    1.746690
  C     -3.229370    8.024280    1.042760
  C     -3.363190    8.233920   -0.406940
  C     -2.442220    8.862820   -1.167890
  S     -0.986480    9.533650   -0.554790
  C     -4.618670    7.665010   -0.755500
  C     -5.229150    7.143980    0.385930
  C     -6.484120    6.562380    0.100680
  C     -6.789050    6.658300   -1.219690
  S     -5.573620    7.448310   -2.168140
  C     -4.358660    7.334750    1.515840
  C     -4.658440    6.892340    2.830640
  C     -3.751670    6.611410    3.800290
  C     -4.081630    6.237970    5.128700
  C     -5.293760    6.274690    5.785640
  C     -5.210020    5.859820    7.115290
  Cl    -6.572660    5.835340    8.157970
  C     -3.936380    5.479780    7.520760
  S     -2.826380    5.663040    6.191140
  C     -3.522400    5.012270    8.791070
  C     -2.281360    4.531950    9.183070
  Cl    -0.940510    4.417570    8.117520
  C     -2.204210    4.142840   10.522490
  C     -3.384600    4.332880   11.204710
  S     -4.612040    4.983320   10.148260
  C     -3.675410    4.073400   12.575200
  C     -4.848350    4.479100   13.161220
  C     -5.195060    4.265990   14.493220
  C     -4.304860    3.533080   15.397830
  C     -3.097300    3.045950   15.039560
  S     -2.427880    3.207850   13.465870
  C     -4.989850    3.498900   16.643350
  C     -6.210610    4.170790   16.540720
  C     -6.914320    4.155690   17.766490
  C     -6.228680    3.494430   18.735560
  S     -4.705970    2.862330   18.213560
  C     -6.350730    4.667260   15.192840
  C     -7.382830    5.441550   14.620960
  C     -8.501860    5.907240   15.237530
  C     -9.463270    6.724570   14.595280
  C     -9.469840    7.210970   13.294520
  C    -10.578660    8.009610   13.035460
  C    -11.437420    8.141650   14.135790
  S    -10.870180    7.275010   15.497040
  C    -12.522160    8.977300   13.757820
  C    -12.345820    9.369220   12.422140
  C    -11.125000    8.781000   11.920980
  C    -10.577000    8.913490   10.676330
  C    -11.183440    9.681030    9.661880
  N    -11.668340   10.301840    8.827830
  C     -9.358560    8.297730   10.328010
  N     -8.363530    7.804590   10.039200
  C    -13.380650   10.211570   11.967660
  C    -14.301650   10.438130   12.941670
  S    -13.941530    9.636180   14.440690
  H      4.463140   12.153400    7.277280
  H      5.031140   12.960120    4.854120
  H      1.099920   10.930030    0.494740
  H     -2.169200    8.513630    2.825530
  H     -2.556160    8.988930   -2.233030
  H     -7.128050    6.098960    0.825900
  H     -7.671610    6.306880   -1.717600
  H     -5.707800    6.730940    3.039680
  H     -2.696160    6.621870    3.570000
  H     -6.211460    6.606530    5.338130
  H     -1.310240    3.748680   10.970080
  H     -5.539720    5.008910   12.519290
  H     -2.454860    2.518430   15.726730
  H     -7.876260    4.599920   17.943610
  H     -6.526240    3.331340   19.753020
  H     -7.239840    5.698790   13.580890
  H     -8.691670    5.671920   16.273050
  H     -8.699060    6.992980   12.579350
  H    -13.442090   10.627540   10.978520
  H    -15.189510   11.035120   12.884570

 Total Charge           Charge          ....    0
 Multiplicity           Mult            ....    1
 Number of Electrons    NEL             ....  578
 Basis Dimension        Dim             .... 1156

ORBITAL ENERGIES
----------------

  NO   OCC          E(Eh)            E(eV)
   0   2.0000    -101.592653     -2764.4766
   1   2.0000    -101.585728     -2764.2882
   2   2.0000     -88.985756     -2421.4255
   3   2.0000     -88.983490     -2421.3639
   4   2.0000     -88.976671     -2421.1783
   5   2.0000     -88.974003     -2421.1057
   6   2.0000     -88.973255     -2421.0854
   7   2.0000     -88.973041     -2421.0795
   8   2.0000     -88.960648     -2420.7423
   9   2.0000     -88.955277     -2420.5961
  10   2.0000     -88.955271     -2420.5960
  11   2.0000     -88.952966     -2420.5333
  12   2.0000     -14.425758      -392.5448
  13   2.0000     -14.425278      -392.5318
  14   2.0000     -14.421569      -392.4309
  15   2.0000     -14.420201      -392.3936
  16   2.0000     -10.358988      -281.8824
  17   2.0000     -10.351836      -281.6878
  18   2.0000     -10.346733      -281.5489
  19   2.0000     -10.340590      -281.3818
  20   2.0000     -10.326589      -281.0008
  21   2.0000     -10.326291      -280.9927
  22   2.0000     -10.325877      -280.9814
  23   2.0000     -10.325860      -280.9809
  24   2.0000     -10.325742      -280.9777
  25   2.0000     -10.325568      -280.9730
  26   2.0000     -10.325334      -280.9666
  27   2.0000     -10.324923      -280.9554
  28   2.0000     -10.324299      -280.9385
  29   2.0000     -10.323510      -280.9170
  30   2.0000     -10.323417      -280.9145
  31   2.0000     -10.322994      -280.9030
  32   2.0000     -10.321069      -280.8506
  33   2.0000     -10.320301      -280.8297
  34   2.0000     -10.316606      -280.7291
  35   2.0000     -10.312031      -280.6046
  36   2.0000     -10.309956      -280.5482
  37   2.0000     -10.309247      -280.5289
  38   2.0000     -10.308988      -280.5218
  39   2.0000     -10.307401      -280.4786
  40   2.0000     -10.300164      -280.2817
  41   2.0000     -10.299898      -280.2745
  42   2.0000     -10.297543      -280.2104
  43   2.0000     -10.296163      -280.1728
  44   2.0000     -10.295435      -280.1530
  45   2.0000     -10.294937      -280.1395
  46   2.0000     -10.294628      -280.1311
  47   2.0000     -10.294617      -280.1308
  48   2.0000     -10.294201      -280.1194
  49   2.0000     -10.293507      -280.1006
  50   2.0000     -10.293182      -280.0917
  51   2.0000     -10.292026      -280.0603
  52   2.0000     -10.289264      -279.9851
  53   2.0000     -10.287389      -279.9341
  54   2.0000     -10.285734      -279.8890
  55   2.0000     -10.285072      -279.8710
  56   2.0000     -10.283839      -279.8375
  57   2.0000     -10.283206      -279.8203
  58   2.0000     -10.282763      -279.8082
  59   2.0000     -10.282654      -279.8052
  60   2.0000     -10.282472      -279.8003
  61   2.0000     -10.278312      -279.6871
  62   2.0000     -10.277529      -279.6658
  63   2.0000     -10.277465      -279.6640
  64   2.0000     -10.276004      -279.6243
  65   2.0000     -10.273985      -279.5693
  66   2.0000     -10.273090      -279.5450
  67   2.0000     -10.273067      -279.5444
  68   2.0000     -10.272209      -279.5210
  69   2.0000     -10.272078      -279.5175
  70   2.0000     -10.271417      -279.4995
  71   2.0000     -10.269234      -279.4401
  72   2.0000      -9.547380      -259.7974
  73   2.0000      -9.540287      -259.6044
  74   2.0000      -8.080030      -219.8688
  75   2.0000      -8.078483      -219.8267
  76   2.0000      -8.071707      -219.6423
  77   2.0000      -8.068659      -219.5594
  78   2.0000      -8.068517      -219.5555
  79   2.0000      -8.068200      -219.5469
  80   2.0000      -8.055105      -219.1905
  81   2.0000      -8.050684      -219.0702
  82   2.0000      -8.050352      -219.0612
  83   2.0000      -8.048356      -219.0069
  84   2.0000      -7.317441      -199.1177
  85   2.0000      -7.310366      -198.9252
  86   2.0000      -7.307479      -198.8466
  87   2.0000      -7.307449      -198.8458
  88   2.0000      -7.300343      -198.6524
  89   2.0000      -7.300308      -198.6515
  90   2.0000      -6.049319      -164.6104
  91   2.0000      -6.047734      -164.5672
  92   2.0000      -6.045222      -164.4989
  93   2.0000      -6.043300      -164.4466
  94   2.0000      -6.042293      -164.4192
  95   2.0000      -6.041091      -164.3865
  96   2.0000      -6.040987      -164.3836
  97   2.0000      -6.038175      -164.3071
  98   2.0000      -6.037862      -164.2986
  99   2.0000      -6.037858      -164.2985
 100   2.0000      -6.036558      -164.2631
 101   2.0000      -6.034265      -164.2007
 102   2.0000      -6.033789      -164.1878
 103   2.0000      -6.033558      -164.1815
 104   2.0000      -6.033286      -164.1741
 105   2.0000      -6.031075      -164.1139
 106   2.0000      -6.030307      -164.0930
 107   2.0000      -6.029944      -164.0831
 108   2.0000      -6.024695      -163.9403
 109   2.0000      -6.020417      -163.8239
 110   2.0000      -6.020084      -163.8148
 111   2.0000      -6.019812      -163.8074
 112   2.0000      -6.017817      -163.7531
 113   2.0000      -6.016696      -163.7226
 114   2.0000      -6.015877      -163.7003
 115   2.0000      -6.015577      -163.6922
 116   2.0000      -6.013571      -163.6376
 117   2.0000      -6.012788      -163.6163
 118   2.0000      -6.012145      -163.5988
 119   2.0000      -6.010355      -163.5501
 120   2.0000      -1.038621       -28.2623
 121   2.0000      -1.030121       -28.0310
 122   2.0000      -1.017118       -27.6772
 123   2.0000      -1.016921       -27.6718
 124   2.0000      -1.011464       -27.5233
 125   2.0000      -1.004153       -27.3244
 126   2.0000      -1.003592       -27.3091
 127   2.0000      -1.002828       -27.2883
 128   2.0000      -0.998552       -27.1720
 129   2.0000      -0.992709       -27.0130
 130   2.0000      -0.992024       -26.9943
 131   2.0000      -0.980553       -26.6822
 132   2.0000      -0.971095       -26.4248
 133   2.0000      -0.967314       -26.3219
 134   2.0000      -0.950050       -25.8522
 135   2.0000      -0.949137       -25.8273
 136   2.0000      -0.945483       -25.7279
 137   2.0000      -0.940657       -25.5966
 138   2.0000      -0.924812       -25.1654
 139   2.0000      -0.924389       -25.1539
 140   2.0000      -0.907914       -24.7056
 141   2.0000      -0.903776       -24.5930
 142   2.0000      -0.894196       -24.3323
 143   2.0000      -0.886548       -24.1242
 144   2.0000      -0.877389       -23.8750
 145   2.0000      -0.872141       -23.7322
 146   2.0000      -0.861946       -23.4547
 147   2.0000      -0.856000       -23.2929
 148   2.0000      -0.850330       -23.1386
 149   2.0000      -0.846987       -23.0477
 150   2.0000      -0.838871       -22.8268
 151   2.0000      -0.838534       -22.8177
 152   2.0000      -0.835171       -22.7262
 153   2.0000      -0.817521       -22.2459
 154   2.0000      -0.815456       -22.1897
 155   2.0000      -0.815313       -22.1858
 156   2.0000      -0.807331       -21.9686
 157   2.0000      -0.800030       -21.7699
 158   2.0000      -0.789467       -21.4825
 159   2.0000      -0.779542       -21.2124
 160   2.0000      -0.773469       -21.0472
 161   2.0000      -0.765288       -20.8246
 162   2.0000      -0.762907       -20.7598
 163   2.0000      -0.755454       -20.5569
 164   2.0000      -0.733278       -19.9535
 165   2.0000      -0.728571       -19.8254
 166   2.0000      -0.724319       -19.7097
 167   2.0000      -0.715613       -19.4728
 168   2.0000      -0.698224       -18.9996
 169   2.0000      -0.692654       -18.8481
 170   2.0000      -0.688060       -18.7231
 171   2.0000      -0.685813       -18.6619
 172   2.0000      -0.672184       -18.2911
 173   2.0000      -0.670190       -18.2368
 174   2.0000      -0.665597       -18.1118
 175   2.0000      -0.664007       -18.0685
 176   2.0000      -0.658652       -17.9228
 177   2.0000      -0.652716       -17.7613
 178   2.0000      -0.646539       -17.5932
 179   2.0000      -0.640831       -17.4379
 180   2.0000      -0.634236       -17.2584
 181   2.0000      -0.626090       -17.0368
 182   2.0000      -0.621513       -16.9122
 183   2.0000      -0.618982       -16.8434
 184   2.0000      -0.616167       -16.7668
 185   2.0000      -0.614037       -16.7088
 186   2.0000      -0.609517       -16.5858
 187   2.0000      -0.604426       -16.4473
 188   2.0000      -0.602224       -16.3873
 189   2.0000      -0.599072       -16.3016
 190   2.0000      -0.592818       -16.1314
 191   2.0000      -0.588355       -16.0100
 192   2.0000      -0.575652       -15.6643
 193   2.0000      -0.573810       -15.6142
 194   2.0000      -0.569981       -15.5100
 195   2.0000      -0.563407       -15.3311
 196   2.0000      -0.562925       -15.3180
 197   2.0000      -0.553350       -15.0574
 198   2.0000      -0.550899       -14.9907
 199   2.0000      -0.543589       -14.7918
 200   2.0000      -0.541196       -14.7267
 201   2.0000      -0.535352       -14.5677
 202   2.0000      -0.533130       -14.5072
 203   2.0000      -0.532042       -14.4776
 204   2.0000      -0.527236       -14.3468
 205   2.0000      -0.521641       -14.1946
 206   2.0000      -0.517190       -14.0735
 207   2.0000      -0.515679       -14.0324
 208   2.0000      -0.514658       -14.0046
 209   2.0000      -0.513848       -13.9825
 210   2.0000      -0.509442       -13.8626
 211   2.0000      -0.506904       -13.7936
 212   2.0000      -0.505277       -13.7493
 213   2.0000      -0.503186       -13.6924
 214   2.0000      -0.499672       -13.5968
 215   2.0000      -0.498387       -13.5618
 216   2.0000      -0.496617       -13.5136
 217   2.0000      -0.493146       -13.4192
 218   2.0000      -0.490811       -13.3557
 219   2.0000      -0.489541       -13.3211
 220   2.0000      -0.488511       -13.2931
 221   2.0000      -0.486958       -13.2508
 222   2.0000      -0.483414       -13.1544
 223   2.0000      -0.481481       -13.1018
 224   2.0000      -0.480057       -13.0630
 225   2.0000      -0.472564       -12.8591
 226   2.0000      -0.470120       -12.7926
 227   2.0000      -0.469090       -12.7646
 228   2.0000      -0.466954       -12.7065
 229   2.0000      -0.460679       -12.5357
 230   2.0000      -0.459498       -12.5036
 231   2.0000      -0.458646       -12.4804
 232   2.0000      -0.457038       -12.4366
 233   2.0000      -0.455221       -12.3872
 234   2.0000      -0.453716       -12.3463
 235   2.0000      -0.452888       -12.3237
 236   2.0000      -0.450430       -12.2568
 237   2.0000      -0.449662       -12.2359
 238   2.0000      -0.447564       -12.1788
 239   2.0000      -0.446919       -12.1613
 240   2.0000      -0.443816       -12.0768
 241   2.0000      -0.440849       -11.9961
 242   2.0000      -0.439222       -11.9518
 243   2.0000      -0.437038       -11.8924
 244   2.0000      -0.435747       -11.8573
 245   2.0000      -0.434926       -11.8349
 246   2.0000      -0.433693       -11.8014
 247   2.0000      -0.433152       -11.7867
 248   2.0000      -0.431730       -11.7480
 249   2.0000      -0.430763       -11.7217
 250   2.0000      -0.429052       -11.6751
 251   2.0000      -0.428244       -11.6531
 252   2.0000      -0.426621       -11.6089
 253   2.0000      -0.425549       -11.5798
 254   2.0000      -0.423156       -11.5147
 255   2.0000      -0.422287       -11.4910
 256   2.0000      -0.419255       -11.4085
 257   2.0000      -0.416609       -11.3365
 258   2.0000      -0.416118       -11.3231
 259   2.0000      -0.414306       -11.2738
 260   2.0000      -0.412657       -11.2290
 261   2.0000      -0.411083       -11.1861
 262   2.0000      -0.406426       -11.0594
 263   2.0000      -0.402094       -10.9415
 264   2.0000      -0.400946       -10.9103
 265   2.0000      -0.391492       -10.6530
 266   2.0000      -0.390124       -10.6158
 267   2.0000      -0.377867       -10.2823
 268   2.0000      -0.374410       -10.1882
 269   2.0000      -0.368693       -10.0326
 270   2.0000      -0.358982        -9.7684
 271   2.0000      -0.353436        -9.6175
 272   2.0000      -0.346072        -9.4171
 273   2.0000      -0.343154        -9.3377
 274   2.0000      -0.338509        -9.2113
 275   2.0000      -0.334413        -9.0998
 276   2.0000      -0.323929        -8.8145
 277   2.0000      -0.323154        -8.7935
 278   2.0000      -0.316468        -8.6115
 279   2.0000      -0.314481        -8.5575
 280   2.0000      -0.310088        -8.4379
 281   2.0000      -0.308395        -8.3919
 282   2.0000      -0.290210        -7.8970
 283   2.0000      -0.285072        -7.7572
 284   2.0000      -0.279172        -7.5967
 285   2.0000      -0.267713        -7.2848
 286   2.0000      -0.253086        -6.8868
 287   2.0000      -0.224315        -6.1039
 288   2.0000      -0.211261        -5.7487
 289   0.0000      -0.098853        -2.6899
 290   0.0000      -0.092148        -2.5075
 291   0.0000      -0.068342        -1.8597
 292   0.0000      -0.055494        -1.5101
 293   0.0000      -0.031245        -0.8502

MULLIKEN ATOMIC CHARGES
-----------------------
   0 C :   -0.082408
   1 C :    0.037227
   2 C :   -0.035619
   3 C :   -0.113947
   4 S :    0.183271
   5 C :   -0.098851
   6 C :    0.014879
   7 C :    0.300809
   8 C :   -0.295807
   9 C :   -0.186552
  10 N :    0.167953
  11 C :   -0.190898
  12 N :    0.171596
  13 C :   -0.055931
  14 C :   -0.061633
  15 S :    0.168724
  16 C :   -0.025180
  17 C :   -0.099022
  18 C :    0.050048
  19 C :    0.060262
  20 C :   -0.125644
  21 S :    0.130205
  22 C :   -0.109342
  23 C :    0.053542
  24 C :    0.008410
  25 C :   -0.070602
  26 S :    0.127346
  27 C :    0.074626
  28 C :   -0.032949
  29 C :    0.039933
  30 C :   -0.067973
  31 C :    0.002194
  32 C :    0.062749
  33 Cl:   -0.043247
  34 C :   -0.109168
  35 S :    0.139981
  36 C :   -0.076234
  37 C :    0.062113
  38 Cl:   -0.072630
  39 C :   -0.013256
  40 C :   -0.048518
  41 S :    0.132220
  42 C :   -0.009511
  43 C :   -0.095684
  44 C :    0.056749
  45 C :    0.066614
  46 C :   -0.127308
  47 S :    0.125484
  48 C :   -0.115088
  49 C :    0.052334
  50 C :   -0.006642
  51 C :   -0.067701
  52 S :    0.126437
  53 C :    0.098257
  54 C :   -0.016164
  55 C :    0.037010
  56 C :   -0.070813
  57 C :   -0.052485
  58 C :    0.012206
  59 C :   -0.113100
  60 S :    0.171600
  61 C :   -0.114679
  62 C :   -0.046387
  63 C :    0.308855
  64 C :   -0.307365
  65 C :   -0.193154
  66 N :    0.169203
  67 C :   -0.183958
  68 N :    0.160401
  69 C :    0.042032
  70 C :   -0.087761
  71 S :    0.169933
  72 H :    0.035049
  73 H :    0.011280
  74 H :    0.018341
  75 H :   -0.006423
  76 H :    0.038388
  77 H :   -0.017295
  78 H :    0.025914
  79 H :   -0.015978
  80 H :   -0.016372
  81 H :   -0.020261
  82 H :   -0.010443
  83 H :    0.002778
  84 H :    0.034016
  85 H :   -0.016077
  86 H :    0.023335
  87 H :   -0.036685
  88 H :   -0.052501
  89 H :    0.001609
  90 H :    0.008065
  91 H :    0.031263
Sum of atomic charges:   -0.0000000

LOEWDIN ATOMIC CHARGES
----------------------
   0 C :   -0.178926
   1 C :   -0.033900
   2 C :   -0.078986
   3 C :   -0.182125
   4 S :    0.477703
   5 C :   -0.180830
   6 C :   -0.069163
   7 C :    0.084495
   8 C :   -0.104689
   9 C :   -0.016258
  10 N :   -0.035619
  11 C :   -0.016727
  12 N :   -0.034602
  13 C :   -0.042145
  14 C :   -0.178104
  15 S :    0.477255
  16 C :   -0.183519
  17 C :   -0.033360
  18 C :   -0.021815
  19 C :   -0.047808
  20 C :   -0.139445
  21 S :    0.456502
  22 C :   -0.204280
  23 C :   -0.039953
  24 C :   -0.064078
  25 C :   -0.165193
  26 S :    0.420424
  27 C :   -0.051474
  28 C :   -0.006331
  29 C :   -0.058027
  30 C :   -0.164596
  31 C :   -0.077035
  32 C :   -0.164069
  33 Cl:    0.175053
  34 C :   -0.221964
  35 S :    0.439492
  36 C :   -0.200378
  37 C :   -0.175919
  38 Cl:    0.148878
  39 C :   -0.078935
  40 C :   -0.192033
  41 S :    0.455998
  42 C :   -0.175178
  43 C :   -0.031723
  44 C :   -0.015989
  45 C :   -0.049960
  46 C :   -0.140596
  47 S :    0.450944
  48 C :   -0.201558
  49 C :   -0.037165
  50 C :   -0.066768
  51 C :   -0.167712
  52 S :    0.422449
  53 C :   -0.053823
  54 C :   -0.003454
  55 C :   -0.068766
  56 C :   -0.153207
  57 C :   -0.040979
  58 C :   -0.064160
  59 C :   -0.201971
  60 S :    0.462604
  61 C :   -0.173171
  62 C :   -0.088771
  63 C :    0.088192
  64 C :   -0.112318
  65 C :   -0.017089
  66 N :   -0.039968
  67 C :   -0.012313
  68 N :   -0.049383
  69 C :   -0.033893
  70 C :   -0.185807
  71 S :    0.467205
  72 H :    0.027147
  73 H :    0.042334
  74 H :    0.034466
  75 H :    0.026438
  76 H :    0.037430
  77 H :    0.030420
  78 H :    0.023145
  79 H :    0.029450
  80 H :    0.024602
  81 H :    0.030880
  82 H :    0.027909
  83 H :    0.028489
  84 H :    0.035703
  85 H :    0.027387
  86 H :    0.022811
  87 H :    0.028335
  88 H :    0.022397
  89 H :    0.035048
  90 H :    0.041242
  91 H :    0.025183

  Mayer bond orders larger than 0.100000
B(  0-C ,  1-C ) :   1.5501 B(  0-C ,  4-S ) :   1.1468 B(  0-C , 72-H ) :   0.9643
B(  1-C ,  2-C ) :   1.2753 B(  1-C , 73-H ) :   0.9964 B(  2-C ,  3-C ) :   1.4532
B(  2-C ,  7-C ) :   1.0205 B(  3-C ,  4-S ) :   1.1384 B(  3-C ,  5-C ) :   1.1819
B(  5-C ,  6-C ) :   1.4659 B(  5-C , 15-S ) :   1.1226 B(  6-C ,  7-C ) :   0.9945
B(  6-C , 13-C ) :   1.2937 B(  7-C ,  8-C ) :   1.7058 B(  8-C ,  9-C ) :   1.1336
B(  8-C , 11-C ) :   1.1299 B(  9-C , 10-N ) :   2.9891 B( 11-C , 12-N ) :   3.0022
B( 13-C , 14-C ) :   1.4662 B( 13-C , 74-H ) :   0.9813 B( 14-C , 15-S ) :   1.1066
B( 14-C , 16-C ) :   1.1601 B( 16-C , 17-C ) :   1.5293 B( 16-C , 21-S ) :   1.0539
B( 17-C , 18-C ) :   1.2388 B( 17-C , 75-H ) :   0.9588 B( 18-C , 19-C ) :   1.0516
B( 18-C , 27-C ) :   1.4059 B( 19-C , 20-C ) :   1.6149 B( 19-C , 22-C ) :   1.1750
B( 20-C , 21-S ) :   1.1335 B( 20-C , 76-H ) :   0.9406 B( 22-C , 23-C ) :   1.4415
B( 22-C , 26-S ) :   1.0744 B( 23-C , 24-C ) :   1.2202 B( 23-C , 27-C ) :   1.0990
B( 24-C , 25-C ) :   1.5842 B( 24-C , 77-H ) :   0.9985 B( 25-C , 26-S ) :   1.1561
B( 25-C , 78-H ) :   0.9665 B( 27-C , 28-C ) :   1.1433 B( 28-C , 29-C ) :   1.6623
B( 28-C , 79-H ) :   0.9617 B( 29-C , 30-C ) :   1.1166 B( 29-C , 80-H ) :   0.9598
B( 30-C , 31-C ) :   1.4697 B( 30-C , 35-S ) :   1.1025 B( 31-C , 32-C ) :   1.2787
B( 31-C , 81-H ) :   1.0002 B( 32-C , 33-Cl) :   1.0447 B( 32-C , 34-C ) :   1.4621
B( 34-C , 35-S ) :   1.1158 B( 34-C , 36-C ) :   1.1819 B( 36-C , 37-C ) :   1.4782
B( 36-C , 41-S ) :   1.1281 B( 37-C , 38-Cl) :   1.0242 B( 37-C , 39-C ) :   1.2730
B( 39-C , 40-C ) :   1.4740 B( 39-C , 82-H ) :   0.9946 B( 40-C , 41-S ) :   1.1003
B( 40-C , 42-C ) :   1.1551 B( 42-C , 43-C ) :   1.5374 B( 42-C , 47-S ) :   1.0523
B( 43-C , 44-C ) :   1.2419 B( 43-C , 83-H ) :   0.9604 B( 44-C , 45-C ) :   1.0510
B( 44-C , 53-C ) :   1.3744 B( 45-C , 46-C ) :   1.6124 B( 45-C , 48-C ) :   1.1730
B( 46-C , 47-S ) :   1.1339 B( 46-C , 84-H ) :   0.9405 B( 48-C , 49-C ) :   1.4575
B( 48-C , 52-S ) :   1.0775 B( 49-C , 50-C ) :   1.2146 B( 49-C , 53-C ) :   1.0659
B( 50-C , 51-C ) :   1.5848 B( 50-C , 85-H ) :   1.0006 B( 51-C , 52-S ) :   1.1578
B( 51-C , 86-H ) :   0.9646 B( 53-C , 54-C ) :   1.1948 B( 54-C , 55-C ) :   1.6292
B( 54-C , 87-H ) :   0.9552 B( 55-C , 56-C ) :   1.1267 B( 55-C , 88-H ) :   0.9662
B( 56-C , 57-C ) :   1.4442 B( 56-C , 60-S ) :   1.1130 B( 57-C , 58-C ) :   1.3025
B( 57-C , 89-H ) :   0.9877 B( 58-C , 59-C ) :   1.4534 B( 58-C , 63-C ) :   0.9930
B( 59-C , 60-S ) :   1.1040 B( 59-C , 61-C ) :   1.1930 B( 61-C , 62-C ) :   1.4494
B( 61-C , 71-S ) :   1.1415 B( 62-C , 63-C ) :   1.0277 B( 62-C , 69-C ) :   1.2695
B( 63-C , 64-C ) :   1.6947 B( 64-C , 65-C ) :   1.1310 B( 64-C , 67-C ) :   1.1390
B( 65-C , 66-N ) :   3.0047 B( 67-C , 68-N ) :   2.9825 B( 69-C , 70-C ) :   1.5610
B( 69-C , 90-H ) :   0.9949 B( 70-C , 71-S ) :   1.1335 B( 70-C , 91-H ) :   0.9642

-----------------------------------------------------------------------------
         ABSORPTION SPECTRUM VIA TRANSITION ELECTRIC DIPOLE MOMENTS
-----------------------------------------------------------------------------
State   Energy  Wavelength   fosc         T2         TX        TY        TZ
        (cm-1)    (nm)                  (au**2)     (au)      (au)      (au)
-----------------------------------------------------------------------------
   0   10282.4    972.5   0.119525661   3.82686   1.74514  -0.85437  -0.22673
   1   11131.8    898.3   0.080884187   2.39207  -1.23279  -0.93382   0.01676
   2   16441.0    608.2   0.923955635  18.50117  -2.31022  -0.77405   3.54470
   3   17198.6    581.4   0.120011195   2.29723   1.19825   0.30000  -0.87831
   4   18073.8    553.3   0.123546259   2.25038   1.22142   0.30385  -0.81621
   5   19068.0    524.4   0.235839677   4.07181   0.23569  -2.00369  -0.03844
   6   19577.2    510.8   0.012694984   0.21348  -0.07010   0.43220   0.14753
   7   21197.9    471.7   0.071229428   1.10622   0.23935  -0.53333  -0.87435
   8   21732.0    460.2   0.021155450   0.32048  -0.41903   0.15785  -0.34638
   9   22740.3    439.7   0.202527616   2.93199   0.40515  -1.02058   1.31388
  10   23761.2    420.9   0.088894375   1.23163  -0.50847  -0.98624  -0.02042
  11   24645.0    405.8   0.598643023   7.99676   1.82650  -0.62486   2.06645
  12   25569.7    391.1   0.392017178   5.04726   1.78270  -0.66791   1.19295
  13   26180.6    382.0   0.074469244   0.93643   0.75034   0.05143   0.60891
  14   26792.9    373.2   0.035826601   0.44021   0.22131   0.32085   0.53693
  15   26955.4    371.0   0.204630308   2.49919  -1.42498   0.52614  -0.43796
  16   28002.9    357.1   0.278730781   3.27685   0.19340   0.14642   1.79388
  17   28468.3    351.3   0.660754021   7.64106  -1.44477   1.05916  -2.10520
  18   29500.0    339.0   0.017955782   0.20038   0.03396   0.31387   0.31736
  19   29545.8    338.5   0.321762938   3.58522   0.91162  -1.31649   1.01046
  20   30608.5    326.7   0.023024186   0.24764   0.00065  -0.31090   0.38856
  21   31347.9    319.0   0.694455854   7.29309   1.47386   1.01244  -2.02381
  22   31431.7    318.2   0.126620210   1.32621  -0.70846  -0.57933   0.69904
  23   31469.6    317.8   0.661149406   6.91647  -1.22124  -0.19036   2.32138
  24   31683.7    315.6   0.064463608   0.66981   0.67920  -0.42798  -0.15917
  25   31974.5    312.7   0.011765863   0.12114   0.10189  -0.29447  -0.15507
  26   32391.3    308.7   0.069457999   0.70594   0.54355   0.50404   0.39552
  27   32618.1    306.6   0.032085486   0.32384   0.12814  -0.35785  -0.42351
  28   32691.8    305.9   0.276655164   2.78597   1.51099  -0.42187   0.57001
  29   32994.0    303.1   0.085829530   0.85640   0.64646  -0.59678  -0.28696
  30   33194.2    301.3   0.046358013   0.45977   0.30414   0.52250   0.30703
  31   33523.0    298.3   0.083956103   0.82449  -0.66090  -0.31849  -0.53503
  32   33635.4    297.3   0.298681186   2.92339   1.25560   0.83156   0.80955
  33   34321.9    291.4   0.076216659   0.73106   0.82736   0.16769   0.13572
  34   34388.0    290.8   0.081144070   0.77683  -0.86294   0.12634   0.12732
  35   34869.9    286.8   0.072337861   0.68295  -0.27930  -0.07364   0.77429
  36   35283.8    283.4   0.007336612   0.06845   0.24838  -0.01709   0.08044
  37   35634.0    280.6   0.199963428   1.84740   0.78251   0.65356   0.89885
  38   35662.2    280.4   0.202376970   1.86822  -1.35300  -0.19236  -0.02490
  39   35925.7    278.4   0.007855190   0.07198  -0.23657  -0.10955  -0.06338
  40   36135.4    276.7   0.046189540   0.42081  -0.38083  -0.52515   0.00108
  41   36444.8    274.4   0.197231034   1.78162  -0.76558  -0.25800  -1.06252
  42   36459.8    274.3   0.109974805   0.99301  -0.96138  -0.24288  -0.09888
  43   36755.0    272.1   0.020250950   0.18139  -0.25132  -0.34345   0.01626
  44   36837.6    271.5   0.017811091   0.15917   0.13134  -0.04313   0.37425
  45   37164.6    269.1   0.094570007   0.83772   0.78388  -0.07238   0.46693
  46   37765.7    264.8   0.466746674   4.06873   0.57610   0.38996  -1.89335
  47   38087.9    262.6   0.021692333   0.18750   0.40911   0.14063   0.01871
  48   38648.7    258.7   0.061917545   0.52742   0.39127   0.30778  -0.52877
  49   38796.1    257.8   0.148394999   1.25924   0.06116  -0.19829  -1.10280
  50   39253.6    254.8   0.062752211   0.52629  -0.59445  -0.18480  -0.37251
  51   39322.2    254.3   0.004250063   0.03558  -0.16610  -0.07030  -0.05523
  52   39384.6    253.9   0.043575135   0.36424   0.03645   0.03608  -0.60134
  53   39720.2    251.8   0.006748781   0.05594  -0.23292  -0.00536  -0.04068
  54   39993.6    250.0   0.017372910   0.14301  -0.15630   0.33890   0.06102
  55   40095.2    249.4   0.031208834   0.25625   0.08962   0.09900  -0.48828
  56   40109.1    249.3   0.005651868   0.04639   0.16531  -0.07525   0.11575
  57   40325.7    248.0   0.030220739   0.24672   0.40488   0.18053  -0.22405

FINAL SINGLE POINT ENERGY     -7262.607292953608

DIPOLE MOMENT
-------------
                                X             Y             Z
Electronic contribution:     13.93879      -3.13449      -3.78818
Nuclear contribution   :    -14.95158       1.86390       6.33253
                        -----------------------------------------
Total Dipole Moment    :     -1.01279      -1.27059       2.54436
                        -----------------------------------------
Magnitude (a.u.)       :      3.01892
Magnitude (Debye)      :      7.67349

Rotational constants in cm-1:     0.000798     0.000274     0.000239
Rotational constants in MHz :    23.911464     8.212730     7.166991

                             ****ORCA TERMINATED NORMALLY****
TOTAL RUN TIME: 0 days 0 hours 8 minutes 55 seconds 841 msec
