                         Program Version 4.2.0 -  RELEASE  -
|  1> # ORCA input file
|  2> # SCF done       -186.210515143522          0.000480503827
|  3> ! CAM-B3LYP def2-SVP def2/J RIJCOSX Grid4 TightSCF
|  4> %maxcore 5000
|  5> %tddft
|  6>     Mode sTDDFT
|  7>     Ethresh 5.0
|  8>     maxcore 5000
|  9> end
| 10>
| 11> %pal
| 12>   nprocs 6
| 13>   end
| 14> * xyz 0 1
| 15>    C        1.58985         0.45553        -0.79890
| 16>    C        2.92778         0.33806        -1.05343
| 17>    F        3.63596         1.40785        -1.43919
| 18>    C        3.57777        -0.90440        -0.91607
| 19>    F        4.88946        -0.99188        -1.17606
| 20>    C        2.88060        -2.01298        -0.52436
| 21>    C        1.50116        -1.92390        -0.25607
| 22>    C        0.84213        -0.66867        -0.39594
| 23>    C       -0.54367        -0.55527        -0.13553
| 24>    C       -1.24921        -1.66330         0.25159
| 25>    C       -0.58145        -2.91035         0.38957
| 26>    C        0.75435        -3.05281         0.14707
| 27>    C       -1.54755        -3.93615         0.81115
| 28>    O       -1.26632        -5.11195         1.01639
| 29>    C       -2.84626        -3.26062         0.92027
| 30>    C       -2.65990        -1.86098         0.57971
| 31>    C       -3.60706        -0.86820         0.55327
| 32>    C       -3.33460         0.47156         0.20420
| 33>    N       -3.19030         1.57744        -0.06915
| 34>    C       -4.97771        -1.00076         0.85788
| 35>    N       -6.10435        -1.00688         1.08468
| 36>    C       -4.06385        -3.80817         1.27000
| 37>    C       -4.41618        -5.11906         1.60741
| 38>    N       -3.58131        -6.19765         1.67932
| 39>    C       -4.28407        -7.29774         2.01806
| 40>    C       -5.63524        -6.92762         2.17833
| 41>    C       -5.71545        -5.57748         1.92645
| 42>    C       -3.70978        -8.55136         2.16394
| 43>    C       -3.19780        -9.64616         2.28801
| 44>    C       -2.62288       -10.90316         2.42195
| 45>    C       -1.26170       -11.08653         2.38883
| 46>    C       -0.63490       -12.32591         2.51039
| 47>    C       -1.42131       -13.55501         2.66560
| 48>    C       -2.77069       -13.60052         2.72848
| 49>    S       -3.77968       -12.21752         2.62953
| 50>    C       -0.46416       -14.60167         2.73528
| 51>    C        0.82889       -14.07989         2.63781
| 52>    C        1.80200       -15.10261         2.72002
| 53>    C        1.23779       -16.32976         2.86842
| 54>    S       -0.48991       -16.30926         2.91836
| 55>    C        0.73748       -12.64641         2.49818
| 56>    C        1.77775       -11.69410         2.39494
| 57>    C        3.10941       -11.95181         2.32467
| 58>    C        4.10974       -10.94865         2.26646
| 59>    N        5.43299       -11.25516         2.18078
| 60>    C        6.18561       -10.11177         2.18414
| 61>    C        5.29663        -9.03043         2.26056
| 62>    C        4.01669        -9.54783         2.30713
| 63>    C        7.56001       -10.10262         2.12754
| 64>    C        8.77978       -10.03942         2.10327
| 65>    C       10.14645       -10.01437         2.00907
| 66>    C       10.96539        -8.91621         2.03691
| 67>    C       12.36736        -9.04645         1.57955
| 68>    O       12.96894       -10.07598         1.36146
| 69>    C       12.84923        -7.66055         1.40007
| 70>    C       14.05327        -7.22573         0.92845
| 71>    C       14.28681        -5.83618         0.81722
| 72>    C       13.26020        -4.92367         1.19554
| 73>    C       13.49734        -3.53938         1.07981
| 74>    C       14.69810        -3.08285         0.61333
| 75>    C       15.71252        -3.98616         0.24001
| 76>    C       15.51260        -5.33464         0.33890
| 77>    F       16.88082        -3.51050        -0.21540
| 78>    F       14.92272        -1.76559         0.50653
| 79>    C       12.02411        -5.40468         1.68625
| 80>    C       11.82232        -6.75463         1.79182
| 81>    C       10.68706        -7.52682         2.29713
| 82>    C        9.64183        -7.01471         3.02561
| 83>    C        8.74693        -7.78757         3.78996
| 84>    N        8.03468        -8.33793         4.50321
| 85>    C        9.40406        -5.63684         3.19944
| 86>    N        9.13948        -4.52978         3.35311
| 87>    H        1.10796         1.41445        -0.90900
| 88>    H        3.39318        -2.95665        -0.42212
| 89>    H       -1.00845         0.40984        -0.25192
| 90>    H        1.23384        -4.01329         0.26019
| 91>    H       -4.90755        -3.13182         1.28649
| 92>    H       -2.57855        -6.12084         1.48378
| 93>    H       -6.42981        -7.59423         2.44871
| 94>    H       -6.59387        -4.96349         1.95842
| 95>    H       -0.66066       -10.19700         2.25813
| 96>    H       -3.31312       -14.52506         2.84926
| 97>    H        2.86659       -14.96522         2.67963
| 98>    H        1.73931       -17.27385         2.95552
| 99>    H        1.46602       -10.65922         2.37645
|100>    H        3.46046       -12.97290         2.31502
|101>    H        5.81306       -12.18749         2.15549
|102>    H        5.58445        -7.99845         2.28705
|103>    H        3.10912        -8.98199         2.37237
|104>    H       10.63980       -10.96220         1.81222
|105>    H       14.81904        -7.93159         0.64461
|106>    H       12.73167        -2.83411         1.36309
|107>    H       16.29942        -6.01330         0.04887
|108>    H       11.26483        -4.69040         1.96160
|109> *
|110>
|111>                          ****END OF INPUT****

CARTESIAN COORDINATES (ANGSTROEM)
---------------------------------
  C      1.589850    0.455530   -0.798900
  C      2.927780    0.338060   -1.053430
  F      3.635960    1.407850   -1.439190
  C      3.577770   -0.904400   -0.916070
  F      4.889460   -0.991880   -1.176060
  C      2.880600   -2.012980   -0.524360
  C      1.501160   -1.923900   -0.256070
  C      0.842130   -0.668670   -0.395940
  C     -0.543670   -0.555270   -0.135530
  C     -1.249210   -1.663300    0.251590
  C     -0.581450   -2.910350    0.389570
  C      0.754350   -3.052810    0.147070
  C     -1.547550   -3.936150    0.811150
  O     -1.266320   -5.111950    1.016390
  C     -2.846260   -3.260620    0.920270
  C     -2.659900   -1.860980    0.579710
  C     -3.607060   -0.868200    0.553270
  C     -3.334600    0.471560    0.204200
  N     -3.190300    1.577440   -0.069150
  C     -4.977710   -1.000760    0.857880
  N     -6.104350   -1.006880    1.084680
  C     -4.063850   -3.808170    1.270000
  C     -4.416180   -5.119060    1.607410
  N     -3.581310   -6.197650    1.679320
  C     -4.284070   -7.297740    2.018060
  C     -5.635240   -6.927620    2.178330
  C     -5.715450   -5.577480    1.926450
  C     -3.709780   -8.551360    2.163940
  C     -3.197800   -9.646160    2.288010
  C     -2.622880  -10.903160    2.421950
  C     -1.261700  -11.086530    2.388830
  C     -0.634900  -12.325910    2.510390
  C     -1.421310  -13.555010    2.665600
  C     -2.770690  -13.600520    2.728480
  S     -3.779680  -12.217520    2.629530
  C     -0.464160  -14.601670    2.735280
  C      0.828890  -14.079890    2.637810
  C      1.802000  -15.102610    2.720020
  C      1.237790  -16.329760    2.868420
  S     -0.489910  -16.309260    2.918360
  C      0.737480  -12.646410    2.498180
  C      1.777750  -11.694100    2.394940
  C      3.109410  -11.951810    2.324670
  C      4.109740  -10.948650    2.266460
  N      5.432990  -11.255160    2.180780
  C      6.185610  -10.111770    2.184140
  C      5.296630   -9.030430    2.260560
  C      4.016690   -9.547830    2.307130
  C      7.560010  -10.102620    2.127540
  C      8.779780  -10.039420    2.103270
  C     10.146450  -10.014370    2.009070
  C     10.965390   -8.916210    2.036910
  C     12.367360   -9.046450    1.579550
  O     12.968940  -10.075980    1.361460
  C     12.849230   -7.660550    1.400070
  C     14.053270   -7.225730    0.928450
  C     14.286810   -5.836180    0.817220
  C     13.260200   -4.923670    1.195540
  C     13.497340   -3.539380    1.079810
  C     14.698100   -3.082850    0.613330
  C     15.712520   -3.986160    0.240010
  C     15.512600   -5.334640    0.338900
  F     16.880820   -3.510500   -0.215400
  F     14.922720   -1.765590    0.506530
  C     12.024110   -5.404680    1.686250
  C     11.822320   -6.754630    1.791820
  C     10.687060   -7.526820    2.297130
  C      9.641830   -7.014710    3.025610
  C      8.746930   -7.787570    3.789960
  N      8.034680   -8.337930    4.503210
  C      9.404060   -5.636840    3.199440
  N      9.139480   -4.529780    3.353110
  H      1.107960    1.414450   -0.909000
  H      3.393180   -2.956650   -0.422120
  H     -1.008450    0.409840   -0.251920
  H      1.233840   -4.013290    0.260190
  H     -4.907550   -3.131820    1.286490
  H     -2.578550   -6.120840    1.483780
  H     -6.429810   -7.594230    2.448710
  H     -6.593870   -4.963490    1.958420
  H     -0.660660  -10.197000    2.258130
  H     -3.313120  -14.525060    2.849260
  H      2.866590  -14.965220    2.679630
  H      1.739310  -17.273850    2.955520
  H      1.466020  -10.659220    2.376450
  H      3.460460  -12.972900    2.315020
  H      5.813060  -12.187490    2.155490
  H      5.584450   -7.998450    2.287050
  H      3.109120   -8.981990    2.372370
  H     10.639800  -10.962200    1.812220
  H     14.819040   -7.931590    0.644610
  H     12.731670   -2.834110    1.363090
  H     16.299420   -6.013300    0.048870
  H     11.264830   -4.690400    1.961600

 Total Charge           Charge          ....    0
 Multiplicity           Mult            ....    1
 Number of Electrons    NEL             ....  496
 Basis Dimension        Dim             .... 1126

ORBITAL ENERGIES
----------------

  NO   OCC          E(Eh)            E(eV)
   0   2.0000     -88.986593     -2421.4483
   1   2.0000     -88.966907     -2420.9126
   2   2.0000     -24.797298      -674.7688
   3   2.0000     -24.796664      -674.7515
   4   2.0000     -24.793554      -674.6669
   5   2.0000     -24.792872      -674.6483
   6   2.0000     -19.230621      -523.2918
   7   2.0000     -19.209318      -522.7121
   8   2.0000     -14.477406      -393.9502
   9   2.0000     -14.471159      -393.7803
  10   2.0000     -14.416841      -392.3022
  11   2.0000     -14.412989      -392.1974
  12   2.0000     -14.411201      -392.1487
  13   2.0000     -14.404927      -391.9780
  14   2.0000     -10.381018      -282.4818
  15   2.0000     -10.380374      -282.4643
  16   2.0000     -10.379143      -282.4308
  17   2.0000     -10.376297      -282.3534
  18   2.0000     -10.375837      -282.3409
  19   2.0000     -10.360274      -281.9174
  20   2.0000     -10.346191      -281.5342
  21   2.0000     -10.343548      -281.4622
  22   2.0000     -10.341997      -281.4201
  23   2.0000     -10.340010      -281.3660
  24   2.0000     -10.338263      -281.3185
  25   2.0000     -10.336210      -281.2626
  26   2.0000     -10.334652      -281.2202
  27   2.0000     -10.325186      -280.9626
  28   2.0000     -10.323714      -280.9225
  29   2.0000     -10.323225      -280.9092
  30   2.0000     -10.323120      -280.9064
  31   2.0000     -10.321998      -280.8758
  32   2.0000     -10.319990      -280.8212
  33   2.0000     -10.316588      -280.7286
  34   2.0000     -10.314145      -280.6622
  35   2.0000     -10.312647      -280.6214
  36   2.0000     -10.310457      -280.5618
  37   2.0000     -10.310124      -280.5527
  38   2.0000     -10.307993      -280.4947
  39   2.0000     -10.307888      -280.4919
  40   2.0000     -10.307172      -280.4724
  41   2.0000     -10.306336      -280.4497
  42   2.0000     -10.305097      -280.4159
  43   2.0000     -10.305093      -280.4158
  44   2.0000     -10.304772      -280.4071
  45   2.0000     -10.304084      -280.3884
  46   2.0000     -10.301935      -280.3299
  47   2.0000     -10.301787      -280.3259
  48   2.0000     -10.301029      -280.3053
  49   2.0000     -10.300665      -280.2954
  50   2.0000     -10.300138      -280.2810
  51   2.0000     -10.300004      -280.2774
  52   2.0000     -10.299911      -280.2748
  53   2.0000     -10.298289      -280.2307
  54   2.0000     -10.296891      -280.1926
  55   2.0000     -10.296743      -280.1886
  56   2.0000     -10.296301      -280.1766
  57   2.0000     -10.295858      -280.1645
  58   2.0000     -10.295373      -280.1514
  59   2.0000     -10.294697      -280.1329
  60   2.0000     -10.292576      -280.0752
  61   2.0000     -10.291972      -280.0588
  62   2.0000     -10.290416      -280.0165
  63   2.0000     -10.288976      -279.9773
  64   2.0000     -10.288781      -279.9720
  65   2.0000     -10.287874      -279.9473
  66   2.0000     -10.287690      -279.9423
  67   2.0000     -10.286234      -279.9026
  68   2.0000     -10.285929      -279.8944
  69   2.0000     -10.284666      -279.8600
  70   2.0000     -10.279240      -279.7123
  71   2.0000     -10.271018      -279.4886
  72   2.0000      -8.081872      -219.9189
  73   2.0000      -8.062382      -219.3886
  74   2.0000      -6.051499      -164.6697
  75   2.0000      -6.046929      -164.5453
  76   2.0000      -6.043617      -164.4552
  77   2.0000      -6.031801      -164.1337
  78   2.0000      -6.027546      -164.0179
  79   2.0000      -6.024457      -163.9338
  80   2.0000      -1.319838       -35.9146
  81   2.0000      -1.315717       -35.8025
  82   2.0000      -1.304991       -35.5106
  83   2.0000      -1.300915       -35.3997
  84   2.0000      -1.143086       -31.1049
  85   2.0000      -1.123481       -30.5715
  86   2.0000      -1.100058       -29.9341
  87   2.0000      -1.095144       -29.8004
  88   2.0000      -1.020077       -27.7577
  89   2.0000      -1.016740       -27.6669
  90   2.0000      -1.013167       -27.5697
  91   2.0000      -1.004979       -27.3469
  92   2.0000      -0.998172       -27.1616
  93   2.0000      -0.993434       -27.0327
  94   2.0000      -0.986715       -26.8499
  95   2.0000      -0.983706       -26.7680
  96   2.0000      -0.982033       -26.7225
  97   2.0000      -0.975511       -26.5450
  98   2.0000      -0.940965       -25.6050
  99   2.0000      -0.934120       -25.4187
 100   2.0000      -0.928718       -25.2717
 101   2.0000      -0.919081       -25.0095
 102   2.0000      -0.912483       -24.8299
 103   2.0000      -0.908135       -24.7116
 104   2.0000      -0.900692       -24.5091
 105   2.0000      -0.895253       -24.3611
 106   2.0000      -0.891977       -24.2719
 107   2.0000      -0.889912       -24.2157
 108   2.0000      -0.889151       -24.1950
 109   2.0000      -0.886585       -24.1252
 110   2.0000      -0.881729       -23.9931
 111   2.0000      -0.869072       -23.6486
 112   2.0000      -0.864409       -23.5218
 113   2.0000      -0.847581       -23.0638
 114   2.0000      -0.841020       -22.8853
 115   2.0000      -0.836892       -22.7730
 116   2.0000      -0.834995       -22.7214
 117   2.0000      -0.823061       -22.3966
 118   2.0000      -0.815925       -22.2024
 119   2.0000      -0.802214       -21.8293
 120   2.0000      -0.790045       -21.4982
 121   2.0000      -0.777405       -21.1543
 122   2.0000      -0.770162       -20.9572
 123   2.0000      -0.760741       -20.7008
 124   2.0000      -0.748894       -20.3784
 125   2.0000      -0.742781       -20.2121
 126   2.0000      -0.733550       -19.9609
 127   2.0000      -0.731221       -19.8975
 128   2.0000      -0.719138       -19.5688
 129   2.0000      -0.714713       -19.4483
 130   2.0000      -0.712314       -19.3830
 131   2.0000      -0.705244       -19.1907
 132   2.0000      -0.700210       -19.0537
 133   2.0000      -0.697778       -18.9875
 134   2.0000      -0.693396       -18.8683
 135   2.0000      -0.689207       -18.7543
 136   2.0000      -0.686143       -18.6709
 137   2.0000      -0.680050       -18.5051
 138   2.0000      -0.675700       -18.3867
 139   2.0000      -0.662472       -18.0268
 140   2.0000      -0.660190       -17.9647
 141   2.0000      -0.658031       -17.9059
 142   2.0000      -0.657403       -17.8888
 143   2.0000      -0.651464       -17.7272
 144   2.0000      -0.646180       -17.5835
 145   2.0000      -0.642866       -17.4933
 146   2.0000      -0.637433       -17.3454
 147   2.0000      -0.635767       -17.3001
 148   2.0000      -0.627364       -17.0714
 149   2.0000      -0.620842       -16.8940
 150   2.0000      -0.615786       -16.7564
 151   2.0000      -0.609872       -16.5955
 152   2.0000      -0.597738       -16.2653
 153   2.0000      -0.592426       -16.1207
 154   2.0000      -0.585598       -15.9349
 155   2.0000      -0.584502       -15.9051
 156   2.0000      -0.583042       -15.8654
 157   2.0000      -0.582429       -15.8487
 158   2.0000      -0.580479       -15.7956
 159   2.0000      -0.575693       -15.6654
 160   2.0000      -0.574079       -15.6215
 161   2.0000      -0.572539       -15.5796
 162   2.0000      -0.562911       -15.3176
 163   2.0000      -0.559748       -15.2315
 164   2.0000      -0.556528       -15.1439
 165   2.0000      -0.552911       -15.0455
 166   2.0000      -0.549692       -14.9579
 167   2.0000      -0.547859       -14.9080
 168   2.0000      -0.545982       -14.8569
 169   2.0000      -0.542219       -14.7545
 170   2.0000      -0.541629       -14.7385
 171   2.0000      -0.538807       -14.6617
 172   2.0000      -0.537554       -14.6276
 173   2.0000      -0.533803       -14.5255
 174   2.0000      -0.532571       -14.4920
 175   2.0000      -0.531796       -14.4709
 176   2.0000      -0.530738       -14.4421
 177   2.0000      -0.529654       -14.4126
 178   2.0000      -0.526365       -14.3231
 179   2.0000      -0.525420       -14.2974
 180   2.0000      -0.521764       -14.1979
 181   2.0000      -0.519546       -14.1376
 182   2.0000      -0.519103       -14.1255
 183   2.0000      -0.518711       -14.1148
 184   2.0000      -0.514276       -13.9942
 185   2.0000      -0.512087       -13.9346
 186   2.0000      -0.507882       -13.8202
 187   2.0000      -0.507107       -13.7991
 188   2.0000      -0.504417       -13.7259
 189   2.0000      -0.500273       -13.6131
 190   2.0000      -0.498882       -13.5753
 191   2.0000      -0.496427       -13.5085
 192   2.0000      -0.492248       -13.3948
 193   2.0000      -0.489073       -13.3083
 194   2.0000      -0.488248       -13.2859
 195   2.0000      -0.481717       -13.1082
 196   2.0000      -0.480297       -13.0696
 197   2.0000      -0.479876       -13.0581
 198   2.0000      -0.477147       -12.9838
 199   2.0000      -0.469562       -12.7774
 200   2.0000      -0.465797       -12.6750
 201   2.0000      -0.463809       -12.6209
 202   2.0000      -0.463186       -12.6039
 203   2.0000      -0.458959       -12.4889
 204   2.0000      -0.450607       -12.2616
 205   2.0000      -0.449679       -12.2364
 206   2.0000      -0.449196       -12.2232
 207   2.0000      -0.446739       -12.1564
 208   2.0000      -0.444093       -12.0844
 209   2.0000      -0.443553       -12.0697
 210   2.0000      -0.442794       -12.0490
 211   2.0000      -0.440725       -11.9927
 212   2.0000      -0.438084       -11.9209
 213   2.0000      -0.436705       -11.8834
 214   2.0000      -0.435590       -11.8530
 215   2.0000      -0.433031       -11.7834
 216   2.0000      -0.429095       -11.6763
 217   2.0000      -0.426416       -11.6034
 218   2.0000      -0.425953       -11.5908
 219   2.0000      -0.423762       -11.5312
 220   2.0000      -0.422028       -11.4840
 221   2.0000      -0.421422       -11.4675
 222   2.0000      -0.415059       -11.2943
 223   2.0000      -0.409524       -11.1437
 224   2.0000      -0.406294       -11.0558
 225   2.0000      -0.403137       -10.9699
 226   2.0000      -0.391491       -10.6530
 227   2.0000      -0.389302       -10.5935
 228   2.0000      -0.382575       -10.4104
 229   2.0000      -0.378759       -10.3066
 230   2.0000      -0.374373       -10.1872
 231   2.0000      -0.368639       -10.0312
 232   2.0000      -0.356182        -9.6922
 233   2.0000      -0.355511        -9.6739
 234   2.0000      -0.351908        -9.5759
 235   2.0000      -0.348958        -9.4956
 236   2.0000      -0.344688        -9.3794
 237   2.0000      -0.343419        -9.3449
 238   2.0000      -0.332692        -9.0530
 239   2.0000      -0.325513        -8.8577
 240   2.0000      -0.319124        -8.6838
 241   2.0000      -0.311599        -8.4790
 242   2.0000      -0.303606        -8.2615
 243   2.0000      -0.296368        -8.0646
 244   2.0000      -0.294018        -8.0006
 245   2.0000      -0.283389        -7.7114
 246   2.0000      -0.264864        -7.2073
 247   2.0000      -0.228695        -6.2231
 248   0.0000      -0.101143        -2.7523
 249   0.0000      -0.090875        -2.4728
 250   0.0000      -0.067866        -1.8467
 251   0.0000      -0.062256        -1.6941
 252   0.0000      -0.052222        -1.4210

MULLIKEN ATOMIC CHARGES
-----------------------
   0 C :   -0.110743
   1 C :    0.244167
   2 F :   -0.170481
   3 C :    0.242247
   4 F :   -0.170973
   5 C :   -0.106654
   6 C :    0.118978
   7 C :    0.115381
   8 C :   -0.086387
   9 C :    0.051995
  10 C :    0.002807
  11 C :   -0.085314
  12 C :    0.177894
  13 O :   -0.220498
  14 C :   -0.094528
  15 C :    0.328799
  16 C :   -0.367052
  17 C :   -0.182030
  18 N :    0.144439
  19 C :   -0.181608
  20 N :    0.145476
  21 C :    0.025499
  22 C :   -0.002036
  23 N :   -0.016167
  24 C :    0.012985
  25 C :    0.006688
  26 C :    0.014638
  27 C :    0.095429
  28 C :   -0.039601
  29 C :   -0.172473
  30 C :   -0.006310
  31 C :    0.044321
  32 C :    0.061965
  33 C :   -0.124327
  34 S :    0.172083
  35 C :   -0.109721
  36 C :    0.056722
  37 C :   -0.009280
  38 C :   -0.065029
  39 S :    0.135250
  40 C :    0.096233
  41 C :   -0.021124
  42 C :    0.017321
  43 C :    0.099019
  44 N :   -0.034395
  45 C :   -0.016580
  46 C :    0.032535
  47 C :   -0.047620
  48 C :    0.137835
  49 C :   -0.041025
  50 C :   -0.046619
  51 C :   -0.137183
  52 C :    0.137716
  53 O :   -0.149726
  54 C :    0.004454
  55 C :   -0.082132
  56 C :    0.112429
  57 C :    0.112762
  58 C :   -0.108390
  59 C :    0.241977
  60 C :    0.237910
  61 C :   -0.104671
  62 F :   -0.174677
  63 F :   -0.173682
  64 C :   -0.086729
  65 C :    0.042452
  66 C :    0.300959
  67 C :   -0.339232
  68 C :   -0.213799
  69 N :    0.173694
  70 C :   -0.180391
  71 N :    0.136160
  72 H :    0.007817
  73 H :   -0.001613
  74 H :   -0.006462
  75 H :   -0.014107
  76 H :   -0.008330
  77 H :    0.146553
  78 H :   -0.015397
  79 H :    0.004275
  80 H :   -0.002828
  81 H :    0.040302
  82 H :   -0.014760
  83 H :    0.027733
  84 H :   -0.033394
  85 H :   -0.056454
  86 H :    0.126577
  87 H :   -0.012196
  88 H :   -0.017497
  89 H :    0.043437
  90 H :   -0.011806
  91 H :    0.004965
  92 H :   -0.001568
  93 H :   -0.007285
Sum of atomic charges:   -0.0000000

LOEWDIN ATOMIC CHARGES
----------------------
   0 C :   -0.028794
   1 C :    0.067534
   2 F :   -0.048560
   3 C :    0.068342
   4 F :   -0.048805
   5 C :   -0.032769
   6 C :   -0.009804
   7 C :   -0.006037
   8 C :    0.017899
   9 C :   -0.021439
  10 C :   -0.051405
  11 C :    0.030058
  12 C :    0.099369
  13 O :   -0.169592
  14 C :   -0.120530
  15 C :    0.077841
  16 C :   -0.147079
  17 C :   -0.017047
  18 N :   -0.058008
  19 C :   -0.022854
  20 N :   -0.055516
  21 C :    0.067118
  22 C :   -0.030077
  23 N :    0.121248
  24 C :    0.006208
  25 C :   -0.044120
  26 C :   -0.008349
  27 C :   -0.034372
  28 C :   -0.035463
  29 C :   -0.191648
  30 C :    0.005036
  31 C :   -0.022582
  32 C :   -0.051117
  33 C :   -0.138143
  34 S :    0.467762
  35 C :   -0.196282
  36 C :   -0.037990
  37 C :   -0.067613
  38 C :   -0.163369
  39 S :    0.429014
  40 C :   -0.044841
  41 C :    0.000098
  42 C :   -0.052677
  43 C :    0.015801
  44 N :    0.107881
  45 C :   -0.045513
  46 C :   -0.000952
  47 C :   -0.063660
  48 C :    0.010863
  49 C :   -0.047056
  50 C :    0.049495
  51 C :   -0.093426
  52 C :    0.079954
  53 O :   -0.150462
  54 C :   -0.052848
  55 C :    0.027935
  56 C :   -0.010465
  57 C :   -0.006513
  58 C :   -0.030663
  59 C :    0.065948
  60 C :    0.065887
  61 C :   -0.033718
  62 F :   -0.051981
  63 F :   -0.051004
  64 C :    0.011274
  65 C :   -0.018658
  66 C :    0.068536
  67 C :   -0.138954
  68 C :   -0.018647
  69 N :   -0.050384
  70 C :   -0.017887
  71 N :   -0.060511
  72 H :    0.048018
  73 H :    0.044537
  74 H :    0.040283
  75 H :    0.038800
  76 H :    0.052861
  77 H :    0.070611
  78 H :    0.033551
  79 H :    0.037568
  80 H :    0.043223
  81 H :    0.037757
  82 H :    0.026896
  83 H :    0.024820
  84 H :    0.028631
  85 H :    0.024192
  86 H :    0.095164
  87 H :    0.035293
  88 H :    0.026185
  89 H :    0.060657
  90 H :    0.039725
  91 H :    0.046924
  92 H :    0.044304
  93 H :    0.039079

  Mayer bond orders larger than 0.100000
B(  0-C ,  1-C ) :   1.4362 B(  0-C ,  5-C ) :   0.1083 B(  0-C ,  7-C ) :   1.1914
B(  0-C , 72-H ) :   1.0074 B(  1-C ,  2-F ) :   1.1360 B(  1-C ,  3-C ) :   1.1923
B(  3-C ,  4-F ) :   1.1346 B(  3-C ,  5-C ) :   1.4422 B(  5-C ,  6-C ) :   1.1897
B(  5-C , 73-H ) :   1.0078 B(  6-C ,  7-C ) :   1.2603 B(  6-C , 11-C ) :   1.1859
B(  7-C ,  8-C ) :   1.2079 B(  8-C ,  9-C ) :   1.4566 B(  8-C , 74-H ) :   0.9896
B(  9-C , 10-C ) :   1.2229 B(  9-C , 15-C ) :   0.9736 B( 10-C , 11-C ) :   1.4621
B( 10-C , 12-C ) :   0.9788 B( 11-C , 75-H ) :   1.0175 B( 12-C , 13-O ) :   2.0423
B( 12-C , 14-C ) :   0.9882 B( 13-O , 77-H ) :   0.1470 B( 14-C , 15-C ) :   1.1025
B( 14-C , 21-C ) :   1.4240 B( 15-C , 16-C ) :   1.6112 B( 16-C , 17-C ) :   1.1527
B( 16-C , 19-C ) :   1.1419 B( 17-C , 18-N ) :   2.9556 B( 19-C , 20-N ) :   2.9545
B( 21-C , 22-C ) :   1.2782 B( 21-C , 76-H ) :   0.9280 B( 22-C , 23-N ) :   1.2287
B( 22-C , 24-C ) :   0.1055 B( 22-C , 26-C ) :   1.2642 B( 23-N , 24-C ) :   1.3263
B( 23-N , 77-H ) :   0.8541 B( 24-C , 25-C ) :   1.3229 B( 24-C , 27-C ) :   0.8262
B( 25-C , 26-C ) :   1.4171 B( 25-C , 78-H ) :   1.0134 B( 26-C , 79-H ) :   1.0064
B( 27-C , 28-C ) :   2.2718 B( 28-C , 29-C ) :   1.0180 B( 29-C , 30-C ) :   1.5464
B( 29-C , 34-S ) :   1.0384 B( 30-C , 31-C ) :   1.2326 B( 30-C , 80-H ) :   0.9722
B( 31-C , 32-C ) :   1.0473 B( 31-C , 40-C ) :   1.3698 B( 32-C , 33-C ) :   1.6054
B( 32-C , 35-C ) :   1.1881 B( 33-C , 34-S ) :   1.1365 B( 33-C , 81-H ) :   0.9406
B( 35-C , 36-C ) :   1.4464 B( 35-C , 39-S ) :   1.0816 B( 36-C , 37-C ) :   1.2060
B( 36-C , 40-C ) :   1.0828 B( 37-C , 38-C ) :   1.5912 B( 37-C , 82-H ) :   1.0001
B( 38-C , 39-S ) :   1.1561 B( 38-C , 83-H ) :   0.9648 B( 40-C , 41-C ) :   1.1795
B( 41-C , 42-C ) :   1.6323 B( 41-C , 84-H ) :   0.9650 B( 42-C , 43-C ) :   1.0980
B( 42-C , 85-H ) :   0.9637 B( 43-C , 44-N ) :   1.2439 B( 43-C , 45-C ) :   0.1097
B( 43-C , 47-C ) :   1.3498 B( 44-N , 45-C ) :   1.2011 B( 44-N , 86-H ) :   0.9349
B( 45-C , 46-C ) :   1.3727 B( 45-C , 48-C ) :   0.8969 B( 46-C , 47-C ) :   1.3901
B( 46-C , 87-H ) :   1.0135 B( 47-C , 88-H ) :   1.0026 B( 48-C , 49-C ) :   2.0371
B( 49-C , 50-C ) :   1.0218 B( 50-C , 51-C ) :   1.5950 B( 50-C , 89-H ) :   0.9504
B( 51-C , 52-C ) :   0.9564 B( 51-C , 66-C ) :   1.0652 B( 52-C , 53-O ) :   2.2624
B( 52-C , 54-C ) :   0.9174 B( 54-C , 55-C ) :   1.4792 B( 54-C , 65-C ) :   1.2204
B( 55-C , 56-C ) :   1.1892 B( 55-C , 90-H ) :   1.0156 B( 56-C , 57-C ) :   1.2603
B( 56-C , 61-C ) :   1.1930 B( 57-C , 58-C ) :   1.1917 B( 57-C , 64-C ) :   1.2099
B( 58-C , 59-C ) :   1.4376 B( 58-C , 61-C ) :   0.1094 B( 58-C , 91-H ) :   1.0068
B( 59-C , 60-C ) :   1.1953 B( 59-C , 63-F ) :   1.1322 B( 60-C , 61-C ) :   1.4417
B( 60-C , 62-F ) :   1.1296 B( 61-C , 92-H ) :   1.0065 B( 64-C , 65-C ) :   1.4609
B( 64-C , 93-H ) :   0.9902 B( 65-C , 66-C ) :   0.9996 B( 66-C , 67-C ) :   1.6193
B( 67-C , 68-C ) :   1.1751 B( 67-C , 70-C ) :   1.1353 B( 68-C , 69-N ) :   2.9878
B( 70-C , 71-N ) :   2.9670

-----------------------------------------------------------------------------
         ABSORPTION SPECTRUM VIA TRANSITION ELECTRIC DIPOLE MOMENTS
-----------------------------------------------------------------------------
State   Energy  Wavelength   fosc         T2         TX        TY        TZ
        (cm-1)    (nm)                  (au**2)     (au)      (au)      (au)
-----------------------------------------------------------------------------
   0   14254.1    701.6   1.024910772  23.67131  -4.73065   1.03121  -0.47836
   1   17494.0    571.6   0.982402972  18.48741  -2.13575  -3.70108   0.47747
   2   21171.0    472.3   0.252739828   3.93015  -0.25472   1.95752  -0.18271
   3   22048.9    453.5   0.808300287  12.06874  -1.78001  -2.89914   0.70375
   4   23382.7    427.7   0.000971731   0.01368  -0.07740   0.08729  -0.00842
   5   24564.9    407.1   0.464627290   6.22682   2.39965   0.46058  -0.50633
   6   25091.6    398.5   0.061687631   0.80937  -0.83591  -0.07143  -0.32483
   7   26159.3    382.3   0.036999878   0.46564   0.67734  -0.05662  -0.06037
   8   27615.7    362.1   0.234445090   2.79487   1.30862   0.86922  -0.57169
   9   27730.0    360.6   0.045823086   0.54401  -0.70295   0.03692   0.22027
  10   28278.5    353.6   0.002493109   0.02902   0.11312  -0.11958   0.04392
  11   28645.2    349.1   0.000688709   0.00792   0.05352   0.06146   0.03568
  12   28836.0    346.8   0.009428920   0.10765   0.08356   0.31336  -0.04971
  13   29128.4    343.3   0.165717140   1.87295   1.20589   0.52252  -0.38177
  14   29777.2    335.8   0.020769721   0.22963  -0.45543  -0.04209   0.14297
  15   29851.2    335.0   0.032630395   0.35986   0.51183   0.20486  -0.23648
  16   30472.0    328.2   0.027167370   0.29351   0.43448   0.24398  -0.21262
  17   31528.3    317.2   0.010835873   0.11315   0.31817   0.09250  -0.05794
  18   32107.4    311.5   0.008428035   0.08642  -0.22593  -0.18215   0.04683
  19   32172.2    310.8   0.461348261   4.72088   1.66604   1.36632  -0.27995
  20   32881.0    304.1   0.081172268   0.81272   0.52535  -0.71679  -0.15147
  21   32976.0    303.3   0.070199246   0.70083   0.61192   0.31008  -0.47983
  22   33650.9    297.2   0.640964635   6.27067   2.43520  -0.10539  -0.57390
  23   34063.9    293.6   0.582204202   5.62674  -2.28701   0.30899   0.54848
  24   34367.4    291.0   0.071845292   0.68822  -0.12816   0.70444  -0.41900
  25   34721.9    288.0   0.110837664   1.05090  -0.56838  -0.64327   0.56039
  26   34798.3    287.4   0.102966400   0.97412  -0.65925  -0.61591   0.40022
  27   35212.3    284.0   0.093321970   0.87250   0.87117   0.07284  -0.32903
  28   35321.4    283.1   0.153405403   1.42981  -1.18031   0.07260   0.17724
  29   35837.8    279.0   0.029188948   0.26813   0.28846  -0.42609   0.05809
  30   35892.9    278.6   0.225262958   2.06613   1.41144  -0.04432  -0.26833
  31   36300.5    275.5   0.006788753   0.06157   0.16372   0.17837  -0.05427
  32   36493.1    274.0   0.196285841   1.77073  -0.59980   1.17531  -0.17213
  33   36836.3    271.5   0.073877243   0.66025   0.80311   0.10155  -0.07036
  34   36899.2    271.0   0.000184489   0.00165  -0.02860   0.02138  -0.01926
  35   37047.6    269.9   0.064671612   0.57468  -0.36793   0.66104  -0.04841
  36   37712.1    265.2   0.343517959   2.99878   1.26333  -1.18438  -0.00204
  37   37743.7    264.9   0.125195858   1.09200  -0.19922  -0.99717   0.24076
  38   37831.3    264.3   0.029869724   0.25993  -0.47533  -0.06723   0.17168
  39   38532.6    259.5   0.239921911   2.04983   0.99356  -0.99328  -0.27581
  40   38911.1    257.0   0.025552812   0.21619  -0.41249  -0.15267   0.15080
  41   39007.2    256.4   0.018445563   0.15568  -0.22825  -0.11478   0.30067
  42   39171.7    255.3   0.058599304   0.49249   0.41750  -0.54575  -0.14260
  43   39473.6    253.3   0.158232913   1.31967  -1.11073  -0.05594   0.28778
  44   39667.7    252.1   0.040772170   0.33838  -0.56760  -0.02248   0.12532
  45   39900.1    250.6   0.020305768   0.16754  -0.21504  -0.34805   0.01258
  46   39977.4    250.1   0.070303958   0.57895   0.64358   0.38645  -0.12415

FINAL SINGLE POINT ENERGY     -3893.849695482632

DIPOLE MOMENT
-------------
                                X             Y             Z
Electronic contribution:     31.36805      34.35749      -9.85790
Nuclear contribution   :    -32.41909     -38.86002       9.25756
                        -----------------------------------------
Total Dipole Moment    :     -1.05104      -4.50254      -0.60034
                        -----------------------------------------
Magnitude (a.u.)       :      4.66240
Magnitude (Debye)      :     11.85087

Rotational constants in cm-1:     0.000693     0.000381     0.000250
Rotational constants in MHz :    20.772867    11.424892     7.490474

                             ****ORCA TERMINATED NORMALLY****
TOTAL RUN TIME: 0 days 0 hours 11 minutes 57 seconds 448 msec
