                         Program Version 4.2.0 -  RELEASE  -
|  1> # ORCA input file
|  2> # SCF done       -225.619248986496          0.000762912642
|  3> ! CAM-B3LYP def2-SVP def2/J RIJCOSX Grid4 TightSCF
|  4> %maxcore 5000
|  5> %tddft
|  6>     Mode sTDDFT
|  7>     Ethresh 5.0
|  8>     maxcore 5000
|  9> end
| 10>
| 11> %pal
| 12>   nprocs 6
| 13>   end
| 14> * xyz 0 1
| 15>    C        8.37024        -0.53065        -1.94131
| 16>    C        8.39945         0.80909        -2.32743
| 17>    C        9.37896         1.14451        -3.42515
| 18>    O        9.72604         0.29884        -4.20059
| 19>    O        9.85381         2.38640        -3.49958
| 20>    C        7.50570         1.72778        -1.74916
| 21>    C        7.49404         3.09993        -2.09731
| 22>    N        7.46776         4.22163        -2.33615
| 23>    C        6.55989         1.30575        -0.80561
| 24>    C        6.54437        -0.02188        -0.44171
| 25>    C        7.45820        -0.94450        -0.98700
| 26>    C        7.22180        -2.25499        -0.38694
| 27>    C        8.13182        -3.27190        -0.32726
| 28>    C        9.38716        -3.24872        -0.97412
| 29>    N       10.41155        -3.29128        -1.48702
| 30>    C        7.93908        -4.44298         0.43520
| 31>    N        7.81831        -5.40768         1.04410
| 32>    C        5.96906        -2.17103         0.33790
| 33>    C        5.62390        -0.72411         0.48501
| 34>    O        4.75208        -0.24833         1.16559
| 35>    C        5.09744        -3.11154         0.77597
| 36>    C        5.02222        -4.49771         0.43170
| 37>    C        4.42529        -5.41086         1.32942
| 38>    C        4.33668        -6.81674         1.04003
| 39>    N        3.73497        -7.64887         1.91129
| 40>    C        3.30403        -7.17209         3.04563
| 41>    C        3.43315        -5.77144         3.35654
| 42>    N        3.95953        -4.93854         2.50022
| 43>    C        2.94008        -5.27979         4.59340
| 44>    N        2.53098        -4.92310         5.60112
| 45>    C        2.65908        -8.04348         3.96215
| 46>    N        2.12580        -8.71928         4.71632
| 47>    C        4.82238        -7.35051        -0.16602
| 48>    C        5.35925        -6.44594        -1.08578
| 49>    C        5.46212        -5.03301        -0.79295
| 50>    N        6.01005        -4.36360        -1.81353
| 51>    S        6.37708        -5.39916        -2.98105
| 52>    N        5.87089        -6.73744        -2.28856
| 53>    C        4.75834        -8.77607        -0.45579
| 54>    C        5.22009        -9.74328         0.41375
| 55>    F        5.78560        -9.39306         1.57072
| 56>    C        5.17929       -11.11988         0.10498
| 57>    F        5.63343       -11.97128         1.03006
| 58>    C        4.64228       -11.60196        -1.07065
| 59>    C        4.13111       -10.63937        -1.97257
| 60>    C        4.20379        -9.23463        -1.67393
| 61>    N        3.67083        -8.49300        -2.64336
| 62>    S        3.16832        -9.46397        -3.81762
| 63>    N        3.57723       -10.86718        -3.16126
| 64>    C        4.60980       -13.01625        -1.41217
| 65>    C        5.76359       -13.81639        -1.35439
| 66>    C        5.73728       -15.20055        -1.74364
| 67>    N        6.84530       -15.95166        -1.60983
| 68>    C        7.94672       -15.39091        -1.19118
| 69>    C        8.00296       -13.97367        -0.93264
| 70>    N        6.92797       -13.24034        -0.99990
| 71>    C        9.24116       -13.36509        -0.59854
| 72>    N       10.25721       -12.90657        -0.33958
| 73>    C        9.10522       -16.18748        -0.99776
| 74>    N       10.06070       -16.79587        -0.83379
| 75>    C        4.58838       -15.79614        -2.31059
| 76>    C        3.43168       -14.99537        -2.34614
| 77>    C        3.44305       -13.62574        -1.88193
| 78>    N        2.22914       -13.06731        -1.96136
| 79>    S        1.20452       -14.12713        -2.55732
| 80>    N        2.21025       -15.36165        -2.75072
| 81>    C        4.64309       -17.15314        -2.75677
| 82>    C        3.88771       -17.76055        -3.70339
| 83>    C        3.82086       -19.25389        -3.75697
| 84>    O        4.55337       -20.03319        -3.20571
| 85>    C        2.62707       -19.54894        -4.58681
| 86>    C        2.10843       -18.34634        -5.10291
| 87>    C        0.94980       -18.36042        -5.86296
| 88>    C        0.32806       -19.57838        -6.12449
| 89>    C        0.86532       -20.77598        -5.62209
| 90>    C        2.02671       -20.76301        -4.84307
| 91>    C        0.26727       -22.03032        -5.90915
| 92>    N       -0.12318       -23.08596        -6.11768
| 93>    C       -0.97127       -19.63821        -6.88007
| 94>    O       -1.81432       -20.44857        -6.62706
| 95>    O       -1.14206       -18.72227        -7.83950
| 96>    C        2.97816       -17.24317        -4.70442
| 97>    C        3.06483       -16.03838        -5.34699
| 98>    C        4.06136       -15.07616        -5.08404
| 99>    N        4.86086       -14.27118        -4.91297
|100>    C        2.19651       -15.66058        -6.39138
|101>    N        1.49083       -15.33028        -7.23394
|102>    H        9.05549        -1.21205        -2.42127
|103>    H        9.48515         3.01795        -2.86461
|104>    H        5.85761         2.00616        -0.37923
|105>    H        4.31849        -2.75976         1.44545
|106>    H        5.36214       -17.78231        -2.24152
|107>    H        0.50738       -17.43678        -6.20559
|108>    H        2.43930       -21.67955        -4.44953
|109>    H       -0.38299       -18.13912        -7.97884
|110> *
|111>
|112>                          ****END OF INPUT****

CARTESIAN COORDINATES (ANGSTROEM)
---------------------------------
  C      8.370240   -0.530650   -1.941310
  C      8.399450    0.809090   -2.327430
  C      9.378960    1.144510   -3.425150
  O      9.726040    0.298840   -4.200590
  O      9.853810    2.386400   -3.499580
  C      7.505700    1.727780   -1.749160
  C      7.494040    3.099930   -2.097310
  N      7.467760    4.221630   -2.336150
  C      6.559890    1.305750   -0.805610
  C      6.544370   -0.021880   -0.441710
  C      7.458200   -0.944500   -0.987000
  C      7.221800   -2.254990   -0.386940
  C      8.131820   -3.271900   -0.327260
  C      9.387160   -3.248720   -0.974120
  N     10.411550   -3.291280   -1.487020
  C      7.939080   -4.442980    0.435200
  N      7.818310   -5.407680    1.044100
  C      5.969060   -2.171030    0.337900
  C      5.623900   -0.724110    0.485010
  O      4.752080   -0.248330    1.165590
  C      5.097440   -3.111540    0.775970
  C      5.022220   -4.497710    0.431700
  C      4.425290   -5.410860    1.329420
  C      4.336680   -6.816740    1.040030
  N      3.734970   -7.648870    1.911290
  C      3.304030   -7.172090    3.045630
  C      3.433150   -5.771440    3.356540
  N      3.959530   -4.938540    2.500220
  C      2.940080   -5.279790    4.593400
  N      2.530980   -4.923100    5.601120
  C      2.659080   -8.043480    3.962150
  N      2.125800   -8.719280    4.716320
  C      4.822380   -7.350510   -0.166020
  C      5.359250   -6.445940   -1.085780
  C      5.462120   -5.033010   -0.792950
  N      6.010050   -4.363600   -1.813530
  S      6.377080   -5.399160   -2.981050
  N      5.870890   -6.737440   -2.288560
  C      4.758340   -8.776070   -0.455790
  C      5.220090   -9.743280    0.413750
  F      5.785600   -9.393060    1.570720
  C      5.179290  -11.119880    0.104980
  F      5.633430  -11.971280    1.030060
  C      4.642280  -11.601960   -1.070650
  C      4.131110  -10.639370   -1.972570
  C      4.203790   -9.234630   -1.673930
  N      3.670830   -8.493000   -2.643360
  S      3.168320   -9.463970   -3.817620
  N      3.577230  -10.867180   -3.161260
  C      4.609800  -13.016250   -1.412170
  C      5.763590  -13.816390   -1.354390
  C      5.737280  -15.200550   -1.743640
  N      6.845300  -15.951660   -1.609830
  C      7.946720  -15.390910   -1.191180
  C      8.002960  -13.973670   -0.932640
  N      6.927970  -13.240340   -0.999900
  C      9.241160  -13.365090   -0.598540
  N     10.257210  -12.906570   -0.339580
  C      9.105220  -16.187480   -0.997760
  N     10.060700  -16.795870   -0.833790
  C      4.588380  -15.796140   -2.310590
  C      3.431680  -14.995370   -2.346140
  C      3.443050  -13.625740   -1.881930
  N      2.229140  -13.067310   -1.961360
  S      1.204520  -14.127130   -2.557320
  N      2.210250  -15.361650   -2.750720
  C      4.643090  -17.153140   -2.756770
  C      3.887710  -17.760550   -3.703390
  C      3.820860  -19.253890   -3.756970
  O      4.553370  -20.033190   -3.205710
  C      2.627070  -19.548940   -4.586810
  C      2.108430  -18.346340   -5.102910
  C      0.949800  -18.360420   -5.862960
  C      0.328060  -19.578380   -6.124490
  C      0.865320  -20.775980   -5.622090
  C      2.026710  -20.763010   -4.843070
  C      0.267270  -22.030320   -5.909150
  N     -0.123180  -23.085960   -6.117680
  C     -0.971270  -19.638210   -6.880070
  O     -1.814320  -20.448570   -6.627060
  O     -1.142060  -18.722270   -7.839500
  C      2.978160  -17.243170   -4.704420
  C      3.064830  -16.038380   -5.346990
  C      4.061360  -15.076160   -5.084040
  N      4.860860  -14.271180   -4.912970
  C      2.196510  -15.660580   -6.391380
  N      1.490830  -15.330280   -7.233940
  H      9.055490   -1.212050   -2.421270
  H      9.485150    3.017950   -2.864610
  H      5.857610    2.006160   -0.379230
  H      4.318490   -2.759760    1.445450
  H      5.362140  -17.782310   -2.241520
  H      0.507380  -17.436780   -6.205590
  H      2.439300  -21.679550   -4.449530
  H     -0.382990  -18.139120   -7.978840

 Total Charge           Charge          ....    0
 Multiplicity           Mult            ....    1
 Number of Electrons    NEL             ....  598
 Basis Dimension        Dim             .... 1270

ORBITAL ENERGIES
----------------

  NO   OCC          E(Eh)            E(eV)
   0   2.0000     -89.078663     -2423.9536
   1   2.0000     -89.076891     -2423.9054
   2   2.0000     -89.050618     -2423.1905
   3   2.0000     -24.827204      -675.5826
   4   2.0000     -24.825691      -675.5414
   5   2.0000     -19.286170      -524.8034
   6   2.0000     -19.282374      -524.7001
   7   2.0000     -19.250134      -523.8228
   8   2.0000     -19.249693      -523.8108
   9   2.0000     -19.225328      -523.1478
  10   2.0000     -19.223180      -523.0893
  11   2.0000     -14.488149      -394.2426
  12   2.0000     -14.487087      -394.2137
  13   2.0000     -14.486780      -394.2053
  14   2.0000     -14.486538      -394.1987
  15   2.0000     -14.483177      -394.1073
  16   2.0000     -14.480618      -394.0376
  17   2.0000     -14.479972      -394.0201
  18   2.0000     -14.477413      -393.9504
  19   2.0000     -14.463677      -393.5767
  20   2.0000     -14.463457      -393.5707
  21   2.0000     -14.453890      -393.3103
  22   2.0000     -14.451114      -393.2348
  23   2.0000     -14.449512      -393.1912
  24   2.0000     -14.449366      -393.1872
  25   2.0000     -14.449163      -393.1817
  26   2.0000     -14.448077      -393.1522
  27   2.0000     -14.447142      -393.1267
  28   2.0000     -14.446357      -393.1053
  29   2.0000     -14.440897      -392.9568
  30   2.0000     -14.421746      -392.4357
  31   2.0000     -10.431794      -283.8635
  32   2.0000     -10.431067      -283.8438
  33   2.0000     -10.414310      -283.3878
  34   2.0000     -10.413895      -283.3765
  35   2.0000     -10.409557      -283.2584
  36   2.0000     -10.408719      -283.2356
  37   2.0000     -10.406252      -283.1685
  38   2.0000     -10.405963      -283.1606
  39   2.0000     -10.400496      -283.0119
  40   2.0000     -10.400000      -282.9984
  41   2.0000     -10.380446      -282.4663
  42   2.0000     -10.378958      -282.4258
  43   2.0000     -10.377741      -282.3927
  44   2.0000     -10.376884      -282.3694
  45   2.0000     -10.376062      -282.3470
  46   2.0000     -10.374914      -282.3158
  47   2.0000     -10.374323      -282.2997
  48   2.0000     -10.373441      -282.2757
  49   2.0000     -10.371769      -282.2302
  50   2.0000     -10.371508      -282.2231
  51   2.0000     -10.370197      -282.1874
  52   2.0000     -10.369230      -282.1611
  53   2.0000     -10.368952      -282.1535
  54   2.0000     -10.361540      -281.9518
  55   2.0000     -10.357976      -281.8549
  56   2.0000     -10.357844      -281.8513
  57   2.0000     -10.357585      -281.8442
  58   2.0000     -10.356598      -281.8173
  59   2.0000     -10.353430      -281.7311
  60   2.0000     -10.350877      -281.6617
  61   2.0000     -10.350671      -281.6561
  62   2.0000     -10.350204      -281.6434
  63   2.0000     -10.349503      -281.6243
  64   2.0000     -10.348933      -281.6088
  65   2.0000     -10.348367      -281.5934
  66   2.0000     -10.347339      -281.5654
  67   2.0000     -10.346976      -281.5555
  68   2.0000     -10.346866      -281.5525
  69   2.0000     -10.345500      -281.5154
  70   2.0000     -10.344089      -281.4770
  71   2.0000     -10.343824      -281.4698
  72   2.0000     -10.343758      -281.4680
  73   2.0000     -10.343639      -281.4647
  74   2.0000     -10.342775      -281.4412
  75   2.0000     -10.341473      -281.4058
  76   2.0000     -10.341313      -281.4014
  77   2.0000     -10.341112      -281.3960
  78   2.0000     -10.340646      -281.3833
  79   2.0000     -10.340099      -281.3684
  80   2.0000     -10.339460      -281.3510
  81   2.0000     -10.333947      -281.2010
  82   2.0000     -10.333712      -281.1946
  83   2.0000     -10.333228      -281.1814
  84   2.0000     -10.332573      -281.1636
  85   2.0000     -10.331418      -281.1322
  86   2.0000     -10.320656      -280.8393
  87   2.0000      -8.169464      -222.3024
  88   2.0000      -8.167616      -222.2521
  89   2.0000      -8.142271      -221.5625
  90   2.0000      -6.140293      -167.0859
  91   2.0000      -6.138457      -167.0359
  92   2.0000      -6.132839      -166.8830
  93   2.0000      -6.132502      -166.8739
  94   2.0000      -6.131059      -166.8346
  95   2.0000      -6.130567      -166.8212
  96   2.0000      -6.113474      -166.3561
  97   2.0000      -6.105662      -166.1435
  98   2.0000      -6.104745      -166.1186
  99   2.0000      -1.351410       -36.7737
 100   2.0000      -1.334296       -36.3080
 101   2.0000      -1.210061       -32.9274
 102   2.0000      -1.208700       -32.8904
 103   2.0000      -1.173324       -31.9278
 104   2.0000      -1.171355       -31.8742
 105   2.0000      -1.166524       -31.7427
 106   2.0000      -1.165820       -31.7236
 107   2.0000      -1.153056       -31.3763
 108   2.0000      -1.147499       -31.2250
 109   2.0000      -1.146653       -31.2020
 110   2.0000      -1.125486       -30.6260
 111   2.0000      -1.122728       -30.5510
 112   2.0000      -1.074274       -29.2325
 113   2.0000      -1.073552       -29.2128
 114   2.0000      -1.055410       -28.7192
 115   2.0000      -1.052214       -28.6322
 116   2.0000      -1.042422       -28.3657
 117   2.0000      -1.036384       -28.2015
 118   2.0000      -1.035127       -28.1672
 119   2.0000      -1.034809       -28.1586
 120   2.0000      -1.031131       -28.0585
 121   2.0000      -1.029253       -28.0074
 122   2.0000      -1.027285       -27.9538
 123   2.0000      -1.026877       -27.9428
 124   2.0000      -1.022038       -27.8111
 125   2.0000      -1.021690       -27.8016
 126   2.0000      -1.021116       -27.7860
 127   2.0000      -1.015582       -27.6354
 128   2.0000      -1.013590       -27.5812
 129   2.0000      -1.009254       -27.4632
 130   2.0000      -0.999930       -27.2095
 131   2.0000      -0.994691       -27.0669
 132   2.0000      -0.989609       -26.9286
 133   2.0000      -0.985506       -26.8170
 134   2.0000      -0.947809       -25.7912
 135   2.0000      -0.940256       -25.5857
 136   2.0000      -0.935971       -25.4691
 137   2.0000      -0.934467       -25.4281
 138   2.0000      -0.933636       -25.4055
 139   2.0000      -0.931863       -25.3573
 140   2.0000      -0.913343       -24.8533
 141   2.0000      -0.910532       -24.7768
 142   2.0000      -0.908173       -24.7126
 143   2.0000      -0.895112       -24.3572
 144   2.0000      -0.889440       -24.2029
 145   2.0000      -0.877045       -23.8656
 146   2.0000      -0.863054       -23.4849
 147   2.0000      -0.857260       -23.3272
 148   2.0000      -0.840628       -22.8747
 149   2.0000      -0.838601       -22.8195
 150   2.0000      -0.827559       -22.5190
 151   2.0000      -0.818574       -22.2745
 152   2.0000      -0.816079       -22.2067
 153   2.0000      -0.810588       -22.0572
 154   2.0000      -0.793697       -21.5976
 155   2.0000      -0.772586       -21.0231
 156   2.0000      -0.769300       -20.9337
 157   2.0000      -0.764469       -20.8023
 158   2.0000      -0.763444       -20.7744
 159   2.0000      -0.757383       -20.6095
 160   2.0000      -0.754563       -20.5327
 161   2.0000      -0.748726       -20.3739
 162   2.0000      -0.740633       -20.1537
 163   2.0000      -0.733396       -19.9567
 164   2.0000      -0.731091       -19.8940
 165   2.0000      -0.728663       -19.8279
 166   2.0000      -0.723712       -19.6932
 167   2.0000      -0.720812       -19.6143
 168   2.0000      -0.717203       -19.5161
 169   2.0000      -0.713792       -19.4233
 170   2.0000      -0.711525       -19.3616
 171   2.0000      -0.705650       -19.2017
 172   2.0000      -0.701148       -19.0792
 173   2.0000      -0.688342       -18.7307
 174   2.0000      -0.687424       -18.7058
 175   2.0000      -0.680075       -18.5058
 176   2.0000      -0.675553       -18.3827
 177   2.0000      -0.669006       -18.2046
 178   2.0000      -0.665995       -18.1226
 179   2.0000      -0.664929       -18.0936
 180   2.0000      -0.663566       -18.0566
 181   2.0000      -0.659451       -17.9446
 182   2.0000      -0.655629       -17.8406
 183   2.0000      -0.649333       -17.6693
 184   2.0000      -0.642688       -17.4884
 185   2.0000      -0.640267       -17.4225
 186   2.0000      -0.628319       -17.0974
 187   2.0000      -0.624610       -16.9965
 188   2.0000      -0.621078       -16.9004
 189   2.0000      -0.616324       -16.7710
 190   2.0000      -0.611532       -16.6406
 191   2.0000      -0.609835       -16.5944
 192   2.0000      -0.609590       -16.5878
 193   2.0000      -0.608015       -16.5449
 194   2.0000      -0.604106       -16.4386
 195   2.0000      -0.591508       -16.0957
 196   2.0000      -0.588123       -16.0036
 197   2.0000      -0.586316       -15.9545
 198   2.0000      -0.581342       -15.8191
 199   2.0000      -0.579730       -15.7753
 200   2.0000      -0.579118       -15.7586
 201   2.0000      -0.576406       -15.6848
 202   2.0000      -0.575465       -15.6592
 203   2.0000      -0.574074       -15.6213
 204   2.0000      -0.572617       -15.5817
 205   2.0000      -0.572055       -15.5664
 206   2.0000      -0.571387       -15.5482
 207   2.0000      -0.568407       -15.4671
 208   2.0000      -0.563099       -15.3227
 209   2.0000      -0.560960       -15.2645
 210   2.0000      -0.555577       -15.1180
 211   2.0000      -0.553697       -15.0669
 212   2.0000      -0.550337       -14.9754
 213   2.0000      -0.546981       -14.8841
 214   2.0000      -0.546717       -14.8769
 215   2.0000      -0.546099       -14.8601
 216   2.0000      -0.539151       -14.6710
 217   2.0000      -0.536633       -14.6025
 218   2.0000      -0.529551       -14.4098
 219   2.0000      -0.527722       -14.3600
 220   2.0000      -0.525235       -14.2924
 221   2.0000      -0.523707       -14.2508
 222   2.0000      -0.521044       -14.1783
 223   2.0000      -0.517449       -14.0805
 224   2.0000      -0.514659       -14.0046
 225   2.0000      -0.511398       -13.9158
 226   2.0000      -0.510585       -13.8937
 227   2.0000      -0.508200       -13.8288
 228   2.0000      -0.504617       -13.7313
 229   2.0000      -0.503833       -13.7100
 230   2.0000      -0.502858       -13.6834
 231   2.0000      -0.501889       -13.6571
 232   2.0000      -0.496169       -13.5015
 233   2.0000      -0.494446       -13.4546
 234   2.0000      -0.488670       -13.2974
 235   2.0000      -0.484895       -13.1947
 236   2.0000      -0.484491       -13.1837
 237   2.0000      -0.480294       -13.0695
 238   2.0000      -0.478919       -13.0321
 239   2.0000      -0.476930       -12.9779
 240   2.0000      -0.476820       -12.9749
 241   2.0000      -0.475492       -12.9388
 242   2.0000      -0.474135       -12.9019
 243   2.0000      -0.473104       -12.8738
 244   2.0000      -0.472733       -12.8637
 245   2.0000      -0.472379       -12.8541
 246   2.0000      -0.470945       -12.8151
 247   2.0000      -0.469945       -12.7878
 248   2.0000      -0.466217       -12.6864
 249   2.0000      -0.464119       -12.6293
 250   2.0000      -0.463058       -12.6004
 251   2.0000      -0.462676       -12.5901
 252   2.0000      -0.462122       -12.5750
 253   2.0000      -0.461123       -12.5478
 254   2.0000      -0.459391       -12.5007
 255   2.0000      -0.459001       -12.4900
 256   2.0000      -0.457494       -12.4490
 257   2.0000      -0.455326       -12.3900
 258   2.0000      -0.452750       -12.3200
 259   2.0000      -0.451562       -12.2876
 260   2.0000      -0.450525       -12.2594
 261   2.0000      -0.450209       -12.2508
 262   2.0000      -0.448052       -12.1921
 263   2.0000      -0.446553       -12.1513
 264   2.0000      -0.444779       -12.1030
 265   2.0000      -0.441302       -12.0084
 266   2.0000      -0.439300       -11.9540
 267   2.0000      -0.438319       -11.9273
 268   2.0000      -0.436259       -11.8712
 269   2.0000      -0.435114       -11.8400
 270   2.0000      -0.433615       -11.7993
 271   2.0000      -0.433481       -11.7956
 272   2.0000      -0.433170       -11.7872
 273   2.0000      -0.430212       -11.7067
 274   2.0000      -0.426266       -11.5993
 275   2.0000      -0.422828       -11.5057
 276   2.0000      -0.415027       -11.2935
 277   2.0000      -0.414475       -11.2784
 278   2.0000      -0.408445       -11.1144
 279   2.0000      -0.402463       -10.9516
 280   2.0000      -0.389788       -10.6067
 281   2.0000      -0.388973       -10.5845
 282   2.0000      -0.388291       -10.5659
 283   2.0000      -0.387715       -10.5503
 284   2.0000      -0.386263       -10.5107
 285   2.0000      -0.385774       -10.4974
 286   2.0000      -0.383967       -10.4483
 287   2.0000      -0.373513       -10.1638
 288   2.0000      -0.371107       -10.0983
 289   2.0000      -0.371014       -10.0958
 290   2.0000      -0.370429       -10.0799
 291   2.0000      -0.369323       -10.0498
 292   2.0000      -0.366893        -9.9837
 293   2.0000      -0.351980        -9.5779
 294   2.0000      -0.350059        -9.5256
 295   2.0000      -0.341804        -9.3010
 296   2.0000      -0.341304        -9.2873
 297   2.0000      -0.323616        -8.8060
 298   2.0000      -0.307033        -8.3548
 299   0.0000      -0.158443        -4.3114
 300   0.0000      -0.150011        -4.0820
 301   0.0000      -0.111480        -3.0335
 302   0.0000      -0.110535        -3.0078
 303   0.0000      -0.093770        -2.5516

MULLIKEN ATOMIC CHARGES
-----------------------
   0 C :   -0.072126
   1 C :   -0.000068
   2 C :    0.174072
   3 O :   -0.158571
   4 O :   -0.128615
   5 C :   -0.047358
   6 C :   -0.223020
   7 N :    0.135563
   8 C :   -0.029503
   9 C :    0.017962
  10 C :    0.049214
  11 C :    0.326551
  12 C :   -0.324280
  13 C :   -0.198928
  14 N :    0.190913
  15 C :   -0.185517
  16 N :    0.169803
  17 C :   -0.105175
  18 C :    0.142950
  19 O :   -0.111678
  20 C :   -0.029026
  21 C :    0.080978
  22 C :   -0.028039
  23 C :   -0.056168
  24 N :    0.069775
  25 C :   -0.134466
  26 C :   -0.126457
  27 N :    0.066309
  28 C :   -0.200708
  29 N :    0.253915
  30 C :   -0.200744
  31 N :    0.249904
  32 C :    0.078848
  33 C :    0.048330
  34 C :   -0.021761
  35 N :   -0.296622
  36 S :    0.589413
  37 N :   -0.248799
  38 C :   -0.077381
  39 C :    0.191011
  40 F :   -0.147507
  41 C :    0.191187
  42 F :   -0.151798
  43 C :   -0.078373
  44 C :    0.033638
  45 C :    0.044373
  46 N :   -0.267339
  47 S :    0.527172
  48 N :   -0.258810
  49 C :    0.084209
  50 C :   -0.054181
  51 C :   -0.031614
  52 N :    0.067099
  53 C :   -0.124112
  54 C :   -0.133108
  55 N :    0.071742
  56 C :   -0.199534
  57 N :    0.252174
  58 C :   -0.197435
  59 N :    0.249202
  60 C :    0.081479
  61 C :   -0.027330
  62 C :    0.043103
  63 N :   -0.245770
  64 S :    0.579700
  65 N :   -0.294004
  66 C :   -0.027832
  67 C :   -0.099001
  68 C :    0.141526
  69 O :   -0.106872
  70 C :    0.012088
  71 C :    0.028159
  72 C :   -0.085942
  73 C :    0.002973
  74 C :   -0.073673
  75 C :   -0.028525
  76 C :   -0.156203
  77 N :    0.151194
  78 C :    0.184141
  79 O :   -0.144674
  80 O :   -0.141212
  81 C :    0.318297
  82 C :   -0.316823
  83 C :   -0.186503
  84 N :    0.173225
  85 C :   -0.193600
  86 N :    0.155482
  87 H :    0.031909
  88 H :    0.185287
  89 H :    0.021715
  90 H :    0.044148
  91 H :    0.046097
  92 H :    0.005145
  93 H :    0.022319
  94 H :    0.192492
Sum of atomic charges:   -0.0000000

LOEWDIN ATOMIC CHARGES
----------------------
   0 C :    0.035350
   1 C :   -0.029352
   2 C :    0.081713
   3 O :   -0.136401
   4 O :   -0.005025
   5 C :   -0.054482
   6 C :   -0.043381
   7 N :   -0.024466
   8 C :    0.050685
   9 C :   -0.035280
  10 C :    0.008978
  11 C :    0.069950
  12 C :   -0.117299
  13 C :   -0.028474
  14 N :   -0.024268
  15 C :   -0.015004
  16 N :   -0.041106
  17 C :   -0.066543
  18 C :    0.087139
  19 O :   -0.112280
  20 C :    0.077027
  21 C :   -0.030467
  22 C :    0.017659
  23 C :   -0.001227
  24 N :    0.009263
  25 C :   -0.019442
  26 C :   -0.010632
  27 N :    0.002842
  28 C :   -0.036606
  29 N :    0.013115
  30 C :   -0.036493
  31 N :    0.007579
  32 C :    0.023128
  33 C :   -0.030760
  34 C :   -0.034880
  35 N :   -0.290722
  36 S :    0.723056
  37 N :   -0.258172
  38 C :   -0.043130
  39 C :    0.089547
  40 F :   -0.027547
  41 C :    0.088960
  42 F :   -0.032554
  43 C :   -0.044428
  44 C :   -0.039112
  45 C :   -0.039844
  46 N :   -0.282986
  47 S :    0.663641
  48 N :   -0.277171
  49 C :    0.024658
  50 C :   -0.000937
  51 C :    0.018469
  52 N :    0.002926
  53 C :   -0.009111
  54 C :   -0.017874
  55 N :    0.011197
  56 C :   -0.037197
  57 N :    0.011439
  58 C :   -0.036652
  59 N :    0.014913
  60 C :   -0.031844
  61 C :   -0.035360
  62 C :   -0.032177
  63 N :   -0.257962
  64 S :    0.715157
  65 N :   -0.291843
  66 C :    0.078831
  67 C :   -0.068954
  68 C :    0.087274
  69 O :   -0.108607
  70 C :   -0.033760
  71 C :    0.005505
  72 C :   -0.003795
  73 C :   -0.033383
  74 C :   -0.022721
  75 C :    0.053688
  76 C :   -0.035266
  77 N :   -0.017525
  78 C :    0.079343
  79 O :   -0.116150
  80 O :   -0.013315
  81 C :    0.076538
  82 C :   -0.127804
  83 C :   -0.017521
  84 N :   -0.039609
  85 C :   -0.018658
  86 N :   -0.050034
  87 H :    0.051132
  88 H :    0.090092
  89 H :    0.054204
  90 H :    0.054754
  91 H :    0.055733
  92 H :    0.036340
  93 H :    0.055597
  94 H :    0.100172

  Mayer bond orders larger than 0.100000
B(  0-C ,  1-C ) :   1.3799 B(  0-C , 10-C ) :   1.3268 B(  0-C , 87-H ) :   0.9923
B(  1-C ,  2-C ) :   0.8598 B(  1-C ,  5-C ) :   1.3513 B(  2-C ,  3-O ) :   2.1740
B(  2-C ,  4-O ) :   1.2770 B(  4-O , 88-H ) :   0.9375 B(  5-C ,  6-C ) :   1.0599
B(  5-C ,  8-C ) :   1.3586 B(  6-C ,  7-N ) :   2.9947 B(  8-C ,  9-C ) :   1.3765
B(  8-C , 89-H ) :   1.0108 B(  9-C , 10-C ) :   1.3281 B(  9-C , 18-C ) :   0.8972
B( 10-C , 11-C ) :   0.9964 B( 11-C , 12-C ) :   1.6733 B( 11-C , 17-C ) :   1.0245
B( 12-C , 13-C ) :   1.1352 B( 12-C , 15-C ) :   1.1707 B( 13-C , 14-N ) :   3.0017
B( 15-C , 16-N ) :   2.9877 B( 17-C , 18-C ) :   0.9334 B( 17-C , 20-C ) :   1.6732
B( 18-C , 19-O ) :   2.2948 B( 20-C , 21-C ) :   1.0977 B( 20-C , 90-H ) :   0.9401
B( 21-C , 22-C ) :   1.2726 B( 21-C , 32-C ) :   0.1449 B( 21-C , 34-C ) :   1.2090
B( 22-C , 23-C ) :   1.1174 B( 22-C , 27-N ) :   1.4601 B( 23-C , 24-N ) :   1.4258
B( 23-C , 32-C ) :   1.3368 B( 24-N , 25-C ) :   1.7614 B( 25-C , 26-C ) :   1.1863
B( 25-C , 30-C ) :   1.1464 B( 26-C , 27-N ) :   1.7576 B( 26-C , 28-C ) :   1.1499
B( 28-C , 29-N ) :   3.0474 B( 30-C , 31-N ) :   3.0529 B( 32-C , 33-C ) :   1.3317
B( 32-C , 38-C ) :   0.9258 B( 33-C , 34-C ) :   1.1006 B( 33-C , 37-N ) :   1.4710
B( 34-C , 35-N ) :   1.4899 B( 35-N , 36-S ) :   1.2820 B( 35-N , 37-N ) :   0.1520
B( 36-S , 37-N ) :   1.3389 B( 38-C , 39-C ) :   1.4562 B( 38-C , 43-C ) :   0.1353
B( 38-C , 45-C ) :   1.2388 B( 39-C , 40-F ) :   1.1913 B( 39-C , 41-C ) :   1.0824
B( 41-C , 42-F ) :   1.1884 B( 41-C , 43-C ) :   1.4533 B( 43-C , 44-C ) :   1.2438
B( 43-C , 49-C ) :   0.9276 B( 44-C , 45-C ) :   1.1590 B( 44-C , 48-N ) :   1.5339
B( 45-C , 46-N ) :   1.5345 B( 46-N , 47-S ) :   1.2742 B( 46-N , 48-N ) :   0.1473
B( 47-S , 48-N ) :   1.2759 B( 49-C , 50-C ) :   1.3393 B( 49-C , 60-C ) :   0.1413
B( 49-C , 62-C ) :   1.3262 B( 50-C , 51-C ) :   1.1149 B( 50-C , 55-N ) :   1.4243
B( 51-C , 52-N ) :   1.4569 B( 51-C , 60-C ) :   1.2794 B( 52-N , 53-C ) :   1.7627
B( 53-C , 54-C ) :   1.1791 B( 53-C , 58-C ) :   1.1443 B( 54-C , 55-N ) :   1.7655
B( 54-C , 56-C ) :   1.1472 B( 56-C , 57-N ) :   3.0517 B( 58-C , 59-N ) :   3.0475
B( 60-C , 61-C ) :   1.2049 B( 60-C , 66-C ) :   1.1006 B( 61-C , 62-C ) :   1.0991
B( 61-C , 65-N ) :   1.4929 B( 62-C , 63-N ) :   1.4763 B( 63-N , 64-S ) :   1.3358
B( 63-N , 65-N ) :   0.1527 B( 64-S , 65-N ) :   1.2799 B( 66-C , 67-C ) :   1.6654
B( 66-C , 91-H ) :   0.9406 B( 67-C , 68-C ) :   0.9300 B( 67-C , 81-C ) :   1.0328
B( 68-C , 69-O ) :   2.3006 B( 68-C , 70-C ) :   0.8968 B( 70-C , 71-C ) :   1.3425
B( 70-C , 75-C ) :   1.3538 B( 71-C , 72-C ) :   1.3785 B( 71-C , 81-C ) :   1.0045
B( 72-C , 73-C ) :   1.3331 B( 72-C , 92-H ) :   0.9711 B( 73-C , 74-C ) :   1.3922
B( 73-C , 78-C ) :   0.8676 B( 74-C , 75-C ) :   1.3675 B( 74-C , 76-C ) :   1.0725
B( 75-C , 93-H ) :   1.0159 B( 76-C , 77-N ) :   3.0389 B( 78-C , 79-O ) :   2.1717
B( 78-C , 80-O ) :   1.2557 B( 80-O , 94-H ) :   0.9445 B( 81-C , 82-C ) :   1.6590
B( 82-C , 83-C ) :   1.1651 B( 82-C , 85-C ) :   1.1378 B( 83-C , 84-N ) :   2.9936
B( 85-C , 86-N ) :   2.9924

-----------------------------------------------------------------------------
         ABSORPTION SPECTRUM VIA TRANSITION ELECTRIC DIPOLE MOMENTS
-----------------------------------------------------------------------------
State   Energy  Wavelength   fosc         T2         TX        TY        TZ
        (cm-1)    (nm)                  (au**2)     (au)      (au)      (au)
-----------------------------------------------------------------------------
   0   15845.3    631.1   0.732809004  15.22531   0.77670   3.66687   1.08449
   1   17743.3    563.6   0.033908555   0.62914  -0.26039  -0.23088   0.71277
   2   21256.4    470.4   0.017070560   0.26438   0.10812   0.00257  -0.50268
   3   21797.0    458.8   0.039428747   0.59551   0.60670  -0.44591   0.16907
   4   22905.1    436.6   0.038834972   0.55817  -0.21299  -0.48208  -0.52953
   5   23274.2    429.7   0.212195963   3.00149  -0.79312  -1.52118  -0.24178
   6   24368.6    410.4   0.016838390   0.22748  -0.28967  -0.14291  -0.35093
   7   25381.7    394.0   0.020909493   0.27121  -0.07869  -0.45411  -0.24249
   8   25801.5    387.6   0.018872840   0.24081  -0.03273   0.10076   0.47915
   9   25916.2    385.9   0.013792214   0.17520   0.23334   0.27802  -0.20848
  10   26033.7    384.1   0.041798709   0.52857   0.22778  -0.12738   0.67857
  11   26288.4    380.4   0.036584967   0.45816   0.66909  -0.10039   0.02003
  12   26750.2    373.8   0.012638351   0.15554  -0.32093  -0.21651   0.07524
  13   27486.0    363.8   0.010378462   0.12431   0.30193  -0.03488  -0.17868
  14   27692.4    361.1   0.039297536   0.46718  -0.07177   0.27698  -0.62073
  15   27763.1    360.2   0.025292496   0.29992   0.43585   0.24825  -0.21983
  16   28314.0    353.2   0.169534965   1.97121   0.35609  -0.02771   1.35781
  17   28416.0    351.9   0.333005773   3.85802  -1.92466   0.08807   0.38206
  18   29555.5    338.3   0.242224098   2.69808   0.22149   1.62090  -0.14736
  19   29738.0    336.3   0.133239877   1.47502  -0.14463  -1.08026  -0.53586
  20   30155.2    331.6   0.040607806   0.44333  -0.06350  -0.09177   0.65641
  21   30384.3    329.1   0.083006709   0.89937   0.19391   0.09864  -0.92306
  22   30752.1    325.2   0.172117708   1.84258   1.33865   0.17113  -0.14595
  23   31098.7    321.6   0.041230986   0.43647   0.36764   0.43802  -0.33083
  24   31204.7    320.5   0.044069722   0.46494   0.25136  -0.62290   0.11725
  25   31770.5    314.8   0.002476415   0.02566  -0.04414   0.15397   0.00260
  26   32089.6    311.6   0.117680672   1.20730  -0.54936  -0.91781  -0.25126
  27   32155.3    311.0   0.047108470   0.48231   0.04596   0.68874  -0.07637
  28   32216.2    310.4   0.051668884   0.52800  -0.50242  -0.46136  -0.25044
  29   32652.3    306.3   0.009682798   0.09763  -0.15964  -0.26217   0.05836
  30   33224.5    301.0   0.137085316   1.35834  -0.04420  -1.07455   0.44914
  31   33472.3    298.8   0.046274080   0.45512   0.42993   0.45098   0.25865
  32   33811.2    295.8   0.038974448   0.37948   0.15597  -0.12260   0.58321
  33   33982.2    294.3   0.025359045   0.24567  -0.00356  -0.46567  -0.16973
  34   34311.7    291.4   0.137729370   1.32148   0.60200   0.97262  -0.11436
  35   34404.9    290.7   0.115910496   1.10912   0.23944  -0.89747   0.49632
  36   34474.1    290.1   0.084965932   0.81139  -0.25466   0.71650   0.48287
  37   34502.2    289.8   0.262423466   2.50399  -1.02949  -1.20168  -0.00991
  38   34574.7    289.2   0.072073201   0.68626  -0.39754  -0.72297   0.07444
  39   34729.1    287.9   0.400874863   3.80007   0.01377   1.88218  -0.50722
  40   34846.8    287.0   0.324503152   3.06572  -0.60512   1.42733  -0.81381
  41   35184.8    284.2   0.150386926   1.40712  -0.96635  -0.10012   0.68064
  42   35696.3    280.1   0.085249952   0.78622  -0.55101  -0.67936  -0.14518
  43   35787.6    279.4   0.023616711   0.21725  -0.18376   0.00066   0.42835
  44   36072.2    277.2   0.096296141   0.87884  -0.90401   0.22057   0.11383
  45   36273.5    275.7   0.031340214   0.28444   0.38973  -0.34461   0.11744
  46   36341.5    275.2   0.038853621   0.35197   0.24733   0.27784   0.46217
  47   36492.5    274.0   0.213437010   1.92549  -0.23688   0.43456  -1.29636
  48   36620.4    273.1   0.371959040   3.34385  -1.48007   0.56573   0.91279
  49   36926.1    270.8   0.085434135   0.76168   0.34920  -0.72457  -0.33874
  50   37145.9    269.2   0.043294749   0.38371  -0.60197  -0.11915  -0.08454
  51   37457.9    267.0   0.002821462   0.02480   0.03502  -0.04106   0.14794
  52   37663.7    265.5   0.006951124   0.06076  -0.05343  -0.09675   0.22033
  53   37743.0    264.9   0.006381643   0.05566  -0.06275  -0.05636   0.22034
  54   37871.0    264.1   0.021231604   0.18457  -0.21573   0.13175  -0.34737
  55   38092.5    262.5   0.002963268   0.02561  -0.11459   0.05704  -0.09605
  56   38339.9    260.8   0.000860561   0.00739   0.08548  -0.00364  -0.00837
  57   38546.5    259.4   0.014374103   0.12276   0.18662  -0.17527   0.23921
  58   38593.1    259.1   0.022991933   0.19613  -0.17576   0.14981   0.37788
  59   38744.9    258.1   0.072511002   0.61612   0.68692  -0.30037   0.23247
  60   39018.7    256.3   0.098361017   0.82990   0.86725  -0.24280   0.13718
  61   39111.4    255.7   0.055807047   0.46974   0.31953  -0.11893   0.59456
  62   39160.9    255.4   0.146914894   1.23506   0.79573   0.07089  -0.77256
  63   39358.7    254.1   0.018622883   0.15577  -0.37292   0.12884   0.00998
  64   39603.6    252.5   0.015968739   0.13274   0.06697  -0.05956  -0.35314
  65   39633.6    252.3   0.000266810   0.00222   0.00732  -0.04648  -0.00141
  66   39720.6    251.8   0.007820109   0.06481  -0.21157  -0.10396  -0.09614
  67   39743.4    251.6   0.107361076   0.88932  -0.37442  -0.06003   0.86344
  68   39804.8    251.2   0.012536838   0.10369  -0.04930   0.12380  -0.29314
  69   39970.3    250.2   0.147414428   1.21417  -0.07053   0.22234  -1.07692
  70   39996.7    250.0   0.138414216   1.13928  -0.40338   0.32349  -0.93377
  71   40079.4    249.5   0.033281380   0.27337  -0.40423   0.02681  -0.33053
  72   40197.2    248.8   0.017676877   0.14477  -0.18283  -0.14523   0.30042
  73   40289.7    248.2   0.078929083   0.64494   0.59500  -0.00929   0.53929

FINAL SINGLE POINT ENERGY     -5074.024751601645

DIPOLE MOMENT
-------------
                                X             Y             Z
Electronic contribution:      1.76617      -4.68305      15.00070
Nuclear contribution   :     -3.41210       6.58137     -15.83785
                        -----------------------------------------
Total Dipole Moment    :     -1.64592       1.89832      -0.83715
                        -----------------------------------------
Magnitude (a.u.)       :      2.64830
Magnitude (Debye)      :      6.73144

Rotational constants in cm-1:     0.001369     0.000245     0.000242
Rotational constants in MHz :    41.039646     7.345799     7.245446

                             ****ORCA TERMINATED NORMALLY****
TOTAL RUN TIME: 0 days 0 hours 17 minutes 28 seconds 146 msec
