                         Program Version 4.2.0 -  RELEASE  -
|  1> # ORCA input file
|  2> # SCF done       -165.951468558868          0.000293197252
|  3> ! CAM-B3LYP def2-SVP def2/J RIJCOSX Grid4 TightSCF
|  4> %maxcore 5000
|  5> %tddft
|  6>     Mode sTDDFT
|  7>     Ethresh 5.0
|  8>     maxcore 5000
|  9> end
| 10>
| 11> %pal
| 12>   nprocs 6
| 13>   end
| 14> * xyz 0 1
| 15>    C        4.99571         0.16879        -3.90314
| 16>    O        5.19936         0.23270        -2.71320
| 17>    C        4.91668         1.24527        -4.88054
| 18>    C        4.84462         0.74849        -6.17804
| 19>    C        4.78381         1.76939        -7.14580
| 20>    C        4.81428         2.99941        -6.55700
| 21>    S        4.92054         2.95106        -4.83639
| 22>    C        4.85522        -0.69882        -6.13718
| 23>    C        4.78511        -1.52026        -7.23064
| 24>    C        4.71940        -1.00556        -8.54286
| 25>    N        4.66942        -0.60872        -9.61821
| 26>    C        4.77779        -2.92862        -7.19362
| 27>    N        4.76999        -4.07613        -7.23203
| 28>    C        4.90579        -1.07736        -4.73403
| 29>    C        4.98247        -2.33281        -4.22633
| 30>    C        4.84025        -2.69259        -2.85427
| 31>    O        5.54456        -3.75538        -2.42533
| 32>    C        5.24764        -4.00668        -1.12393
| 33>    C        4.27817        -3.08374        -0.70550
| 34>    C        4.02288        -2.24962        -1.82155
| 35>    C        2.90964        -1.25893        -1.82324
| 36>    F        2.60786        -0.79188        -3.04807
| 37>    F        1.77128        -1.83295        -1.38046
| 38>    F        3.11355        -0.19997        -1.03894
| 39>    O        3.62628        -2.88860         0.44472
| 40>    C        3.85861        -3.73087         1.55192
| 41>    C        5.90779        -5.09170        -0.48792
| 42>    C        6.85357        -5.83886        -1.11596
| 43>    C        7.49490        -6.96508        -0.54875
| 44>    C        7.26167        -7.59300         0.66484
| 45>    C        8.06909        -8.71168         0.84658
| 46>    C        8.94593        -8.94181        -0.23740
| 47>    S        8.75799        -7.77885        -1.47268
| 48>    C        9.70014       -10.10130         0.03093
| 49>    C        9.29487       -10.62366         1.27801
| 50>    C        8.26604        -9.75360         1.83412
| 51>    C        7.62851        -9.89151         3.03373
| 52>    C        6.65393        -8.96747         3.46277
| 53>    N        5.86547        -8.20706         3.80371
| 54>    C        7.90750       -10.95411         3.91824
| 55>    N        8.13387       -11.81551         4.64067
| 56>    C        9.95316       -11.79107         1.62804
| 57>    C       10.88365       -12.18244         0.66497
| 58>    S       10.92538       -11.05107        -0.69139
| 59>    C       11.73826       -13.29269         0.63037
| 60>    C       11.75148       -14.37350         1.47986
| 61>    C       12.65357       -15.46448         1.39106
| 62>    C       12.43976       -16.44917         2.30569
| 63>    C       11.34873       -16.19865         3.16886
| 64>    S       10.62354       -14.65090         2.79302
| 65>    C       10.84622       -17.00824         4.16657
| 66>    C       11.32539       -18.27447         4.58267
| 67>    C       10.59688       -18.83528         5.58020
| 68>    C        9.48555       -18.05394         6.01810
| 69>    S        9.43740       -16.55460         5.10059
| 70>    C        8.59897       -18.45289         6.97220
| 71>    C        7.43575       -17.79104         7.48079
| 72>    C        7.04644       -16.46607         7.20695
| 73>    N        5.91694       -15.96439         7.66100
| 74>    C        5.16090       -16.73356         8.43155
| 75>    C        5.57787       -18.01210         8.79088
| 76>    N        6.68461       -18.53721         8.31136
| 77>    H        4.72193         1.61475        -8.20697
| 78>    H        4.77851         3.95241        -7.04788
| 79>    H        5.19870        -3.16808        -4.88068
| 80>    H        3.20959        -3.35040         2.33895
| 81>    H        4.89915        -3.67469         1.88249
| 82>    H        3.58674        -4.76602         1.32922
| 83>    H        5.63121        -5.32285         0.52559
| 84>    H        7.14178        -5.57423        -2.12331
| 85>    H        6.52653        -7.25497         1.37122
| 86>    H        9.78847       -12.33077         2.54129
| 87>    H       12.45758       -13.31482        -0.17843
| 88>    H       13.43103       -15.48422         0.64780
| 89>    H       13.02573       -17.34771         2.37524
| 90>    H       12.18842       -18.73028         4.13161
| 91>    H       10.80536       -19.79277         6.02348
| 92>    H        8.76495       -19.42829         7.41211
| 93>    H        7.65769       -15.79154         6.62498
| 94>    H        4.22377       -16.31220         8.76577
| 95>    H        5.00552       -18.63473         9.46566
| 96> *
| 97>
| 98>                          ****END OF INPUT****

CARTESIAN COORDINATES (ANGSTROEM)
---------------------------------
  C      4.995710    0.168790   -3.903140
  O      5.199360    0.232700   -2.713200
  C      4.916680    1.245270   -4.880540
  C      4.844620    0.748490   -6.178040
  C      4.783810    1.769390   -7.145800
  C      4.814280    2.999410   -6.557000
  S      4.920540    2.951060   -4.836390
  C      4.855220   -0.698820   -6.137180
  C      4.785110   -1.520260   -7.230640
  C      4.719400   -1.005560   -8.542860
  N      4.669420   -0.608720   -9.618210
  C      4.777790   -2.928620   -7.193620
  N      4.769990   -4.076130   -7.232030
  C      4.905790   -1.077360   -4.734030
  C      4.982470   -2.332810   -4.226330
  C      4.840250   -2.692590   -2.854270
  O      5.544560   -3.755380   -2.425330
  C      5.247640   -4.006680   -1.123930
  C      4.278170   -3.083740   -0.705500
  C      4.022880   -2.249620   -1.821550
  C      2.909640   -1.258930   -1.823240
  F      2.607860   -0.791880   -3.048070
  F      1.771280   -1.832950   -1.380460
  F      3.113550   -0.199970   -1.038940
  O      3.626280   -2.888600    0.444720
  C      3.858610   -3.730870    1.551920
  C      5.907790   -5.091700   -0.487920
  C      6.853570   -5.838860   -1.115960
  C      7.494900   -6.965080   -0.548750
  C      7.261670   -7.593000    0.664840
  C      8.069090   -8.711680    0.846580
  C      8.945930   -8.941810   -0.237400
  S      8.757990   -7.778850   -1.472680
  C      9.700140  -10.101300    0.030930
  C      9.294870  -10.623660    1.278010
  C      8.266040   -9.753600    1.834120
  C      7.628510   -9.891510    3.033730
  C      6.653930   -8.967470    3.462770
  N      5.865470   -8.207060    3.803710
  C      7.907500  -10.954110    3.918240
  N      8.133870  -11.815510    4.640670
  C      9.953160  -11.791070    1.628040
  C     10.883650  -12.182440    0.664970
  S     10.925380  -11.051070   -0.691390
  C     11.738260  -13.292690    0.630370
  C     11.751480  -14.373500    1.479860
  C     12.653570  -15.464480    1.391060
  C     12.439760  -16.449170    2.305690
  C     11.348730  -16.198650    3.168860
  S     10.623540  -14.650900    2.793020
  C     10.846220  -17.008240    4.166570
  C     11.325390  -18.274470    4.582670
  C     10.596880  -18.835280    5.580200
  C      9.485550  -18.053940    6.018100
  S      9.437400  -16.554600    5.100590
  C      8.598970  -18.452890    6.972200
  C      7.435750  -17.791040    7.480790
  C      7.046440  -16.466070    7.206950
  N      5.916940  -15.964390    7.661000
  C      5.160900  -16.733560    8.431550
  C      5.577870  -18.012100    8.790880
  N      6.684610  -18.537210    8.311360
  H      4.721930    1.614750   -8.206970
  H      4.778510    3.952410   -7.047880
  H      5.198700   -3.168080   -4.880680
  H      3.209590   -3.350400    2.338950
  H      4.899150   -3.674690    1.882490
  H      3.586740   -4.766020    1.329220
  H      5.631210   -5.322850    0.525590
  H      7.141780   -5.574230   -2.123310
  H      6.526530   -7.254970    1.371220
  H      9.788470  -12.330770    2.541290
  H     12.457580  -13.314820   -0.178430
  H     13.431030  -15.484220    0.647800
  H     13.025730  -17.347710    2.375240
  H     12.188420  -18.730280    4.131610
  H     10.805360  -19.792770    6.023480
  H      8.764950  -19.428290    7.412110
  H      7.657690  -15.791540    6.624980
  H      4.223770  -16.312200    8.765770
  H      5.005520  -18.634730    9.465660

 Total Charge           Charge          ....    0
 Multiplicity           Mult            ....    1
 Number of Electrons    NEL             ....  462
 Basis Dimension        Dim             ....  983

ORBITAL ENERGIES
----------------

  NO   OCC          E(Eh)            E(eV)
   0   2.0000     -88.990825     -2421.5635
   1   2.0000     -88.984598     -2421.3940
   2   2.0000     -88.982176     -2421.3281
   3   2.0000     -88.952245     -2420.5136
   4   2.0000     -88.949841     -2420.4482
   5   2.0000     -24.797646      -674.7782
   6   2.0000     -24.787657      -674.5064
   7   2.0000     -24.784166      -674.4115
   8   2.0000     -19.308080      -525.3996
   9   2.0000     -19.267612      -524.2984
  10   2.0000     -19.219916      -523.0005
  11   2.0000     -14.429164      -392.6375
  12   2.0000     -14.425932      -392.5496
  13   2.0000     -14.421738      -392.4354
  14   2.0000     -14.419054      -392.3624
  15   2.0000     -14.410310      -392.1245
  16   2.0000     -14.409945      -392.1145
  17   2.0000     -10.517398      -286.1929
  18   2.0000     -10.379893      -282.4512
  19   2.0000     -10.360900      -281.9344
  20   2.0000     -10.360759      -281.9306
  21   2.0000     -10.357370      -281.8384
  22   2.0000     -10.350182      -281.6428
  23   2.0000     -10.349808      -281.6326
  24   2.0000     -10.348994      -281.6104
  25   2.0000     -10.348200      -281.5888
  26   2.0000     -10.336666      -281.2750
  27   2.0000     -10.330083      -281.0959
  28   2.0000     -10.328177      -281.0440
  29   2.0000     -10.326054      -280.9862
  30   2.0000     -10.324766      -280.9512
  31   2.0000     -10.324599      -280.9466
  32   2.0000     -10.323733      -280.9231
  33   2.0000     -10.322776      -280.8970
  34   2.0000     -10.321288      -280.8565
  35   2.0000     -10.319531      -280.8087
  36   2.0000     -10.318955      -280.7930
  37   2.0000     -10.318224      -280.7731
  38   2.0000     -10.316586      -280.7286
  39   2.0000     -10.315891      -280.7097
  40   2.0000     -10.315650      -280.7031
  41   2.0000     -10.315050      -280.6868
  42   2.0000     -10.313596      -280.6472
  43   2.0000     -10.313301      -280.6392
  44   2.0000     -10.310394      -280.5601
  45   2.0000     -10.304577      -280.4018
  46   2.0000     -10.303436      -280.3708
  47   2.0000     -10.303086      -280.3612
  48   2.0000     -10.301325      -280.3133
  49   2.0000     -10.301091      -280.3069
  50   2.0000     -10.298629      -280.2399
  51   2.0000     -10.298605      -280.2393
  52   2.0000     -10.296781      -280.1897
  53   2.0000     -10.296532      -280.1829
  54   2.0000     -10.295669      -280.1594
  55   2.0000     -10.293519      -280.1009
  56   2.0000     -10.293081      -280.0890
  57   2.0000     -10.292942      -280.0852
  58   2.0000     -10.292531      -280.0740
  59   2.0000     -10.290854      -280.0284
  60   2.0000     -10.289816      -280.0001
  61   2.0000     -10.278296      -279.6867
  62   2.0000      -8.085831      -220.0266
  63   2.0000      -8.079305      -219.8491
  64   2.0000      -8.076862      -219.7826
  65   2.0000      -8.048000      -218.9972
  66   2.0000      -8.045756      -218.9361
  67   2.0000      -6.054991      -164.7647
  68   2.0000      -6.050530      -164.6433
  69   2.0000      -6.048590      -164.5905
  70   2.0000      -6.048467      -164.5872
  71   2.0000      -6.046110      -164.5230
  72   2.0000      -6.044404      -164.4766
  73   2.0000      -6.042049      -164.4125
  74   2.0000      -6.041749      -164.4043
  75   2.0000      -6.039133      -164.3332
  76   2.0000      -6.017776      -163.7520
  77   2.0000      -6.015548      -163.6914
  78   2.0000      -6.013638      -163.6394
  79   2.0000      -6.011446      -163.5798
  80   2.0000      -6.008985      -163.5128
  81   2.0000      -6.006610      -163.4482
  82   2.0000      -1.381770       -37.5999
  83   2.0000      -1.286499       -35.0074
  84   2.0000      -1.277067       -34.7508
  85   2.0000      -1.230352       -33.4796
  86   2.0000      -1.173028       -31.9197
  87   2.0000      -1.138734       -30.9865
  88   2.0000      -1.066203       -29.0129
  89   2.0000      -1.039006       -28.2728
  90   2.0000      -1.030918       -28.0527
  91   2.0000      -1.018508       -27.7150
  92   2.0000      -1.012798       -27.5596
  93   2.0000      -1.004925       -27.3454
  94   2.0000      -1.001164       -27.2431
  95   2.0000      -0.998530       -27.1714
  96   2.0000      -0.991135       -26.9701
  97   2.0000      -0.986414       -26.8417
  98   2.0000      -0.976932       -26.5837
  99   2.0000      -0.969589       -26.3839
 100   2.0000      -0.955442       -25.9989
 101   2.0000      -0.936330       -25.4788
 102   2.0000      -0.926211       -25.2035
 103   2.0000      -0.915311       -24.9069
 104   2.0000      -0.906127       -24.6570
 105   2.0000      -0.898970       -24.4622
 106   2.0000      -0.888705       -24.1829
 107   2.0000      -0.878349       -23.9011
 108   2.0000      -0.863236       -23.4898
 109   2.0000      -0.858979       -23.3740
 110   2.0000      -0.853529       -23.2257
 111   2.0000      -0.850571       -23.1452
 112   2.0000      -0.842229       -22.9182
 113   2.0000      -0.836324       -22.7575
 114   2.0000      -0.827815       -22.5260
 115   2.0000      -0.818884       -22.2830
 116   2.0000      -0.805364       -21.9151
 117   2.0000      -0.797651       -21.7052
 118   2.0000      -0.786373       -21.3983
 119   2.0000      -0.773837       -21.0572
 120   2.0000      -0.769996       -20.9527
 121   2.0000      -0.762227       -20.7412
 122   2.0000      -0.746063       -20.3014
 123   2.0000      -0.732613       -19.9354
 124   2.0000      -0.728548       -19.8248
 125   2.0000      -0.721197       -19.6248
 126   2.0000      -0.710641       -19.3375
 127   2.0000      -0.696344       -18.9485
 128   2.0000      -0.692423       -18.8418
 129   2.0000      -0.684956       -18.6386
 130   2.0000      -0.682573       -18.5738
 131   2.0000      -0.679545       -18.4914
 132   2.0000      -0.671183       -18.2638
 133   2.0000      -0.668318       -18.1859
 134   2.0000      -0.665616       -18.1123
 135   2.0000      -0.662477       -18.0269
 136   2.0000      -0.659010       -17.9326
 137   2.0000      -0.645386       -17.5618
 138   2.0000      -0.637064       -17.3354
 139   2.0000      -0.630096       -17.1458
 140   2.0000      -0.627538       -17.0762
 141   2.0000      -0.625672       -17.0254
 142   2.0000      -0.620702       -16.8902
 143   2.0000      -0.617688       -16.8081
 144   2.0000      -0.614452       -16.7201
 145   2.0000      -0.610104       -16.6018
 146   2.0000      -0.597466       -16.2579
 147   2.0000      -0.593804       -16.1582
 148   2.0000      -0.589174       -16.0322
 149   2.0000      -0.588313       -16.0088
 150   2.0000      -0.587027       -15.9738
 151   2.0000      -0.582897       -15.8614
 152   2.0000      -0.568433       -15.4678
 153   2.0000      -0.562120       -15.2961
 154   2.0000      -0.560050       -15.2397
 155   2.0000      -0.555225       -15.1084
 156   2.0000      -0.552416       -15.0320
 157   2.0000      -0.546908       -14.8821
 158   2.0000      -0.543136       -14.7795
 159   2.0000      -0.542277       -14.7561
 160   2.0000      -0.539676       -14.6853
 161   2.0000      -0.537338       -14.6217
 162   2.0000      -0.531967       -14.4756
 163   2.0000      -0.529346       -14.4042
 164   2.0000      -0.525425       -14.2975
 165   2.0000      -0.524151       -14.2629
 166   2.0000      -0.518548       -14.1104
 167   2.0000      -0.513594       -13.9756
 168   2.0000      -0.511261       -13.9121
 169   2.0000      -0.507543       -13.8109
 170   2.0000      -0.505767       -13.7626
 171   2.0000      -0.503289       -13.6952
 172   2.0000      -0.500977       -13.6323
 173   2.0000      -0.499502       -13.5921
 174   2.0000      -0.498816       -13.5735
 175   2.0000      -0.496969       -13.5232
 176   2.0000      -0.493810       -13.4372
 177   2.0000      -0.493604       -13.4317
 178   2.0000      -0.491150       -13.3649
 179   2.0000      -0.488855       -13.3024
 180   2.0000      -0.483416       -13.1544
 181   2.0000      -0.482979       -13.1425
 182   2.0000      -0.478909       -13.0318
 183   2.0000      -0.473557       -12.8862
 184   2.0000      -0.471127       -12.8200
 185   2.0000      -0.467340       -12.7170
 186   2.0000      -0.466411       -12.6917
 187   2.0000      -0.465326       -12.6622
 188   2.0000      -0.462529       -12.5860
 189   2.0000      -0.461977       -12.5710
 190   2.0000      -0.459827       -12.5125
 191   2.0000      -0.456281       -12.4160
 192   2.0000      -0.454464       -12.3666
 193   2.0000      -0.453927       -12.3520
 194   2.0000      -0.451344       -12.2817
 195   2.0000      -0.445802       -12.1309
 196   2.0000      -0.445270       -12.1164
 197   2.0000      -0.442703       -12.0465
 198   2.0000      -0.438525       -11.9329
 199   2.0000      -0.437864       -11.9149
 200   2.0000      -0.436477       -11.8771
 201   2.0000      -0.433722       -11.8022
 202   2.0000      -0.433277       -11.7901
 203   2.0000      -0.431851       -11.7513
 204   2.0000      -0.431251       -11.7349
 205   2.0000      -0.425886       -11.5889
 206   2.0000      -0.422757       -11.5038
 207   2.0000      -0.422532       -11.4977
 208   2.0000      -0.419779       -11.4228
 209   2.0000      -0.415918       -11.3177
 210   2.0000      -0.408268       -11.1095
 211   2.0000      -0.400839       -10.9074
 212   2.0000      -0.400439       -10.8965
 213   2.0000      -0.392188       -10.6720
 214   2.0000      -0.379204       -10.3187
 215   2.0000      -0.370292       -10.0762
 216   2.0000      -0.366905        -9.9840
 217   2.0000      -0.353656        -9.6235
 218   2.0000      -0.349044        -9.4980
 219   2.0000      -0.345409        -9.3990
 220   2.0000      -0.341817        -9.3013
 221   2.0000      -0.339646        -9.2422
 222   2.0000      -0.330252        -8.9866
 223   2.0000      -0.329354        -8.9622
 224   2.0000      -0.320046        -8.7089
 225   2.0000      -0.317203        -8.6315
 226   2.0000      -0.311401        -8.4736
 227   2.0000      -0.309384        -8.4188
 228   2.0000      -0.285938        -7.7808
 229   2.0000      -0.249357        -6.7853
 230   2.0000      -0.214244        -5.8299
 231   0.0000      -0.105351        -2.8668
 232   0.0000      -0.090270        -2.4564
 233   0.0000      -0.079245        -2.1564
 234   0.0000      -0.072312        -1.9677
 235   0.0000      -0.033916        -0.9229

MULLIKEN ATOMIC CHARGES
-----------------------
   0 C :    0.116051
   1 O :   -0.136180
   2 C :   -0.167037
   3 C :    0.007450
   4 C :    0.024516
   5 C :   -0.056861
   6 S :    0.219320
   7 C :    0.294910
   8 C :   -0.326694
   9 C :   -0.192462
  10 N :    0.158632
  11 C :   -0.190030
  12 N :    0.162268
  13 C :   -0.077500
  14 C :   -0.065062
  15 C :    0.157110
  16 O :   -0.200768
  17 C :    0.079836
  18 C :    0.154479
  19 C :   -0.122744
  20 C :    0.543828
  21 F :   -0.165296
  22 F :   -0.166105
  23 F :   -0.143274
  24 O :   -0.279134
  25 C :    0.173266
  26 C :   -0.052989
  27 C :    0.050272
  28 C :   -0.077246
  29 C :   -0.034626
  30 C :    0.000122
  31 C :   -0.100204
  32 S :    0.189766
  33 C :   -0.102456
  34 C :   -0.005143
  35 C :    0.309548
  36 C :   -0.296923
  37 C :   -0.178572
  38 N :    0.153995
  39 C :   -0.184393
  40 N :    0.174474
  41 C :   -0.042790
  42 C :   -0.091970
  43 S :    0.176918
  44 C :    0.022214
  45 C :   -0.028275
  46 C :    0.029720
  47 C :    0.034259
  48 C :   -0.040451
  49 S :    0.071269
  50 C :   -0.037933
  51 C :    0.034013
  52 C :    0.040965
  53 C :   -0.005887
  54 S :    0.076027
  55 C :    0.009915
  56 C :   -0.030365
  57 C :   -0.016244
  58 N :   -0.048118
  59 C :    0.018017
  60 C :    0.027797
  61 N :   -0.068916
  62 H :    0.020481
  63 H :    0.044355
  64 H :    0.039186
  65 H :    0.049867
  66 H :    0.039473
  67 H :    0.040360
  68 H :   -0.016219
  69 H :   -0.002168
  70 H :   -0.001081
  71 H :    0.023959
  72 H :   -0.015050
  73 H :   -0.009401
  74 H :   -0.011736
  75 H :   -0.010469
  76 H :   -0.007589
  77 H :   -0.006284
  78 H :    0.026068
  79 H :    0.009636
  80 H :    0.008304
Sum of atomic charges:   -0.0000000

LOEWDIN ATOMIC CHARGES
----------------------
   0 C :    0.059480
   1 O :   -0.132648
   2 C :   -0.205322
   3 C :   -0.036932
   4 C :   -0.044611
   5 C :   -0.146640
   6 S :    0.509986
   7 C :    0.072994
   8 C :   -0.131797
   9 C :   -0.017361
  10 N :   -0.048526
  11 C :   -0.021803
  12 N :   -0.043826
  13 C :   -0.068645
  14 C :    0.036154
  15 C :    0.044126
  16 O :    0.024965
  17 C :    0.003262
  18 C :    0.029252
  19 C :   -0.107248
  20 C :    0.171274
  21 F :   -0.056589
  22 F :   -0.064863
  23 F :   -0.041785
  24 O :   -0.080084
  25 C :    0.085478
  26 C :   -0.045261
  27 C :   -0.035706
  28 C :   -0.166705
  29 C :   -0.028706
  30 C :   -0.071794
  31 C :   -0.179761
  32 S :    0.474145
  33 C :   -0.189769
  34 C :   -0.064467
  35 C :    0.084575
  36 C :   -0.103898
  37 C :   -0.011756
  38 N :   -0.042863
  39 C :   -0.018065
  40 N :   -0.029032
  41 C :   -0.042424
  42 C :   -0.159977
  43 S :    0.464566
  44 C :   -0.085015
  45 C :   -0.142353
  46 C :   -0.031795
  47 C :   -0.032644
  48 C :   -0.178170
  49 S :    0.395583
  50 C :   -0.173183
  51 C :   -0.031605
  52 C :   -0.022932
  53 C :   -0.136888
  54 S :    0.389543
  55 C :   -0.055611
  56 C :   -0.017699
  57 C :   -0.002251
  58 N :   -0.039559
  59 C :   -0.006442
  60 C :   -0.001964
  61 N :   -0.054285
  62 H :    0.044345
  63 H :    0.031961
  64 H :    0.052479
  65 H :    0.037113
  66 H :    0.020386
  67 H :    0.020883
  68 H :    0.033108
  69 H :    0.031928
  70 H :    0.036237
  71 H :    0.025946
  72 H :    0.033543
  73 H :    0.034143
  74 H :    0.032696
  75 H :    0.033073
  76 H :    0.035645
  77 H :    0.040545
  78 H :    0.013219
  79 H :    0.024129
  80 H :    0.024499

  Mayer bond orders larger than 0.100000
B(  0-C ,  1-O ) :   2.2180 B(  0-C ,  2-C ) :   1.0541 B(  0-C , 13-C ) :   0.9180
B(  2-C ,  3-C ) :   1.4472 B(  2-C ,  6-S ) :   1.1318 B(  3-C ,  4-C ) :   1.2671
B(  3-C ,  7-C ) :   1.0140 B(  4-C ,  5-C ) :   1.5409 B(  4-C , 62-H ) :   0.9953
B(  5-C ,  6-S ) :   1.1878 B(  5-C , 63-H ) :   0.9626 B(  7-C ,  8-C ) :   1.6585
B(  7-C , 13-C ) :   1.0644 B(  8-C ,  9-C ) :   1.1423 B(  8-C , 11-C ) :   1.1380
B(  9-C , 10-N ) :   2.9895 B( 11-C , 12-N ) :   2.9806 B( 13-C , 14-C ) :   1.6792
B( 14-C , 15-C ) :   1.1170 B( 14-C , 64-H ) :   0.9310 B( 15-C , 16-O ) :   1.1420
B( 15-C , 17-C ) :   0.1028 B( 15-C , 19-C ) :   1.4934 B( 16-O , 17-C ) :   1.1154
B( 17-C , 18-C ) :   1.2944 B( 17-C , 26-C ) :   1.1656 B( 18-C , 19-C ) :   1.2972
B( 18-C , 24-O ) :   1.2464 B( 19-C , 20-C ) :   0.9218 B( 20-C , 21-F ) :   1.1286
B( 20-C , 22-F ) :   1.1740 B( 20-C , 23-F ) :   1.2039 B( 24-O , 25-C ) :   0.9371
B( 25-C , 65-H ) :   0.9747 B( 25-C , 66-H ) :   0.9670 B( 25-C , 67-H ) :   0.9672
B( 26-C , 27-C ) :   1.6621 B( 26-C , 68-H ) :   0.9567 B( 27-C , 28-C ) :   1.1128
B( 27-C , 69-H ) :   0.9702 B( 28-C , 29-C ) :   1.4479 B( 28-C , 32-S ) :   1.0941
B( 29-C , 30-C ) :   1.3090 B( 29-C , 70-H ) :   0.9870 B( 30-C , 31-C ) :   1.4159
B( 30-C , 35-C ) :   1.0056 B( 31-C , 32-S ) :   1.1264 B( 31-C , 33-C ) :   1.2146
B( 33-C , 34-C ) :   1.4223 B( 33-C , 43-S ) :   1.1107 B( 34-C , 35-C ) :   0.9951
B( 34-C , 41-C ) :   1.3437 B( 35-C , 36-C ) :   1.7042 B( 36-C , 37-C ) :   1.1344
B( 36-C , 39-C ) :   1.1327 B( 37-C , 38-N ) :   2.9801 B( 39-C , 40-N ) :   2.9854
B( 41-C , 42-C ) :   1.4037 B( 41-C , 71-H ) :   0.9695 B( 42-C , 43-S ) :   1.0941
B( 42-C , 44-C ) :   1.1763 B( 44-C , 45-C ) :   1.5904 B( 44-C , 72-H ) :   0.9516
B( 45-C , 46-C ) :   1.1469 B( 45-C , 49-S ) :   1.0454 B( 46-C , 47-C ) :   1.5940
B( 46-C , 73-H ) :   0.9995 B( 47-C , 48-C ) :   1.1795 B( 47-C , 74-H ) :   0.9926
B( 48-C , 49-S ) :   1.0419 B( 48-C , 50-C ) :   1.5246 B( 50-C , 51-C ) :   1.1679
B( 50-C , 54-S ) :   1.0438 B( 51-C , 52-C ) :   1.6149 B( 51-C , 75-H ) :   0.9933
B( 52-C , 53-C ) :   1.1211 B( 52-C , 76-H ) :   0.9998 B( 53-C , 54-S ) :   1.0311
B( 53-C , 55-C ) :   1.5999 B( 55-C , 56-C ) :   1.0892 B( 55-C , 77-H ) :   0.9656
B( 56-C , 57-C ) :   1.2978 B( 56-C , 61-N ) :   1.4888 B( 57-C , 58-N ) :   1.5907
B( 57-C , 78-H ) :   0.9712 B( 58-N , 59-C ) :   1.5404 B( 59-C , 60-C ) :   1.3402
B( 59-C , 79-H ) :   0.9787 B( 60-C , 61-N ) :   1.5723 B( 60-C , 80-H ) :   0.9758

-----------------------------------------------------------------------------
         ABSORPTION SPECTRUM VIA TRANSITION ELECTRIC DIPOLE MOMENTS
-----------------------------------------------------------------------------
State   Energy  Wavelength   fosc         T2         TX        TY        TZ
        (cm-1)    (nm)                  (au**2)     (au)      (au)      (au)
-----------------------------------------------------------------------------
   0    7941.6   1259.2   0.228957253   9.49120   0.72283  -2.61703   1.45599
   1   14773.0    676.9   1.778748833  39.63885   0.46012  -4.95099   3.86197
   2   16356.2    611.4   0.047668435   0.95945  -0.74060   0.63771  -0.06549
   3   17265.5    579.2   0.101024839   1.92630  -1.33938  -0.30072   0.20474
   4   20530.1    487.1   0.086703124   1.39034   0.73953  -0.91825  -0.01570
   5   22141.0    451.7   0.148644871   2.21019   0.46374  -0.90647   1.08325
   6   24263.0    412.2   0.031820853   0.43176  -0.02300   0.43528  -0.49170
   7   24835.1    402.7   0.148687884   1.97099  -1.04557   0.32080   0.88026
   8   26226.0    381.3   0.470956643   5.91185   2.01915  -0.85144  -1.05354
   9   26803.5    373.1   0.336416854   4.13201  -1.51762   1.29779   0.38024
  10   29083.6    343.8   0.040944760   0.46347  -0.12401   0.31685  -0.58967
  11   29130.1    343.3   0.097888549   1.10628   0.36972  -0.94254   0.28498
  12   29610.8    337.7   0.009707998   0.10793   0.08859  -0.15120  -0.27789
  13   30132.1    331.9   0.062805050   0.68618  -0.24821   0.31930   0.72293
  14   30735.1    325.4   0.297764957   3.18944   1.27216  -0.63929  -1.07812
  15   30878.1    323.9   0.083607936   0.89140   0.27167   0.90268  -0.05252
  16   31432.5    318.1   0.521452287   5.46149   1.05765   0.25060  -2.06883
  17   31538.9    317.1   0.077188927   0.80572  -0.41392  -0.30944   0.73392
  18   32400.5    308.6   0.002389746   0.02428   0.08810   0.12640   0.02330
  19   32511.0    307.6   0.031126105   0.31519   0.23746  -0.36218   0.35725
  20   33301.0    300.3   0.319474109   3.15831   1.13802  -1.34166   0.25131
  21   33697.6    296.8   0.040728419   0.39790  -0.37785   0.46577  -0.19541
  22   34137.7    292.9   0.030514997   0.29428   0.32238   0.31899   0.29765
  23   34829.3    287.1   0.135115787   1.27714   0.54514  -0.65863  -0.73903
  24   34938.1    286.2   0.084208883   0.79348  -0.58965   0.44688   0.49606
  25   35237.7    283.8   0.075149118   0.70209  -0.24913  -0.77839  -0.18474
  26   35437.5    282.2   0.011477068   0.10662   0.26582   0.18099   0.05658
  27   35549.7    281.3   0.091994250   0.85192  -0.30830   0.75422   0.43362
  28   35967.1    278.0   0.013671005   0.12513   0.02278  -0.29338   0.19632
  29   36257.4    275.8   0.459218759   4.16964   0.10246   1.47241   1.41108
  30   36674.3    272.7   0.056400665   0.50629   0.13018   0.34167   0.61041
  31   36765.5    272.0   0.172684765   1.54628  -0.33163  -0.20153   1.18139
  32   36855.8    271.3   0.065464082   0.58475   0.04983   0.47377  -0.59817
  33   37170.3    269.0   0.043540674   0.38563   0.31549   0.30712  -0.43793
  34   37426.8    267.2   0.021068552   0.18532  -0.23217  -0.08331   0.35281
  35   38000.9    263.2   0.001283214   0.01112   0.03475   0.08075   0.05820
  36   38552.3    259.4   0.062287364   0.53189  -0.38190  -0.08972   0.61482
  37   38628.1    258.9   0.023739814   0.20232  -0.23579   0.35990  -0.13115
  38   38700.0    258.4   0.001918748   0.01632  -0.06246   0.07656   0.08099
  39   39082.2    255.9   0.011761507   0.09907  -0.00948   0.06474   0.30788
  40   39371.3    254.0   0.005562156   0.04651  -0.14578   0.07425   0.14051
  41   39508.2    253.1   0.029063843   0.24218   0.13138  -0.39634   0.26045
  42   39737.1    251.7   0.030121670   0.24955   0.15925   0.27081  -0.38839

FINAL SINGLE POINT ENERGY     -4566.924613230143

DIPOLE MOMENT
-------------
                                X             Y             Z
Electronic contribution:    -18.43512      58.47908     -34.09327
Nuclear contribution   :     20.76231     -59.06681      34.23863
                        -----------------------------------------
Total Dipole Moment    :      2.32719      -0.58773       0.14536
                        -----------------------------------------
Magnitude (a.u.)       :      2.40466
Magnitude (Debye)      :      6.11215

Rotational constants in cm-1:     0.002479     0.000273     0.000254
Rotational constants in MHz :    74.319314     8.185368     7.600922

                             ****ORCA TERMINATED NORMALLY****
TOTAL RUN TIME: 0 days 0 hours 7 minutes 1 seconds 29 msec
