                         Program Version 4.2.0 -  RELEASE  -
|  1> # ORCA input file
|  2> # SCF done       -168.400101314691          0.000782414433
|  3> ! CAM-B3LYP def2-SVP def2/J RIJCOSX Grid4 TightSCF
|  4> %maxcore 5000
|  5> %tddft
|  6>     Mode sTDDFT
|  7>     Ethresh 5.0
|  8>     maxcore 5000
|  9> end
| 10>
| 11> %pal
| 12>   nprocs 6
| 13>   end
| 14> * xyz 0 1
| 15>    C       -4.26655        -1.03492         2.14128
| 16>    C       -4.08093        -2.02945         1.21250
| 17>    C       -3.73565        -3.35852         1.53244
| 18>    N       -3.43916        -4.45062         1.72719
| 19>    C       -4.20095        -1.86936        -0.18254
| 20>    N       -4.28128        -1.81535        -1.32734
| 21>    C       -4.17369        -1.19415         3.58667
| 22>    C       -4.43741         0.05336         4.20523
| 23>    C       -4.42534         0.22349         5.56787
| 24>    C       -4.14862        -0.89402         6.36249
| 25>    C       -3.88583        -2.13670         5.73701
| 26>    C       -3.89200        -2.30720         4.35833
| 27>    S       -3.56164        -3.38268         6.90337
| 28>    C       -3.78191        -2.23455         8.19737
| 29>    C       -4.08285        -0.98185         7.77971
| 30>   Br       -3.58980        -2.79740         9.97516
| 31>    C       -4.69431         1.07128         3.17184
| 32>    O       -4.78387         2.26585         3.33884
| 33>    C       -4.64226         0.33855         1.87204
| 34>    C       -4.78828         0.92952         0.65365
| 35>    C       -5.39175         2.19813         0.45632
| 36>    O       -5.07695         2.91764        -0.65777
| 37>    C       -6.37628         2.88012         1.14562
| 38>    C       -7.31852         2.79282         2.26960
| 39>    O       -7.52556         1.92109         3.07037
| 40>    N       -8.03563         3.98540         2.18195
| 41>    C       -7.70938         4.80317         1.10315
| 42>    O       -8.24790         5.84789         0.84008
| 43>    C       -6.63695         4.06875         0.42569
| 44>    C       -5.80505         4.06255        -0.68083
| 45>    C       -5.64121         5.01306        -1.72535
| 46>    C       -4.83844         4.81465        -2.79471
| 47>    C       -4.69465         5.77824        -3.84071
| 48>    C       -3.99921         5.59439        -4.97678
| 49>    C       -3.25860         4.33181        -5.29491
| 50>    C       -3.93529         6.64821        -6.06029
| 51>    N       -4.66520         7.85397        -5.77686
| 52>    C       -4.09659         8.92724        -5.17233
| 53>    C       -4.76934         9.78147        -4.36128
| 54>    C       -4.22901        10.95640        -3.80169
| 55>    C       -4.82522        11.63008        -2.76881
| 56>    C       -4.42355        12.83896        -2.15031
| 57>    C       -5.19389        13.21055        -1.08979
| 58>    C       -6.23076        12.29861        -0.78758
| 59>    S       -6.24496        10.98976        -1.94188
| 60>    C       -7.11132        12.30105         0.27684
| 61>    C       -7.29456        13.27078         1.28574
| 62>    C       -8.21781        12.91966         2.22327
| 63>    C       -8.80002        11.64083         2.02038
| 64>    S       -8.16451        10.92423         0.55547
| 65>    C       -9.69916        11.01574         2.84390
| 66>    C      -10.20072         9.70912         2.69887
| 67>    S       -9.75246         8.59639         1.43406
| 68>    C      -10.74817         7.36185         2.07676
| 69>    C      -11.39822         7.76277         3.21062
| 70>    C      -11.09916         9.08895         3.56981
| 71>    O      -11.59720         9.76517         4.64223
| 72>    C      -12.46394         9.27333         5.53303
| 73>    O      -12.83890         9.97612         6.43356
| 74>    C      -12.99518         7.84598         5.45341
| 75>    O      -13.76367         7.43551         6.27782
| 76>    S      -12.49339         6.75182         4.14769
| 77>    H       -4.63146         1.18714         6.00587
| 78>    H       -3.68182        -3.27352         3.93140
| 79>    H       -4.25165        -0.15258         8.44209
| 80>    H       -4.44567         0.43597        -0.24572
| 81>    H       -8.76217         4.22244         2.84279
| 82>    H       -6.21955         5.91914        -1.61416
| 83>    H       -4.29506         3.88439        -2.87184
| 84>    H       -5.20458         6.71604        -3.66622
| 85>    H       -3.93886         3.48205        -5.32390
| 86>    H       -2.50566         4.12771        -4.53533
| 87>    H       -2.76222         4.40601        -6.25888
| 88>    H       -4.32869         6.20797        -6.98626
| 89>    H       -2.88785         6.91173        -6.24119
| 90>    H       -5.64717         7.71370        -5.57767
| 91>    H       -3.05028         9.08277        -5.39851
| 92>    H       -5.78966         9.54160        -4.08784
| 93>    H       -3.29067        11.33390        -4.18445
| 94>    H       -3.57659        13.39603        -2.51112
| 95>    H       -5.03109        14.09595        -0.50170
| 96>    H       -6.74735        14.19661         1.29077
| 97>    H       -8.49069        13.52676         3.06807
| 98>    H      -10.04916        11.55527         3.71350
| 99>    H      -10.79141         6.40905         1.59308
|100> *
|101>
|102>                          ****END OF INPUT****

CARTESIAN COORDINATES (ANGSTROEM)
---------------------------------
  C     -4.266550   -1.034920    2.141280
  C     -4.080930   -2.029450    1.212500
  C     -3.735650   -3.358520    1.532440
  N     -3.439160   -4.450620    1.727190
  C     -4.200950   -1.869360   -0.182540
  N     -4.281280   -1.815350   -1.327340
  C     -4.173690   -1.194150    3.586670
  C     -4.437410    0.053360    4.205230
  C     -4.425340    0.223490    5.567870
  C     -4.148620   -0.894020    6.362490
  C     -3.885830   -2.136700    5.737010
  C     -3.892000   -2.307200    4.358330
  S     -3.561640   -3.382680    6.903370
  C     -3.781910   -2.234550    8.197370
  C     -4.082850   -0.981850    7.779710
  Br    -3.589800   -2.797400    9.975160
  C     -4.694310    1.071280    3.171840
  O     -4.783870    2.265850    3.338840
  C     -4.642260    0.338550    1.872040
  C     -4.788280    0.929520    0.653650
  C     -5.391750    2.198130    0.456320
  O     -5.076950    2.917640   -0.657770
  C     -6.376280    2.880120    1.145620
  C     -7.318520    2.792820    2.269600
  O     -7.525560    1.921090    3.070370
  N     -8.035630    3.985400    2.181950
  C     -7.709380    4.803170    1.103150
  O     -8.247900    5.847890    0.840080
  C     -6.636950    4.068750    0.425690
  C     -5.805050    4.062550   -0.680830
  C     -5.641210    5.013060   -1.725350
  C     -4.838440    4.814650   -2.794710
  C     -4.694650    5.778240   -3.840710
  C     -3.999210    5.594390   -4.976780
  C     -3.258600    4.331810   -5.294910
  C     -3.935290    6.648210   -6.060290
  N     -4.665200    7.853970   -5.776860
  C     -4.096590    8.927240   -5.172330
  C     -4.769340    9.781470   -4.361280
  C     -4.229010   10.956400   -3.801690
  C     -4.825220   11.630080   -2.768810
  C     -4.423550   12.838960   -2.150310
  C     -5.193890   13.210550   -1.089790
  C     -6.230760   12.298610   -0.787580
  S     -6.244960   10.989760   -1.941880
  C     -7.111320   12.301050    0.276840
  C     -7.294560   13.270780    1.285740
  C     -8.217810   12.919660    2.223270
  C     -8.800020   11.640830    2.020380
  S     -8.164510   10.924230    0.555470
  C     -9.699160   11.015740    2.843900
  C    -10.200720    9.709120    2.698870
  S     -9.752460    8.596390    1.434060
  C    -10.748170    7.361850    2.076760
  C    -11.398220    7.762770    3.210620
  C    -11.099160    9.088950    3.569810
  O    -11.597200    9.765170    4.642230
  C    -12.463940    9.273330    5.533030
  O    -12.838900    9.976120    6.433560
  C    -12.995180    7.845980    5.453410
  O    -13.763670    7.435510    6.277820
  S    -12.493390    6.751820    4.147690
  H     -4.631460    1.187140    6.005870
  H     -3.681820   -3.273520    3.931400
  H     -4.251650   -0.152580    8.442090
  H     -4.445670    0.435970   -0.245720
  H     -8.762170    4.222440    2.842790
  H     -6.219550    5.919140   -1.614160
  H     -4.295060    3.884390   -2.871840
  H     -5.204580    6.716040   -3.666220
  H     -3.938860    3.482050   -5.323900
  H     -2.505660    4.127710   -4.535330
  H     -2.762220    4.406010   -6.258880
  H     -4.328690    6.207970   -6.986260
  H     -2.887850    6.911730   -6.241190
  H     -5.647170    7.713700   -5.577670
  H     -3.050280    9.082770   -5.398510
  H     -5.789660    9.541600   -4.087840
  H     -3.290670   11.333900   -4.184450
  H     -3.576590   13.396030   -2.511120
  H     -5.031090   14.095950   -0.501700
  H     -6.747350   14.196610    1.290770
  H     -8.490690   13.526760    3.068070
  H    -10.049160   11.555270    3.713500
  H    -10.791410    6.409050    1.593080

 Total Charge           Charge          ....    0
 Multiplicity           Mult            ....    1
 Number of Electrons    NEL             ....  492
 Basis Dimension        Dim             .... 1021

ORBITAL ENERGIES
----------------

  NO   OCC          E(Eh)            E(eV)
   0   2.0000    -482.887569    -13140.0388
   1   2.0000     -88.978290     -2421.2224
   2   2.0000     -88.957670     -2420.6613
   3   2.0000     -88.955751     -2420.6091
   4   2.0000     -88.934854     -2420.0404
   5   2.0000     -88.934395     -2420.0279
   6   2.0000     -62.565303     -1702.4885
   7   2.0000     -56.399259     -1534.7019
   8   2.0000     -56.396530     -1534.6276
   9   2.0000     -56.396502     -1534.6268
  10   2.0000     -19.322518      -525.7924
  11   2.0000     -19.292119      -524.9652
  12   2.0000     -19.229581      -523.2635
  13   2.0000     -19.221181      -523.0349
  14   2.0000     -19.220736      -523.0228
  15   2.0000     -19.219892      -522.9999
  16   2.0000     -19.214146      -522.8435
  17   2.0000     -14.462059      -393.5326
  18   2.0000     -14.443808      -393.0360
  19   2.0000     -14.423510      -392.4837
  20   2.0000     -14.421077      -392.4175
  21   2.0000     -10.418618      -283.5050
  22   2.0000     -10.410125      -283.2739
  23   2.0000     -10.407695      -283.2078
  24   2.0000     -10.396850      -282.9127
  25   2.0000     -10.376634      -282.3626
  26   2.0000     -10.373127      -282.2671
  27   2.0000     -10.369366      -282.1648
  28   2.0000     -10.361754      -281.9577
  29   2.0000     -10.349784      -281.6319
  30   2.0000     -10.348643      -281.6009
  31   2.0000     -10.340807      -281.3877
  32   2.0000     -10.331430      -281.1325
  33   2.0000     -10.329780      -281.0876
  34   2.0000     -10.329098      -281.0690
  35   2.0000     -10.326052      -280.9862
  36   2.0000     -10.323679      -280.9216
  37   2.0000     -10.323568      -280.9186
  38   2.0000     -10.312865      -280.6273
  39   2.0000     -10.312579      -280.6195
  40   2.0000     -10.311097      -280.5792
  41   2.0000     -10.309722      -280.5418
  42   2.0000     -10.309553      -280.5372
  43   2.0000     -10.308207      -280.5006
  44   2.0000     -10.306529      -280.4549
  45   2.0000     -10.304417      -280.3974
  46   2.0000     -10.304397      -280.3969
  47   2.0000     -10.303941      -280.3845
  48   2.0000     -10.301087      -280.3068
  49   2.0000     -10.300076      -280.2793
  50   2.0000     -10.299851      -280.2732
  51   2.0000     -10.298981      -280.2495
  52   2.0000     -10.298325      -280.2317
  53   2.0000     -10.296087      -280.1708
  54   2.0000     -10.294766      -280.1348
  55   2.0000     -10.293351      -280.0963
  56   2.0000     -10.293073      -280.0888
  57   2.0000     -10.286892      -279.9206
  58   2.0000     -10.284903      -279.8664
  59   2.0000     -10.281651      -279.7779
  60   2.0000     -10.280754      -279.7535
  61   2.0000     -10.277894      -279.6757
  62   2.0000     -10.277787      -279.6728
  63   2.0000     -10.271837      -279.5109
  64   2.0000     -10.271050      -279.4895
  65   2.0000     -10.264439      -279.3096
  66   2.0000      -8.794749      -239.3173
  67   2.0000      -8.074295      -219.7127
  68   2.0000      -8.054409      -219.1716
  69   2.0000      -8.050625      -219.0687
  70   2.0000      -8.031264      -218.5418
  71   2.0000      -8.030749      -218.5278
  72   2.0000      -6.631082      -180.4409
  73   2.0000      -6.616473      -180.0434
  74   2.0000      -6.616258      -180.0375
  75   2.0000      -6.043993      -164.4654
  76   2.0000      -6.039702      -164.3486
  77   2.0000      -6.035511      -164.2346
  78   2.0000      -6.024077      -163.9235
  79   2.0000      -6.020011      -163.8128
  80   2.0000      -6.019996      -163.8124
  81   2.0000      -6.015714      -163.6959
  82   2.0000      -6.015192      -163.6817
  83   2.0000      -6.012675      -163.6132
  84   2.0000      -6.000995      -163.2954
  85   2.0000      -6.000521      -163.2825
  86   2.0000      -5.997037      -163.1877
  87   2.0000      -5.996404      -163.1705
  88   2.0000      -5.992123      -163.0539
  89   2.0000      -5.991609      -163.0400
  90   2.0000      -2.746936       -74.7479
  91   2.0000      -2.742863       -74.6371
  92   2.0000      -2.742690       -74.6324
  93   2.0000      -2.731083       -74.3165
  94   2.0000      -2.731067       -74.3161
  95   2.0000      -1.238678       -33.7062
  96   2.0000      -1.220377       -33.2081
  97   2.0000      -1.164599       -31.6903
  98   2.0000      -1.153658       -31.3926
  99   2.0000      -1.145163       -31.1615
 100   2.0000      -1.135762       -30.9057
 101   2.0000      -1.115609       -30.3573
 102   2.0000      -1.051136       -28.6029
 103   2.0000      -1.048990       -28.5445
 104   2.0000      -1.027823       -27.9685
 105   2.0000      -1.018445       -27.7133
 106   2.0000      -1.000543       -27.2262
 107   2.0000      -0.995249       -27.0821
 108   2.0000      -0.990856       -26.9626
 109   2.0000      -0.983841       -26.7717
 110   2.0000      -0.962745       -26.1976
 111   2.0000      -0.952515       -25.9193
 112   2.0000      -0.943884       -25.6844
 113   2.0000      -0.934056       -25.4169
 114   2.0000      -0.927135       -25.2286
 115   2.0000      -0.914349       -24.8807
 116   2.0000      -0.912800       -24.8385
 117   2.0000      -0.903773       -24.5929
 118   2.0000      -0.893395       -24.3105
 119   2.0000      -0.889456       -24.2033
 120   2.0000      -0.875951       -23.8358
 121   2.0000      -0.870096       -23.6765
 122   2.0000      -0.849169       -23.1071
 123   2.0000      -0.843697       -22.9582
 124   2.0000      -0.840994       -22.8846
 125   2.0000      -0.832930       -22.6652
 126   2.0000      -0.830176       -22.5902
 127   2.0000      -0.811425       -22.0800
 128   2.0000      -0.806130       -21.9359
 129   2.0000      -0.801251       -21.8031
 130   2.0000      -0.786266       -21.3954
 131   2.0000      -0.783930       -21.3318
 132   2.0000      -0.774123       -21.0650
 133   2.0000      -0.767302       -20.8793
 134   2.0000      -0.760351       -20.6902
 135   2.0000      -0.757189       -20.6042
 136   2.0000      -0.753600       -20.5065
 137   2.0000      -0.728703       -19.8290
 138   2.0000      -0.724352       -19.7106
 139   2.0000      -0.712377       -19.3848
 140   2.0000      -0.709234       -19.2992
 141   2.0000      -0.700840       -19.0708
 142   2.0000      -0.695494       -18.9254
 143   2.0000      -0.692791       -18.8518
 144   2.0000      -0.678534       -18.4639
 145   2.0000      -0.669705       -18.2236
 146   2.0000      -0.664288       -18.0762
 147   2.0000      -0.661221       -17.9927
 148   2.0000      -0.639787       -17.4095
 149   2.0000      -0.636514       -17.3204
 150   2.0000      -0.631863       -17.1939
 151   2.0000      -0.627248       -17.0683
 152   2.0000      -0.619350       -16.8534
 153   2.0000      -0.616431       -16.7740
 154   2.0000      -0.614102       -16.7106
 155   2.0000      -0.606753       -16.5106
 156   2.0000      -0.603530       -16.4229
 157   2.0000      -0.603095       -16.4111
 158   2.0000      -0.598719       -16.2920
 159   2.0000      -0.594023       -16.1642
 160   2.0000      -0.590091       -16.0572
 161   2.0000      -0.587344       -15.9825
 162   2.0000      -0.578663       -15.7462
 163   2.0000      -0.577485       -15.7142
 164   2.0000      -0.574493       -15.6328
 165   2.0000      -0.566302       -15.4099
 166   2.0000      -0.563743       -15.3402
 167   2.0000      -0.560640       -15.2558
 168   2.0000      -0.556809       -15.1516
 169   2.0000      -0.555731       -15.1222
 170   2.0000      -0.551685       -15.0121
 171   2.0000      -0.546086       -14.8597
 172   2.0000      -0.541020       -14.7219
 173   2.0000      -0.537670       -14.6308
 174   2.0000      -0.535494       -14.5715
 175   2.0000      -0.532630       -14.4936
 176   2.0000      -0.528955       -14.3936
 177   2.0000      -0.527484       -14.3536
 178   2.0000      -0.525150       -14.2900
 179   2.0000      -0.520238       -14.1564
 180   2.0000      -0.517528       -14.0826
 181   2.0000      -0.516335       -14.0502
 182   2.0000      -0.514371       -13.9967
 183   2.0000      -0.512212       -13.9380
 184   2.0000      -0.510093       -13.8803
 185   2.0000      -0.503642       -13.7048
 186   2.0000      -0.501048       -13.6342
 187   2.0000      -0.499667       -13.5966
 188   2.0000      -0.497697       -13.5430
 189   2.0000      -0.493363       -13.4251
 190   2.0000      -0.491421       -13.3722
 191   2.0000      -0.488815       -13.3013
 192   2.0000      -0.487044       -13.2531
 193   2.0000      -0.484731       -13.1902
 194   2.0000      -0.482610       -13.1325
 195   2.0000      -0.481541       -13.1034
 196   2.0000      -0.479698       -13.0532
 197   2.0000      -0.478646       -13.0246
 198   2.0000      -0.477024       -12.9805
 199   2.0000      -0.474612       -12.9148
 200   2.0000      -0.469545       -12.7770
 201   2.0000      -0.466513       -12.6945
 202   2.0000      -0.461639       -12.5618
 203   2.0000      -0.455694       -12.4001
 204   2.0000      -0.455475       -12.3941
 205   2.0000      -0.454934       -12.3794
 206   2.0000      -0.450344       -12.2545
 207   2.0000      -0.449876       -12.2417
 208   2.0000      -0.443564       -12.0700
 209   2.0000      -0.442944       -12.0531
 210   2.0000      -0.436014       -11.8646
 211   2.0000      -0.433863       -11.8060
 212   2.0000      -0.432923       -11.7804
 213   2.0000      -0.430454       -11.7133
 214   2.0000      -0.430154       -11.7051
 215   2.0000      -0.426160       -11.5964
 216   2.0000      -0.420460       -11.4413
 217   2.0000      -0.417995       -11.3742
 218   2.0000      -0.416848       -11.3430
 219   2.0000      -0.414646       -11.2831
 220   2.0000      -0.406055       -11.0493
 221   2.0000      -0.397799       -10.8247
 222   2.0000      -0.395046       -10.7498
 223   2.0000      -0.389053       -10.5867
 224   2.0000      -0.384906       -10.4738
 225   2.0000      -0.382031       -10.3956
 226   2.0000      -0.379767       -10.3340
 227   2.0000      -0.376787       -10.2529
 228   2.0000      -0.376576       -10.2472
 229   2.0000      -0.373711       -10.1692
 230   2.0000      -0.368294       -10.0218
 231   2.0000      -0.362457        -9.8630
 232   2.0000      -0.354722        -9.6525
 233   2.0000      -0.345460        -9.4005
 234   2.0000      -0.343861        -9.3569
 235   2.0000      -0.337933        -9.1956
 236   2.0000      -0.329822        -8.9749
 237   2.0000      -0.326981        -8.8976
 238   2.0000      -0.318178        -8.6581
 239   2.0000      -0.315975        -8.5981
 240   2.0000      -0.303926        -8.2703
 241   2.0000      -0.297193        -8.0870
 242   2.0000      -0.288169        -7.8415
 243   2.0000      -0.275104        -7.4859
 244   2.0000      -0.260296        -7.0830
 245   2.0000      -0.198450        -5.4001
 246   0.0000      -0.106314        -2.8930
 247   0.0000      -0.067571        -1.8387
 248   0.0000      -0.064504        -1.7553
 249   0.0000      -0.058553        -1.5933
 250   0.0000      -0.034983        -0.9519

MULLIKEN ATOMIC CHARGES
-----------------------
   0 C :    0.306929
   1 C :   -0.343286
   2 C :   -0.182214
   3 N :    0.155749
   4 C :   -0.192923
   5 N :    0.153334
   6 C :    0.020985
   7 C :   -0.017199
   8 C :   -0.059698
   9 C :    0.116624
  10 C :   -0.089924
  11 C :   -0.021876
  12 S :    0.189128
  13 C :   -0.123064
  14 C :    0.040534
  15 Br:    0.028497
  16 C :    0.159887
  17 O :   -0.145529
  18 C :   -0.074743
  19 C :   -0.037236
  20 C :    0.116865
  21 O :   -0.202190
  22 C :   -0.015691
  23 C :    0.187063
  24 O :   -0.138034
  25 N :   -0.165619
  26 C :    0.179231
  27 O :   -0.150320
  28 C :   -0.048167
  29 C :    0.103302
  30 C :   -0.037402
  31 C :    0.044531
  32 C :    0.003768
  33 C :   -0.210649
  34 C :    0.076760
  35 C :    0.196360
  36 N :   -0.152863
  37 C :    0.061088
  38 C :   -0.031091
  39 C :   -0.001416
  40 C :   -0.041145
  41 C :    0.043866
  42 C :    0.019500
  43 C :   -0.042875
  44 S :    0.049491
  45 C :   -0.044948
  46 C :    0.033275
  47 C :    0.027050
  48 C :   -0.020351
  49 S :    0.046083
  50 C :   -0.022755
  51 C :   -0.147262
  52 S :    0.161617
  53 C :   -0.125015
  54 C :   -0.034667
  55 C :    0.172564
  56 O :   -0.192602
  57 C :    0.203430
  58 O :   -0.128854
  59 C :   -0.010194
  60 O :   -0.129402
  61 S :    0.106760
  62 H :   -0.007331
  63 H :   -0.005349
  64 H :   -0.000550
  65 H :    0.032160
  66 H :    0.141763
  67 H :    0.016832
  68 H :    0.003695
  69 H :   -0.025829
  70 H :    0.046328
  71 H :    0.045783
  72 H :    0.015835
  73 H :    0.034232
  74 H :    0.031989
  75 H :    0.121654
  76 H :    0.001460
  77 H :   -0.007035
  78 H :   -0.019271
  79 H :   -0.017272
  80 H :   -0.018566
  81 H :   -0.017492
  82 H :   -0.014753
  83 H :   -0.000090
  84 H :    0.018741
Sum of atomic charges:   -0.0000000

LOEWDIN ATOMIC CHARGES
----------------------
   0 C :    0.074724
   1 C :   -0.135392
   2 C :   -0.018191
   3 N :   -0.048489
   4 C :   -0.020106
   5 N :   -0.050565
   6 C :   -0.020418
   7 C :   -0.045406
   8 C :    0.027705
   9 C :   -0.029708
  10 C :   -0.142376
  11 C :   -0.008908
  12 S :    0.434470
  13 C :   -0.269716
  14 C :   -0.069178
  15 Br:    0.140600
  16 C :    0.089151
  17 O :   -0.131087
  18 C :   -0.067464
  19 C :    0.044866
  20 C :    0.047293
  21 O :    0.020478
  22 C :   -0.051732
  23 C :    0.090947
  24 O :   -0.144226
  25 N :   -0.000402
  26 C :    0.092084
  27 O :   -0.162322
  28 C :   -0.101776
  29 C :    0.087739
  30 C :   -0.048058
  31 C :    0.021686
  32 C :   -0.064172
  33 C :   -0.015642
  34 C :   -0.050721
  35 C :    0.038221
  36 N :   -0.007082
  37 C :    0.045632
  38 C :   -0.122204
  39 C :   -0.034394
  40 C :   -0.170128
  41 C :   -0.025736
  42 C :   -0.047488
  43 C :   -0.166523
  44 S :    0.357187
  45 C :   -0.196475
  46 C :   -0.031562
  47 C :   -0.043072
  48 C :   -0.144242
  49 S :    0.357816
  50 C :   -0.088930
  51 C :   -0.189012
  52 S :    0.480594
  53 C :   -0.214288
  54 C :   -0.234467
  55 C :   -0.024173
  56 O :   -0.015150
  57 C :    0.044532
  58 O :   -0.106846
  59 C :   -0.107510
  60 O :   -0.104844
  61 S :    0.366758
  62 H :    0.042890
  63 H :    0.041193
  64 H :    0.040050
  65 H :    0.051304
  66 H :    0.096404
  67 H :    0.047084
  68 H :    0.031651
  69 H :    0.025683
  70 H :    0.044335
  71 H :    0.044072
  72 H :    0.031544
  73 H :    0.035467
  74 H :    0.038307
  75 H :    0.076978
  76 H :    0.026539
  77 H :    0.016462
  78 H :    0.030563
  79 H :    0.031667
  80 H :    0.029853
  81 H :    0.030853
  82 H :    0.032364
  83 H :    0.041535
  84 H :    0.020897

  Mayer bond orders larger than 0.100000
B(  0-C ,  1-C ) :   1.6343 B(  0-C ,  6-C ) :   1.0137 B(  0-C , 18-C ) :   1.0745
B(  1-C ,  2-C ) :   1.1414 B(  1-C ,  4-C ) :   1.1450 B(  2-C ,  3-N ) :   2.9690
B(  4-C ,  5-N ) :   2.9722 B(  6-C ,  7-C ) :   1.2692 B(  6-C , 11-C ) :   1.4019
B(  7-C ,  8-C ) :   1.4279 B(  7-C , 16-C ) :   0.9413 B(  8-C ,  9-C ) :   1.2481
B(  8-C , 62-H ) :   1.0157 B(  9-C , 10-C ) :   1.2997 B(  9-C , 14-C ) :   1.1642
B( 10-C , 11-C ) :   1.3382 B( 10-C , 12-S ) :   1.0873 B( 11-C , 63-H ) :   0.9789
B( 12-S , 13-C ) :   1.0863 B( 13-C , 14-C ) :   1.6169 B( 13-C , 15-Br) :   1.0220
B( 14-C , 64-H ) :   1.0004 B( 16-C , 17-O ) :   2.2233 B( 16-C , 18-C ) :   0.9254
B( 18-C , 19-C ) :   1.6186 B( 19-C , 20-C ) :   1.1529 B( 19-C , 65-H ) :   0.9324
B( 20-C , 21-O ) :   1.1213 B( 20-C , 22-C ) :   1.4448 B( 21-O , 29-C ) :   1.1742
B( 22-C , 23-C ) :   0.8652 B( 22-C , 28-C ) :   1.3109 B( 23-C , 24-O ) :   2.2426
B( 23-C , 25-N ) :   1.0826 B( 25-N , 26-C ) :   1.0846 B( 25-N , 66-H ) :   0.9147
B( 26-C , 27-O ) :   2.2203 B( 26-C , 28-C ) :   0.8892 B( 28-C , 29-C ) :   1.3616
B( 29-C , 30-C ) :   1.1540 B( 30-C , 31-C ) :   1.6429 B( 30-C , 67-H ) :   0.9702
B( 31-C , 32-C ) :   1.1029 B( 31-C , 68-H ) :   0.9819 B( 32-C , 33-C ) :   1.7658
B( 32-C , 69-H ) :   0.9684 B( 33-C , 34-C ) :   1.0789 B( 33-C , 35-C ) :   0.9978
B( 34-C , 70-H ) :   0.9466 B( 34-C , 71-H ) :   0.9459 B( 34-C , 72-H ) :   0.9571
B( 35-C , 36-N ) :   1.0634 B( 35-C , 73-H ) :   0.9315 B( 35-C , 74-H ) :   0.9255
B( 36-N , 37-C ) :   1.1944 B( 36-N , 75-H ) :   0.9396 B( 37-C , 38-C ) :   1.6317
B( 37-C , 76-H ) :   0.9657 B( 38-C , 39-C ) :   1.1561 B( 38-C , 77-H ) :   0.9565
B( 39-C , 40-C ) :   1.6008 B( 39-C , 78-H ) :   0.9807 B( 40-C , 41-C ) :   1.1426
B( 40-C , 44-S ) :   1.0091 B( 41-C , 42-C ) :   1.5928 B( 41-C , 79-H ) :   0.9977
B( 42-C , 43-C ) :   1.1874 B( 42-C , 80-H ) :   0.9940 B( 43-C , 44-S ) :   1.0580
B( 43-C , 45-C ) :   1.5096 B( 45-C , 46-C ) :   1.1909 B( 45-C , 49-S ) :   1.0262
B( 46-C , 47-C ) :   1.5903 B( 46-C , 81-H ) :   0.9925 B( 47-C , 48-C ) :   1.1416
B( 47-C , 82-H ) :   1.0003 B( 48-C , 49-S ) :   1.0430 B( 48-C , 50-C ) :   1.5597
B( 50-C , 51-C ) :   1.1794 B( 50-C , 83-H ) :   0.9708 B( 51-C , 52-S ) :   1.1237
B( 51-C , 55-C ) :   1.4687 B( 52-S , 53-C ) :   1.1713 B( 53-C , 54-C ) :   1.5281
B( 53-C , 84-H ) :   0.9797 B( 54-C , 55-C ) :   1.2786 B( 54-C , 61-S ) :   0.9387
B( 55-C , 56-O ) :   1.0648 B( 56-O , 57-C ) :   1.1095 B( 57-C , 58-O ) :   2.2227
B( 57-C , 59-C ) :   0.8005 B( 59-C , 60-O ) :   2.1587 B( 59-C , 61-S ) :   1.0545
B( 60-O , 61-S ) :   0.1424

-----------------------------------------------------------------------------
         ABSORPTION SPECTRUM VIA TRANSITION ELECTRIC DIPOLE MOMENTS
-----------------------------------------------------------------------------
State   Energy  Wavelength   fosc         T2         TX        TY        TZ
        (cm-1)    (nm)                  (au**2)     (au)      (au)      (au)
-----------------------------------------------------------------------------
   0   10056.7    994.4   0.002119453   0.06938   0.12171  -0.23342   0.00908
   1   15720.3    636.1   1.021387210  21.38974   3.08534  -0.06222  -3.44479
   2   16668.8    599.9   0.038270996   0.75586   0.51191   0.21999  -0.66739
   3   19751.4    506.3   0.051429925   0.85722  -0.17695   0.74882  -0.51496
   4   19787.1    505.4   0.700036469  11.64698  -0.49330   2.74756  -1.96330
   5   21287.3    469.8   0.019732103   0.30516   0.20640  -0.23430  -0.45570
   6   23358.3    428.1   0.001292271   0.01821  -0.11984   0.04022   0.04726
   7   25146.9    397.7   0.189432582   2.47997   0.01349  -0.13110   1.56927
   8   25241.5    396.2   0.014442244   0.18836  -0.27830  -0.33104  -0.03636
   9   26070.9    383.6   0.072165890   0.91128  -0.01199  -0.84789   0.43842
  10   27934.2    358.0   0.012488364   0.14718   0.10434  -0.36413   0.06086
  11   28054.7    356.4   0.132671237   1.55685  -0.14560   0.03160  -1.23881
  12   28392.8    352.2   0.014730508   0.17080   0.17898   0.18243  -0.32479
  13   29189.2    342.6   0.000545864   0.00616   0.07597   0.00590  -0.01871
  14   29811.3    335.4   0.657643195   7.26248  -1.11371  -2.23859   1.00541
  15   30123.1    332.0   0.370348709   4.04750  -0.72063  -1.87794   0.03937
  16   30233.7    330.8   0.004236169   0.04613   0.06159   0.20425   0.02483
  17   30702.4    325.7   0.764870965   8.20146   0.59456  -0.52729  -2.75135
  18   31699.8    315.5   0.074348134   0.77213  -0.01422  -0.04013   0.87768
  19   32136.0    311.2   0.432625735   4.43197   0.36244   0.04193   2.07337
  20   32532.7    307.4   0.107799004   1.09086   0.32277  -0.60678  -0.78645
  21   32760.8    305.2   0.000232275   0.00233  -0.00448   0.02478  -0.04123
  22   32805.8    304.8   0.016166571   0.16223   0.33634  -0.20473  -0.08482
  23   33061.3    302.5   0.013084930   0.13029   0.02931  -0.21222  -0.29051
  24   33185.2    301.3   0.029959491   0.29721   0.07830  -0.45075  -0.29649
  25   33338.9    299.9   0.015152792   0.14963  -0.24958   0.23984   0.17268
  26   33547.4    298.1   0.151463438   1.48636  -0.87116   0.72572   0.44808
  27   33782.6    296.0   0.020426304   0.19905  -0.05538  -0.41956  -0.14127
  28   34451.1    290.3   0.052321609   0.49998  -0.38690   0.04719   0.58997
  29   34627.1    288.8   0.000760100   0.00723   0.04374   0.00407  -0.07278
  30   35322.4    283.1   0.077427884   0.72164   0.41284  -0.20691  -0.71302
  31   35980.5    277.9   0.001668174   0.01526   0.00273   0.07498  -0.09815
  32   36097.3    277.0   0.004607210   0.04202  -0.07172   0.17032   0.08869
  33   36373.3    274.9   0.011266680   0.10197   0.00281   0.22225   0.22929
  34   36628.2    273.0   0.320393845   2.87968   0.58420  -1.58708  -0.13990
  35   37015.7    270.2   0.017500438   0.15565   0.36412   0.08805  -0.12374
  36   38178.1    261.9   0.001408656   0.01215   0.04118  -0.01524  -0.10109
  37   38341.8    260.8   0.000150406   0.00129  -0.03531  -0.00426   0.00514
  38   38371.3    260.6   0.020572218   0.17650   0.03629   0.08443  -0.40995
  39   38653.2    258.7   0.001760580   0.01499  -0.12126  -0.01624   0.00518
  40   39236.5    254.9   0.050166763   0.42092  -0.05487  -0.63846  -0.10136
  41   39305.7    254.4   0.024373252   0.20414   0.07849  -0.41622  -0.15729
  42   39674.9    252.0   0.016947722   0.14063  -0.14404   0.24571   0.24394
  43   39764.0    251.5   0.058900477   0.48765   0.30073  -0.29989  -0.55432
  44   39848.4    251.0   0.034844381   0.28787   0.45154   0.08981  -0.27552
  45   39881.7    250.7   0.025732412   0.21241  -0.10941  -0.35352   0.27471
  46   40272.8    248.3   0.002316224   0.01893   0.11922   0.02593   0.06363

FINAL SINGLE POINT ENERGY     -7035.357795862748

DIPOLE MOMENT
-------------
                                X             Y             Z
Electronic contribution:      3.57669    -113.59308     142.61961
Nuclear contribution   :     -0.19582     114.20946    -145.55450
                        -----------------------------------------
Total Dipole Moment    :      3.38086       0.61638      -2.93489
                        -----------------------------------------
Magnitude (a.u.)       :      4.51927
Magnitude (Debye)      :     11.48706

Rotational constants in cm-1:     0.000997     0.000429     0.000331
Rotational constants in MHz :    29.881765    12.847750     9.913573

                             ****ORCA TERMINATED NORMALLY****
TOTAL RUN TIME: 0 days 0 hours 7 minutes 9 seconds 768 msec
