                         Program Version 4.2.0 -  RELEASE  -
|  1> # ORCA input file
|  2> # SCF done       -181.394036192242          0.000257208048
|  3> ! CAM-B3LYP def2-SVP def2/J RIJCOSX Grid4 TightSCF
|  4> %maxcore 5000
|  5> %tddft
|  6>     Mode sTDDFT
|  7>     Ethresh 5.0
|  8>     maxcore 5000
|  9> end
| 10>
| 11> %pal
| 12>   nprocs 6
| 13>   end
| 14> * xyz 0 1
| 15>    C       14.74957       -12.78700        -8.31787
| 16>    C       13.48368       -13.19021        -8.14649
| 17>    C       12.97895       -14.53421        -8.19023
| 18>    C       11.64798       -14.63373        -7.98832
| 19>    C       10.99304       -13.38539        -7.77192
| 20>    S       12.14494       -12.07403        -7.82496
| 21>    C        9.65078       -13.17582        -7.55650
| 22>    C        8.61784       -14.14618        -7.51377
| 23>    C        7.38727       -13.61622        -7.30253
| 24>    C        7.37328       -12.19707        -7.17639
| 25>    S        8.99075       -11.56592        -7.32580
| 26>    C        6.23834       -11.46751        -6.92257
| 27>    C        6.08048       -10.07492        -6.82579
| 28>    O        4.88463        -9.64574        -6.31749
| 29>    C        6.83928        -8.94809        -7.13884
| 30>    C        8.06464        -8.46515        -7.77191
| 31>    O        8.96535        -9.03979        -8.33257
| 32>    N        7.98029        -7.07797        -7.65657
| 33>    C        6.80481        -6.59647        -7.08867
| 34>    O        6.53718        -5.43597        -6.92801
| 35>    C        6.05932        -7.82108        -6.77496
| 36>    C        4.85636        -8.28315        -6.28101
| 37>    C        3.70212        -7.58765        -5.84171
| 38>    C        2.58253        -8.22110        -5.41265
| 39>    C        1.39274        -7.54148        -5.04774
| 40>    O        0.31037        -8.26543        -4.64092
| 41>    C        1.03482        -6.20675        -5.05617
| 42>    C        1.50735        -4.85037        -5.33079
| 43>    O        2.57707        -4.43749        -5.69404
| 44>    N        0.38826        -4.05337        -5.07286
| 45>    C       -0.74748        -4.74059        -4.66957
| 46>    O       -1.81634        -4.23523        -4.42163
| 47>    C       -0.32351        -6.13923        -4.64933
| 48>    C       -0.73506        -7.43262        -4.39873
| 49>    C       -1.98994        -7.97545        -3.98869
| 50>    C       -3.09284        -7.22014        -3.84489
| 51>    C       -4.37546        -7.76109        -3.39999
| 52>    C       -4.40617        -8.44732        -2.19492
| 53>    C       -5.59216        -8.93169        -1.62455
| 54>    C       -6.80469        -8.75530        -2.29103
| 55>    C       -6.79150        -8.11033        -3.51076
| 56>    C       -5.59309        -7.60677        -4.08704
| 57>    N       -5.87320        -7.07175        -5.31670
| 58>    C       -7.23162        -7.20082        -5.55455
| 59>    C       -7.84069        -7.83163        -4.44636
| 60>    C       -9.20546        -8.08365        -4.41911
| 61>    C       -9.96395        -7.70004        -5.50533
| 62>    C       -9.36747        -7.07776        -6.59881
| 63>    C       -8.01016        -6.82139        -6.64215
| 64>    C       -4.89247        -6.59502        -6.27045
| 65>    C       -4.84839        -7.50342        -7.50938
| 66>    C       -4.45575        -8.92986        -7.14114
| 67>    C       -5.10752        -5.11677        -6.62570
| 68>    C       -5.08518        -4.21735        -5.39518
| 69>    C       -5.56830        -9.59296        -0.34720
| 70>    O       -4.39589        -9.73461         0.32377
| 71>    C       -6.57331       -10.15317         0.41279
| 72>    C       -8.00552       -10.43375         0.48466
| 73>    O       -8.90725       -10.19809        -0.28157
| 74>    N       -8.15860       -11.08252         1.70855
| 75>    C       -6.98829       -11.25740         2.44424
| 76>    O       -6.92088       -11.79380         3.51981
| 77>    C       -5.95938       -10.65134         1.59714
| 78>    C       -4.61821       -10.37256         1.50512
| 79>    C       -3.54327       -10.64298         2.41773
| 80>    C       -2.27652       -10.29530         2.20166
| 81>    H       15.53256       -13.49842        -8.51347
| 82>    H       15.02271       -11.74896        -8.26855
| 83>    H       13.63911       -15.36313        -8.37444
| 84>    H       11.10117       -15.55973        -7.98875
| 85>    H        8.81166       -15.19574        -7.64314
| 86>    H        6.47848       -14.18849        -7.24069
| 87>    H        5.33125       -12.02836        -6.73779
| 88>    H        8.70063        -6.46761        -8.01477
| 89>    H        3.75417        -6.50883        -5.88844
| 90>    H        2.55266        -9.30000        -5.35649
| 91>    H        0.40751        -3.04887        -5.17674
| 92>    H       -2.02163        -9.04615        -3.84344
| 93>    H       -3.02777        -6.14958        -3.99252
| 94>    H       -3.48242        -8.57694        -1.65225
| 95>    H       -7.72661        -9.12089        -1.86947
| 96>    H       -9.65124        -8.56736        -3.56397
| 97>    H      -11.02804        -7.88083        -5.51345
| 98>    H       -9.98067        -6.78626        -7.43891
| 99>    H       -7.59425        -6.33736        -7.51072
|100>    H       -3.91973        -6.68112        -5.77807
|101>    H       -4.11598        -7.09162        -8.20612
|102>    H       -5.81643        -7.51507        -8.00889
|103>    H       -3.48179        -8.94602        -6.65566
|104>    H       -4.40639        -9.54999        -8.03264
|105>    H       -5.18496        -9.36743        -6.46265
|106>    H       -6.05616        -4.99032        -7.14644
|107>    H       -4.31156        -4.81587        -7.30940
|108>    H       -5.82135        -4.54538        -4.66446
|109>    H       -5.32137        -3.19494        -5.67911
|110>    H       -4.10302        -4.21825        -4.93069
|111>    H       -9.05797       -11.40225         2.03874
|112>    H       -3.84877       -11.15920         3.31645
|113>    H       -1.98308        -9.77844         1.30365
|114>    H       -1.50313       -10.51563         2.91538
|115> *
|116>
|117>                          ****END OF INPUT****

CARTESIAN COORDINATES (ANGSTROEM)
---------------------------------
  C     14.749570  -12.787000   -8.317870
  C     13.483680  -13.190210   -8.146490
  C     12.978950  -14.534210   -8.190230
  C     11.647980  -14.633730   -7.988320
  C     10.993040  -13.385390   -7.771920
  S     12.144940  -12.074030   -7.824960
  C      9.650780  -13.175820   -7.556500
  C      8.617840  -14.146180   -7.513770
  C      7.387270  -13.616220   -7.302530
  C      7.373280  -12.197070   -7.176390
  S      8.990750  -11.565920   -7.325800
  C      6.238340  -11.467510   -6.922570
  C      6.080480  -10.074920   -6.825790
  O      4.884630   -9.645740   -6.317490
  C      6.839280   -8.948090   -7.138840
  C      8.064640   -8.465150   -7.771910
  O      8.965350   -9.039790   -8.332570
  N      7.980290   -7.077970   -7.656570
  C      6.804810   -6.596470   -7.088670
  O      6.537180   -5.435970   -6.928010
  C      6.059320   -7.821080   -6.774960
  C      4.856360   -8.283150   -6.281010
  C      3.702120   -7.587650   -5.841710
  C      2.582530   -8.221100   -5.412650
  C      1.392740   -7.541480   -5.047740
  O      0.310370   -8.265430   -4.640920
  C      1.034820   -6.206750   -5.056170
  C      1.507350   -4.850370   -5.330790
  O      2.577070   -4.437490   -5.694040
  N      0.388260   -4.053370   -5.072860
  C     -0.747480   -4.740590   -4.669570
  O     -1.816340   -4.235230   -4.421630
  C     -0.323510   -6.139230   -4.649330
  C     -0.735060   -7.432620   -4.398730
  C     -1.989940   -7.975450   -3.988690
  C     -3.092840   -7.220140   -3.844890
  C     -4.375460   -7.761090   -3.399990
  C     -4.406170   -8.447320   -2.194920
  C     -5.592160   -8.931690   -1.624550
  C     -6.804690   -8.755300   -2.291030
  C     -6.791500   -8.110330   -3.510760
  C     -5.593090   -7.606770   -4.087040
  N     -5.873200   -7.071750   -5.316700
  C     -7.231620   -7.200820   -5.554550
  C     -7.840690   -7.831630   -4.446360
  C     -9.205460   -8.083650   -4.419110
  C     -9.963950   -7.700040   -5.505330
  C     -9.367470   -7.077760   -6.598810
  C     -8.010160   -6.821390   -6.642150
  C     -4.892470   -6.595020   -6.270450
  C     -4.848390   -7.503420   -7.509380
  C     -4.455750   -8.929860   -7.141140
  C     -5.107520   -5.116770   -6.625700
  C     -5.085180   -4.217350   -5.395180
  C     -5.568300   -9.592960   -0.347200
  O     -4.395890   -9.734610    0.323770
  C     -6.573310  -10.153170    0.412790
  C     -8.005520  -10.433750    0.484660
  O     -8.907250  -10.198090   -0.281570
  N     -8.158600  -11.082520    1.708550
  C     -6.988290  -11.257400    2.444240
  O     -6.920880  -11.793800    3.519810
  C     -5.959380  -10.651340    1.597140
  C     -4.618210  -10.372560    1.505120
  C     -3.543270  -10.642980    2.417730
  C     -2.276520  -10.295300    2.201660
  H     15.532560  -13.498420   -8.513470
  H     15.022710  -11.748960   -8.268550
  H     13.639110  -15.363130   -8.374440
  H     11.101170  -15.559730   -7.988750
  H      8.811660  -15.195740   -7.643140
  H      6.478480  -14.188490   -7.240690
  H      5.331250  -12.028360   -6.737790
  H      8.700630   -6.467610   -8.014770
  H      3.754170   -6.508830   -5.888440
  H      2.552660   -9.300000   -5.356490
  H      0.407510   -3.048870   -5.176740
  H     -2.021630   -9.046150   -3.843440
  H     -3.027770   -6.149580   -3.992520
  H     -3.482420   -8.576940   -1.652250
  H     -7.726610   -9.120890   -1.869470
  H     -9.651240   -8.567360   -3.563970
  H    -11.028040   -7.880830   -5.513450
  H     -9.980670   -6.786260   -7.438910
  H     -7.594250   -6.337360   -7.510720
  H     -3.919730   -6.681120   -5.778070
  H     -4.115980   -7.091620   -8.206120
  H     -5.816430   -7.515070   -8.008890
  H     -3.481790   -8.946020   -6.655660
  H     -4.406390   -9.549990   -8.032640
  H     -5.184960   -9.367430   -6.462650
  H     -6.056160   -4.990320   -7.146440
  H     -4.311560   -4.815870   -7.309400
  H     -5.821350   -4.545380   -4.664460
  H     -5.321370   -3.194940   -5.679110
  H     -4.103020   -4.218250   -4.930690
  H     -9.057970  -11.402250    2.038740
  H     -3.848770  -11.159200    3.316450
  H     -1.983080   -9.778440    1.303650
  H     -1.503130  -10.515630    2.915380

 Total Charge           Charge          ....    0
 Multiplicity           Mult            ....    1
 Number of Electrons    NEL             ....  472
 Basis Dimension        Dim             .... 1102

ORBITAL ENERGIES
----------------

  NO   OCC          E(Eh)            E(eV)
   0   2.0000     -88.945690     -2420.3353
   1   2.0000     -88.944459     -2420.3018
   2   2.0000     -19.310878      -525.4757
   3   2.0000     -19.301972      -525.2334
   4   2.0000     -19.299201      -525.1580
   5   2.0000     -19.215186      -522.8718
   6   2.0000     -19.212130      -522.7886
   7   2.0000     -19.203272      -522.5476
   8   2.0000     -19.200461      -522.4711
   9   2.0000     -19.198961      -522.4303
  10   2.0000     -19.197200      -522.3824
  11   2.0000     -14.455987      -393.3674
  12   2.0000     -14.451154      -393.2359
  13   2.0000     -14.445520      -393.0826
  14   2.0000     -14.442550      -393.0018
  15   2.0000     -10.402763      -283.0736
  16   2.0000     -10.399616      -282.9879
  17   2.0000     -10.391732      -282.7734
  18   2.0000     -10.389992      -282.7261
  19   2.0000     -10.388800      -282.6936
  20   2.0000     -10.388059      -282.6735
  21   2.0000     -10.361747      -281.9575
  22   2.0000     -10.360138      -281.9137
  23   2.0000     -10.358815      -281.8777
  24   2.0000     -10.353382      -281.7298
  25   2.0000     -10.350512      -281.6518
  26   2.0000     -10.347944      -281.5819
  27   2.0000     -10.320994      -280.8485
  28   2.0000     -10.319898      -280.8187
  29   2.0000     -10.313469      -280.6438
  30   2.0000     -10.311757      -280.5972
  31   2.0000     -10.309421      -280.5336
  32   2.0000     -10.304540      -280.4008
  33   2.0000     -10.300867      -280.3008
  34   2.0000     -10.296686      -280.1871
  35   2.0000     -10.295338      -280.1504
  36   2.0000     -10.294569      -280.1295
  37   2.0000     -10.294251      -280.1208
  38   2.0000     -10.294232      -280.1203
  39   2.0000     -10.292603      -280.0760
  40   2.0000     -10.290482      -280.0183
  41   2.0000     -10.288156      -279.9550
  42   2.0000     -10.287404      -279.9345
  43   2.0000     -10.286838      -279.9191
  44   2.0000     -10.285206      -279.8747
  45   2.0000     -10.284886      -279.8660
  46   2.0000     -10.283873      -279.8384
  47   2.0000     -10.283323      -279.8234
  48   2.0000     -10.281577      -279.7759
  49   2.0000     -10.279760      -279.7265
  50   2.0000     -10.278830      -279.7012
  51   2.0000     -10.278596      -279.6948
  52   2.0000     -10.275358      -279.6067
  53   2.0000     -10.275278      -279.6045
  54   2.0000     -10.274893      -279.5941
  55   2.0000     -10.271223      -279.4942
  56   2.0000     -10.265729      -279.3447
  57   2.0000     -10.264759      -279.3183
  58   2.0000     -10.262653      -279.2610
  59   2.0000     -10.262385      -279.2537
  60   2.0000     -10.262245      -279.2499
  61   2.0000     -10.260729      -279.2086
  62   2.0000     -10.258747      -279.1547
  63   2.0000     -10.255368      -279.0627
  64   2.0000     -10.251656      -278.9618
  65   2.0000     -10.239294      -278.6254
  66   2.0000      -8.042386      -218.8445
  67   2.0000      -8.040435      -218.7914
  68   2.0000      -6.012187      -163.5999
  69   2.0000      -6.010142      -163.5443
  70   2.0000      -6.008213      -163.4918
  71   2.0000      -6.005998      -163.4315
  72   2.0000      -6.002970      -163.3491
  73   2.0000      -6.001247      -163.3022
  74   2.0000      -1.225865       -33.3575
  75   2.0000      -1.217821       -33.1386
  76   2.0000      -1.214465       -33.0473
  77   2.0000      -1.157488       -31.4969
  78   2.0000      -1.146235       -31.1906
  79   2.0000      -1.144390       -31.1404
  80   2.0000      -1.137150       -30.9434
  81   2.0000      -1.125555       -30.6279
  82   2.0000      -1.123403       -30.5694
  83   2.0000      -1.081796       -29.4372
  84   2.0000      -1.044106       -28.4116
  85   2.0000      -1.032871       -28.1058
  86   2.0000      -1.031166       -28.0594
  87   2.0000      -0.998430       -27.1687
  88   2.0000      -0.976074       -26.5603
  89   2.0000      -0.958421       -26.0800
  90   2.0000      -0.942004       -25.6332
  91   2.0000      -0.935154       -25.4468
  92   2.0000      -0.925850       -25.1937
  93   2.0000      -0.914611       -24.8878
  94   2.0000      -0.913054       -24.8454
  95   2.0000      -0.912701       -24.8358
  96   2.0000      -0.910135       -24.7660
  97   2.0000      -0.899660       -24.4810
  98   2.0000      -0.890450       -24.2304
  99   2.0000      -0.878984       -23.9184
 100   2.0000      -0.863628       -23.5005
 101   2.0000      -0.856856       -23.3162
 102   2.0000      -0.851253       -23.1638
 103   2.0000      -0.841739       -22.9049
 104   2.0000      -0.837762       -22.7967
 105   2.0000      -0.826223       -22.4827
 106   2.0000      -0.824491       -22.4355
 107   2.0000      -0.816976       -22.2310
 108   2.0000      -0.803688       -21.8695
 109   2.0000      -0.798891       -21.7389
 110   2.0000      -0.785440       -21.3729
 111   2.0000      -0.771257       -20.9870
 112   2.0000      -0.767666       -20.8893
 113   2.0000      -0.764081       -20.7917
 114   2.0000      -0.759229       -20.6597
 115   2.0000      -0.757222       -20.6051
 116   2.0000      -0.755722       -20.5642
 117   2.0000      -0.752393       -20.4736
 118   2.0000      -0.738913       -20.1068
 119   2.0000      -0.725482       -19.7414
 120   2.0000      -0.714192       -19.4342
 121   2.0000      -0.709958       -19.3189
 122   2.0000      -0.704620       -19.1737
 123   2.0000      -0.694931       -18.9100
 124   2.0000      -0.690580       -18.7916
 125   2.0000      -0.688894       -18.7458
 126   2.0000      -0.685956       -18.6658
 127   2.0000      -0.677352       -18.4317
 128   2.0000      -0.676729       -18.4147
 129   2.0000      -0.670866       -18.2552
 130   2.0000      -0.652305       -17.7501
 131   2.0000      -0.644804       -17.5460
 132   2.0000      -0.633022       -17.2254
 133   2.0000      -0.628803       -17.1106
 134   2.0000      -0.618170       -16.8213
 135   2.0000      -0.614765       -16.7286
 136   2.0000      -0.614298       -16.7159
 137   2.0000      -0.606484       -16.5033
 138   2.0000      -0.605131       -16.4665
 139   2.0000      -0.598489       -16.2857
 140   2.0000      -0.596150       -16.2221
 141   2.0000      -0.592300       -16.1173
 142   2.0000      -0.588535       -16.0149
 143   2.0000      -0.585155       -15.9229
 144   2.0000      -0.584422       -15.9029
 145   2.0000      -0.582583       -15.8529
 146   2.0000      -0.579593       -15.7715
 147   2.0000      -0.577347       -15.7104
 148   2.0000      -0.575095       -15.6491
 149   2.0000      -0.573860       -15.6155
 150   2.0000      -0.566180       -15.4065
 151   2.0000      -0.565008       -15.3746
 152   2.0000      -0.559749       -15.2316
 153   2.0000      -0.556982       -15.1562
 154   2.0000      -0.556534       -15.1441
 155   2.0000      -0.553749       -15.0683
 156   2.0000      -0.544449       -14.8152
 157   2.0000      -0.543237       -14.7822
 158   2.0000      -0.538831       -14.6623
 159   2.0000      -0.537909       -14.6372
 160   2.0000      -0.534755       -14.5514
 161   2.0000      -0.534327       -14.5398
 162   2.0000      -0.532575       -14.4921
 163   2.0000      -0.525654       -14.3038
 164   2.0000      -0.523482       -14.2447
 165   2.0000      -0.518403       -14.1065
 166   2.0000      -0.515044       -14.0151
 167   2.0000      -0.513811       -13.9815
 168   2.0000      -0.511588       -13.9210
 169   2.0000      -0.510795       -13.8994
 170   2.0000      -0.507599       -13.8125
 171   2.0000      -0.505817       -13.7640
 172   2.0000      -0.505022       -13.7423
 173   2.0000      -0.502619       -13.6770
 174   2.0000      -0.500311       -13.6141
 175   2.0000      -0.499613       -13.5952
 176   2.0000      -0.496970       -13.5232
 177   2.0000      -0.494871       -13.4661
 178   2.0000      -0.492371       -13.3981
 179   2.0000      -0.490992       -13.3606
 180   2.0000      -0.488366       -13.2891
 181   2.0000      -0.486949       -13.2506
 182   2.0000      -0.485367       -13.2075
 183   2.0000      -0.484757       -13.1909
 184   2.0000      -0.474083       -12.9005
 185   2.0000      -0.473597       -12.8872
 186   2.0000      -0.473091       -12.8734
 187   2.0000      -0.472737       -12.8638
 188   2.0000      -0.467764       -12.7285
 189   2.0000      -0.464348       -12.6355
 190   2.0000      -0.462587       -12.5876
 191   2.0000      -0.461935       -12.5699
 192   2.0000      -0.458086       -12.4651
 193   2.0000      -0.455543       -12.3959
 194   2.0000      -0.452731       -12.3194
 195   2.0000      -0.447433       -12.1753
 196   2.0000      -0.441806       -12.0221
 197   2.0000      -0.437238       -11.8979
 198   2.0000      -0.434939       -11.8353
 199   2.0000      -0.429441       -11.6857
 200   2.0000      -0.425599       -11.5811
 201   2.0000      -0.423875       -11.5342
 202   2.0000      -0.420810       -11.4508
 203   2.0000      -0.420652       -11.4465
 204   2.0000      -0.417185       -11.3522
 205   2.0000      -0.409826       -11.1519
 206   2.0000      -0.405338       -11.0298
 207   2.0000      -0.403057       -10.9677
 208   2.0000      -0.401989       -10.9387
 209   2.0000      -0.396917       -10.8007
 210   2.0000      -0.393552       -10.7091
 211   2.0000      -0.383467       -10.4347
 212   2.0000      -0.380616       -10.3571
 213   2.0000      -0.372954       -10.1486
 214   2.0000      -0.370367       -10.0782
 215   2.0000      -0.367545       -10.0014
 216   2.0000      -0.364843        -9.9279
 217   2.0000      -0.363074        -9.8798
 218   2.0000      -0.359717        -9.7884
 219   2.0000      -0.359028        -9.7697
 220   2.0000      -0.354819        -9.6551
 221   2.0000      -0.352905        -9.6030
 222   2.0000      -0.349529        -9.5112
 223   2.0000      -0.348155        -9.4738
 224   2.0000      -0.343277        -9.3410
 225   2.0000      -0.342899        -9.3308
 226   2.0000      -0.336795        -9.1647
 227   2.0000      -0.334950        -9.1144
 228   2.0000      -0.328492        -8.9387
 229   2.0000      -0.317145        -8.6300
 230   2.0000      -0.302575        -8.2335
 231   2.0000      -0.291578        -7.9343
 232   2.0000      -0.276034        -7.5113
 233   2.0000      -0.265205        -7.2166
 234   2.0000      -0.246320        -6.7027
 235   2.0000      -0.222770        -6.0619
 236   0.0000      -0.082185        -2.2364
 237   0.0000      -0.059475        -1.6184
 238   0.0000      -0.044850        -1.2204
 239   0.0000      -0.029253        -0.7960
 240   0.0000      -0.025427        -0.6919

MULLIKEN ATOMIC CHARGES
-----------------------
   0 C :   -0.019237
   1 C :   -0.071598
   2 C :    0.059818
   3 C :    0.032375
   4 C :   -0.064328
   5 S :    0.107194
   6 C :   -0.059156
   7 C :    0.041747
   8 C :    0.021224
   9 C :   -0.008032
  10 S :    0.150645
  11 C :   -0.074589
  12 C :    0.145789
  13 O :   -0.224360
  14 C :   -0.082440
  15 C :    0.160345
  16 O :   -0.157149
  17 N :   -0.160003
  18 C :    0.159864
  19 O :   -0.133934
  20 C :   -0.024772
  21 C :    0.073482
  22 C :   -0.025360
  23 C :   -0.006586
  24 C :    0.132283
  25 O :   -0.200552
  26 C :   -0.067565
  27 C :    0.177585
  28 O :   -0.135929
  29 N :   -0.158202
  30 C :    0.186318
  31 O :   -0.156350
  32 C :   -0.081573
  33 C :    0.116050
  34 C :    0.002300
  35 C :   -0.057365
  36 C :    0.041731
  37 C :   -0.110697
  38 C :    0.079608
  39 C :   -0.107320
  40 C :    0.087347
  41 C :    0.092904
  42 N :   -0.166849
  43 C :    0.144394
  44 C :    0.062657
  45 C :   -0.048243
  46 C :    0.026860
  47 C :    0.027295
  48 C :   -0.088466
  49 C :   -0.015864
  50 C :    0.039226
  51 C :    0.021156
  52 C :    0.046891
  53 C :    0.007672
  54 C :    0.124865
  55 O :   -0.212188
  56 C :   -0.083886
  57 C :    0.190373
  58 O :   -0.165419
  59 N :   -0.162581
  60 C :    0.161406
  61 O :   -0.146675
  62 C :   -0.029950
  63 C :    0.057269
  64 C :   -0.019510
  65 C :    0.010440
  66 H :    0.025087
  67 H :    0.028850
  68 H :   -0.006516
  69 H :   -0.009479
  70 H :   -0.010482
  71 H :   -0.011562
  72 H :   -0.009183
  73 H :    0.135243
  74 H :    0.033480
  75 H :    0.002203
  76 H :    0.139237
  77 H :   -0.004101
  78 H :    0.055024
  79 H :   -0.026026
  80 H :   -0.025793
  81 H :   -0.016532
  82 H :   -0.020399
  83 H :   -0.019441
  84 H :   -0.028857
  85 H :    0.002269
  86 H :    0.002059
  87 H :    0.001183
  88 H :    0.002540
  89 H :    0.013323
  90 H :    0.027267
  91 H :   -0.004938
  92 H :    0.000975
  93 H :    0.017153
  94 H :    0.006052
  95 H :    0.030715
  96 H :    0.135118
  97 H :    0.014086
  98 H :    0.029183
  99 H :    0.029877
Sum of atomic charges:   -0.0000000

LOEWDIN ATOMIC CHARGES
----------------------
   0 C :   -0.060881
   1 C :   -0.141425
   2 C :   -0.020312
   3 C :   -0.027688
   4 C :   -0.160818
   5 S :    0.373116
   6 C :   -0.191663
   7 C :   -0.019777
   8 C :   -0.041044
   9 C :   -0.121928
  10 S :    0.437079
  11 C :   -0.107761
  12 C :    0.078072
  13 O :    0.003184
  14 C :   -0.122781
  15 C :    0.077271
  16 O :   -0.172750
  17 N :   -0.006037
  18 C :    0.080458
  19 O :   -0.153710
  20 C :   -0.082065
  21 C :    0.054399
  22 C :   -0.003527
  23 C :   -0.036604
  24 C :    0.065829
  25 O :    0.016721
  26 C :   -0.100205
  27 C :    0.087240
  28 O :   -0.148066
  29 N :   -0.001119
  30 C :    0.091244
  31 O :   -0.166346
  32 C :   -0.108739
  33 C :    0.070140
  34 C :   -0.051930
  35 C :    0.020136
  36 C :   -0.057747
  37 C :   -0.000754
  38 C :   -0.071868
  39 C :    0.019470
  40 C :   -0.040202
  41 C :    0.043666
  42 N :    0.036297
  43 C :    0.029535
  44 C :   -0.039456
  45 C :   -0.007075
  46 C :   -0.041884
  47 C :   -0.019969
  48 C :   -0.057275
  49 C :    0.033444
  50 C :   -0.034697
  51 C :   -0.057927
  52 C :   -0.034181
  53 C :   -0.063667
  54 C :    0.090263
  55 O :    0.016731
  56 C :   -0.119323
  57 C :    0.090265
  58 O :   -0.170076
  59 N :   -0.004676
  60 C :    0.084384
  61 O :   -0.164105
  62 C :   -0.096882
  63 C :    0.061580
  64 C :   -0.036928
  65 C :   -0.020342
  66 H :    0.030975
  67 H :    0.029471
  68 H :    0.035562
  69 H :    0.033228
  70 H :    0.032335
  71 H :    0.032988
  72 H :    0.041135
  73 H :    0.093034
  74 H :    0.049649
  75 H :    0.039902
  76 H :    0.095643
  77 H :    0.038240
  78 H :    0.036331
  79 H :    0.028166
  80 H :    0.032571
  81 H :    0.033801
  82 H :    0.026414
  83 H :    0.027524
  84 H :    0.023334
  85 H :    0.031552
  86 H :    0.024721
  87 H :    0.022118
  88 H :    0.020989
  89 H :    0.026094
  90 H :    0.026812
  91 H :    0.018736
  92 H :    0.025350
  93 H :    0.022723
  94 H :    0.025563
  95 H :    0.024253
  96 H :    0.093172
  97 H :    0.046395
  98 H :    0.026820
  99 H :    0.030085

  Mayer bond orders larger than 0.100000
B(  0-C ,  1-C ) :   1.8667 B(  0-C , 66-H ) :   0.9510 B(  0-C , 67-H ) :   0.9415
B(  1-C ,  2-C ) :   1.0772 B(  1-C ,  5-S ) :   1.0047 B(  2-C ,  3-C ) :   1.6652
B(  2-C , 68-H ) :   0.9928 B(  3-C ,  4-C ) :   1.1466 B(  3-C , 69-H ) :   0.9925
B(  4-C ,  5-S ) :   1.0657 B(  4-C ,  6-C ) :   1.5467 B(  6-C ,  7-C ) :   1.1648
B(  6-C , 10-S ) :   1.0402 B(  7-C ,  8-C ) :   1.6075 B(  7-C , 70-H ) :   0.9926
B(  8-C ,  9-C ) :   1.1307 B(  8-C , 71-H ) :   1.0010 B(  9-C , 10-S ) :   1.0882
B(  9-C , 11-C ) :   1.5359 B( 11-C , 12-C ) :   1.2007 B( 11-C , 72-H ) :   0.9503
B( 12-C , 13-O ) :   1.1229 B( 12-C , 14-C ) :   1.3704 B( 13-O , 21-C ) :   1.1397
B( 14-C , 15-C ) :   0.8946 B( 14-C , 20-C ) :   1.2717 B( 15-C , 16-O ) :   2.2001
B( 15-C , 17-N ) :   1.0826 B( 17-N , 18-C ) :   1.0782 B( 17-N , 73-H ) :   0.9152
B( 18-C , 19-O ) :   2.2751 B( 18-C , 20-C ) :   0.8743 B( 20-C , 21-C ) :   1.4027
B( 21-C , 22-C ) :   1.1947 B( 22-C , 23-C ) :   1.5871 B( 22-C , 74-H ) :   0.9442
B( 23-C , 24-C ) :   1.1342 B( 23-C , 75-H ) :   0.9768 B( 24-C , 25-O ) :   1.1302
B( 24-C , 26-C ) :   1.4325 B( 25-O , 33-C ) :   1.1491 B( 26-C , 27-C ) :   0.8870
B( 26-C , 32-C ) :   1.2662 B( 27-C , 28-O ) :   2.2034 B( 27-C , 29-N ) :   1.0787
B( 29-N , 30-C ) :   1.1116 B( 29-N , 76-H ) :   0.9159 B( 30-C , 31-O ) :   2.1343
B( 30-C , 32-C ) :   0.8906 B( 32-C , 33-C ) :   1.4336 B( 33-C , 34-C ) :   1.1329
B( 34-C , 35-C ) :   1.7493 B( 34-C , 77-H ) :   0.9658 B( 35-C , 36-C ) :   0.9812
B( 35-C , 78-H ) :   0.9167 B( 36-C , 37-C ) :   1.3969 B( 36-C , 41-C ) :   1.2916
B( 37-C , 38-C ) :   1.2451 B( 37-C , 79-H ) :   1.0064 B( 38-C , 39-C ) :   1.3387
B( 38-C , 54-C ) :   1.0623 B( 39-C , 40-C ) :   1.3410 B( 39-C , 80-H ) :   0.9809
B( 40-C , 41-C ) :   1.2517 B( 40-C , 44-C ) :   1.0626 B( 41-C , 42-N ) :   1.1787
B( 42-N , 43-C ) :   1.0868 B( 42-N , 49-C ) :   0.9211 B( 43-C , 44-C ) :   1.3199
B( 43-C , 48-C ) :   1.2990 B( 44-C , 45-C ) :   1.3434 B( 45-C , 46-C ) :   1.4003
B( 45-C , 81-H ) :   0.9973 B( 46-C , 47-C ) :   1.3472 B( 46-C , 82-H ) :   0.9874
B( 47-C , 48-C ) :   1.4111 B( 47-C , 83-H ) :   0.9831 B( 48-C , 84-H ) :   0.9992
B( 49-C , 50-C ) :   1.0591 B( 49-C , 52-C ) :   1.0562 B( 49-C , 85-H ) :   0.9068
B( 50-C , 51-C ) :   1.1030 B( 50-C , 86-H ) :   0.9373 B( 50-C , 87-H ) :   0.9331
B( 51-C , 88-H ) :   0.9684 B( 51-C , 89-H ) :   0.9630 B( 51-C , 90-H ) :   0.9683
B( 52-C , 53-C ) :   1.1011 B( 52-C , 91-H ) :   0.9362 B( 52-C , 92-H ) :   0.9346
B( 53-C , 93-H ) :   0.9671 B( 53-C , 94-H ) :   0.9587 B( 53-C , 95-H ) :   0.9583
B( 54-C , 55-O ) :   1.1773 B( 54-C , 56-C ) :   1.4468 B( 55-O , 63-C ) :   1.1316
B( 56-C , 57-C ) :   0.8898 B( 56-C , 62-C ) :   1.2433 B( 57-C , 58-O ) :   2.1629
B( 57-C , 59-N ) :   1.0960 B( 59-N , 60-C ) :   1.0763 B( 59-N , 96-H ) :   0.9156
B( 60-C , 61-O ) :   2.2657 B( 60-C , 62-C ) :   0.8771 B( 62-C , 63-C ) :   1.4562
B( 63-C , 64-C ) :   1.1462 B( 64-C , 65-C ) :   1.9003 B( 64-C , 97-H ) :   0.9502
B( 65-C , 98-H ) :   0.9594 B( 65-C , 99-H ) :   0.9446

-----------------------------------------------------------------------------
         ABSORPTION SPECTRUM VIA TRANSITION ELECTRIC DIPOLE MOMENTS
-----------------------------------------------------------------------------
State   Energy  Wavelength   fosc         T2         TX        TY        TZ
        (cm-1)    (nm)                  (au**2)     (au)      (au)      (au)
-----------------------------------------------------------------------------
   0   16500.5    606.0   1.746612438  34.84781   5.16016  -2.61194  -1.18252
   1   21234.2    470.9   0.053983207   0.83695   0.68237   0.29283  -0.53439
   2   25182.9    397.1   0.193699341   2.53220   1.51152  -0.13214  -0.47963
   3   26135.1    382.6   0.143482854   1.80739  -0.91826  -0.98153  -0.02812
   4   27306.6    366.2   0.032285782   0.38924   0.32891   0.32614  -0.41796
   5   28365.3    352.5   0.030307587   0.35175   0.10162   0.30025  -0.50128
   6   28897.0    346.1   0.238838528   2.72099   1.36544  -0.37603  -0.84568
   7   30101.2    332.2   0.731778147   8.00333  -0.07016  -1.45006   2.42811
   8   30172.5    331.4   0.060969381   0.66524   0.74166   0.02010   0.33879
   9   30617.4    326.6   0.265567480   2.85550   1.53152   0.64451  -0.30749
  10   31585.3    316.6   0.200668250   2.09156   1.36911   0.41060   0.22024
  11   31788.5    314.6   0.246463838   2.55246  -0.62844   0.77989  -1.24471
  12   32402.4    308.6   0.061228375   0.62209  -0.77893  -0.12353   0.01001
  13   33175.2    301.4   0.060515994   0.60053   0.60775  -0.42048  -0.23316
  14   34000.8    294.1   0.089288337   0.86453   0.91795   0.14779   0.00709
  15   34435.2    290.4   0.118107024   1.12914  -0.68065  -0.81581  -0.01764
  16   34768.3    287.6   0.069845638   0.66135  -0.59728  -0.55189  -0.00442
  17   34931.8    286.3   0.021097427   0.19883  -0.07870  -0.30595   0.31469
  18   35112.8    284.8   0.048194936   0.45187  -0.59818  -0.03755  -0.30438
  19   35346.7    282.9   0.029652413   0.27618   0.18220   0.33435  -0.36220
  20   35594.3    280.9   0.026838634   0.24823  -0.32869  -0.26958   0.25985
  21   36816.4    271.6   0.012865481   0.11504  -0.30938  -0.12426  -0.06234
  22   36994.9    270.3   0.012887429   0.11468   0.01211   0.33822   0.01196
  23   37111.1    269.5   0.030114032   0.26714  -0.20801  -0.18375   0.43602
  24   37357.7    267.7   0.024872858   0.21919   0.06997   0.45487  -0.08596
  25   37710.5    265.2   0.005330894   0.04654   0.06408   0.19968  -0.05061
  26   37737.4    265.0   0.079797210   0.69613  -0.38196  -0.43426   0.60137
  27   38326.6    260.9   0.058667543   0.50393  -0.60430   0.36488   0.07492
  28   38834.5    257.5   0.042255067   0.35821  -0.43657  -0.32124   0.25382
  29   38939.1    256.8   0.159900871   1.35189   1.11012   0.33938   0.06584
  30   39455.7    253.4   0.009930712   0.08286   0.24919   0.06969  -0.12613
  31   39642.7    252.3   0.000260754   0.00217   0.01325   0.03544   0.02709
  32   40056.2    249.6   0.011993848   0.09857   0.13651   0.16886  -0.22678

FINAL SINGLE POINT ENERGY     -3652.574597732333

DIPOLE MOMENT
-------------
                                X             Y             Z
Electronic contribution:     49.96960      -8.02792      14.72561
Nuclear contribution   :    -47.96863       5.92393     -16.17874
                        -----------------------------------------
Total Dipole Moment    :      2.00097      -2.10400      -1.45313
                        -----------------------------------------
Magnitude (a.u.)       :      3.24689
Magnitude (Debye)      :      8.25293

Rotational constants in cm-1:     0.001628     0.000312     0.000284
Rotational constants in MHz :    48.817700     9.343583     8.522269

                             ****ORCA TERMINATED NORMALLY****
TOTAL RUN TIME: 0 days 0 hours 9 minutes 17 seconds 525 msec
