                         Program Version 4.2.0 -  RELEASE  -
|  1> # ORCA input file
|  2> # SCF done       -150.792515792894          0.000699894405
|  3> ! CAM-B3LYP def2-SVP def2/J RIJCOSX Grid4 TightSCF
|  4> %maxcore 5000
|  5> %tddft
|  6>     Mode sTDDFT
|  7>     Ethresh 5.0
|  8>     maxcore 5000
|  9> end
| 10>
| 11> %pal
| 12>   nprocs 6
| 13>   end
| 14> * xyz 0 1
| 15>    C        0.20881        -5.23251       -12.44950
| 16>    C        1.44011        -5.45816       -11.97537
| 17>    C        2.67194        -5.58300       -12.70318
| 18>    C        3.75939        -5.80833       -11.93390
| 19>    C        3.47942        -5.88237       -10.54015
| 20>    S        1.76556        -5.65137       -10.24654
| 21>    C        4.35811        -6.09894        -9.50799
| 22>    C        5.75895        -6.30040        -9.51846
| 23>    C        6.30753        -6.48517        -8.28792
| 24>    C        5.38573        -6.44781        -7.20602
| 25>    S        3.77131        -6.15723        -7.85748
| 26>    C        5.68258        -6.61404        -5.87920
| 27>    C        4.78348        -6.59443        -4.79135
| 28>    N        3.44080        -6.39008        -4.90873
| 29>    C        2.83360        -6.43964        -3.69033
| 30>    C        3.83395        -6.69340        -2.74705
| 31>    C        5.03958        -6.78340        -3.42503
| 32>    C        1.42015        -6.28500        -3.53133
| 33>    C        0.87573        -6.38682        -2.14260
| 34>    O        1.33368        -5.80193        -1.19081
| 35>    N       -0.26481        -7.14830        -2.04245
| 36>    C        0.60631        -5.99421        -4.58456
| 37>    N       -0.73816        -5.78324        -4.49264
| 38>    C       -1.55650        -5.46219        -5.51709
| 39>    S       -0.97032        -5.42650        -7.15524
| 40>    C       -2.58674        -5.10103        -7.71267
| 41>    N       -2.79387        -4.95088        -9.07301
| 42>    O       -3.93289        -4.73057        -9.46129
| 43>    O       -1.81456        -5.05321        -9.80650
| 44>    C       -3.50267        -5.03065        -6.69199
| 45>    C       -2.93692        -5.21327        -5.42056
| 46>    C       -3.72864        -5.16991        -4.21800
| 47>    C       -3.30367        -4.91545        -2.96099
| 48>    C       -4.11723        -4.93712        -1.79225
| 49>    N       -5.45972        -5.17306        -1.77200
| 50>    C       -5.92367        -5.17023        -0.48674
| 51>    C       -4.82556        -4.91954         0.34273
| 52>    C       -3.70980        -4.77111        -0.46666
| 53>    C       -7.28763        -5.36449        -0.12743
| 54>    C       -7.55052        -5.52958         1.33980
| 55>    O       -7.01336        -6.36840         2.02740
| 56>    N       -8.44750        -4.64471         1.84215
| 57>    C       -8.30497        -5.42580        -1.04466
| 58>    C       -9.65272        -5.71060        -0.77536
| 59>    C      -10.63135        -5.70997        -1.73721
| 60>    C      -12.00646        -6.00326        -1.55961
| 61>    C      -12.75329        -5.91183        -2.69197
| 62>    C      -12.01625        -5.53583        -3.84174
| 63>    S      -10.32807        -5.31001        -3.42454
| 64>    C      -12.47877        -5.34653        -5.12162
| 65>    C      -13.81692        -5.47906        -5.58683
| 66>    C      -13.97806        -5.21844        -6.90285
| 67>    C      -12.77056        -4.85846        -7.58971
| 68>    S      -11.42339        -4.87591        -6.44069
| 69>    C      -12.62288        -4.54875        -8.88479
| 70>    H        0.03873        -5.11860       -13.50623
| 71>    H       -0.63557        -5.15529       -11.78822
| 72>    H        2.68428        -5.49624       -13.77555
| 73>    H        4.76055        -5.92664       -12.31034
| 74>    H        6.31884        -6.30216       -10.43677
| 75>    H        7.35605        -6.65130        -8.11190
| 76>    H        6.72035        -6.78527        -5.62925
| 77>    H        2.97177        -6.21457        -5.77844
| 78>    H        3.68152        -6.77739        -1.69002
| 79>    H        6.00347        -6.96667        -2.99320
| 80>    H       -0.59768        -7.31951        -1.10433
| 81>    H       -0.42964        -7.88498        -2.70882
| 82>    H        1.00303        -5.85700        -5.57984
| 83>    H       -1.16416        -5.90484        -3.57825
| 84>    H       -4.54415        -4.83393        -6.87247
| 85>    H       -4.78314        -5.33948        -4.39222
| 86>    H       -2.27804        -4.63701        -2.76303
| 87>    H       -6.02642        -5.34017        -2.58528
| 88>    H       -4.85782        -4.86479         1.41196
| 89>    H       -2.70648        -4.56857        -0.14638
| 90>    H       -8.85105        -3.91920         1.27775
| 91>    H       -8.65595        -4.67300         2.82680
| 92>    H       -8.07292        -5.25810        -2.09024
| 93>    H       -9.94790        -5.96593         0.23275
| 94>    H      -12.39593        -6.27578        -0.59423
| 95>    H      -13.81044        -6.10332        -2.73645
| 96>    H      -14.61423        -5.76301        -4.92280
| 97>    H      -14.91469        -5.26494        -7.42964
| 98>    H      -13.46927        -4.54880        -9.54867
| 99>    H      -11.66567        -4.29144        -9.29948
|100> *
|101>
|102>                          ****END OF INPUT****

CARTESIAN COORDINATES (ANGSTROEM)
---------------------------------
  C      0.208810   -5.232510  -12.449500
  C      1.440110   -5.458160  -11.975370
  C      2.671940   -5.583000  -12.703180
  C      3.759390   -5.808330  -11.933900
  C      3.479420   -5.882370  -10.540150
  S      1.765560   -5.651370  -10.246540
  C      4.358110   -6.098940   -9.507990
  C      5.758950   -6.300400   -9.518460
  C      6.307530   -6.485170   -8.287920
  C      5.385730   -6.447810   -7.206020
  S      3.771310   -6.157230   -7.857480
  C      5.682580   -6.614040   -5.879200
  C      4.783480   -6.594430   -4.791350
  N      3.440800   -6.390080   -4.908730
  C      2.833600   -6.439640   -3.690330
  C      3.833950   -6.693400   -2.747050
  C      5.039580   -6.783400   -3.425030
  C      1.420150   -6.285000   -3.531330
  C      0.875730   -6.386820   -2.142600
  O      1.333680   -5.801930   -1.190810
  N     -0.264810   -7.148300   -2.042450
  C      0.606310   -5.994210   -4.584560
  N     -0.738160   -5.783240   -4.492640
  C     -1.556500   -5.462190   -5.517090
  S     -0.970320   -5.426500   -7.155240
  C     -2.586740   -5.101030   -7.712670
  N     -2.793870   -4.950880   -9.073010
  O     -3.932890   -4.730570   -9.461290
  O     -1.814560   -5.053210   -9.806500
  C     -3.502670   -5.030650   -6.691990
  C     -2.936920   -5.213270   -5.420560
  C     -3.728640   -5.169910   -4.218000
  C     -3.303670   -4.915450   -2.960990
  C     -4.117230   -4.937120   -1.792250
  N     -5.459720   -5.173060   -1.772000
  C     -5.923670   -5.170230   -0.486740
  C     -4.825560   -4.919540    0.342730
  C     -3.709800   -4.771110   -0.466660
  C     -7.287630   -5.364490   -0.127430
  C     -7.550520   -5.529580    1.339800
  O     -7.013360   -6.368400    2.027400
  N     -8.447500   -4.644710    1.842150
  C     -8.304970   -5.425800   -1.044660
  C     -9.652720   -5.710600   -0.775360
  C    -10.631350   -5.709970   -1.737210
  C    -12.006460   -6.003260   -1.559610
  C    -12.753290   -5.911830   -2.691970
  C    -12.016250   -5.535830   -3.841740
  S    -10.328070   -5.310010   -3.424540
  C    -12.478770   -5.346530   -5.121620
  C    -13.816920   -5.479060   -5.586830
  C    -13.978060   -5.218440   -6.902850
  C    -12.770560   -4.858460   -7.589710
  S    -11.423390   -4.875910   -6.440690
  C    -12.622880   -4.548750   -8.884790
  H      0.038730   -5.118600  -13.506230
  H     -0.635570   -5.155290  -11.788220
  H      2.684280   -5.496240  -13.775550
  H      4.760550   -5.926640  -12.310340
  H      6.318840   -6.302160  -10.436770
  H      7.356050   -6.651300   -8.111900
  H      6.720350   -6.785270   -5.629250
  H      2.971770   -6.214570   -5.778440
  H      3.681520   -6.777390   -1.690020
  H      6.003470   -6.966670   -2.993200
  H     -0.597680   -7.319510   -1.104330
  H     -0.429640   -7.884980   -2.708820
  H      1.003030   -5.857000   -5.579840
  H     -1.164160   -5.904840   -3.578250
  H     -4.544150   -4.833930   -6.872470
  H     -4.783140   -5.339480   -4.392220
  H     -2.278040   -4.637010   -2.763030
  H     -6.026420   -5.340170   -2.585280
  H     -4.857820   -4.864790    1.411960
  H     -2.706480   -4.568570   -0.146380
  H     -8.851050   -3.919200    1.277750
  H     -8.655950   -4.673000    2.826800
  H     -8.072920   -5.258100   -2.090240
  H     -9.947900   -5.965930    0.232750
  H    -12.395930   -6.275780   -0.594230
  H    -13.810440   -6.103320   -2.736450
  H    -14.614230   -5.763010   -4.922800
  H    -14.914690   -5.264940   -7.429640
  H    -13.469270   -4.548800   -9.548670
  H    -11.665670   -4.291440   -9.299480

 Total Charge           Charge          ....    0
 Multiplicity           Mult            ....    1
 Number of Electrons    NEL             ....  424
 Basis Dimension        Dim             ....  940

ORBITAL ENERGIES
----------------

  NO   OCC          E(Eh)            E(eV)
   0   2.0000     -88.976347     -2421.1695
   1   2.0000     -88.942881     -2420.2588
   2   2.0000     -88.939484     -2420.1664
   3   2.0000     -88.937940     -2420.1244
   4   2.0000     -88.925755     -2419.7928
   5   2.0000     -19.226245      -523.1727
   6   2.0000     -19.224237      -523.1181
   7   2.0000     -19.193732      -522.2880
   8   2.0000     -19.174942      -521.7767
   9   2.0000     -14.637111      -398.2960
  10   2.0000     -14.477370      -393.9493
  11   2.0000     -14.458822      -393.4446
  12   2.0000     -14.448724      -393.1698
  13   2.0000     -14.443087      -393.0164
  14   2.0000     -14.428686      -392.6245
  15   2.0000     -10.386136      -282.6211
  16   2.0000     -10.370362      -282.1919
  17   2.0000     -10.363898      -282.0160
  18   2.0000     -10.333728      -281.1950
  19   2.0000     -10.329504      -281.0801
  20   2.0000     -10.309650      -280.5398
  21   2.0000     -10.308333      -280.5040
  22   2.0000     -10.306348      -280.4500
  23   2.0000     -10.305743      -280.4335
  24   2.0000     -10.301631      -280.3216
  25   2.0000     -10.300918      -280.3022
  26   2.0000     -10.300898      -280.3017
  27   2.0000     -10.299303      -280.2583
  28   2.0000     -10.298863      -280.2463
  29   2.0000     -10.298081      -280.2250
  30   2.0000     -10.297992      -280.2226
  31   2.0000     -10.293656      -280.1046
  32   2.0000     -10.292153      -280.0637
  33   2.0000     -10.291414      -280.0436
  34   2.0000     -10.291160      -280.0367
  35   2.0000     -10.289090      -279.9804
  36   2.0000     -10.288517      -279.9648
  37   2.0000     -10.287926      -279.9487
  38   2.0000     -10.287903      -279.9481
  39   2.0000     -10.287194      -279.9288
  40   2.0000     -10.284344      -279.8512
  41   2.0000     -10.283941      -279.8403
  42   2.0000     -10.283243      -279.8213
  43   2.0000     -10.278461      -279.6911
  44   2.0000     -10.277591      -279.6675
  45   2.0000     -10.277481      -279.6645
  46   2.0000     -10.275648      -279.6146
  47   2.0000     -10.274846      -279.5928
  48   2.0000     -10.274537      -279.5844
  49   2.0000     -10.269408      -279.4448
  50   2.0000     -10.256163      -279.0844
  51   2.0000     -10.254172      -279.0302
  52   2.0000     -10.253092      -279.0008
  53   2.0000     -10.248733      -278.8822
  54   2.0000     -10.247958      -278.8611
  55   2.0000      -8.071517      -219.6371
  56   2.0000      -8.039094      -218.7549
  57   2.0000      -8.035621      -218.6604
  58   2.0000      -8.034644      -218.6338
  59   2.0000      -8.022397      -218.3005
  60   2.0000      -6.041245      -164.3906
  61   2.0000      -6.036902      -164.2724
  62   2.0000      -6.032832      -164.1617
  63   2.0000      -6.008828      -163.5085
  64   2.0000      -6.005417      -163.4157
  65   2.0000      -6.004983      -163.4039
  66   2.0000      -6.004479      -163.3902
  67   2.0000      -6.001595      -163.3117
  68   2.0000      -6.000571      -163.2838
  69   2.0000      -5.999874      -163.2649
  70   2.0000      -5.996374      -163.1696
  71   2.0000      -5.995152      -163.1364
  72   2.0000      -5.992243      -163.0572
  73   2.0000      -5.988305      -162.9501
  74   2.0000      -5.982898      -162.8029
  75   2.0000      -1.302474       -35.4421
  76   2.0000      -1.133277       -30.8380
  77   2.0000      -1.120445       -30.4888
  78   2.0000      -1.115633       -30.3579
  79   2.0000      -1.088041       -29.6071
  80   2.0000      -1.077893       -29.3310
  81   2.0000      -1.072629       -29.1877
  82   2.0000      -1.001875       -27.2624
  83   2.0000      -0.992021       -26.9943
  84   2.0000      -0.991493       -26.9799
  85   2.0000      -0.985692       -26.8220
  86   2.0000      -0.982414       -26.7328
  87   2.0000      -0.968808       -26.3626
  88   2.0000      -0.957790       -26.0628
  89   2.0000      -0.921466       -25.0744
  90   2.0000      -0.913325       -24.8528
  91   2.0000      -0.902746       -24.5650
  92   2.0000      -0.884475       -24.0678
  93   2.0000      -0.878235       -23.8980
  94   2.0000      -0.871318       -23.7098
  95   2.0000      -0.869931       -23.6720
  96   2.0000      -0.863958       -23.5095
  97   2.0000      -0.857639       -23.3376
  98   2.0000      -0.847987       -23.0749
  99   2.0000      -0.844244       -22.9730
 100   2.0000      -0.842396       -22.9228
 101   2.0000      -0.834684       -22.7129
 102   2.0000      -0.818602       -22.2753
 103   2.0000      -0.813918       -22.1478
 104   2.0000      -0.805220       -21.9112
 105   2.0000      -0.800693       -21.7880
 106   2.0000      -0.782409       -21.2904
 107   2.0000      -0.773718       -21.0539
 108   2.0000      -0.751183       -20.4407
 109   2.0000      -0.744801       -20.2671
 110   2.0000      -0.734125       -19.9766
 111   2.0000      -0.715612       -19.4728
 112   2.0000      -0.708000       -19.2657
 113   2.0000      -0.704263       -19.1640
 114   2.0000      -0.695990       -18.9389
 115   2.0000      -0.682954       -18.5841
 116   2.0000      -0.681253       -18.5378
 117   2.0000      -0.679386       -18.4870
 118   2.0000      -0.675346       -18.3771
 119   2.0000      -0.668879       -18.2011
 120   2.0000      -0.659338       -17.9415
 121   2.0000      -0.655169       -17.8281
 122   2.0000      -0.653048       -17.7703
 123   2.0000      -0.636392       -17.3171
 124   2.0000      -0.635433       -17.2910
 125   2.0000      -0.633260       -17.2319
 126   2.0000      -0.624702       -16.9990
 127   2.0000      -0.622497       -16.9390
 128   2.0000      -0.620728       -16.8909
 129   2.0000      -0.617174       -16.7942
 130   2.0000      -0.611420       -16.6376
 131   2.0000      -0.609785       -16.5931
 132   2.0000      -0.604570       -16.4512
 133   2.0000      -0.603331       -16.4175
 134   2.0000      -0.596870       -16.2417
 135   2.0000      -0.593219       -16.1423
 136   2.0000      -0.585221       -15.9247
 137   2.0000      -0.583999       -15.8914
 138   2.0000      -0.579649       -15.7730
 139   2.0000      -0.570950       -15.5363
 140   2.0000      -0.564360       -15.3570
 141   2.0000      -0.558609       -15.2005
 142   2.0000      -0.555505       -15.1161
 143   2.0000      -0.541445       -14.7335
 144   2.0000      -0.539246       -14.6736
 145   2.0000      -0.535103       -14.5609
 146   2.0000      -0.530008       -14.4223
 147   2.0000      -0.522532       -14.2188
 148   2.0000      -0.519541       -14.1374
 149   2.0000      -0.517060       -14.0699
 150   2.0000      -0.515417       -14.0252
 151   2.0000      -0.514312       -13.9951
 152   2.0000      -0.509311       -13.8591
 153   2.0000      -0.508308       -13.8318
 154   2.0000      -0.505579       -13.7575
 155   2.0000      -0.500824       -13.6281
 156   2.0000      -0.498569       -13.5667
 157   2.0000      -0.497139       -13.5278
 158   2.0000      -0.496064       -13.4986
 159   2.0000      -0.494396       -13.4532
 160   2.0000      -0.493557       -13.4304
 161   2.0000      -0.486265       -13.2319
 162   2.0000      -0.483896       -13.1675
 163   2.0000      -0.483108       -13.1460
 164   2.0000      -0.482485       -13.1291
 165   2.0000      -0.481347       -13.0981
 166   2.0000      -0.479753       -13.0547
 167   2.0000      -0.469080       -12.7643
 168   2.0000      -0.468312       -12.7434
 169   2.0000      -0.464282       -12.6338
 170   2.0000      -0.462365       -12.5816
 171   2.0000      -0.457953       -12.4615
 172   2.0000      -0.457735       -12.4556
 173   2.0000      -0.455221       -12.3872
 174   2.0000      -0.452023       -12.3002
 175   2.0000      -0.450474       -12.2580
 176   2.0000      -0.448301       -12.1989
 177   2.0000      -0.447433       -12.1753
 178   2.0000      -0.442845       -12.0504
 179   2.0000      -0.432384       -11.7658
 180   2.0000      -0.426886       -11.6162
 181   2.0000      -0.419569       -11.4170
 182   2.0000      -0.417863       -11.3706
 183   2.0000      -0.416596       -11.3362
 184   2.0000      -0.411983       -11.2106
 185   2.0000      -0.398504       -10.8439
 186   2.0000      -0.396564       -10.7911
 187   2.0000      -0.390438       -10.6244
 188   2.0000      -0.386956       -10.5296
 189   2.0000      -0.375724       -10.2240
 190   2.0000      -0.371294       -10.1034
 191   2.0000      -0.366124        -9.9627
 192   2.0000      -0.365136        -9.9359
 193   2.0000      -0.363899        -9.9022
 194   2.0000      -0.353643        -9.6231
 195   2.0000      -0.343913        -9.3583
 196   2.0000      -0.340228        -9.2581
 197   2.0000      -0.338054        -9.1989
 198   2.0000      -0.337043        -9.1714
 199   2.0000      -0.331048        -9.0083
 200   2.0000      -0.330919        -9.0048
 201   2.0000      -0.328572        -8.9409
 202   2.0000      -0.324155        -8.8207
 203   2.0000      -0.322277        -8.7696
 204   2.0000      -0.319491        -8.6938
 205   2.0000      -0.311731        -8.4826
 206   2.0000      -0.306699        -8.3457
 207   2.0000      -0.288482        -7.8500
 208   2.0000      -0.260471        -7.0878
 209   2.0000      -0.243540        -6.6271
 210   2.0000      -0.209424        -5.6987
 211   2.0000      -0.198317        -5.3965
 212   0.0000      -0.072719        -1.9788
 213   0.0000      -0.060533        -1.6472
 214   0.0000      -0.043479        -1.1831
 215   0.0000      -0.023210        -0.6316
 216   0.0000       0.000034         0.0009

MULLIKEN ATOMIC CHARGES
-----------------------
   0 C :   -0.026834
   1 C :   -0.071982
   2 C :    0.052450
   3 C :    0.027093
   4 C :   -0.062085
   5 S :    0.074266
   6 C :   -0.029216
   7 C :    0.032940
   8 C :    0.028437
   9 C :   -0.013313
  10 S :   -0.032068
  11 C :   -0.011057
  12 C :    0.060636
  13 N :   -0.058527
  14 C :    0.052031
  15 C :   -0.026758
  16 C :   -0.023718
  17 C :    0.038986
  18 C :    0.043813
  19 O :   -0.187867
  20 N :   -0.132979
  21 C :   -0.039869
  22 N :   -0.029662
  23 C :   -0.116845
  24 S :    0.141446
  25 C :   -0.014864
  26 N :    0.296018
  27 O :   -0.264273
  28 O :   -0.282474
  29 C :    0.009778
  30 C :    0.110394
  31 C :   -0.050994
  32 C :    0.020187
  33 C :    0.053430
  34 N :   -0.043105
  35 C :    0.056182
  36 C :   -0.015089
  37 C :   -0.036834
  38 C :    0.026750
  39 C :    0.046327
  40 O :   -0.206532
  41 N :   -0.094128
  42 C :   -0.071670
  43 C :   -0.032136
  44 C :   -0.017192
  45 C :    0.031683
  46 C :    0.026537
  47 C :   -0.045224
  48 S :    0.049819
  49 C :   -0.064057
  50 C :    0.029086
  51 C :    0.052908
  52 C :   -0.063206
  53 S :    0.077425
  54 C :   -0.030264
  55 H :    0.014453
  56 H :    0.037048
  57 H :   -0.012711
  58 H :   -0.015617
  59 H :   -0.016938
  60 H :   -0.015201
  61 H :   -0.020308
  62 H :    0.131270
  63 H :   -0.014994
  64 H :   -0.032651
  65 H :    0.139094
  66 H :    0.140078
  67 H :    0.016132
  68 H :    0.129746
  69 H :    0.006219
  70 H :   -0.029901
  71 H :   -0.006967
  72 H :    0.126004
  73 H :   -0.009180
  74 H :   -0.023350
  75 H :    0.129561
  76 H :    0.128197
  77 H :   -0.030074
  78 H :   -0.007768
  79 H :   -0.014537
  80 H :   -0.013812
  81 H :   -0.012216
  82 H :   -0.011230
  83 H :    0.021035
  84 H :    0.024819
Sum of atomic charges:   -0.0000000

LOEWDIN ATOMIC CHARGES
----------------------
   0 C :   -0.060336
   1 C :   -0.145423
   2 C :   -0.028229
   3 C :   -0.032442
   4 C :   -0.177264
   5 S :    0.349385
   6 C :   -0.184671
   7 C :   -0.040807
   8 C :   -0.035764
   9 C :   -0.155851
  10 S :    0.345414
  11 C :   -0.063185
  12 C :   -0.014287
  13 N :    0.085292
  14 C :   -0.006977
  15 C :   -0.055206
  16 C :   -0.060137
  17 C :   -0.103772
  18 C :    0.071052
  19 O :   -0.177105
  20 N :   -0.017908
  21 C :    0.005849
  22 N :    0.045978
  23 C :   -0.091997
  24 S :    0.449385
  25 C :   -0.224252
  26 N :    0.280617
  27 O :   -0.230105
  28 O :   -0.250679
  29 C :    0.005513
  30 C :   -0.109387
  31 C :   -0.043702
  32 C :   -0.044867
  33 C :   -0.013996
  34 N :    0.092607
  35 C :   -0.004344
  36 C :   -0.046411
  37 C :   -0.062299
  38 C :   -0.059675
  39 C :    0.066519
  40 O :   -0.201364
  41 N :    0.001856
  42 C :   -0.048799
  43 C :   -0.072576
  44 C :   -0.143194
  45 C :   -0.037310
  46 C :   -0.031287
  47 C :   -0.181498
  48 S :    0.352816
  49 C :   -0.176533
  50 C :   -0.027583
  51 C :   -0.030514
  52 C :   -0.139844
  53 S :    0.349398
  54 C :   -0.073851
  55 H :    0.026593
  56 H :    0.027303
  57 H :    0.032639
  58 H :    0.030848
  59 H :    0.031240
  60 H :    0.032226
  61 H :    0.039754
  62 H :    0.045388
  63 H :    0.027809
  64 H :    0.023497
  65 H :    0.083804
  66 H :    0.080777
  67 H :    0.018727
  68 H :    0.077714
  69 H :    0.044189
  70 H :    0.023423
  71 H :    0.031573
  72 H :    0.083184
  73 H :    0.029691
  74 H :    0.025907
  75 H :    0.078366
  76 H :    0.078836
  77 H :    0.012956
  78 H :    0.030536
  79 H :    0.033018
  80 H :    0.031423
  81 H :    0.032184
  82 H :    0.033551
  83 H :    0.029091
  84 H :    0.027503

  Mayer bond orders larger than 0.100000
B(  0-C ,  1-C ) :   1.8726 B(  0-C , 55-H ) :   0.9515 B(  0-C , 56-H ) :   0.9208
B(  1-C ,  2-C ) :   1.0771 B(  1-C ,  5-S ) :   1.0044 B(  2-C ,  3-C ) :   1.6613
B(  2-C , 57-H ) :   0.9932 B(  3-C ,  4-C ) :   1.1500 B(  3-C , 58-H ) :   0.9930
B(  4-C ,  5-S ) :   1.0433 B(  4-C ,  6-C ) :   1.5571 B(  6-C ,  7-C ) :   1.1714
B(  6-C , 10-S ) :   1.0316 B(  7-C ,  8-C ) :   1.6079 B(  7-C , 59-H ) :   0.9914
B(  8-C ,  9-C ) :   1.1412 B(  8-C , 60-H ) :   0.9978 B(  9-C , 10-S ) :   1.0036
B(  9-C , 11-C ) :   1.5793 B( 11-C , 12-C ) :   1.1573 B( 11-C , 61-H ) :   0.9637
B( 12-C , 13-N ) :   1.2206 B( 12-C , 14-C ) :   0.1059 B( 12-C , 16-C ) :   1.3494
B( 13-N , 14-C ) :   1.2404 B( 13-N , 62-H ) :   0.9073 B( 14-C , 15-C ) :   1.4189
B( 14-C , 17-C ) :   1.0973 B( 15-C , 16-C ) :   1.3344 B( 15-C , 63-H ) :   0.9995
B( 16-C , 64-H ) :   1.0098 B( 17-C , 18-C ) :   0.8719 B( 17-C , 21-C ) :   1.6348
B( 18-C , 19-O ) :   2.1828 B( 18-C , 20-N ) :   1.1611 B( 20-N , 65-H ) :   0.9403
B( 20-N , 66-H ) :   0.9434 B( 21-C , 22-N ) :   1.1389 B( 21-C , 67-H ) :   0.9598
B( 22-N , 23-C ) :   1.2568 B( 22-N , 68-H ) :   0.8681 B( 23-C , 24-S ) :   1.1378
B( 23-C , 30-C ) :   1.3236 B( 24-S , 25-C ) :   1.0560 B( 25-C , 26-N ) :   1.0077
B( 25-C , 29-C ) :   1.4473 B( 26-N , 27-O ) :   1.5192 B( 26-N , 28-O ) :   1.4496
B( 27-O , 28-O ) :   0.2386 B( 29-C , 30-C ) :   1.2529 B( 29-C , 69-H ) :   1.0061
B( 30-C , 31-C ) :   1.0955 B( 31-C , 32-C ) :   1.6452 B( 31-C , 70-H ) :   0.9620
B( 32-C , 33-C ) :   1.1570 B( 32-C , 71-H ) :   0.9429 B( 33-C , 34-N ) :   1.2305
B( 33-C , 35-C ) :   0.1061 B( 33-C , 37-C ) :   1.3653 B( 34-N , 35-C ) :   1.2243
B( 34-N , 72-H ) :   0.9216 B( 35-C , 36-C ) :   1.4110 B( 35-C , 38-C ) :   1.1264
B( 36-C , 37-C ) :   1.3231 B( 36-C , 73-H ) :   0.9970 B( 37-C , 74-H ) :   1.0113
B( 38-C , 39-C ) :   0.8682 B( 38-C , 42-C ) :   1.6139 B( 39-C , 40-O ) :   2.1730
B( 39-C , 41-N ) :   1.2202 B( 41-N , 75-H ) :   0.9449 B( 41-N , 76-H ) :   0.9438
B( 42-C , 43-C ) :   1.1580 B( 42-C , 77-H ) :   0.9692 B( 43-C , 44-C ) :   1.5699
B( 43-C , 78-H ) :   0.9715 B( 44-C , 45-C ) :   1.1388 B( 44-C , 48-S ) :   1.0311
B( 45-C , 46-C ) :   1.5985 B( 45-C , 79-H ) :   0.9994 B( 46-C , 47-C ) :   1.1766
B( 46-C , 80-H ) :   0.9927 B( 47-C , 48-S ) :   1.0321 B( 47-C , 49-C ) :   1.5535
B( 49-C , 50-C ) :   1.1543 B( 49-C , 53-S ) :   1.0436 B( 50-C , 51-C ) :   1.6606
B( 50-C , 81-H ) :   0.9911 B( 51-C , 52-C ) :   1.0810 B( 51-C , 82-H ) :   0.9930
B( 52-C , 53-S ) :   1.0074 B( 52-C , 54-C ) :   1.8626 B( 54-C , 83-H ) :   0.9514
B( 54-C , 84-H ) :   0.9420

-----------------------------------------------------------------------------
         ABSORPTION SPECTRUM VIA TRANSITION ELECTRIC DIPOLE MOMENTS
-----------------------------------------------------------------------------
State   Energy  Wavelength   fosc         T2         TX        TY        TZ
        (cm-1)    (nm)                  (au**2)     (au)      (au)      (au)
-----------------------------------------------------------------------------
   0   14481.2    690.6   0.416543182   9.46958  -2.77362   0.13695   1.32584
   1   16093.2    621.4   0.924357196  18.90925  -3.67086   0.10211  -2.32886
   2   19312.4    517.8   0.345454402   5.88885  -0.77881   0.15995  -2.29275
   3   19734.4    506.7   0.244721698   4.08248  -0.69930   0.28423  -1.87421
   4   21286.7    469.8   0.255347960   3.94912  -1.14352   0.37557  -1.58128
   5   24065.8    415.5   0.011876622   0.16247  -0.36462  -0.10074   0.13918
   6   25419.8    393.4   0.592593277   7.67469   2.69820  -0.44753  -0.44060
   7   25542.0    391.5   0.065744063   0.84738  -0.45305   0.01606   0.80117
   8   26092.8    383.2   0.846720871  10.68306   0.98779  -0.49978   3.07532
   9   27644.9    361.7   0.587150932   6.99215  -0.25010   0.37952  -2.60491
  10   29055.9    344.2   0.083035664   0.94082   0.24913  -0.30276   0.88718
  11   29907.3    334.4   0.319881399   3.52117   0.83778   0.21331  -1.66547
  12   30334.9    329.7   0.028996266   0.31468   0.24985   0.10252  -0.49168
  13   31084.0    321.7   0.028510572   0.30196   0.40812  -0.35782   0.08576
  14   31465.2    317.8   0.175964242   1.84106  -1.35676   0.01615  -0.00308
  15   31887.9    313.6   0.007816506   0.08070  -0.28319   0.01471   0.01682
  16   32683.8    306.0   0.005717459   0.05759  -0.22752   0.06976   0.03095
  17   33437.8    299.1   0.001215664   0.01197   0.08747   0.06315   0.01816
  18   33709.4    296.7   0.035289052   0.34464  -0.55188  -0.19173   0.05751
  19   34033.6    293.8   0.110420533   1.06811   0.56328   0.16794  -0.85007
  20   34554.6    289.4   0.180195469   1.71677  -0.02812  -0.02632  -1.30969
  21   35108.2    284.8   0.054027783   0.50662  -0.50987   0.10527  -0.48535
  22   35494.5    281.7   0.016072847   0.14908  -0.37944   0.02723   0.06605
  23   35648.7    280.5   0.041569853   0.38389  -0.38463   0.06857   0.48088
  24   36127.8    276.8   0.053361345   0.48625  -0.40036  -0.13129   0.55563
  25   36307.4    275.4   0.029853638   0.27069  -0.50018   0.09270   0.10919
  26   36515.9    273.9   0.080841552   0.72883  -0.62924  -0.09441  -0.56919
  27   36752.7    272.1   0.053979442   0.48352   0.17291   0.00309  -0.67351
  28   38061.5    262.7   0.101117515   0.87461  -0.00564  -0.03293  -0.93461
  29   38687.2    258.5   0.016871149   0.14357   0.29988   0.14934   0.17703
  30   39023.1    256.3   0.008241811   0.06953  -0.09259  -0.05629   0.24039
  31   39198.9    255.1   0.122643470   1.03002   0.51714   0.01765   0.87308
  32   39610.8    252.5   0.016994208   0.14124  -0.22167   0.08608   0.29102
  33   39689.0    252.0   0.050242087   0.41675   0.64025  -0.03872  -0.07298
  34   40100.8    249.4   0.003868750   0.03176   0.09640   0.12880   0.07668
  35   40185.5    248.8   0.032366196   0.26515  -0.37213   0.00785  -0.35582

FINAL SINGLE POINT ENERGY     -4159.188853251328

DIPOLE MOMENT
-------------
                                X             Y             Z
Electronic contribution:      7.97436       1.15692     -10.58088
Nuclear contribution   :     -9.76549      -1.47577      10.90055
                        -----------------------------------------
Total Dipole Moment    :     -1.79113      -0.31885       0.31967
                        -----------------------------------------
Magnitude (a.u.)       :      1.84716
Magnitude (Debye)      :      4.69511

Rotational constants in cm-1:     0.001779     0.000510     0.000400
Rotational constants in MHz :    53.326112    15.297660    11.989287

                             ****ORCA TERMINATED NORMALLY****
TOTAL RUN TIME: 0 days 0 hours 6 minutes 26 seconds 44 msec
