                         Program Version 4.2.0 -  RELEASE  -
|  1> # ORCA input file
|  2> # SCF done       -202.882936625244          0.000684396339
|  3> ! CAM-B3LYP def2-SVP def2/J RIJCOSX Grid4 TightSCF
|  4> %maxcore 5000
|  5> %tddft
|  6>     Mode sTDDFT
|  7>     Ethresh 5.0
|  8>     maxcore 5000
|  9> end
| 10>
| 11> %pal
| 12>   nprocs 6
| 13>   end
| 14> * xyz 0 1
| 15>    C       12.71632        -9.83304       -12.11585
| 16>    C       12.21767        -9.31334       -10.98591
| 17>    C       12.70440        -8.17813       -10.25434
| 18>    C       11.99442        -7.88564        -9.14304
| 19>    C       10.89509        -8.75799        -8.90002
| 20>    S       10.79879        -9.97469       -10.15570
| 21>    C        9.99967        -8.70222        -7.85935
| 22>    C        9.97994        -7.78004        -6.78015
| 23>    C        8.94800        -7.97683        -5.92349
| 24>    C        8.10014        -9.07378        -6.25757
| 25>    S        8.68365        -9.85150        -7.70233
| 26>    C        6.94566        -9.36413        -5.57450
| 27>    C        5.99430       -10.38214        -5.75453
| 28>    O        4.77687       -10.14041        -5.20151
| 29>    C        3.95732       -11.18082        -5.49246
| 30>    C        4.64912       -12.11845        -6.23339
| 31>    C        5.96437       -11.63735        -6.39729
| 32>    C        7.08593       -12.39009        -6.93406
| 33>    O        8.24428       -12.09831        -6.69061
| 34>    C        6.73027       -13.59278        -7.77543
| 35>    C        2.61649       -11.19924        -5.03782
| 36>    C        2.05766       -10.21767        -4.28182
| 37>    C        0.73691       -10.22990        -3.79981
| 38>    S       -0.39909       -11.51010        -4.12855
| 39>    C       -1.67156       -10.78645        -3.18644
| 40>    C       -1.21809        -9.57671        -2.63874
| 41>    C        0.12853        -9.26266        -2.99103
| 42>    N        0.70908        -8.12667        -2.56162
| 43>    C       -0.01042        -7.32321        -1.81467
| 44>    C        0.62254        -6.04715        -1.35175
| 45>    C        1.96135        -5.76333        -2.04271
| 46>    O        2.94451        -6.71850        -1.75244
| 47>    C       -1.35116        -7.65766        -1.44262
| 48>    C       -2.16174        -6.77142        -0.53878
| 49>    N       -1.48530        -6.61045         0.74364
| 50>    N       -1.93407        -8.75894        -1.84666
| 51>    C       -2.93922       -11.36627        -3.01425
| 52>    C       -3.34994       -12.50630        -3.64005
| 53>    C       -4.59327       -13.16166        -3.48214
| 54>    C       -5.53796       -12.87564        -2.54418
| 55>    C       -6.75256       -13.58776        -2.42137
| 56>    O       -7.59437       -13.30219        -1.38966
| 57>    C       -8.67558       -14.12001        -1.47082
| 58>    C       -8.53359       -14.94245        -2.58192
| 59>    C       -7.30948       -14.61108        -3.18830
| 60>    O       -6.78789       -15.18065        -4.29900
| 61>    O       -9.36850       -15.91083        -3.05707
| 62>    C       -9.71667       -14.08263        -0.50596
| 63>    C       -9.74099       -13.27540         0.57980
| 64>    C      -10.79796       -13.29833         1.53393
| 65>    C      -10.80432       -12.50928         2.62348
| 66>    N      -11.77864       -12.48375         3.60417
| 67>    C      -12.87266       -13.32093         3.68433
| 68>    O      -13.17838       -14.17313         2.88175
| 69>    C      -13.61140       -13.01438         4.98502
| 70>    C      -12.83293       -11.87050         5.54242
| 71>    C      -11.74622       -11.61414         4.70329
| 72>    C      -10.84068       -10.61630         5.00060
| 73>    C      -11.02468        -9.86645         6.16078
| 74>    C      -12.10852       -10.12706         6.98796
| 75>    C      -13.01813       -11.13158         6.68816
| 76>    C      -10.03609        -8.79361         6.50349
| 77>    C      -13.55117       -14.27046         5.88503
| 78>    C      -12.11936       -14.82127         5.87131
| 79>    O      -11.11068       -14.24950         6.21047
| 80>    N      -12.18115       -16.08729         5.37306
| 81>    C      -13.47606       -16.46458         5.04333
| 82>    C      -14.34927       -15.41772         5.34931
| 83>    C      -15.69832       -15.56194         5.11793
| 84>    C      -16.15748       -16.75932         4.58584
| 85>    C      -15.29064       -17.80151         4.27991
| 86>    C      -15.81419       -19.06992         3.67749
| 87>    C      -13.92505       -17.65473         4.51321
| 88>    H       13.58175        -9.39952       -12.58532
| 89>    H       12.27333       -10.69142       -12.58634
| 90>    H       13.56631        -7.63323       -10.59686
| 91>    H       12.21687        -7.06992        -8.47815
| 92>    H       10.72231        -7.00984        -6.67074
| 93>    H        8.75740        -7.37729        -5.05050
| 94>    H        6.66611        -8.65434        -4.80422
| 95>    H        4.25366       -13.05064        -6.58051
| 96>    H        5.98883       -13.32864        -8.52505
| 97>    H        6.31891       -14.37381        -7.13857
| 98>    H        7.62804       -13.96985        -8.25803
| 99>    H        2.03275       -12.06407        -5.32001
|100>    H        2.64935        -9.35587        -4.00521
|101>    H        0.76496        -6.11205        -0.27018
|102>    H       -0.06182        -5.21698        -1.53669
|103>    H        2.35554        -4.80463        -1.69528
|104>    H        1.79690        -5.70152        -3.12930
|105>    H        2.58109        -7.56924        -2.04451
|106>    H       -3.16645        -7.21475        -0.45895
|107>    H       -2.25862        -5.77800        -0.99006
|108>    H       -1.40051        -7.51160         1.20298
|109>    H       -2.02833        -6.00545         1.34968
|110>    H       -3.59448       -10.82570        -2.34655
|111>    H       -2.65866       -12.95956        -4.34092
|112>    H       -4.79147       -13.98382        -4.15411
|113>    H       -5.38554       -12.09323        -1.81561
|114>    H       -7.41374       -15.85061        -4.60529
|115>    H      -10.14765       -15.96433        -2.49379
|116>    H      -10.53542       -14.77299        -0.66703
|117>    H       -8.92119       -12.58915         0.73883
|118>    H      -11.60986       -13.98749         1.36197
|119>    H       -9.99108       -11.82004         2.80012
|120>    H      -14.65906       -12.77362         4.78536
|121>    H       -9.99352       -10.40498         4.36656
|122>    H      -12.24282        -9.54139         7.88512
|123>    H      -13.85401       -11.32668         7.34340
|124>    H       -9.88399        -8.12678         5.65627
|125>    H       -9.07401        -9.23972         6.75373
|126>    H      -10.37477        -8.20793         7.35377
|127>    H      -13.83958       -13.98757         6.90113
|128>    H      -11.36445       -16.65417         5.20814
|129>    H      -16.39046       -14.76436         5.34416
|130>    H      -17.21396       -16.88374         4.39962
|131>    H      -16.83724       -19.25756         3.99432
|132>    H      -15.19515       -19.91872         3.95854
|133>    H      -15.80679       -18.99248         2.58986
|134>    H      -13.23831       -18.45407         4.27806
|135> *
|136>
|137>                          ****END OF INPUT****

CARTESIAN COORDINATES (ANGSTROEM)
---------------------------------
  C     12.716320   -9.833040  -12.115850
  C     12.217670   -9.313340  -10.985910
  C     12.704400   -8.178130  -10.254340
  C     11.994420   -7.885640   -9.143040
  C     10.895090   -8.757990   -8.900020
  S     10.798790   -9.974690  -10.155700
  C      9.999670   -8.702220   -7.859350
  C      9.979940   -7.780040   -6.780150
  C      8.948000   -7.976830   -5.923490
  C      8.100140   -9.073780   -6.257570
  S      8.683650   -9.851500   -7.702330
  C      6.945660   -9.364130   -5.574500
  C      5.994300  -10.382140   -5.754530
  O      4.776870  -10.140410   -5.201510
  C      3.957320  -11.180820   -5.492460
  C      4.649120  -12.118450   -6.233390
  C      5.964370  -11.637350   -6.397290
  C      7.085930  -12.390090   -6.934060
  O      8.244280  -12.098310   -6.690610
  C      6.730270  -13.592780   -7.775430
  C      2.616490  -11.199240   -5.037820
  C      2.057660  -10.217670   -4.281820
  C      0.736910  -10.229900   -3.799810
  S     -0.399090  -11.510100   -4.128550
  C     -1.671560  -10.786450   -3.186440
  C     -1.218090   -9.576710   -2.638740
  C      0.128530   -9.262660   -2.991030
  N      0.709080   -8.126670   -2.561620
  C     -0.010420   -7.323210   -1.814670
  C      0.622540   -6.047150   -1.351750
  C      1.961350   -5.763330   -2.042710
  O      2.944510   -6.718500   -1.752440
  C     -1.351160   -7.657660   -1.442620
  C     -2.161740   -6.771420   -0.538780
  N     -1.485300   -6.610450    0.743640
  N     -1.934070   -8.758940   -1.846660
  C     -2.939220  -11.366270   -3.014250
  C     -3.349940  -12.506300   -3.640050
  C     -4.593270  -13.161660   -3.482140
  C     -5.537960  -12.875640   -2.544180
  C     -6.752560  -13.587760   -2.421370
  O     -7.594370  -13.302190   -1.389660
  C     -8.675580  -14.120010   -1.470820
  C     -8.533590  -14.942450   -2.581920
  C     -7.309480  -14.611080   -3.188300
  O     -6.787890  -15.180650   -4.299000
  O     -9.368500  -15.910830   -3.057070
  C     -9.716670  -14.082630   -0.505960
  C     -9.740990  -13.275400    0.579800
  C    -10.797960  -13.298330    1.533930
  C    -10.804320  -12.509280    2.623480
  N    -11.778640  -12.483750    3.604170
  C    -12.872660  -13.320930    3.684330
  O    -13.178380  -14.173130    2.881750
  C    -13.611400  -13.014380    4.985020
  C    -12.832930  -11.870500    5.542420
  C    -11.746220  -11.614140    4.703290
  C    -10.840680  -10.616300    5.000600
  C    -11.024680   -9.866450    6.160780
  C    -12.108520  -10.127060    6.987960
  C    -13.018130  -11.131580    6.688160
  C    -10.036090   -8.793610    6.503490
  C    -13.551170  -14.270460    5.885030
  C    -12.119360  -14.821270    5.871310
  O    -11.110680  -14.249500    6.210470
  N    -12.181150  -16.087290    5.373060
  C    -13.476060  -16.464580    5.043330
  C    -14.349270  -15.417720    5.349310
  C    -15.698320  -15.561940    5.117930
  C    -16.157480  -16.759320    4.585840
  C    -15.290640  -17.801510    4.279910
  C    -15.814190  -19.069920    3.677490
  C    -13.925050  -17.654730    4.513210
  H     13.581750   -9.399520  -12.585320
  H     12.273330  -10.691420  -12.586340
  H     13.566310   -7.633230  -10.596860
  H     12.216870   -7.069920   -8.478150
  H     10.722310   -7.009840   -6.670740
  H      8.757400   -7.377290   -5.050500
  H      6.666110   -8.654340   -4.804220
  H      4.253660  -13.050640   -6.580510
  H      5.988830  -13.328640   -8.525050
  H      6.318910  -14.373810   -7.138570
  H      7.628040  -13.969850   -8.258030
  H      2.032750  -12.064070   -5.320010
  H      2.649350   -9.355870   -4.005210
  H      0.764960   -6.112050   -0.270180
  H     -0.061820   -5.216980   -1.536690
  H      2.355540   -4.804630   -1.695280
  H      1.796900   -5.701520   -3.129300
  H      2.581090   -7.569240   -2.044510
  H     -3.166450   -7.214750   -0.458950
  H     -2.258620   -5.778000   -0.990060
  H     -1.400510   -7.511600    1.202980
  H     -2.028330   -6.005450    1.349680
  H     -3.594480  -10.825700   -2.346550
  H     -2.658660  -12.959560   -4.340920
  H     -4.791470  -13.983820   -4.154110
  H     -5.385540  -12.093230   -1.815610
  H     -7.413740  -15.850610   -4.605290
  H    -10.147650  -15.964330   -2.493790
  H    -10.535420  -14.772990   -0.667030
  H     -8.921190  -12.589150    0.738830
  H    -11.609860  -13.987490    1.361970
  H     -9.991080  -11.820040    2.800120
  H    -14.659060  -12.773620    4.785360
  H     -9.993520  -10.404980    4.366560
  H    -12.242820   -9.541390    7.885120
  H    -13.854010  -11.326680    7.343400
  H     -9.883990   -8.126780    5.656270
  H     -9.074010   -9.239720    6.753730
  H    -10.374770   -8.207930    7.353770
  H    -13.839580  -13.987570    6.901130
  H    -11.364450  -16.654170    5.208140
  H    -16.390460  -14.764360    5.344160
  H    -17.213960  -16.883740    4.399620
  H    -16.837240  -19.257560    3.994320
  H    -15.195150  -19.918720    3.958540
  H    -15.806790  -18.992480    2.589860
  H    -13.238310  -18.454070    4.278060

 Total Charge           Charge          ....    0
 Multiplicity           Mult            ....    1
 Number of Electrons    NEL             ....  536
 Basis Dimension        Dim             .... 1269

ORBITAL ENERGIES
----------------

  NO   OCC          E(Eh)            E(eV)
   0   2.0000     -88.956498     -2420.6294
   1   2.0000     -88.930580     -2419.9241
   2   2.0000     -88.929881     -2419.9051
   3   2.0000     -19.275902      -524.5239
   4   2.0000     -19.274578      -524.4879
   5   2.0000     -19.260139      -524.0950
   6   2.0000     -19.252509      -523.8874
   7   2.0000     -19.197549      -522.3919
   8   2.0000     -19.184509      -522.0370
   9   2.0000     -19.181820      -521.9639
  10   2.0000     -19.164458      -521.4914
  11   2.0000     -14.464347      -393.5949
  12   2.0000     -14.444604      -393.0577
  13   2.0000     -14.414794      -392.2465
  14   2.0000     -14.414668      -392.2431
  15   2.0000     -14.388145      -391.5213
  16   2.0000     -10.377431      -282.3843
  17   2.0000     -10.371637      -282.2266
  18   2.0000     -10.334699      -281.2215
  19   2.0000     -10.327893      -281.0363
  20   2.0000     -10.327394      -281.0227
  21   2.0000     -10.325969      -280.9839
  22   2.0000     -10.320578      -280.8372
  23   2.0000     -10.318241      -280.7736
  24   2.0000     -10.317268      -280.7471
  25   2.0000     -10.314407      -280.6693
  26   2.0000     -10.309744      -280.5424
  27   2.0000     -10.309614      -280.5389
  28   2.0000     -10.307106      -280.4706
  29   2.0000     -10.307075      -280.4698
  30   2.0000     -10.303046      -280.3601
  31   2.0000     -10.299590      -280.2661
  32   2.0000     -10.299579      -280.2658
  33   2.0000     -10.297390      -280.2062
  34   2.0000     -10.297076      -280.1977
  35   2.0000     -10.296996      -280.1955
  36   2.0000     -10.294098      -280.1166
  37   2.0000     -10.293851      -280.1099
  38   2.0000     -10.293176      -280.0916
  39   2.0000     -10.293040      -280.0879
  40   2.0000     -10.291244      -280.0390
  41   2.0000     -10.283435      -279.8265
  42   2.0000     -10.282378      -279.7977
  43   2.0000     -10.278539      -279.6933
  44   2.0000     -10.276111      -279.6272
  45   2.0000     -10.274139      -279.5735
  46   2.0000     -10.273702      -279.5617
  47   2.0000     -10.273026      -279.5432
  48   2.0000     -10.271395      -279.4989
  49   2.0000     -10.270712      -279.4803
  50   2.0000     -10.270259      -279.4680
  51   2.0000     -10.270123      -279.4642
  52   2.0000     -10.269983      -279.4604
  53   2.0000     -10.268913      -279.4313
  54   2.0000     -10.268697      -279.4254
  55   2.0000     -10.268177      -279.4113
  56   2.0000     -10.266643      -279.3696
  57   2.0000     -10.266269      -279.3594
  58   2.0000     -10.265593      -279.3410
  59   2.0000     -10.265534      -279.3394
  60   2.0000     -10.265464      -279.3375
  61   2.0000     -10.264203      -279.3032
  62   2.0000     -10.263607      -279.2870
  63   2.0000     -10.263028      -279.2712
  64   2.0000     -10.260672      -279.2071
  65   2.0000     -10.260357      -279.1985
  66   2.0000     -10.260265      -279.1960
  67   2.0000     -10.259407      -279.1727
  68   2.0000     -10.258960      -279.1605
  69   2.0000     -10.258436      -279.1462
  70   2.0000     -10.256029      -279.0807
  71   2.0000     -10.251403      -278.9548
  72   2.0000     -10.249359      -278.8992
  73   2.0000      -8.051247      -219.0856
  74   2.0000      -8.027268      -218.4331
  75   2.0000      -8.025231      -218.3776
  76   2.0000      -6.020172      -163.8172
  77   2.0000      -6.016390      -163.7143
  78   2.0000      -6.013918      -163.6470
  79   2.0000      -5.997092      -163.1892
  80   2.0000      -5.994923      -163.1301
  81   2.0000      -5.993148      -163.0819
  82   2.0000      -5.990691      -163.0150
  83   2.0000      -5.987812      -162.9366
  84   2.0000      -5.986365      -162.8973
  85   2.0000      -1.195250       -32.5244
  86   2.0000      -1.193434       -32.4750
  87   2.0000      -1.153076       -31.3768
  88   2.0000      -1.140201       -31.0264
  89   2.0000      -1.136425       -30.9237
  90   2.0000      -1.124972       -30.6120
  91   2.0000      -1.098510       -29.8920
  92   2.0000      -1.073206       -29.2034
  93   2.0000      -1.064082       -28.9552
  94   2.0000      -1.057286       -28.7702
  95   2.0000      -1.045084       -28.4382
  96   2.0000      -0.996287       -27.1103
  97   2.0000      -0.981478       -26.7074
  98   2.0000      -0.974999       -26.5311
  99   2.0000      -0.959771       -26.1167
 100   2.0000      -0.958695       -26.0874
 101   2.0000      -0.952256       -25.9122
 102   2.0000      -0.938413       -25.5355
 103   2.0000      -0.919661       -25.0253
 104   2.0000      -0.910704       -24.7815
 105   2.0000      -0.904260       -24.6062
 106   2.0000      -0.896708       -24.4007
 107   2.0000      -0.894117       -24.3302
 108   2.0000      -0.880951       -23.9719
 109   2.0000      -0.879201       -23.9243
 110   2.0000      -0.874707       -23.8020
 111   2.0000      -0.867879       -23.6162
 112   2.0000      -0.861052       -23.4304
 113   2.0000      -0.853645       -23.2289
 114   2.0000      -0.841869       -22.9084
 115   2.0000      -0.839170       -22.8350
 116   2.0000      -0.835221       -22.7275
 117   2.0000      -0.829535       -22.5728
 118   2.0000      -0.823778       -22.4161
 119   2.0000      -0.821958       -22.3666
 120   2.0000      -0.813680       -22.1414
 121   2.0000      -0.810357       -22.0509
 122   2.0000      -0.809172       -22.0187
 123   2.0000      -0.804445       -21.8901
 124   2.0000      -0.794005       -21.6060
 125   2.0000      -0.777920       -21.1683
 126   2.0000      -0.769977       -20.9521
 127   2.0000      -0.760041       -20.6818
 128   2.0000      -0.751485       -20.4490
 129   2.0000      -0.746232       -20.3060
 130   2.0000      -0.738393       -20.0927
 131   2.0000      -0.728987       -19.8367
 132   2.0000      -0.724784       -19.7224
 133   2.0000      -0.716528       -19.4977
 134   2.0000      -0.712179       -19.3794
 135   2.0000      -0.705225       -19.1901
 136   2.0000      -0.699790       -19.0422
 137   2.0000      -0.697834       -18.9890
 138   2.0000      -0.692256       -18.8372
 139   2.0000      -0.685419       -18.6512
 140   2.0000      -0.678573       -18.4649
 141   2.0000      -0.672523       -18.3003
 142   2.0000      -0.669499       -18.2180
 143   2.0000      -0.665175       -18.1003
 144   2.0000      -0.655146       -17.8274
 145   2.0000      -0.652450       -17.7541
 146   2.0000      -0.652072       -17.7438
 147   2.0000      -0.648002       -17.6330
 148   2.0000      -0.640950       -17.4411
 149   2.0000      -0.628218       -17.0947
 150   2.0000      -0.626406       -17.0454
 151   2.0000      -0.618842       -16.8395
 152   2.0000      -0.615818       -16.7573
 153   2.0000      -0.613662       -16.6986
 154   2.0000      -0.604961       -16.4618
 155   2.0000      -0.604137       -16.4394
 156   2.0000      -0.600079       -16.3290
 157   2.0000      -0.597244       -16.2518
 158   2.0000      -0.589934       -16.0529
 159   2.0000      -0.589294       -16.0355
 160   2.0000      -0.587247       -15.9798
 161   2.0000      -0.582011       -15.8373
 162   2.0000      -0.576852       -15.6970
 163   2.0000      -0.572665       -15.5830
 164   2.0000      -0.564303       -15.3555
 165   2.0000      -0.560723       -15.2581
 166   2.0000      -0.557992       -15.1837
 167   2.0000      -0.556605       -15.1460
 168   2.0000      -0.555050       -15.1037
 169   2.0000      -0.551637       -15.0108
 170   2.0000      -0.550254       -14.9732
 171   2.0000      -0.547653       -14.9024
 172   2.0000      -0.544964       -14.8292
 173   2.0000      -0.541417       -14.7327
 174   2.0000      -0.538680       -14.6582
 175   2.0000      -0.535518       -14.5722
 176   2.0000      -0.531333       -14.4583
 177   2.0000      -0.528939       -14.3932
 178   2.0000      -0.525727       -14.3058
 179   2.0000      -0.524001       -14.2588
 180   2.0000      -0.515502       -14.0275
 181   2.0000      -0.513916       -13.9844
 182   2.0000      -0.513032       -13.9603
 183   2.0000      -0.511717       -13.9245
 184   2.0000      -0.510531       -13.8923
 185   2.0000      -0.510243       -13.8844
 186   2.0000      -0.507975       -13.8227
 187   2.0000      -0.506183       -13.7739
 188   2.0000      -0.503097       -13.6900
 189   2.0000      -0.498342       -13.5606
 190   2.0000      -0.497424       -13.5356
 191   2.0000      -0.496524       -13.5111
 192   2.0000      -0.495053       -13.4711
 193   2.0000      -0.494384       -13.4529
 194   2.0000      -0.493407       -13.4263
 195   2.0000      -0.491636       -13.3781
 196   2.0000      -0.489741       -13.3265
 197   2.0000      -0.486261       -13.2318
 198   2.0000      -0.485808       -13.2195
 199   2.0000      -0.483227       -13.1493
 200   2.0000      -0.481989       -13.1156
 201   2.0000      -0.480094       -13.0640
 202   2.0000      -0.478669       -13.0252
 203   2.0000      -0.477173       -12.9845
 204   2.0000      -0.475604       -12.9418
 205   2.0000      -0.475342       -12.9347
 206   2.0000      -0.471314       -12.8251
 207   2.0000      -0.467464       -12.7203
 208   2.0000      -0.466687       -12.6992
 209   2.0000      -0.464168       -12.6307
 210   2.0000      -0.461084       -12.5467
 211   2.0000      -0.458464       -12.4754
 212   2.0000      -0.456781       -12.4296
 213   2.0000      -0.455974       -12.4077
 214   2.0000      -0.455550       -12.3962
 215   2.0000      -0.454890       -12.3782
 216   2.0000      -0.450421       -12.2566
 217   2.0000      -0.448517       -12.2048
 218   2.0000      -0.447204       -12.1690
 219   2.0000      -0.443671       -12.0729
 220   2.0000      -0.442981       -12.0541
 221   2.0000      -0.440240       -11.9795
 222   2.0000      -0.437745       -11.9116
 223   2.0000      -0.437092       -11.8939
 224   2.0000      -0.433615       -11.7993
 225   2.0000      -0.432564       -11.7707
 226   2.0000      -0.428700       -11.6655
 227   2.0000      -0.428336       -11.6556
 228   2.0000      -0.426613       -11.6087
 229   2.0000      -0.424866       -11.5612
 230   2.0000      -0.423151       -11.5145
 231   2.0000      -0.418369       -11.3844
 232   2.0000      -0.414666       -11.2836
 233   2.0000      -0.414322       -11.2743
 234   2.0000      -0.410289       -11.1645
 235   2.0000      -0.405731       -11.0405
 236   2.0000      -0.405530       -11.0350
 237   2.0000      -0.399633       -10.8746
 238   2.0000      -0.397746       -10.8232
 239   2.0000      -0.391179       -10.6445
 240   2.0000      -0.388056       -10.5596
 241   2.0000      -0.386345       -10.5130
 242   2.0000      -0.377126       -10.2621
 243   2.0000      -0.375170       -10.2089
 244   2.0000      -0.372859       -10.1460
 245   2.0000      -0.366012        -9.9597
 246   2.0000      -0.348371        -9.4797
 247   2.0000      -0.343384        -9.3440
 248   2.0000      -0.337229        -9.1765
 249   2.0000      -0.331998        -9.0341
 250   2.0000      -0.328961        -8.9515
 251   2.0000      -0.326937        -8.8964
 252   2.0000      -0.319908        -8.7051
 253   2.0000      -0.316137        -8.6025
 254   2.0000      -0.313405        -8.5282
 255   2.0000      -0.311433        -8.4745
 256   2.0000      -0.308850        -8.4042
 257   2.0000      -0.307728        -8.3737
 258   2.0000      -0.305587        -8.3154
 259   2.0000      -0.301278        -8.1982
 260   2.0000      -0.294646        -8.0177
 261   2.0000      -0.294219        -8.0061
 262   2.0000      -0.284492        -7.7414
 263   2.0000      -0.272828        -7.4240
 264   2.0000      -0.266291        -7.2461
 265   2.0000      -0.240447        -6.5429
 266   2.0000      -0.214872        -5.8470
 267   2.0000      -0.194169        -5.2836
 268   0.0000      -0.074262        -2.0208
 269   0.0000      -0.055738        -1.5167
 270   0.0000      -0.025426        -0.6919
 271   0.0000       0.000081         0.0022
 272   0.0000       0.007337         0.1996

MULLIKEN ATOMIC CHARGES
-----------------------
   0 C :   -0.028670
   1 C :   -0.065204
   2 C :    0.053034
   3 C :    0.032564
   4 C :   -0.066868
   5 S :    0.086903
   6 C :   -0.057021
   7 C :    0.033587
   8 C :    0.025620
   9 C :   -0.000580
  10 S :    0.136782
  11 C :   -0.076365
  12 C :    0.168122
  13 O :   -0.208506
  14 C :    0.207196
  15 C :   -0.088468
  16 C :   -0.000662
  17 C :   -0.019974
  18 O :   -0.203561
  19 C :    0.045651
  20 C :   -0.041586
  21 C :   -0.010503
  22 C :   -0.139339
  23 S :    0.129223
  24 C :   -0.125675
  25 C :    0.026926
  26 C :    0.073274
  27 N :   -0.046774
  28 C :   -0.117772
  29 C :    0.078676
  30 C :    0.254098
  31 O :   -0.334411
  32 C :   -0.197543
  33 C :    0.228862
  34 N :   -0.238063
  35 N :    0.030373
  36 C :   -0.004405
  37 C :    0.010864
  38 C :   -0.012593
  39 C :   -0.000097
  40 C :    0.112609
  41 O :   -0.220741
  42 C :    0.107545
  43 C :    0.084375
  44 C :    0.056349
  45 O :   -0.175439
  46 O :   -0.206717
  47 C :   -0.068149
  48 C :    0.017161
  49 C :    0.004933
  50 C :    0.065923
  51 N :   -0.137091
  52 C :    0.118653
  53 O :   -0.193546
  54 C :    0.042295
  55 C :    0.010175
  56 C :    0.236173
  57 C :   -0.132153
  58 C :   -0.035897
  59 C :   -0.007751
  60 C :   -0.042509
  61 C :    0.090344
  62 C :    0.000446
  63 C :    0.086208
  64 O :   -0.183344
  65 N :   -0.065312
  66 C :    0.166368
  67 C :    0.023809
  68 C :   -0.044293
  69 C :   -0.012943
  70 C :   -0.038755
  71 C :    0.086516
  72 C :   -0.106567
  73 H :    0.018538
  74 H :    0.021602
  75 H :   -0.012706
  76 H :   -0.011571
  77 H :   -0.017451
  78 H :   -0.011596
  79 H :    0.002316
  80 H :   -0.023590
  81 H :    0.029250
  82 H :    0.034561
  83 H :    0.028584
  84 H :   -0.010362
  85 H :    0.004017
  86 H :    0.036789
  87 H :   -0.001200
  88 H :   -0.010021
  89 H :   -0.021751
  90 H :    0.163971
  91 H :   -0.002109
  92 H :    0.005611
  93 H :    0.097911
  94 H :    0.098008
  95 H :   -0.006063
  96 H :   -0.013352
  97 H :   -0.000111
  98 H :   -0.014500
  99 H :    0.191641
 100 H :    0.191358
 101 H :   -0.035807
 102 H :   -0.006890
 103 H :    0.018127
 104 H :    0.001222
 105 H :    0.038990
 106 H :   -0.046103
 107 H :   -0.035517
 108 H :   -0.036397
 109 H :    0.021210
 110 H :    0.031579
 111 H :    0.008421
 112 H :    0.040754
 113 H :    0.122493
 114 H :   -0.036612
 115 H :   -0.036949
 116 H :    0.015873
 117 H :    0.012326
 118 H :    0.035713
 119 H :   -0.055995
Sum of atomic charges:   -0.0000000

LOEWDIN ATOMIC CHARGES
----------------------
   0 C :   -0.075765
   1 C :   -0.139554
   2 C :   -0.029613
   3 C :   -0.025925
   4 C :   -0.168995
   5 S :    0.356758
   6 C :   -0.185151
   7 C :   -0.035945
   8 C :   -0.031490
   9 C :   -0.131364
  10 S :    0.441490
  11 C :   -0.088603
  12 C :    0.068758
  13 O :    0.009654
  14 C :    0.031841
  15 C :   -0.054758
  16 C :   -0.117572
  17 C :    0.058172
  18 O :   -0.172069
  19 C :   -0.075759
  20 C :   -0.052403
  21 C :   -0.031041
  22 C :   -0.185751
  23 S :    0.464546
  24 C :   -0.167882
  25 C :   -0.059322
  26 C :   -0.047175
  27 N :   -0.052933
  28 C :    0.022826
  29 C :   -0.060436
  30 C :    0.071582
  31 O :   -0.153267
  32 C :   -0.016374
  33 C :    0.018977
  34 N :   -0.109509
  35 N :   -0.037886
  36 C :   -0.039135
  37 C :   -0.029708
  38 C :   -0.039352
  39 C :   -0.022201
  40 C :   -0.000552
  41 O :   -0.000749
  42 C :   -0.012820
  43 C :   -0.021849
  44 C :   -0.003266
  45 O :   -0.043666
  46 O :   -0.066773
  47 C :   -0.062494
  48 C :   -0.015202
  49 C :   -0.052125
  50 C :    0.022184
  51 N :    0.023712
  52 C :    0.089280
  53 O :   -0.172401
  54 C :   -0.020256
  55 C :   -0.041267
  56 C :    0.045593
  57 C :   -0.053800
  58 C :   -0.008342
  59 C :   -0.041801
  60 C :   -0.012484
  61 C :   -0.044767
  62 C :   -0.023024
  63 C :    0.069445
  64 O :   -0.192071
  65 N :    0.028743
  66 C :    0.038930
  67 C :   -0.048524
  68 C :   -0.011219
  69 C :   -0.047557
  70 C :   -0.009357
  71 C :   -0.044854
  72 C :   -0.061619
  73 H :    0.028060
  74 H :    0.026165
  75 H :    0.032936
  76 H :    0.032506
  77 H :    0.029412
  78 H :    0.033203
  79 H :    0.043905
  80 H :    0.027744
  81 H :    0.035681
  82 H :    0.042057
  83 H :    0.037634
  84 H :    0.028047
  85 H :    0.039331
  86 H :    0.042333
  87 H :    0.033258
  88 H :    0.016231
  89 H :    0.000692
  90 H :    0.044715
  91 H :    0.012895
  92 H :    0.026199
  93 H :    0.056682
  94 H :    0.057580
  95 H :    0.034092
  96 H :    0.020487
  97 H :    0.030087
  98 H :    0.033192
  99 H :    0.102783
 100 H :    0.097870
 101 H :    0.024416
 102 H :    0.028172
 103 H :    0.031482
 104 H :    0.027328
 105 H :    0.048409
 106 H :    0.024434
 107 H :    0.023420
 108 H :    0.026067
 109 H :    0.033097
 110 H :    0.037829
 111 H :    0.028754
 112 H :    0.048754
 113 H :    0.089840
 114 H :    0.025489
 115 H :    0.022565
 116 H :    0.030632
 117 H :    0.029087
 118 H :    0.038751
 119 H :    0.022980

  Mayer bond orders larger than 0.100000
B(  0-C ,  1-C ) :   1.8628 B(  0-C , 73-H ) :   0.9510 B(  0-C , 74-H ) :   0.9419
B(  1-C ,  2-C ) :   1.0788 B(  1-C ,  5-S ) :   1.0079 B(  2-C ,  3-C ) :   1.6608
B(  2-C , 75-H ) :   0.9932 B(  3-C ,  4-C ) :   1.1510 B(  3-C , 76-H ) :   0.9922
B(  4-C ,  5-S ) :   1.0498 B(  4-C ,  6-C ) :   1.5568 B(  6-C ,  7-C ) :   1.1540
B(  6-C , 10-S ) :   1.0544 B(  7-C ,  8-C ) :   1.6167 B(  7-C , 77-H ) :   0.9917
B(  8-C ,  9-C ) :   1.1287 B(  8-C , 78-H ) :   0.9992 B(  9-C , 10-S ) :   1.0782
B(  9-C , 11-C ) :   1.5609 B( 11-C , 12-C ) :   1.2036 B( 11-C , 79-H ) :   0.9479
B( 12-C , 13-O ) :   1.1294 B( 12-C , 16-C ) :   1.3514 B( 13-O , 14-C ) :   1.1341
B( 14-C , 15-C ) :   1.4285 B( 14-C , 20-C ) :   1.1680 B( 15-C , 16-C ) :   1.2052
B( 15-C , 80-H ) :   1.0056 B( 16-C , 17-C ) :   0.9794 B( 17-C , 18-O ) :   2.1035
B( 17-C , 19-C ) :   1.0533 B( 19-C , 81-H ) :   0.9567 B( 19-C , 82-H ) :   0.9389
B( 19-C , 83-H ) :   0.9507 B( 20-C , 21-C ) :   1.5685 B( 20-C , 84-H ) :   0.9646
B( 21-C , 22-C ) :   1.1997 B( 21-C , 85-H ) :   0.9877 B( 22-C , 23-S ) :   1.1170
B( 22-C , 24-C ) :   0.1262 B( 22-C , 26-C ) :   1.3301 B( 23-S , 24-C ) :   1.1307
B( 24-C , 25-C ) :   1.3098 B( 24-C , 36-C ) :   1.2380 B( 25-C , 26-C ) :   1.2137
B( 25-C , 35-N ) :   1.3977 B( 26-C , 27-N ) :   1.3860 B( 27-N , 28-C ) :   1.6742
B( 28-C , 29-C ) :   1.0563 B( 28-C , 32-C ) :   1.1472 B( 29-C , 30-C ) :   1.0720
B( 29-C , 86-H ) :   0.8798 B( 29-C , 87-H ) :   0.9019 B( 30-C , 31-O ) :   1.0691
B( 30-C , 88-H ) :   0.9415 B( 30-C , 89-H ) :   0.9379 B( 31-O , 90-H ) :   0.9667
B( 32-C , 33-C ) :   1.0700 B( 32-C , 35-N ) :   1.7524 B( 33-C , 34-N ) :   1.0724
B( 33-C , 91-H ) :   0.9180 B( 33-C , 92-H ) :   0.9089 B( 34-N , 93-H ) :   0.9686
B( 34-N , 94-H ) :   0.9703 B( 36-C , 37-C ) :   1.5748 B( 36-C , 95-H ) :   0.9704
B( 37-C , 38-C ) :   1.1717 B( 37-C , 96-H ) :   0.9742 B( 38-C , 39-C ) :   1.6158
B( 38-C , 97-H ) :   0.9699 B( 39-C , 40-C ) :   1.1804 B( 39-C , 98-H ) :   0.9561
B( 40-C , 41-O ) :   1.1056 B( 40-C , 42-C ) :   0.1083 B( 40-C , 44-C ) :   1.3998
B( 41-O , 42-C ) :   1.1247 B( 42-C , 43-C ) :   1.3157 B( 42-C , 47-C ) :   1.1233
B( 43-C , 44-C ) :   1.2569 B( 43-C , 46-O ) :   1.2205 B( 44-C , 45-O ) :   1.2311
B( 45-O , 99-H ) :   0.9506 B( 46-O ,100-H ) :   0.9591 B( 47-C , 48-C ) :   1.6648
B( 47-C ,101-H ) :   0.9630 B( 48-C , 49-C ) :   1.0886 B( 48-C ,102-H ) :   0.9950
B( 49-C , 50-C ) :   1.6959 B( 49-C ,103-H ) :   0.9734 B( 50-C , 51-N ) :   1.0393
B( 50-C ,104-H ) :   0.9720 B( 51-N , 52-C ) :   1.0999 B( 51-N , 56-C ) :   1.0002
B( 52-C , 53-O ) :   2.0978 B( 52-C , 54-C ) :   0.9223 B( 54-C , 55-C ) :   0.9781
B( 54-C , 62-C ) :   1.0338 B( 54-C ,105-H ) :   0.8792 B( 55-C , 56-C ) :   1.3704
B( 55-C , 60-C ) :   1.4297 B( 56-C , 57-C ) :   1.3569 B( 57-C , 58-C ) :   1.3381
B( 57-C ,106-H ) :   1.0071 B( 58-C , 59-C ) :   1.4262 B( 58-C , 61-C ) :   1.0501
B( 59-C , 60-C ) :   1.3381 B( 59-C ,107-H ) :   0.9875 B( 60-C ,108-H ) :   1.0030
B( 61-C ,109-H ) :   0.9578 B( 61-C ,110-H ) :   0.9556 B( 61-C ,111-H ) :   0.9612
B( 62-C , 63-C ) :   0.8988 B( 62-C , 67-C ) :   0.9683 B( 62-C ,112-H ) :   0.8800
B( 63-C , 64-O ) :   2.1914 B( 63-C , 65-N ) :   1.1515 B( 65-N , 66-C ) :   1.0660
B( 65-N ,113-H ) :   0.9240 B( 66-C , 67-C ) :   1.3649 B( 66-C , 72-C ) :   1.3587
B( 67-C , 68-C ) :   1.4244 B( 68-C , 69-C ) :   1.3452 B( 68-C ,114-H ) :   1.0027
B( 69-C , 70-C ) :   1.4228 B( 69-C ,115-H ) :   0.9902 B( 70-C , 71-C ) :   1.0514
B( 70-C , 72-C ) :   1.3335 B( 71-C ,116-H ) :   0.9612 B( 71-C ,117-H ) :   0.9600
B( 71-C ,118-H ) :   0.9539 B( 72-C ,119-H ) :   1.0081

-----------------------------------------------------------------------------
         ABSORPTION SPECTRUM VIA TRANSITION ELECTRIC DIPOLE MOMENTS
-----------------------------------------------------------------------------
State   Energy  Wavelength   fosc         T2         TX        TY        TZ
        (cm-1)    (nm)                  (au**2)     (au)      (au)      (au)
-----------------------------------------------------------------------------
   0   12650.1    790.5   2.072736741  53.94196   6.59056   1.45688  -2.89552
   1   17842.3    560.5   0.241580450   4.45744   1.37003  -0.01711  -1.60629
   2   18947.2    527.8   0.059990471   1.04235  -0.66111  -0.74828   0.21296
   3   22944.0    435.8   0.586023469   8.40854   2.37743   0.56552  -1.56095
   4   23332.3    428.6   0.159754603   2.25409   0.62821   0.22307  -1.34524
   5   24452.5    409.0   0.047593659   0.64077   0.52038   0.47437  -0.38071
   6   27967.5    357.6   0.049356472   0.58099  -0.49528  -0.06286  -0.57596
   7   28764.9    347.6   0.038415252   0.43966   0.61210  -0.08091   0.24177
   8   28804.5    347.2   0.009006869   0.10294  -0.21466   0.10708  -0.21306
   9   29308.4    341.2   0.007108669   0.07985   0.07513  -0.25451   0.09710
  10   29755.1    336.1   0.022722336   0.25140   0.03613   0.30114   0.39926
  11   30512.7    327.7   0.398158898   4.29587   0.68816  -1.14249  -1.58651
  12   31389.0    318.6   0.299279185   3.13888   0.79127  -0.95401  -1.26595
  13   32030.8    312.2   0.163817976   1.68372   0.15619  -0.96302  -0.85552
  14   33016.9    302.9   0.088553823   0.88297   0.13072   0.66926   0.64651
  15   33205.1    301.2   0.013046753   0.12935   0.07454  -0.28362  -0.20822
  16   33551.9    298.0   0.035057553   0.34399  -0.01225   0.38505   0.44223
  17   34053.7    293.7   0.103483669   1.00042   0.21603  -0.83234  -0.51085
  18   34739.8    287.9   0.397713163   3.76893   0.11740  -1.50582  -1.21970
  19   34828.2    287.1   0.011038550   0.10434   0.15206   0.07959  -0.27365
  20   35485.0    281.8   0.098175281   0.91082   0.02320   0.86313   0.40657
  21   35656.3    280.5   0.004406237   0.04068  -0.11879  -0.16268  -0.01038
  22   35680.3    280.3   0.003200606   0.02953   0.11656   0.12627   0.00010
  23   35875.2    278.7   0.027843184   0.25551  -0.00875   0.43863   0.25107
  24   36196.5    276.3   0.006577002   0.05982   0.14183  -0.07139  -0.18602
  25   36419.3    274.6   0.306954316   2.77471   0.50205  -1.08027  -1.16434
  26   37391.3    267.4   0.017725981   0.15607   0.29765   0.25576  -0.04535
  27   37526.7    266.5   0.010826170   0.09498   0.08676   0.29404  -0.03142
  28   37982.9    263.3   0.025777693   0.22342  -0.25774  -0.39598  -0.01403
  29   38101.9    262.5   0.016321979   0.14103   0.22071  -0.02550  -0.30276
  30   38292.9    261.1   0.223492920   1.92141  -0.02191   0.87457   1.07520
  31   39127.6    255.6   0.017211191   0.14481   0.07289  -0.36374  -0.08481
  32   39781.7    251.4   0.029607865   0.24502   0.31178   0.06792  -0.37841

FINAL SINGLE POINT ENERGY     -4266.229355343200

DIPOLE MOMENT
-------------
                                X             Y             Z
Electronic contribution:     41.62862      -8.89400     -36.41928
Nuclear contribution   :    -44.81735       8.45842      37.16294
                        -----------------------------------------
Total Dipole Moment    :     -3.18873      -0.43558       0.74365
                        -----------------------------------------
Magnitude (a.u.)       :      3.30314
Magnitude (Debye)      :      8.39592

Rotational constants in cm-1:     0.001902     0.000153     0.000145
Rotational constants in MHz :    57.027667     4.578110     4.332977

                             ****ORCA TERMINATED NORMALLY****
TOTAL RUN TIME: 0 days 0 hours 11 minutes 17 seconds 911 msec
