                         Program Version 4.2.0 -  RELEASE  -
|  1> # ORCA input file
|  2> # SCF done       -164.773687385039          0.000580421478
|  3> ! CAM-B3LYP def2-SVP def2/J RIJCOSX Grid4 TightSCF
|  4> %maxcore 5000
|  5> %tddft
|  6>     Mode sTDDFT
|  7>     Ethresh 5.0
|  8>     maxcore 5000
|  9> end
| 10>
| 11> %pal
| 12>   nprocs 6
| 13>   end
| 14> * xyz 0 1
| 15>    C        1.29846        -2.43984         0.95796
| 16>    S        2.00929        -3.54834         2.06766
| 17>    C        0.99405        -4.87130         1.55837
| 18>    C        1.07199        -6.20808         2.20758
| 19>    C        0.36339        -6.20351         3.56410
| 20>    C        0.15855        -4.43305         0.58473
| 21>    C        0.32422        -3.04650         0.22909
| 22>    N       -0.51487        -2.61340        -0.75600
| 23>    C       -1.28528        -3.55368        -1.16031
| 24>    S       -1.10192        -5.15222        -0.38572
| 25>    N       -2.21414        -3.37912        -2.12746
| 26>    C       -2.41239        -2.16580        -2.72794
| 27>    S       -1.45819        -0.81328        -2.25182
| 28>    C       -2.34022         0.16005        -3.39638
| 29>    N       -1.99954         1.50994        -3.51893
| 30>    O       -2.62186         2.18532        -4.31988
| 31>    O       -1.09503         1.91705        -2.80993
| 32>    C       -3.30170        -0.52807        -4.08468
| 33>    C       -3.36139        -1.88643        -3.71560
| 34>    C       -4.25287        -2.86749        -4.27956
| 35>    C       -5.28836        -2.59303        -5.09355
| 36>    C       -6.12753        -3.61129        -5.65538
| 37>    C       -7.20620        -3.39360        -6.42381
| 38>    C       -7.69465        -2.03205        -6.81438
| 39>    C       -8.00024        -4.55330        -6.97394
| 40>    N       -7.91985        -4.58477        -8.41569
| 41>    C       -8.90786        -4.19844        -9.23540
| 42>    C       -8.74702        -3.98212       -10.57455
| 43>    C       -9.75325        -3.64430       -11.49445
| 44>    C      -11.11319        -3.52582       -11.32478
| 45>    C      -12.02637        -3.18640       -12.35125
| 46>    C      -13.33519        -3.16649       -11.96965
| 47>    C      -13.53805        -3.48846       -10.61196
| 48>    S      -12.00991        -3.80348        -9.83455
| 49>    C      -14.73678        -3.57650        -9.92207
| 50>    C      -16.03668        -3.35671       -10.41204
| 51>    C      -17.01590        -3.54605        -9.47700
| 52>    C      -16.53588        -3.91828        -8.20547
| 53>    S      -14.79532        -4.02952        -8.22967
| 54>    C      -17.30014        -4.19089        -7.08205
| 55>    C      -16.76363        -4.51571        -5.84762
| 56>    C      -17.43858        -4.84538        -4.68490
| 57>    C      -16.75511        -4.69933        -3.38673
| 58>    O      -15.57240        -4.48996        -3.19839
| 59>    C      -17.81881        -4.81467        -2.36545
| 60>    C      -17.73480        -4.67155        -1.01238
| 61>    C      -18.90717        -4.79495        -0.23082
| 62>    C      -20.14857        -5.05987        -0.87640
| 63>    C      -21.31402        -5.17413        -0.09461
| 64>    C      -21.22876        -5.03348         1.26250
| 65>    C      -20.01779        -4.77569         1.91653
| 66>    C      -18.87684        -4.65907         1.17124
| 67>    F      -22.34385        -5.14450         2.01284
| 68>    C      -20.20283        -5.21180        -2.28314
| 69>    C      -19.05401        -5.09755        -3.01528
| 70>    C      -18.79650        -5.23638        -4.45108
| 71>    C      -19.65986        -5.83544        -5.34406
| 72>    C      -19.29952        -6.25714        -6.63719
| 73>    N      -19.05602        -6.67330        -7.68067
| 74>    C      -20.97938        -6.20837        -5.03142
| 75>    N      -22.07246        -6.51277        -4.84611
| 76>    H        1.63536        -1.42560         0.91165
| 77>    H        2.11862        -6.48516         2.34867
| 78>    H        0.60324        -6.94340         1.54909
| 79>    H        0.82579        -5.47609         4.22722
| 80>    H        0.42861        -7.18597         4.02368
| 81>    H       -0.68607        -5.94509         3.44293
| 82>    H       -2.79835        -4.15964        -2.39091
| 83>    H       -3.91977        -0.06374        -4.83039
| 84>    H       -4.06053        -3.90322        -4.02587
| 85>    H       -5.51789        -1.56926        -5.34193
| 86>    H       -5.85452        -4.63250        -5.41773
| 87>    H       -6.88773        -1.42173        -7.21534
| 88>    H       -8.10430        -1.51492        -5.94745
| 89>    H       -8.47594        -2.10235        -7.56699
| 90>    H       -9.05277        -4.45679        -6.69385
| 91>    H       -7.61731        -5.49797        -6.57463
| 92>    H       -6.98925        -4.65788        -8.80391
| 93>    H       -9.87423        -4.09140        -8.76609
| 94>    H       -7.74683        -4.07297       -10.97881
| 95>    H       -9.41304        -3.45707       -12.50575
| 96>    H      -11.68643        -2.97126       -13.34923
| 97>    H      -14.15365        -2.93705       -12.62729
| 98>    H      -16.22284        -3.06887       -11.43119
| 99>    H      -18.06852        -3.43661        -9.66715
|100>    H      -18.37060        -4.11160        -7.20312
|101>    H      -15.68770        -4.41843        -5.73147
|102>    H      -16.78583        -4.46603        -0.53982
|103>    H      -22.26407        -5.37570        -0.56448
|104>    H      -20.01086        -4.67499         2.99035
|105>    H      -17.93087        -4.45985         1.65247
|106>    H      -21.15791        -5.40879        -2.74352
|107> *
|108>
|109>                          ****END OF INPUT****

CARTESIAN COORDINATES (ANGSTROEM)
---------------------------------
  C      1.298460   -2.439840    0.957960
  S      2.009290   -3.548340    2.067660
  C      0.994050   -4.871300    1.558370
  C      1.071990   -6.208080    2.207580
  C      0.363390   -6.203510    3.564100
  C      0.158550   -4.433050    0.584730
  C      0.324220   -3.046500    0.229090
  N     -0.514870   -2.613400   -0.756000
  C     -1.285280   -3.553680   -1.160310
  S     -1.101920   -5.152220   -0.385720
  N     -2.214140   -3.379120   -2.127460
  C     -2.412390   -2.165800   -2.727940
  S     -1.458190   -0.813280   -2.251820
  C     -2.340220    0.160050   -3.396380
  N     -1.999540    1.509940   -3.518930
  O     -2.621860    2.185320   -4.319880
  O     -1.095030    1.917050   -2.809930
  C     -3.301700   -0.528070   -4.084680
  C     -3.361390   -1.886430   -3.715600
  C     -4.252870   -2.867490   -4.279560
  C     -5.288360   -2.593030   -5.093550
  C     -6.127530   -3.611290   -5.655380
  C     -7.206200   -3.393600   -6.423810
  C     -7.694650   -2.032050   -6.814380
  C     -8.000240   -4.553300   -6.973940
  N     -7.919850   -4.584770   -8.415690
  C     -8.907860   -4.198440   -9.235400
  C     -8.747020   -3.982120  -10.574550
  C     -9.753250   -3.644300  -11.494450
  C    -11.113190   -3.525820  -11.324780
  C    -12.026370   -3.186400  -12.351250
  C    -13.335190   -3.166490  -11.969650
  C    -13.538050   -3.488460  -10.611960
  S    -12.009910   -3.803480   -9.834550
  C    -14.736780   -3.576500   -9.922070
  C    -16.036680   -3.356710  -10.412040
  C    -17.015900   -3.546050   -9.477000
  C    -16.535880   -3.918280   -8.205470
  S    -14.795320   -4.029520   -8.229670
  C    -17.300140   -4.190890   -7.082050
  C    -16.763630   -4.515710   -5.847620
  C    -17.438580   -4.845380   -4.684900
  C    -16.755110   -4.699330   -3.386730
  O    -15.572400   -4.489960   -3.198390
  C    -17.818810   -4.814670   -2.365450
  C    -17.734800   -4.671550   -1.012380
  C    -18.907170   -4.794950   -0.230820
  C    -20.148570   -5.059870   -0.876400
  C    -21.314020   -5.174130   -0.094610
  C    -21.228760   -5.033480    1.262500
  C    -20.017790   -4.775690    1.916530
  C    -18.876840   -4.659070    1.171240
  F    -22.343850   -5.144500    2.012840
  C    -20.202830   -5.211800   -2.283140
  C    -19.054010   -5.097550   -3.015280
  C    -18.796500   -5.236380   -4.451080
  C    -19.659860   -5.835440   -5.344060
  C    -19.299520   -6.257140   -6.637190
  N    -19.056020   -6.673300   -7.680670
  C    -20.979380   -6.208370   -5.031420
  N    -22.072460   -6.512770   -4.846110
  H      1.635360   -1.425600    0.911650
  H      2.118620   -6.485160    2.348670
  H      0.603240   -6.943400    1.549090
  H      0.825790   -5.476090    4.227220
  H      0.428610   -7.185970    4.023680
  H     -0.686070   -5.945090    3.442930
  H     -2.798350   -4.159640   -2.390910
  H     -3.919770   -0.063740   -4.830390
  H     -4.060530   -3.903220   -4.025870
  H     -5.517890   -1.569260   -5.341930
  H     -5.854520   -4.632500   -5.417730
  H     -6.887730   -1.421730   -7.215340
  H     -8.104300   -1.514920   -5.947450
  H     -8.475940   -2.102350   -7.566990
  H     -9.052770   -4.456790   -6.693850
  H     -7.617310   -5.497970   -6.574630
  H     -6.989250   -4.657880   -8.803910
  H     -9.874230   -4.091400   -8.766090
  H     -7.746830   -4.072970  -10.978810
  H     -9.413040   -3.457070  -12.505750
  H    -11.686430   -2.971260  -13.349230
  H    -14.153650   -2.937050  -12.627290
  H    -16.222840   -3.068870  -11.431190
  H    -18.068520   -3.436610   -9.667150
  H    -18.370600   -4.111600   -7.203120
  H    -15.687700   -4.418430   -5.731470
  H    -16.785830   -4.466030   -0.539820
  H    -22.264070   -5.375700   -0.564480
  H    -20.010860   -4.674990    2.990350
  H    -17.930870   -4.459850    1.652470
  H    -21.157910   -5.408790   -2.743520

 Total Charge           Charge          ....    0
 Multiplicity           Mult            ....    1
 Number of Electrons    NEL             ....  462
 Basis Dimension        Dim             .... 1029

ORBITAL ENERGIES
----------------

  NO   OCC          E(Eh)            E(eV)
   0   2.0000     -88.977942     -2421.2129
   1   2.0000     -88.974897     -2421.1300
   2   2.0000     -88.963715     -2420.8258
   3   2.0000     -88.962285     -2420.7868
   4   2.0000     -88.951993     -2420.5068
   5   2.0000     -24.767626      -673.9614
   6   2.0000     -19.228926      -523.2457
   7   2.0000     -19.228190      -523.2257
   8   2.0000     -19.182044      -521.9700
   9   2.0000     -14.639850      -398.3706
  10   2.0000     -14.499639      -394.5552
  11   2.0000     -14.471485      -393.7891
  12   2.0000     -14.422745      -392.4629
  13   2.0000     -14.386193      -391.4682
  14   2.0000     -14.383966      -391.4076
  15   2.0000     -10.397862      -282.9402
  16   2.0000     -10.367795      -282.1220
  17   2.0000     -10.349519      -281.6247
  18   2.0000     -10.349408      -281.6217
  19   2.0000     -10.335455      -281.2420
  20   2.0000     -10.333689      -281.1940
  21   2.0000     -10.332403      -281.1590
  22   2.0000     -10.326314      -280.9933
  23   2.0000     -10.317342      -280.7491
  24   2.0000     -10.316011      -280.7129
  25   2.0000     -10.311355      -280.5862
  26   2.0000     -10.310600      -280.5657
  27   2.0000     -10.310407      -280.5604
  28   2.0000     -10.309642      -280.5396
  29   2.0000     -10.309328      -280.5311
  30   2.0000     -10.307646      -280.4853
  31   2.0000     -10.307430      -280.4794
  32   2.0000     -10.302605      -280.3481
  33   2.0000     -10.302487      -280.3449
  34   2.0000     -10.301252      -280.3113
  35   2.0000     -10.298787      -280.2442
  36   2.0000     -10.297977      -280.2222
  37   2.0000     -10.295392      -280.1519
  38   2.0000     -10.295204      -280.1467
  39   2.0000     -10.290804      -280.0270
  40   2.0000     -10.290699      -280.0242
  41   2.0000     -10.290478      -280.0181
  42   2.0000     -10.290279      -280.0127
  43   2.0000     -10.288293      -279.9587
  44   2.0000     -10.288121      -279.9540
  45   2.0000     -10.285128      -279.8726
  46   2.0000     -10.283377      -279.8249
  47   2.0000     -10.283305      -279.8230
  48   2.0000     -10.281878      -279.7841
  49   2.0000     -10.279754      -279.7263
  50   2.0000     -10.278806      -279.7005
  51   2.0000     -10.278648      -279.6962
  52   2.0000     -10.278165      -279.6831
  53   2.0000     -10.275142      -279.6008
  54   2.0000     -10.275109      -279.5999
  55   2.0000     -10.272402      -279.5263
  56   2.0000     -10.269232      -279.4400
  57   2.0000     -10.268890      -279.4307
  58   2.0000     -10.265299      -279.3330
  59   2.0000     -10.263926      -279.2956
  60   2.0000     -10.258766      -279.1552
  61   2.0000      -8.071384      -219.6335
  62   2.0000      -8.071054      -219.6245
  63   2.0000      -8.059438      -219.3085
  64   2.0000      -8.057896      -219.2665
  65   2.0000      -8.048136      -219.0009
  66   2.0000      -6.041126      -164.3874
  67   2.0000      -6.041012      -164.3843
  68   2.0000      -6.037150      -164.2792
  69   2.0000      -6.036433      -164.2597
  70   2.0000      -6.032994      -164.1661
  71   2.0000      -6.031353      -164.1215
  72   2.0000      -6.029076      -164.0595
  73   2.0000      -6.027328      -164.0119
  74   2.0000      -6.025061      -163.9503
  75   2.0000      -6.022974      -163.8935
  76   2.0000      -6.020671      -163.8308
  77   2.0000      -6.019968      -163.8117
  78   2.0000      -6.017700      -163.7499
  79   2.0000      -6.013708      -163.6413
  80   2.0000      -6.009392      -163.5239
  81   2.0000      -1.309326       -35.6286
  82   2.0000      -1.281555       -34.8729
  83   2.0000      -1.127984       -30.6940
  84   2.0000      -1.127043       -30.6684
  85   2.0000      -1.095560       -29.8117
  86   2.0000      -1.070344       -29.1255
  87   2.0000      -1.058224       -28.7957
  88   2.0000      -1.005052       -27.3488
  89   2.0000      -0.998809       -27.1790
  90   2.0000      -0.989244       -26.9187
  91   2.0000      -0.980905       -26.6918
  92   2.0000      -0.979045       -26.6412
  93   2.0000      -0.974589       -26.5199
  94   2.0000      -0.964161       -26.2362
  95   2.0000      -0.950568       -25.8663
  96   2.0000      -0.940817       -25.6009
  97   2.0000      -0.919866       -25.0308
  98   2.0000      -0.912372       -24.8269
  99   2.0000      -0.907950       -24.7066
 100   2.0000      -0.903074       -24.5739
 101   2.0000      -0.889196       -24.1962
 102   2.0000      -0.883839       -24.0505
 103   2.0000      -0.878816       -23.9138
 104   2.0000      -0.870221       -23.6799
 105   2.0000      -0.864128       -23.5141
 106   2.0000      -0.857853       -23.3434
 107   2.0000      -0.852310       -23.1925
 108   2.0000      -0.842590       -22.9280
 109   2.0000      -0.831208       -22.6183
 110   2.0000      -0.830492       -22.5988
 111   2.0000      -0.827864       -22.5273
 112   2.0000      -0.811909       -22.0932
 113   2.0000      -0.805070       -21.9071
 114   2.0000      -0.800897       -21.7935
 115   2.0000      -0.794464       -21.6185
 116   2.0000      -0.784580       -21.3495
 117   2.0000      -0.773453       -21.0467
 118   2.0000      -0.760871       -20.7043
 119   2.0000      -0.739767       -20.1301
 120   2.0000      -0.731653       -19.9093
 121   2.0000      -0.729942       -19.8627
 122   2.0000      -0.721643       -19.6369
 123   2.0000      -0.717576       -19.5262
 124   2.0000      -0.710473       -19.3330
 125   2.0000      -0.696789       -18.9606
 126   2.0000      -0.687612       -18.7109
 127   2.0000      -0.685321       -18.6485
 128   2.0000      -0.674490       -18.3538
 129   2.0000      -0.663639       -18.0585
 130   2.0000      -0.655357       -17.8332
 131   2.0000      -0.651901       -17.7391
 132   2.0000      -0.647620       -17.6226
 133   2.0000      -0.645526       -17.5656
 134   2.0000      -0.637545       -17.3485
 135   2.0000      -0.633779       -17.2460
 136   2.0000      -0.626441       -17.0463
 137   2.0000      -0.624379       -16.9902
 138   2.0000      -0.621363       -16.9082
 139   2.0000      -0.619326       -16.8527
 140   2.0000      -0.615636       -16.7523
 141   2.0000      -0.609272       -16.5791
 142   2.0000      -0.606947       -16.5159
 143   2.0000      -0.603762       -16.4292
 144   2.0000      -0.596460       -16.2305
 145   2.0000      -0.595473       -16.2036
 146   2.0000      -0.586391       -15.9565
 147   2.0000      -0.582687       -15.8557
 148   2.0000      -0.581206       -15.8154
 149   2.0000      -0.569139       -15.4870
 150   2.0000      -0.567331       -15.4379
 151   2.0000      -0.564307       -15.3556
 152   2.0000      -0.562515       -15.3068
 153   2.0000      -0.558401       -15.1949
 154   2.0000      -0.552889       -15.0449
 155   2.0000      -0.549533       -14.9535
 156   2.0000      -0.545149       -14.8342
 157   2.0000      -0.540080       -14.6963
 158   2.0000      -0.539560       -14.6822
 159   2.0000      -0.535300       -14.5663
 160   2.0000      -0.535025       -14.5588
 161   2.0000      -0.532943       -14.5021
 162   2.0000      -0.528194       -14.3729
 163   2.0000      -0.525053       -14.2874
 164   2.0000      -0.515080       -14.0160
 165   2.0000      -0.510823       -13.9002
 166   2.0000      -0.508474       -13.8363
 167   2.0000      -0.507835       -13.8189
 168   2.0000      -0.506718       -13.7885
 169   2.0000      -0.504932       -13.7399
 170   2.0000      -0.502136       -13.6638
 171   2.0000      -0.497638       -13.5414
 172   2.0000      -0.496887       -13.5210
 173   2.0000      -0.491056       -13.3623
 174   2.0000      -0.490080       -13.3358
 175   2.0000      -0.484994       -13.1974
 176   2.0000      -0.483441       -13.1551
 177   2.0000      -0.479446       -13.0464
 178   2.0000      -0.478818       -13.0293
 179   2.0000      -0.475075       -12.9274
 180   2.0000      -0.474754       -12.9187
 181   2.0000      -0.473093       -12.8735
 182   2.0000      -0.469547       -12.7770
 183   2.0000      -0.467974       -12.7342
 184   2.0000      -0.461735       -12.5644
 185   2.0000      -0.460535       -12.5318
 186   2.0000      -0.459818       -12.5123
 187   2.0000      -0.458329       -12.4718
 188   2.0000      -0.455210       -12.3869
 189   2.0000      -0.453801       -12.3485
 190   2.0000      -0.450646       -12.2627
 191   2.0000      -0.444270       -12.0892
 192   2.0000      -0.442480       -12.0405
 193   2.0000      -0.440307       -11.9814
 194   2.0000      -0.434988       -11.8366
 195   2.0000      -0.434656       -11.8276
 196   2.0000      -0.433361       -11.7924
 197   2.0000      -0.429179       -11.6786
 198   2.0000      -0.422781       -11.5045
 199   2.0000      -0.422262       -11.4903
 200   2.0000      -0.417368       -11.3571
 201   2.0000      -0.416404       -11.3309
 202   2.0000      -0.415623       -11.3097
 203   2.0000      -0.410387       -11.1672
 204   2.0000      -0.408191       -11.1074
 205   2.0000      -0.405525       -11.0349
 206   2.0000      -0.402782       -10.9602
 207   2.0000      -0.397037       -10.8039
 208   2.0000      -0.392016       -10.6673
 209   2.0000      -0.389744       -10.6055
 210   2.0000      -0.384805       -10.4711
 211   2.0000      -0.380955       -10.3663
 212   2.0000      -0.375351       -10.2138
 213   2.0000      -0.370083       -10.0705
 214   2.0000      -0.360178        -9.8009
 215   2.0000      -0.358194        -9.7470
 216   2.0000      -0.357004        -9.7146
 217   2.0000      -0.352642        -9.5959
 218   2.0000      -0.351481        -9.5643
 219   2.0000      -0.346514        -9.4291
 220   2.0000      -0.329616        -8.9693
 221   2.0000      -0.327502        -8.9118
 222   2.0000      -0.319890        -8.7047
 223   2.0000      -0.307573        -8.3695
 224   2.0000      -0.303617        -8.2619
 225   2.0000      -0.290574        -7.9069
 226   2.0000      -0.287647        -7.8273
 227   2.0000      -0.279355        -7.6016
 228   2.0000      -0.270172        -7.3518
 229   2.0000      -0.263590        -7.1726
 230   2.0000      -0.213571        -5.8116
 231   0.0000      -0.096615        -2.6290
 232   0.0000      -0.048987        -1.3330
 233   0.0000      -0.046060        -1.2533
 234   0.0000      -0.036734        -0.9996
 235   0.0000      -0.026367        -0.7175

MULLIKEN ATOMIC CHARGES
-----------------------
   0 C :   -0.184774
   1 S :    0.119447
   2 C :   -0.325691
   3 C :    0.083698
   4 C :    0.014640
   5 C :    0.015346
   6 C :    0.157487
   7 N :   -0.115994
   8 C :   -0.001036
   9 S :    0.079884
  10 N :    0.000523
  11 C :   -0.109776
  12 S :    0.225316
  13 C :   -0.003880
  14 N :    0.270551
  15 O :   -0.258939
  16 O :   -0.265033
  17 C :   -0.005281
  18 C :    0.137833
  19 C :   -0.029444
  20 C :    0.002668
  21 C :    0.012831
  22 C :   -0.219851
  23 C :    0.086217
  24 C :    0.212591
  25 N :   -0.133270
  26 C :    0.069625
  27 C :   -0.049561
  28 C :    0.037981
  29 C :   -0.060592
  30 C :    0.058546
  31 C :    0.006617
  32 C :   -0.005049
  33 S :    0.049805
  34 C :   -0.067602
  35 C :    0.043623
  36 C :    0.025603
  37 C :   -0.011161
  38 S :    0.098173
  39 C :   -0.006610
  40 C :    0.020920
  41 C :   -0.140763
  42 C :    0.137789
  43 O :   -0.171410
  44 C :    0.003419
  45 C :   -0.090064
  46 C :    0.102250
  47 C :    0.100799
  48 C :   -0.099535
  49 C :    0.301525
  50 C :   -0.038722
  51 C :   -0.011884
  52 F :   -0.198304
  53 C :   -0.094138
  54 C :    0.044455
  55 C :    0.296516
  56 C :   -0.367876
  57 C :   -0.221942
  58 N :    0.152520
  59 C :   -0.173501
  60 N :    0.124305
  61 H :    0.022245
  62 H :    0.019780
  63 H :    0.009439
  64 H :    0.018359
  65 H :    0.021201
  66 H :    0.019588
  67 H :    0.143685
  68 H :   -0.000454
  69 H :   -0.043945
  70 H :   -0.011786
  71 H :   -0.033690
  72 H :    0.037226
  73 H :    0.044519
  74 H :    0.014774
  75 H :    0.035840
  76 H :    0.013982
  77 H :    0.125946
  78 H :    0.032461
  79 H :   -0.021487
  80 H :   -0.002008
  81 H :   -0.007129
  82 H :   -0.010390
  83 H :   -0.008531
  84 H :   -0.002132
  85 H :    0.004840
  86 H :    0.005954
  87 H :   -0.022586
  88 H :   -0.006474
  89 H :   -0.003296
  90 H :   -0.017321
  91 H :   -0.010432
Sum of atomic charges:   -0.0000000

LOEWDIN ATOMIC CHARGES
----------------------
   0 C :   -0.203811
   1 S :    0.441316
   2 C :   -0.192222
   3 C :   -0.042812
   4 C :   -0.049634
   5 C :   -0.214790
   6 C :   -0.057715
   7 N :   -0.149215
   8 C :   -0.074787
   9 S :    0.328875
  10 N :    0.026724
  11 C :   -0.101078
  12 S :    0.520088
  13 C :   -0.222840
  14 N :    0.273890
  15 O :   -0.225611
  16 O :   -0.231397
  17 C :   -0.005266
  18 C :   -0.107059
  19 C :   -0.022157
  20 C :   -0.027493
  21 C :   -0.045378
  22 C :   -0.048360
  23 C :   -0.054064
  24 C :    0.049374
  25 N :    0.031863
  26 C :    0.068367
  27 C :   -0.138725
  28 C :    0.002679
  29 C :   -0.191066
  30 C :   -0.000436
  31 C :   -0.064913
  32 C :   -0.135470
  33 S :    0.386227
  34 C :   -0.209784
  35 C :   -0.005197
  36 C :   -0.049877
  37 C :   -0.097271
  38 S :    0.397577
  39 C :   -0.079509
  40 C :    0.049105
  41 C :   -0.120906
  42 C :    0.074772
  43 O :   -0.173891
  44 C :   -0.054317
  45 C :    0.022804
  46 C :   -0.021850
  47 C :    0.000935
  48 C :   -0.044103
  49 C :    0.088533
  50 C :   -0.045335
  51 C :    0.000507
  52 F :   -0.072406
  53 C :    0.002647
  54 C :   -0.012297
  55 C :    0.066867
  56 C :   -0.164658
  57 C :   -0.023990
  58 N :   -0.072394
  59 C :   -0.019410
  60 N :   -0.076918
  61 H :    0.030439
  62 H :    0.033826
  63 H :    0.031467
  64 H :    0.023706
  65 H :    0.025731
  66 H :    0.026577
  67 H :    0.095560
  68 H :    0.038564
  69 H :    0.017765
  70 H :    0.027213
  71 H :    0.022675
  72 H :    0.038135
  73 H :    0.044620
  74 H :    0.030205
  75 H :    0.037875
  76 H :    0.028518
  77 H :    0.085553
  78 H :    0.015632
  79 H :    0.026796
  80 H :    0.042028
  81 H :    0.036235
  82 H :    0.033033
  83 H :    0.034355
  84 H :    0.038207
  85 H :    0.036938
  86 H :    0.030804
  87 H :    0.035118
  88 H :    0.041407
  89 H :    0.038551
  90 H :    0.032428
  91 H :    0.037300

  Mayer bond orders larger than 0.100000
B(  0-C ,  1-S ) :   1.1326 B(  0-C ,  6-C ) :   1.5351 B(  0-C , 61-H ) :   0.9812
B(  1-S ,  2-C ) :   1.1600 B(  2-C ,  3-C ) :   1.0585 B(  2-C ,  5-C ) :   1.6303
B(  3-C ,  4-C ) :   1.0985 B(  3-C , 62-H ) :   0.9245 B(  3-C , 63-H ) :   0.9340
B(  4-C , 64-H ) :   0.9713 B(  4-C , 65-H ) :   0.9691 B(  4-C , 66-H ) :   0.9719
B(  5-C ,  6-C ) :   1.1906 B(  5-C ,  9-S ) :   0.9961 B(  6-C ,  7-N ) :   1.2329
B(  7-N ,  8-C ) :   1.6785 B(  8-C ,  9-S ) :   1.0319 B(  8-C , 10-N ) :   1.1676
B( 10-N , 11-C ) :   1.1716 B( 10-N , 67-H ) :   0.9005 B( 11-C , 12-S ) :   1.1805
B( 11-C , 18-C ) :   1.3701 B( 12-S , 13-C ) :   1.0386 B( 13-C , 14-N ) :   0.9763
B( 13-C , 17-C ) :   1.4906 B( 14-N , 15-O ) :   1.5287 B( 14-N , 16-O ) :   1.5172
B( 15-O , 16-O ) :   0.2569 B( 17-C , 18-C ) :   1.2334 B( 17-C , 68-H ) :   1.0007
B( 18-C , 19-C ) :   1.0363 B( 19-C , 20-C ) :   1.7507 B( 19-C , 69-H ) :   0.9762
B( 20-C , 21-C ) :   1.0944 B( 20-C , 70-H ) :   0.9708 B( 21-C , 22-C ) :   1.7697
B( 21-C , 71-H ) :   0.9776 B( 22-C , 23-C ) :   1.0642 B( 22-C , 24-C ) :   1.0542
B( 23-C , 72-H ) :   0.9473 B( 23-C , 73-H ) :   0.9458 B( 23-C , 74-H ) :   0.9506
B( 24-C , 25-N ) :   0.9832 B( 24-C , 75-H ) :   0.9277 B( 24-C , 76-H ) :   0.9403
B( 25-N , 26-C ) :   1.3076 B( 25-N , 77-H ) :   0.9363 B( 26-C , 27-C ) :   1.4923
B( 26-C , 78-H ) :   0.9450 B( 27-C , 28-C ) :   1.2815 B( 27-C , 79-H ) :   0.9612
B( 28-C , 29-C ) :   1.5255 B( 28-C , 80-H ) :   0.9602 B( 29-C , 30-C ) :   1.1889
B( 29-C , 33-S ) :   1.0109 B( 30-C , 31-C ) :   1.5424 B( 30-C , 81-H ) :   0.9974
B( 31-C , 32-C ) :   1.2264 B( 31-C , 82-H ) :   0.9933 B( 32-C , 33-S ) :   1.0874
B( 32-C , 34-C ) :   1.4285 B( 34-C , 35-C ) :   1.2508 B( 34-C , 38-S ) :   1.0358
B( 35-C , 36-C ) :   1.5060 B( 35-C , 83-H ) :   0.9939 B( 36-C , 37-C ) :   1.2165
B( 36-C , 84-H ) :   1.0010 B( 37-C , 38-S ) :   1.0988 B( 37-C , 39-C ) :   1.4416
B( 39-C , 40-C ) :   1.2822 B( 39-C , 85-H ) :   0.9631 B( 40-C , 41-C ) :   1.4582
B( 40-C , 86-H ) :   0.9405 B( 41-C , 42-C ) :   0.9823 B( 41-C , 55-C ) :   1.1197
B( 42-C , 43-O ) :   2.2355 B( 42-C , 44-C ) :   0.9160 B( 44-C , 45-C ) :   1.4881
B( 44-C , 54-C ) :   1.2173 B( 45-C , 46-C ) :   1.1768 B( 45-C , 87-H ) :   1.0142
B( 46-C , 47-C ) :   1.2638 B( 46-C , 51-C ) :   1.2409 B( 47-C , 48-C ) :   1.2048
B( 47-C , 53-C ) :   1.1922 B( 48-C , 49-C ) :   1.4383 B( 48-C , 88-H ) :   1.0068
B( 49-C , 50-C ) :   1.2611 B( 49-C , 52-F ) :   1.0804 B( 50-C , 51-C ) :   1.4526
B( 50-C , 89-H ) :   0.9930 B( 51-C , 90-H ) :   0.9963 B( 53-C , 54-C ) :   1.4737
B( 53-C , 91-H ) :   0.9927 B( 54-C , 55-C ) :   0.9857 B( 55-C , 56-C ) :   1.5699
B( 56-C , 57-C ) :   1.1731 B( 56-C , 59-C ) :   1.1432 B( 57-C , 58-N ) :   3.0106
B( 59-C , 60-N ) :   2.9653

-----------------------------------------------------------------------------
         ABSORPTION SPECTRUM VIA TRANSITION ELECTRIC DIPOLE MOMENTS
-----------------------------------------------------------------------------
State   Energy  Wavelength   fosc         T2         TX        TY        TZ
        (cm-1)    (nm)                  (au**2)     (au)      (au)      (au)
-----------------------------------------------------------------------------
   0   11624.7    860.2   1.296503604  36.71697   5.18132   0.78177  -3.04299
   1   21904.9    456.5   0.020605591   0.30968  -0.36317   0.35685  -0.22461
   2   23343.4    428.4   0.142423777   2.00860   0.76233  -0.72902   0.94656
   3   25081.7    398.7   0.269908317   3.54270  -1.20870   0.34645  -1.40061
   4   26365.2    379.3   0.415663753   5.19022   0.87172   0.07416   2.10353
   5   27061.5    369.5   0.006420791   0.07811   0.07304   0.19853  -0.18265
   6   27332.0    365.9   0.094974472   1.14396  -0.36853   0.14469  -0.99358
   7   27718.4    360.8   0.009101401   0.10810  -0.05615   0.28636  -0.15146
   8   27920.0    358.2   0.124691244   1.47027   0.26919  -1.01969   0.59837
   9   28642.6    349.1   0.066073034   0.75943   0.09858   0.23404   0.83363
  10   29055.9    344.2   0.297922312   3.37555   0.43688  -1.49900   0.96834
  11   31089.6    321.7   0.026482750   0.28043  -0.18108   0.12050  -0.48282
  12   31737.3    315.1   0.292353017   3.03258   0.31612  -0.26109   1.69248
  13   32218.5    310.4   0.073293872   0.74892   0.16544   0.28121   0.80154
  14   32711.5    305.7   0.991934980   9.98294  -2.46797  -0.28854  -1.95162
  15   32862.5    304.3   0.071756606   0.71885  -0.27444  -0.09348  -0.79674
  16   33262.9    300.6   0.011680615   0.11561   0.21913  -0.07952  -0.24752
  17   33495.3    298.5   0.000134566   0.00132  -0.02034  -0.02751  -0.01234
  18   33852.3    295.4   0.442515188   4.30344   0.25180  -0.18534  -2.05078
  19   34741.6    287.8   0.082356437   0.78041   0.47524   0.03568   0.74383
  20   34894.8    286.6   0.001944720   0.01835  -0.04395  -0.11034  -0.06512
  21   35721.0    279.9   0.029971074   0.27622   0.04086  -0.49654   0.16732
  22   36252.0    275.8   0.020969870   0.19043  -0.23520   0.23048  -0.28634
  23   36764.1    272.0   0.018085334   0.16195   0.20606   0.30623   0.16035
  24   37450.6    267.0   0.200923354   1.76623  -0.17789  -0.19166  -1.30302
  25   37888.7    263.9   0.137472674   1.19449   0.27787   1.05675  -0.02344
  26   38070.0    262.7   0.185247622   1.60194  -0.78284  -0.47137  -0.87573
  27   38260.9    261.4   0.055058253   0.47374  -0.32709  -0.55189  -0.24935
  28   39197.9    255.1   0.096157918   0.80760   0.52679   0.24590   0.68529
  29   39563.1    252.8   0.012397071   0.10316  -0.12679   0.02209  -0.29427
  30   39897.0    250.6   0.013080072   0.10793   0.18201   0.05100   0.26871
  31   40259.2    248.4   0.048185924   0.39403  -0.46583  -0.07231  -0.41450
  32   40268.4    248.3   0.021210206   0.17340   0.35001   0.00816   0.22545

FINAL SINGLE POINT ENERGY     -4412.695527985490

DIPOLE MOMENT
-------------
                                X             Y             Z
Electronic contribution:    -32.11208       6.51041      15.07942
Nuclear contribution   :     38.05713      -7.43695     -16.39117
                        -----------------------------------------
Total Dipole Moment    :      5.94505      -0.92654      -1.31175
                        -----------------------------------------
Magnitude (a.u.)       :      6.15815
Magnitude (Debye)      :     15.65278

Rotational constants in cm-1:     0.001003     0.000274     0.000228
Rotational constants in MHz :    30.068068     8.226664     6.831197

                             ****ORCA TERMINATED NORMALLY****
TOTAL RUN TIME: 0 days 0 hours 7 minutes 40 seconds 340 msec
