                         Program Version 4.2.0 -  RELEASE  -
|  1> # ORCA input file
|  2> # SCF done       -161.289098952548          0.000598750828
|  3> ! CAM-B3LYP def2-SVP def2/J RIJCOSX Grid4 TightSCF
|  4> %maxcore 5000
|  5> %tddft
|  6>     Mode sTDDFT
|  7>     Ethresh 5.0
|  8>     maxcore 5000
|  9> end
| 10>
| 11> %pal
| 12>   nprocs 6
| 13>   end
| 14> * xyz 0 1
| 15>    C       16.70415        -4.60551         1.82583
| 16>    C       17.39052        -5.57335         2.48635
| 17>    O       18.39862        -5.04242         3.20089
| 18>    C       18.38041        -3.72771         2.99280
| 19>    C       17.34788        -3.37656         2.15825
| 20>    C       17.08404        -1.99884         1.72037
| 21>    O       17.96589        -1.15641         1.71543
| 22>    C       15.73158        -1.64584         1.30091
| 23>    C       15.37803        -0.45452         0.71401
| 24>    C       14.01085        -0.32104         0.44879
| 25>    C       13.29540        -1.42223         0.85379
| 26>    S       14.32386        -2.63705         1.55417
| 27>    N       11.95654        -1.70201         0.78512
| 28>    C       10.96994        -1.06418         0.10280
| 29>    S       11.25300         0.30731        -0.90968
| 30>    C        9.57557         0.30255        -1.36528
| 31>    N        9.15408         1.29887        -2.24523
| 32>    O        7.98096         1.31513        -2.57229
| 33>    O       10.00657         2.08887        -2.62278
| 34>    C        8.85377        -0.69564        -0.77016
| 35>    C        9.63066        -1.49444         0.09160
| 36>    C        9.13331        -2.58278         0.88006
| 37>    C        7.94828        -3.21070         0.66719
| 38>    C        7.45285        -4.24635         1.48214
| 39>    C        6.30621        -4.94867         1.21849
| 40>    C        5.73307        -5.97882         2.00719
| 41>    C        4.59883        -6.51910         1.48576
| 42>    C        4.21242        -5.95808         0.24631
| 43>    S        5.32982        -4.69374        -0.22103
| 44>    C        3.14818        -6.31847        -0.55350
| 45>    C        2.17536        -7.31481        -0.30297
| 46>    C        1.26238        -7.46690        -1.29838
| 47>    C        1.46282        -6.59820        -2.40613
| 48>    S        2.85589        -5.56369        -2.10754
| 49>    C        0.76795        -6.50129        -3.57564
| 50>    N       -0.31954        -7.26248        -3.87255
| 51>    C       -1.00149        -7.26104        -5.04259
| 52>    S       -0.48292        -6.28002        -6.37622
| 53>    C       -1.79805        -6.90837        -7.32283
| 54>    N       -1.92108        -6.43088        -8.62576
| 55>    O       -2.83694        -6.85426        -9.30919
| 56>    O       -1.08769        -5.61095        -8.98605
| 57>    C       -2.57658        -7.81036        -6.64739
| 58>    C       -2.14262        -8.02930        -5.32767
| 59>    C       -2.77904        -8.90023        -4.37297
| 60>    C       -3.82441        -9.69826        -4.64487
| 61>    C       -4.46771       -10.55741        -3.68854
| 62>    C       -4.20268       -10.75610        -2.35670
| 63>    O       -5.04646       -11.65542        -1.82446
| 64>    C       -5.88563       -12.04009        -2.79140
| 65>    C       -5.59816       -11.40540        -3.96874
| 66>    C       -6.24233       -11.58232        -5.28186
| 67>    O       -5.62199       -11.48999        -6.32564
| 68>    C       -7.67106       -11.87147        -5.26396
| 69>    C       -8.61365       -11.67471        -4.28344
| 70>    C       -9.90834       -12.02331        -4.69767
| 71>    C       -9.93791       -12.47678        -5.98416
| 72>    S       -8.39744       -12.47186        -6.72178
| 73>    H       15.87599        -4.75175         1.16441
| 74>    H       17.26543        -6.63719         2.52544
| 75>    H       19.11367        -3.11980         3.48443
| 76>    H       16.11285         0.29624         0.48587
| 77>    H       13.58101         0.55388         0.00031
| 78>    H       11.67263        -2.55979         1.24257
| 79>    H        7.80038        -0.82034        -0.93951
| 80>    H        9.74405        -2.91690         1.71013
| 81>    H        7.33903        -2.92906        -0.18054
| 82>    H        8.00574        -4.51065         2.37423
| 83>    H        6.18126        -6.28370         2.93649
| 84>    H        4.03616        -7.30842         1.95114
| 85>    H        2.17840        -7.89196         0.60417
| 86>    H        0.46209        -8.18608        -1.26432
| 87>    H        1.07201        -5.79531        -4.33296
| 88>    H       -0.64186        -7.90745        -3.16205
| 89>    H       -3.42595        -8.28277        -7.10479
| 90>    H       -2.38273        -8.89285        -3.36540
| 91>    H       -4.23263        -9.74739        -5.64224
| 92>    H       -3.46696       -10.33849        -1.69899
| 93>    H       -6.60760       -12.79403        -2.54646
| 94>    H       -8.38712       -11.26740        -3.31504
| 95>    H      -10.78003       -11.94110        -4.07347
| 96>    H      -10.79076       -12.81178        -6.54113
| 97> *
| 98>
| 99>                          ****END OF INPUT****

CARTESIAN COORDINATES (ANGSTROEM)
---------------------------------
  C     16.704150   -4.605510    1.825830
  C     17.390520   -5.573350    2.486350
  O     18.398620   -5.042420    3.200890
  C     18.380410   -3.727710    2.992800
  C     17.347880   -3.376560    2.158250
  C     17.084040   -1.998840    1.720370
  O     17.965890   -1.156410    1.715430
  C     15.731580   -1.645840    1.300910
  C     15.378030   -0.454520    0.714010
  C     14.010850   -0.321040    0.448790
  C     13.295400   -1.422230    0.853790
  S     14.323860   -2.637050    1.554170
  N     11.956540   -1.702010    0.785120
  C     10.969940   -1.064180    0.102800
  S     11.253000    0.307310   -0.909680
  C      9.575570    0.302550   -1.365280
  N      9.154080    1.298870   -2.245230
  O      7.980960    1.315130   -2.572290
  O     10.006570    2.088870   -2.622780
  C      8.853770   -0.695640   -0.770160
  C      9.630660   -1.494440    0.091600
  C      9.133310   -2.582780    0.880060
  C      7.948280   -3.210700    0.667190
  C      7.452850   -4.246350    1.482140
  C      6.306210   -4.948670    1.218490
  C      5.733070   -5.978820    2.007190
  C      4.598830   -6.519100    1.485760
  C      4.212420   -5.958080    0.246310
  S      5.329820   -4.693740   -0.221030
  C      3.148180   -6.318470   -0.553500
  C      2.175360   -7.314810   -0.302970
  C      1.262380   -7.466900   -1.298380
  C      1.462820   -6.598200   -2.406130
  S      2.855890   -5.563690   -2.107540
  C      0.767950   -6.501290   -3.575640
  N     -0.319540   -7.262480   -3.872550
  C     -1.001490   -7.261040   -5.042590
  S     -0.482920   -6.280020   -6.376220
  C     -1.798050   -6.908370   -7.322830
  N     -1.921080   -6.430880   -8.625760
  O     -2.836940   -6.854260   -9.309190
  O     -1.087690   -5.610950   -8.986050
  C     -2.576580   -7.810360   -6.647390
  C     -2.142620   -8.029300   -5.327670
  C     -2.779040   -8.900230   -4.372970
  C     -3.824410   -9.698260   -4.644870
  C     -4.467710  -10.557410   -3.688540
  C     -4.202680  -10.756100   -2.356700
  O     -5.046460  -11.655420   -1.824460
  C     -5.885630  -12.040090   -2.791400
  C     -5.598160  -11.405400   -3.968740
  C     -6.242330  -11.582320   -5.281860
  O     -5.621990  -11.489990   -6.325640
  C     -7.671060  -11.871470   -5.263960
  C     -8.613650  -11.674710   -4.283440
  C     -9.908340  -12.023310   -4.697670
  C     -9.937910  -12.476780   -5.984160
  S     -8.397440  -12.471860   -6.721780
  H     15.875990   -4.751750    1.164410
  H     17.265430   -6.637190    2.525440
  H     19.113670   -3.119800    3.484430
  H     16.112850    0.296240    0.485870
  H     13.581010    0.553880    0.000310
  H     11.672630   -2.559790    1.242570
  H      7.800380   -0.820340   -0.939510
  H      9.744050   -2.916900    1.710130
  H      7.339030   -2.929060   -0.180540
  H      8.005740   -4.510650    2.374230
  H      6.181260   -6.283700    2.936490
  H      4.036160   -7.308420    1.951140
  H      2.178400   -7.891960    0.604170
  H      0.462090   -8.186080   -1.264320
  H      1.072010   -5.795310   -4.332960
  H     -0.641860   -7.907450   -3.162050
  H     -3.425950   -8.282770   -7.104790
  H     -2.382730   -8.892850   -3.365400
  H     -4.232630   -9.747390   -5.642240
  H     -3.466960  -10.338490   -1.698990
  H     -6.607600  -12.794030   -2.546460
  H     -8.387120  -11.267400   -3.315040
  H    -10.780030  -11.941100   -4.073470
  H    -10.790760  -12.811780   -6.541130

 Total Charge           Charge          ....    0
 Multiplicity           Mult            ....    1
 Number of Electrons    NEL             ....  452
 Basis Dimension        Dim             ....  956

ORBITAL ENERGIES
----------------

  NO   OCC          E(Eh)            E(eV)
   0   2.0000     -88.983209     -2421.3562
   1   2.0000     -88.978312     -2421.2230
   2   2.0000     -88.973810     -2421.1005
   3   2.0000     -88.963658     -2420.8242
   4   2.0000     -88.950907     -2420.4772
   5   2.0000     -88.946923     -2420.3688
   6   2.0000     -19.308547      -525.4123
   7   2.0000     -19.300296      -525.1877
   8   2.0000     -19.228377      -523.2307
   9   2.0000     -19.228335      -523.2296
  10   2.0000     -19.224973      -523.1381
  11   2.0000     -19.224906      -523.1363
  12   2.0000     -19.207682      -522.6676
  13   2.0000     -19.193501      -522.2817
  14   2.0000     -14.640501      -398.3883
  15   2.0000     -14.636977      -398.2924
  16   2.0000     -14.492341      -394.3566
  17   2.0000     -14.490011      -394.2932
  18   2.0000     -10.371185      -282.2143
  19   2.0000     -10.369404      -282.1658
  20   2.0000     -10.365721      -282.0656
  21   2.0000     -10.363125      -281.9950
  22   2.0000     -10.360839      -281.9328
  23   2.0000     -10.342831      -281.4427
  24   2.0000     -10.340038      -281.3667
  25   2.0000     -10.334548      -281.2173
  26   2.0000     -10.334010      -281.2027
  27   2.0000     -10.332361      -281.1578
  28   2.0000     -10.331060      -281.1224
  29   2.0000     -10.326271      -280.9921
  30   2.0000     -10.318001      -280.7671
  31   2.0000     -10.315409      -280.6965
  32   2.0000     -10.312130      -280.6073
  33   2.0000     -10.311102      -280.5794
  34   2.0000     -10.305739      -280.4334
  35   2.0000     -10.303860      -280.3823
  36   2.0000     -10.301516      -280.3185
  37   2.0000     -10.301496      -280.3179
  38   2.0000     -10.301385      -280.3149
  39   2.0000     -10.299134      -280.2537
  40   2.0000     -10.298004      -280.2229
  41   2.0000     -10.296009      -280.1687
  42   2.0000     -10.294111      -280.1170
  43   2.0000     -10.292941      -280.0852
  44   2.0000     -10.291806      -280.0543
  45   2.0000     -10.290821      -280.0275
  46   2.0000     -10.290623      -280.0221
  47   2.0000     -10.289975      -280.0045
  48   2.0000     -10.288536      -279.9653
  49   2.0000     -10.287147      -279.9275
  50   2.0000     -10.285326      -279.8779
  51   2.0000     -10.284999      -279.8691
  52   2.0000     -10.283588      -279.8307
  53   2.0000     -10.281885      -279.7843
  54   2.0000     -10.281453      -279.7725
  55   2.0000     -10.280983      -279.7598
  56   2.0000     -10.277525      -279.6657
  57   2.0000     -10.275393      -279.6076
  58   2.0000      -8.078241      -219.8201
  59   2.0000      -8.073783      -219.6988
  60   2.0000      -8.069692      -219.5875
  61   2.0000      -8.059365      -219.3065
  62   2.0000      -8.047260      -218.9771
  63   2.0000      -8.043214      -218.8670
  64   2.0000      -6.047986      -164.5741
  65   2.0000      -6.043556      -164.4535
  66   2.0000      -6.043443      -164.4504
  67   2.0000      -6.039693      -164.3484
  68   2.0000      -6.039279      -164.3371
  69   2.0000      -6.039110      -164.3325
  70   2.0000      -6.035043      -164.2219
  71   2.0000      -6.034952      -164.2194
  72   2.0000      -6.031311      -164.1203
  73   2.0000      -6.028482      -164.0433
  74   2.0000      -6.024112      -163.9244
  75   2.0000      -6.022001      -163.8670
  76   2.0000      -6.017235      -163.7373
  77   2.0000      -6.013165      -163.6265
  78   2.0000      -6.012970      -163.6212
  79   2.0000      -6.009033      -163.5141
  80   2.0000      -6.007710      -163.4781
  81   2.0000      -6.004007      -163.3773
  82   2.0000      -1.308913       -35.6173
  83   2.0000      -1.304913       -35.5085
  84   2.0000      -1.227692       -33.4072
  85   2.0000      -1.220434       -33.2097
  86   2.0000      -1.127975       -30.6938
  87   2.0000      -1.126763       -30.6608
  88   2.0000      -1.123982       -30.5851
  89   2.0000      -1.111998       -30.2590
  90   2.0000      -1.098419       -29.8895
  91   2.0000      -1.095363       -29.8063
  92   2.0000      -1.007093       -27.4044
  93   2.0000      -1.003162       -27.2974
  94   2.0000      -0.995732       -27.0952
  95   2.0000      -0.988182       -26.8898
  96   2.0000      -0.980276       -26.6747
  97   2.0000      -0.977036       -26.5865
  98   2.0000      -0.933896       -25.4126
  99   2.0000      -0.922178       -25.0937
 100   2.0000      -0.908812       -24.7300
 101   2.0000      -0.907069       -24.6826
 102   2.0000      -0.896322       -24.3902
 103   2.0000      -0.887274       -24.1440
 104   2.0000      -0.876161       -23.8416
 105   2.0000      -0.866939       -23.5906
 106   2.0000      -0.861150       -23.4331
 107   2.0000      -0.855323       -23.2745
 108   2.0000      -0.849337       -23.1116
 109   2.0000      -0.844678       -22.9849
 110   2.0000      -0.839200       -22.8358
 111   2.0000      -0.837429       -22.7876
 112   2.0000      -0.834652       -22.7120
 113   2.0000      -0.832384       -22.6503
 114   2.0000      -0.827770       -22.5248
 115   2.0000      -0.825963       -22.4756
 116   2.0000      -0.799958       -21.7680
 117   2.0000      -0.779483       -21.2108
 118   2.0000      -0.763970       -20.7887
 119   2.0000      -0.750534       -20.4231
 120   2.0000      -0.745365       -20.2824
 121   2.0000      -0.740315       -20.1450
 122   2.0000      -0.728311       -19.8183
 123   2.0000      -0.716483       -19.4965
 124   2.0000      -0.704849       -19.1799
 125   2.0000      -0.695010       -18.9122
 126   2.0000      -0.686030       -18.6678
 127   2.0000      -0.685914       -18.6647
 128   2.0000      -0.679246       -18.4832
 129   2.0000      -0.671020       -18.2594
 130   2.0000      -0.662876       -18.0378
 131   2.0000      -0.654868       -17.8199
 132   2.0000      -0.652664       -17.7599
 133   2.0000      -0.648852       -17.6562
 134   2.0000      -0.646485       -17.5918
 135   2.0000      -0.641424       -17.4540
 136   2.0000      -0.635269       -17.2865
 137   2.0000      -0.631787       -17.1918
 138   2.0000      -0.625043       -17.0083
 139   2.0000      -0.622920       -16.9505
 140   2.0000      -0.621824       -16.9207
 141   2.0000      -0.621059       -16.8999
 142   2.0000      -0.619475       -16.8568
 143   2.0000      -0.618235       -16.8230
 144   2.0000      -0.617188       -16.7945
 145   2.0000      -0.614534       -16.7223
 146   2.0000      -0.605251       -16.4697
 147   2.0000      -0.589301       -16.0357
 148   2.0000      -0.582747       -15.8574
 149   2.0000      -0.577007       -15.7011
 150   2.0000      -0.574667       -15.6375
 151   2.0000      -0.568161       -15.4604
 152   2.0000      -0.566918       -15.4266
 153   2.0000      -0.564095       -15.3498
 154   2.0000      -0.561500       -15.2792
 155   2.0000      -0.557983       -15.1835
 156   2.0000      -0.555551       -15.1173
 157   2.0000      -0.553518       -15.0620
 158   2.0000      -0.548069       -14.9137
 159   2.0000      -0.541428       -14.7330
 160   2.0000      -0.540617       -14.7109
 161   2.0000      -0.538845       -14.6627
 162   2.0000      -0.533484       -14.5168
 163   2.0000      -0.525943       -14.3116
 164   2.0000      -0.524011       -14.2591
 165   2.0000      -0.520267       -14.1572
 166   2.0000      -0.516453       -14.0534
 167   2.0000      -0.513666       -13.9776
 168   2.0000      -0.511731       -13.9249
 169   2.0000      -0.509613       -13.8673
 170   2.0000      -0.503351       -13.6969
 171   2.0000      -0.501970       -13.6593
 172   2.0000      -0.501084       -13.6352
 173   2.0000      -0.499915       -13.6034
 174   2.0000      -0.496420       -13.5083
 175   2.0000      -0.495113       -13.4727
 176   2.0000      -0.493359       -13.4250
 177   2.0000      -0.488789       -13.3006
 178   2.0000      -0.484113       -13.1734
 179   2.0000      -0.478986       -13.0339
 180   2.0000      -0.477919       -13.0048
 181   2.0000      -0.473795       -12.8926
 182   2.0000      -0.471461       -12.8291
 183   2.0000      -0.470582       -12.8052
 184   2.0000      -0.469631       -12.7793
 185   2.0000      -0.464795       -12.6477
 186   2.0000      -0.459614       -12.5067
 187   2.0000      -0.452889       -12.3237
 188   2.0000      -0.451651       -12.2901
 189   2.0000      -0.449941       -12.2435
 190   2.0000      -0.445232       -12.1154
 191   2.0000      -0.443161       -12.0590
 192   2.0000      -0.442346       -12.0368
 193   2.0000      -0.436976       -11.8907
 194   2.0000      -0.433853       -11.8057
 195   2.0000      -0.430060       -11.7025
 196   2.0000      -0.427011       -11.6196
 197   2.0000      -0.424229       -11.5439
 198   2.0000      -0.419747       -11.4219
 199   2.0000      -0.415502       -11.3064
 200   2.0000      -0.404333       -11.0025
 201   2.0000      -0.381746       -10.3878
 202   2.0000      -0.376762       -10.2522
 203   2.0000      -0.373750       -10.1703
 204   2.0000      -0.370046       -10.0695
 205   2.0000      -0.368764       -10.0346
 206   2.0000      -0.362372        -9.8606
 207   2.0000      -0.360808        -9.8181
 208   2.0000      -0.357508        -9.7283
 209   2.0000      -0.353924        -9.6308
 210   2.0000      -0.348630        -9.4867
 211   2.0000      -0.345716        -9.4074
 212   2.0000      -0.340310        -9.2603
 213   2.0000      -0.339455        -9.2370
 214   2.0000      -0.332625        -9.0512
 215   2.0000      -0.331829        -9.0295
 216   2.0000      -0.330181        -8.9847
 217   2.0000      -0.329896        -8.9769
 218   2.0000      -0.327317        -8.9068
 219   2.0000      -0.316333        -8.6078
 220   2.0000      -0.315476        -8.5845
 221   2.0000      -0.305977        -8.3261
 222   2.0000      -0.296289        -8.0624
 223   2.0000      -0.272593        -7.4176
 224   2.0000      -0.255594        -6.9551
 225   2.0000      -0.209672        -5.7055
 226   0.0000      -0.081165        -2.2086
 227   0.0000      -0.053753        -1.4627
 228   0.0000      -0.043019        -1.1706
 229   0.0000      -0.037886        -1.0309
 230   0.0000      -0.026806        -0.7294

MULLIKEN ATOMIC CHARGES
-----------------------
   0 C :   -0.045905
   1 C :    0.132238
   2 O :   -0.166138
   3 C :    0.110661
   4 C :   -0.071717
   5 C :    0.178457
   6 O :   -0.188745
   7 C :   -0.154405
   8 C :    0.043334
   9 C :   -0.001493
  10 C :   -0.043005
  11 S :    0.108992
  12 N :    0.003970
  13 C :   -0.097908
  14 S :    0.150341
  15 C :   -0.004028
  16 N :    0.279018
  17 O :   -0.254633
  18 O :   -0.272928
  19 C :    0.009236
  20 C :    0.131311
  21 C :   -0.068474
  22 C :    0.015489
  23 C :   -0.025809
  24 C :   -0.012988
  25 C :    0.033965
  26 C :    0.027458
  27 C :   -0.051098
  28 S :    0.065912
  29 C :   -0.049212
  30 C :    0.016282
  31 C :    0.016475
  32 C :   -0.063775
  33 S :    0.094432
  34 C :    0.057700
  35 N :   -0.026713
  36 C :   -0.116616
  37 S :    0.147566
  38 C :   -0.004635
  39 N :    0.279954
  40 O :   -0.255099
  41 O :   -0.275045
  42 C :    0.004118
  43 C :    0.125439
  44 C :   -0.026566
  45 C :    0.011060
  46 C :    0.062957
  47 C :    0.045207
  48 O :   -0.167188
  49 C :    0.081021
  50 C :   -0.041530
  51 C :    0.193633
  52 O :   -0.188383
  53 C :   -0.214283
  54 C :    0.034757
  55 C :    0.026669
  56 C :   -0.054304
  57 S :    0.179115
  58 H :   -0.000904
  59 H :    0.015174
  60 H :    0.023494
  61 H :    0.012160
  62 H :    0.008424
  63 H :    0.140171
  64 H :    0.011681
  65 H :   -0.029687
  66 H :    0.002800
  67 H :   -0.022927
  68 H :   -0.015652
  69 H :   -0.014569
  70 H :   -0.013134
  71 H :   -0.024297
  72 H :    0.027065
  73 H :    0.138831
  74 H :    0.018775
  75 H :   -0.057785
  76 H :    0.002949
  77 H :    0.001401
  78 H :    0.020344
  79 H :   -0.001845
  80 H :   -0.003049
  81 H :    0.036439
Sum of atomic charges:    0.0000000

LOEWDIN ATOMIC CHARGES
----------------------
   0 C :   -0.080282
   1 C :    0.031414
   2 O :    0.038619
   3 C :    0.075086
   4 C :   -0.124114
   5 C :    0.063096
   6 O :   -0.168265
   7 C :   -0.231827
   8 C :    0.008687
   9 C :   -0.113342
  10 C :   -0.115157
  11 S :    0.426303
  12 N :    0.025060
  13 C :   -0.100946
  14 S :    0.475833
  15 C :   -0.215327
  16 N :    0.274147
  17 O :   -0.220791
  18 O :   -0.239235
  19 C :    0.004939
  20 C :   -0.104403
  21 C :   -0.044887
  22 C :   -0.022732
  23 C :   -0.068623
  24 C :   -0.139292
  25 C :   -0.040421
  26 C :   -0.029253
  27 C :   -0.187608
  28 S :    0.363831
  29 C :   -0.175577
  30 C :   -0.026333
  31 C :   -0.050185
  32 C :   -0.192145
  33 S :    0.370120
  34 C :   -0.007649
  35 N :    0.049755
  36 C :   -0.102576
  37 S :    0.450665
  38 C :   -0.212635
  39 N :    0.274005
  40 O :   -0.221188
  41 O :   -0.241617
  42 C :    0.010514
  43 C :   -0.106490
  44 C :   -0.030799
  45 C :   -0.012695
  46 C :   -0.052753
  47 C :    0.030294
  48 O :    0.036614
  49 C :    0.052901
  50 C :   -0.098954
  51 C :    0.062896
  52 O :   -0.162887
  53 C :   -0.223249
  54 C :   -0.036297
  55 C :   -0.071127
  56 C :   -0.164835
  57 S :    0.486892
  58 H :    0.021853
  59 H :    0.024167
  60 H :    0.031401
  61 H :    0.043356
  62 H :    0.022551
  63 H :    0.092028
  64 H :    0.045318
  65 H :    0.019351
  66 H :    0.023358
  67 H :    0.029878
  68 H :    0.032341
  69 H :    0.031003
  70 H :    0.032731
  71 H :    0.024267
  72 H :    0.028651
  73 H :    0.091463
  74 H :    0.048373
  75 H :    0.013708
  76 H :    0.033412
  77 H :    0.018105
  78 H :    0.027164
  79 H :    0.031496
  80 H :    0.031742
  81 H :    0.027109

  Mayer bond orders larger than 0.100000
B(  0-C ,  1-C ) :   1.5885 B(  0-C ,  4-C ) :   1.2228 B(  0-C , 58-H ) :   0.9942
B(  1-C ,  2-O ) :   1.1408 B(  1-C , 59-H ) :   1.0002 B(  2-O ,  3-C ) :   1.1981
B(  3-C ,  4-C ) :   1.5267 B(  3-C , 60-H ) :   1.0065 B(  4-C ,  5-C ) :   0.9587
B(  5-C ,  6-O ) :   2.2116 B(  5-C ,  7-C ) :   1.0073 B(  7-C ,  8-C ) :   1.5398
B(  7-C , 11-S ) :   1.0675 B(  8-C ,  9-C ) :   1.2483 B(  8-C , 61-H ) :   0.9974
B(  9-C , 10-C ) :   1.4721 B(  9-C , 62-H ) :   0.9896 B( 10-C , 11-S ) :   1.1478
B( 10-C , 12-N ) :   1.1222 B( 12-N , 13-C ) :   1.2155 B( 12-N , 63-H ) :   0.8964
B( 13-C , 14-S ) :   1.1386 B( 13-C , 20-C ) :   1.3471 B( 14-S , 15-C ) :   1.0681
B( 15-C , 16-N ) :   0.9820 B( 15-C , 19-C ) :   1.4821 B( 16-N , 17-O ) :   1.5283
B( 16-N , 18-O ) :   1.5020 B( 17-O , 18-O ) :   0.2530 B( 19-C , 20-C ) :   1.2494
B( 19-C , 64-H ) :   0.9996 B( 20-C , 21-C ) :   1.0509 B( 21-C , 22-C ) :   1.6840
B( 21-C , 65-H ) :   0.9723 B( 22-C , 23-C ) :   1.1460 B( 22-C , 66-H ) :   0.9711
B( 23-C , 24-C ) :   1.5706 B( 23-C , 67-H ) :   0.9835 B( 24-C , 25-C ) :   1.1383
B( 24-C , 28-S ) :   1.0330 B( 25-C , 26-C ) :   1.5936 B( 25-C , 68-H ) :   0.9989
B( 26-C , 27-C ) :   1.1884 B( 26-C , 69-H ) :   0.9928 B( 27-C , 28-S ) :   1.0365
B( 27-C , 29-C ) :   1.5143 B( 29-C , 30-C ) :   1.1901 B( 29-C , 33-S ) :   1.0515
B( 30-C , 31-C ) :   1.6346 B( 30-C , 70-H ) :   0.9909 B( 31-C , 32-C ) :   1.1239
B( 31-C , 71-H ) :   0.9841 B( 32-C , 33-S ) :   1.0191 B( 32-C , 34-C ) :   1.6107
B( 34-C , 35-N ) :   1.1550 B( 34-C , 72-H ) :   0.9449 B( 35-N , 36-C ) :   1.2367
B( 35-N , 73-H ) :   0.9076 B( 36-C , 37-S ) :   1.1288 B( 36-C , 43-C ) :   1.3455
B( 37-S , 38-C ) :   1.0611 B( 38-C , 39-N ) :   0.9849 B( 38-C , 42-C ) :   1.4842
B( 39-N , 40-O ) :   1.5252 B( 39-N , 41-O ) :   1.4982 B( 40-O , 41-O ) :   0.2522
B( 42-C , 43-C ) :   1.2380 B( 42-C , 74-H ) :   1.0025 B( 43-C , 44-C ) :   1.0606
B( 44-C , 45-C ) :   1.7588 B( 44-C , 75-H ) :   0.9659 B( 45-C , 46-C ) :   1.0807
B( 45-C , 76-H ) :   0.9584 B( 46-C , 47-C ) :   1.4995 B( 46-C , 50-C ) :   1.2308
B( 47-C , 48-O ) :   1.1468 B( 47-C , 77-H ) :   1.0017 B( 48-O , 49-C ) :   1.1841
B( 49-C , 50-C ) :   1.5156 B( 49-C , 78-H ) :   1.0033 B( 50-C , 51-C ) :   0.9339
B( 51-C , 52-O ) :   2.1717 B( 51-C , 53-C ) :   0.9961 B( 53-C , 54-C ) :   1.5200
B( 53-C , 57-S ) :   1.1524 B( 54-C , 55-C ) :   1.2766 B( 54-C , 79-H ) :   0.9911
B( 55-C , 56-C ) :   1.5466 B( 55-C , 80-H ) :   0.9954 B( 56-C , 57-S ) :   1.2082
B( 56-C , 81-H ) :   0.9737

-----------------------------------------------------------------------------
         ABSORPTION SPECTRUM VIA TRANSITION ELECTRIC DIPOLE MOMENTS
-----------------------------------------------------------------------------
State   Energy  Wavelength   fosc         T2         TX        TY        TZ
        (cm-1)    (nm)                  (au**2)     (au)      (au)      (au)
-----------------------------------------------------------------------------
   0   14540.2    687.7   1.888672415  42.76235   5.32301   2.38660   2.95500
   1   21025.1    475.6   0.162829445   2.54959  -1.29027   0.57311  -0.74588
   2   23076.1    433.3   0.128414237   1.83200  -0.43965  -0.70965   1.06541
   3   24228.2    412.7   0.409160180   5.55966   1.09181   1.24838  -1.67606
   4   26088.5    383.3   0.009590522   0.12102  -0.13094  -0.25775  -0.19350
   5   27717.5    360.8   0.019702090   0.23401   0.38220   0.24855  -0.16173
   6   28282.0    353.6   0.118358786   1.37773  -1.08724   0.23401  -0.37534
   7   28932.2    345.6   0.511275503   5.81767  -1.90601   0.93352  -1.14601
   8   29747.6    336.2   0.101474578   1.12300  -0.13785   0.78886  -0.69405
   9   30692.3    325.8   0.023991303   0.25734  -0.43630  -0.25785  -0.02206
  10   31551.9    316.9   0.000328129   0.00342  -0.02995  -0.01254  -0.04868
  11   32037.3    312.1   0.009958846   0.10234   0.01778  -0.01169  -0.31919
  12   33162.8    301.5   0.280701845   2.78657  -0.48613  -1.09207   1.16517
  13   33630.9    297.3   0.000713321   0.00698  -0.07343   0.00524  -0.03953
  14   34285.0    291.7   0.061134651   0.58703   0.61057   0.45510  -0.08437
  15   34569.0    289.3   0.000038255   0.00036   0.01608  -0.00069  -0.01026
  16   35241.5    283.8   0.079701900   0.74454  -0.00556   0.51979  -0.68872
  17   35495.5    281.7   0.013242679   0.12282  -0.20254   0.16138  -0.23613
  18   35997.4    277.8   0.136991444   1.25285  -1.03902  -0.27234   0.31483
  19   36512.5    273.9   0.076113275   0.68627  -0.03420  -0.60126   0.56884
  20   36847.4    271.4   0.146015212   1.30457  -0.90811  -0.67493   0.15612
  21   37148.6    269.2   0.011315580   0.10028  -0.03935  -0.14231  -0.28014
  22   38156.3    262.1   0.088663704   0.76499   0.28445   0.65673  -0.50277
  23   38307.5    261.0   0.078163200   0.67173  -0.56552  -0.58798   0.07873
  24   38647.1    258.8   0.096600191   0.82288  -0.18469  -0.76630   0.44894
  25   39108.3    255.7   0.166460819   1.40126  -0.75123  -0.80943   0.42631

FINAL SINGLE POINT ENERGY     -4744.704003076017

DIPOLE MOMENT
-------------
                                X             Y             Z
Electronic contribution:      9.10652      16.69821     -18.06818
Nuclear contribution   :    -11.11995     -20.87006      22.67672
                        -----------------------------------------
Total Dipole Moment    :     -2.01342      -4.17186       4.60854
                        -----------------------------------------
Magnitude (a.u.)       :      6.53429
Magnitude (Debye)      :     16.60884

Rotational constants in cm-1:     0.002395     0.000210     0.000201
Rotational constants in MHz :    71.787614     6.307518     6.011799

                             ****ORCA TERMINATED NORMALLY****
TOTAL RUN TIME: 0 days 0 hours 5 minutes 52 seconds 352 msec
