                         Program Version 4.2.0 -  RELEASE  -
|  1> # ORCA input file
|  2> # SCF done       -190.565761910212          0.000230205264
|  3> ! CAM-B3LYP def2-SVP def2/J RIJCOSX Grid4 TightSCF
|  4> %maxcore 5000
|  5> %tddft
|  6>     Mode sTDDFT
|  7>     Ethresh 5.0
|  8>     maxcore 5000
|  9> end
| 10>
| 11> %pal
| 12>   nprocs 6
| 13>   end
| 14> * xyz 0 1
| 15>    C       -3.78032        -1.92494         2.68700
| 16>    C       -2.83565        -2.02666         3.67689
| 17>    C       -2.07781        -3.19139         3.92325
| 18>    N       -1.46626        -4.12009         4.20873
| 19>    C       -2.54076        -1.04735         4.64802
| 20>    N       -2.24130        -0.32110         5.48590
| 21>    C       -4.10007        -2.96368         1.71787
| 22>    C       -5.22570        -2.55534         0.95923
| 23>    C       -5.78848        -3.34596        -0.01281
| 24>    C       -5.20775        -4.59516        -0.25608
| 25>    C       -4.07431        -4.98953         0.49704
| 26>    C       -3.50799        -4.19153         1.48203
| 27>    S       -3.51652        -6.56759         0.03880
| 28>    C       -4.79546        -6.67923        -1.13963
| 29>    C       -5.59947        -5.58968        -1.19183
| 30>   Br       -4.95084        -8.22199        -2.18998
| 31>    C       -5.66872        -1.22404         1.41044
| 32>    O       -6.68261        -0.64878         1.09265
| 33>    C       -4.68566        -0.81395         2.45780
| 34>    C       -4.76298         0.32907         3.19296
| 35>    C       -5.61940         1.42942         2.94682
| 36>    C       -6.16135         1.98871         1.78784
| 37>    C       -6.99622         3.06497         2.16090
| 38>    C       -6.89886         3.21717         3.61291
| 39>    O       -7.40096         4.02269         4.37303
| 40>    N       -6.04010         2.20436         3.99666
| 41>    C       -7.47770         3.65242         0.98422
| 42>    O       -6.89816         3.02603        -0.08489
| 43>    C       -6.08056         1.97921         0.33679
| 44>    O       -5.45404         1.31615        -0.43750
| 45>    C       -8.34826         4.71832         0.76855
| 46>    C       -9.24686         5.17305         1.72493
| 47>    C       -9.94154         6.40585         1.77765
| 48>    C      -10.69699         6.56853         2.90644
| 49>    C      -10.65117         5.45331         3.76919
| 50>    S       -9.68237         4.18890         3.07875
| 51>    C      -11.14028         5.25876         5.05853
| 52>    C      -11.88085         6.07938         5.92759
| 53>    C      -12.05248         5.54299         7.17716
| 54>    C      -11.45505         4.27385         7.35646
| 55>    S      -10.70123         3.77832         5.85995
| 56>    C      -11.36585         3.55313         8.53790
| 57>    C      -10.68332         2.35188         8.71795
| 58>    C      -10.29874         1.73642         9.92045
| 59>    C       -9.44699         0.65092         9.62230
| 60>    C       -9.38653         0.51061         8.17121
| 61>    O       -8.83965        -0.30380         7.45796
| 62>    N      -10.14137         1.57216         7.70937
| 63>    C       -9.00913         0.10791        10.82347
| 64>    O       -9.60558         0.77518        11.84824
| 65>    C      -10.39501         1.82162        11.36356
| 66>    O      -10.99923         2.55556        12.09356
| 67>    C       -8.17193        -0.99538        11.08599
| 68>    C       -7.29014        -1.56188        10.20831
| 69>    C       -6.73412        -1.06555         8.97320
| 70>    C       -6.42258         0.23725         8.67926
| 71>    C       -5.86726         0.65483         7.46219
| 72>    N       -5.46365         1.07569         6.47173
| 73>    C       -6.65955         1.32263         9.54783
| 74>    N       -6.81459         2.24515        10.21237
| 75>    C       -6.34176        -2.22249         8.18277
| 76>    C       -6.37759        -3.37390         9.00909
| 77>    C       -6.87537        -2.99162        10.35044
| 78>    O       -6.98825        -3.68564        11.33030
| 79>    C       -6.03975        -4.62083         8.53903
| 80>    C       -5.68935        -4.73749         7.18777
| 81>    C       -5.70441        -3.58373         6.36815
| 82>    C       -6.00930        -2.31715         6.84719
| 83>    S       -5.31404        -3.96579         4.72022
| 84>    C       -5.10746        -5.64184         5.15017
| 85>    C       -5.33178        -5.90679         6.45842
| 86>   Br       -4.63246        -6.85919         3.81321
| 87>    H       -6.64809        -3.00818        -0.56968
| 88>    H       -2.64617        -4.53842         2.02700
| 89>    H       -6.43459        -5.49122        -1.86099
| 90>    H       -4.17387         0.41766         4.09809
| 91>    H       -5.80655         1.98875         4.96933
| 92>    H       -8.32304         5.19378        -0.20169
| 93>    H       -9.82543         7.15208         1.01190
| 94>    H      -11.25663         7.45580         3.14196
| 95>    H      -12.25319         7.04215         5.62672
| 96>    H      -12.57284         6.03514         7.97939
| 97>    H      -11.79108         3.99162         9.42976
| 98>    H      -10.29724         1.70785         6.72320
| 99>    H       -8.30145        -1.48515        12.04434
|100>    H       -6.05893        -5.48413         9.18552
|101>    H       -6.02240        -1.46517         6.18864
|102>    H       -5.25148        -6.88610         6.89393
|103> *
|104>
|105>                          ****END OF INPUT****

CARTESIAN COORDINATES (ANGSTROEM)
---------------------------------
  C     -3.780320   -1.924940    2.687000
  C     -2.835650   -2.026660    3.676890
  C     -2.077810   -3.191390    3.923250
  N     -1.466260   -4.120090    4.208730
  C     -2.540760   -1.047350    4.648020
  N     -2.241300   -0.321100    5.485900
  C     -4.100070   -2.963680    1.717870
  C     -5.225700   -2.555340    0.959230
  C     -5.788480   -3.345960   -0.012810
  C     -5.207750   -4.595160   -0.256080
  C     -4.074310   -4.989530    0.497040
  C     -3.507990   -4.191530    1.482030
  S     -3.516520   -6.567590    0.038800
  C     -4.795460   -6.679230   -1.139630
  C     -5.599470   -5.589680   -1.191830
  Br    -4.950840   -8.221990   -2.189980
  C     -5.668720   -1.224040    1.410440
  O     -6.682610   -0.648780    1.092650
  C     -4.685660   -0.813950    2.457800
  C     -4.762980    0.329070    3.192960
  C     -5.619400    1.429420    2.946820
  C     -6.161350    1.988710    1.787840
  C     -6.996220    3.064970    2.160900
  C     -6.898860    3.217170    3.612910
  O     -7.400960    4.022690    4.373030
  N     -6.040100    2.204360    3.996660
  C     -7.477700    3.652420    0.984220
  O     -6.898160    3.026030   -0.084890
  C     -6.080560    1.979210    0.336790
  O     -5.454040    1.316150   -0.437500
  C     -8.348260    4.718320    0.768550
  C     -9.246860    5.173050    1.724930
  C     -9.941540    6.405850    1.777650
  C    -10.696990    6.568530    2.906440
  C    -10.651170    5.453310    3.769190
  S     -9.682370    4.188900    3.078750
  C    -11.140280    5.258760    5.058530
  C    -11.880850    6.079380    5.927590
  C    -12.052480    5.542990    7.177160
  C    -11.455050    4.273850    7.356460
  S    -10.701230    3.778320    5.859950
  C    -11.365850    3.553130    8.537900
  C    -10.683320    2.351880    8.717950
  C    -10.298740    1.736420    9.920450
  C     -9.446990    0.650920    9.622300
  C     -9.386530    0.510610    8.171210
  O     -8.839650   -0.303800    7.457960
  N    -10.141370    1.572160    7.709370
  C     -9.009130    0.107910   10.823470
  O     -9.605580    0.775180   11.848240
  C    -10.395010    1.821620   11.363560
  O    -10.999230    2.555560   12.093560
  C     -8.171930   -0.995380   11.085990
  C     -7.290140   -1.561880   10.208310
  C     -6.734120   -1.065550    8.973200
  C     -6.422580    0.237250    8.679260
  C     -5.867260    0.654830    7.462190
  N     -5.463650    1.075690    6.471730
  C     -6.659550    1.322630    9.547830
  N     -6.814590    2.245150   10.212370
  C     -6.341760   -2.222490    8.182770
  C     -6.377590   -3.373900    9.009090
  C     -6.875370   -2.991620   10.350440
  O     -6.988250   -3.685640   11.330300
  C     -6.039750   -4.620830    8.539030
  C     -5.689350   -4.737490    7.187770
  C     -5.704410   -3.583730    6.368150
  C     -6.009300   -2.317150    6.847190
  S     -5.314040   -3.965790    4.720220
  C     -5.107460   -5.641840    5.150170
  C     -5.331780   -5.906790    6.458420
  Br    -4.632460   -6.859190    3.813210
  H     -6.648090   -3.008180   -0.569680
  H     -2.646170   -4.538420    2.027000
  H     -6.434590   -5.491220   -1.860990
  H     -4.173870    0.417660    4.098090
  H     -5.806550    1.988750    4.969330
  H     -8.323040    5.193780   -0.201690
  H     -9.825430    7.152080    1.011900
  H    -11.256630    7.455800    3.141960
  H    -12.253190    7.042150    5.626720
  H    -12.572840    6.035140    7.979390
  H    -11.791080    3.991620    9.429760
  H    -10.297240    1.707850    6.723200
  H     -8.301450   -1.485150   12.044340
  H     -6.058930   -5.484130    9.185520
  H     -6.022400   -1.465170    6.188640
  H     -5.251480   -6.886100    6.893930

 Total Charge           Charge          ....    0
 Multiplicity           Mult            ....    1
 Number of Electrons    NEL             ....  568
 Basis Dimension        Dim             .... 1140

ORBITAL ENERGIES
----------------

  NO   OCC          E(Eh)            E(eV)
   0   2.0000    -482.887677    -13140.0417
   1   2.0000    -482.887134    -13140.0270
   2   2.0000     -88.982211     -2421.3290
   3   2.0000     -88.978953     -2421.2404
   4   2.0000     -88.978870     -2421.2381
   5   2.0000     -88.972863     -2421.0747
   6   2.0000     -62.565436     -1702.4921
   7   2.0000     -62.564572     -1702.4686
   8   2.0000     -56.399381     -1534.7052
   9   2.0000     -56.398547     -1534.6825
  10   2.0000     -56.396672     -1534.6315
  11   2.0000     -56.396638     -1534.6305
  12   2.0000     -56.395828     -1534.6085
  13   2.0000     -56.395744     -1534.6062
  14   2.0000     -19.282059      -524.6915
  15   2.0000     -19.277888      -524.5780
  16   2.0000     -19.221514      -523.0440
  17   2.0000     -19.221423      -523.0415
  18   2.0000     -19.217675      -522.9395
  19   2.0000     -19.207437      -522.6609
  20   2.0000     -19.206238      -522.6283
  21   2.0000     -19.194352      -522.3049
  22   2.0000     -14.475104      -393.8876
  23   2.0000     -14.444049      -393.0426
  24   2.0000     -14.433884      -392.7660
  25   2.0000     -14.419245      -392.3676
  26   2.0000     -14.419018      -392.3614
  27   2.0000     -14.418553      -392.3488
  28   2.0000     -10.407601      -283.2052
  29   2.0000     -10.405164      -283.1389
  30   2.0000     -10.405020      -283.1350
  31   2.0000     -10.379776      -282.4481
  32   2.0000     -10.373135      -282.2674
  33   2.0000     -10.372583      -282.2523
  34   2.0000     -10.371596      -282.2255
  35   2.0000     -10.368540      -282.1423
  36   2.0000     -10.365150      -282.0501
  37   2.0000     -10.361280      -281.9448
  38   2.0000     -10.359418      -281.8941
  39   2.0000     -10.349691      -281.6294
  40   2.0000     -10.347049      -281.5575
  41   2.0000     -10.346737      -281.5490
  42   2.0000     -10.346485      -281.5422
  43   2.0000     -10.345488      -281.5150
  44   2.0000     -10.344169      -281.4791
  45   2.0000     -10.344160      -281.4789
  46   2.0000     -10.343993      -281.4744
  47   2.0000     -10.343319      -281.4560
  48   2.0000     -10.340785      -281.3871
  49   2.0000     -10.327738      -281.0320
  50   2.0000     -10.327620      -281.0288
  51   2.0000     -10.323313      -280.9116
  52   2.0000     -10.322645      -280.8935
  53   2.0000     -10.321072      -280.8506
  54   2.0000     -10.320982      -280.8482
  55   2.0000     -10.320760      -280.8422
  56   2.0000     -10.319201      -280.7997
  57   2.0000     -10.316302      -280.7209
  58   2.0000     -10.316135      -280.7163
  59   2.0000     -10.314303      -280.6665
  60   2.0000     -10.313809      -280.6530
  61   2.0000     -10.312376      -280.6140
  62   2.0000     -10.310685      -280.5680
  63   2.0000     -10.310248      -280.5561
  64   2.0000     -10.309855      -280.5454
  65   2.0000     -10.309790      -280.5436
  66   2.0000     -10.309453      -280.5345
  67   2.0000     -10.309256      -280.5291
  68   2.0000     -10.307805      -280.4896
  69   2.0000     -10.307636      -280.4850
  70   2.0000     -10.303593      -280.3750
  71   2.0000     -10.302138      -280.3354
  72   2.0000     -10.298904      -280.2474
  73   2.0000     -10.298820      -280.2451
  74   2.0000     -10.297700      -280.2147
  75   2.0000     -10.296439      -280.1803
  76   2.0000     -10.294202      -280.1195
  77   2.0000     -10.289244      -279.9846
  78   2.0000     -10.286018      -279.8968
  79   2.0000     -10.285160      -279.8734
  80   2.0000      -8.794898      -239.3213
  81   2.0000      -8.793959      -239.2958
  82   2.0000      -8.078844      -219.8365
  83   2.0000      -8.074756      -219.7253
  84   2.0000      -8.073805      -219.6994
  85   2.0000      -8.068882      -219.5654
  86   2.0000      -6.631193      -180.4439
  87   2.0000      -6.630250      -180.4183
  88   2.0000      -6.616632      -180.0477
  89   2.0000      -6.616439      -180.0424
  90   2.0000      -6.615677      -180.0217
  91   2.0000      -6.615520      -180.0175
  92   2.0000      -6.048479      -164.5875
  93   2.0000      -6.044426      -164.4772
  94   2.0000      -6.044308      -164.4740
  95   2.0000      -6.043583      -164.4543
  96   2.0000      -6.040176      -164.3615
  97   2.0000      -6.039946      -164.3553
  98   2.0000      -6.039229      -164.3358
  99   2.0000      -6.038379      -164.3127
 100   2.0000      -6.036063      -164.2496
 101   2.0000      -6.035134      -164.2243
 102   2.0000      -6.033994      -164.1933
 103   2.0000      -6.030411      -164.0958
 104   2.0000      -2.747070       -74.7516
 105   2.0000      -2.746106       -74.7253
 106   2.0000      -2.743014       -74.6412
 107   2.0000      -2.742804       -74.6355
 108   2.0000      -2.742077       -74.6157
 109   2.0000      -2.741898       -74.6109
 110   2.0000      -2.731260       -74.3214
 111   2.0000      -2.731250       -74.3211
 112   2.0000      -2.730341       -74.2964
 113   2.0000      -2.730317       -74.2957
 114   2.0000      -1.211999       -32.9802
 115   2.0000      -1.208516       -32.8854
 116   2.0000      -1.157722       -31.5032
 117   2.0000      -1.137197       -30.9447
 118   2.0000      -1.134416       -30.8690
 119   2.0000      -1.131484       -30.7892
 120   2.0000      -1.116535       -30.3825
 121   2.0000      -1.115405       -30.3517
 122   2.0000      -1.081222       -29.4216
 123   2.0000      -1.059528       -28.8312
 124   2.0000      -1.030872       -28.0514
 125   2.0000      -1.030651       -28.0454
 126   2.0000      -1.025862       -27.9151
 127   2.0000      -1.020350       -27.7651
 128   2.0000      -1.016469       -27.6595
 129   2.0000      -1.006545       -27.3895
 130   2.0000      -1.005360       -27.3572
 131   2.0000      -0.997069       -27.1316
 132   2.0000      -0.994698       -27.0671
 133   2.0000      -0.992519       -27.0078
 134   2.0000      -0.948467       -25.8091
 135   2.0000      -0.945832       -25.7374
 136   2.0000      -0.932026       -25.3617
 137   2.0000      -0.927316       -25.2336
 138   2.0000      -0.916025       -24.9263
 139   2.0000      -0.914452       -24.8835
 140   2.0000      -0.911207       -24.7952
 141   2.0000      -0.909704       -24.7543
 142   2.0000      -0.906262       -24.6606
 143   2.0000      -0.902082       -24.5469
 144   2.0000      -0.888406       -24.1748
 145   2.0000      -0.888216       -24.1696
 146   2.0000      -0.883148       -24.0317
 147   2.0000      -0.874209       -23.7884
 148   2.0000      -0.868417       -23.6308
 149   2.0000      -0.855967       -23.2920
 150   2.0000      -0.850580       -23.1454
 151   2.0000      -0.832671       -22.6581
 152   2.0000      -0.831726       -22.6324
 153   2.0000      -0.823999       -22.4222
 154   2.0000      -0.811989       -22.0954
 155   2.0000      -0.805472       -21.9180
 156   2.0000      -0.779055       -21.1992
 157   2.0000      -0.771608       -20.9965
 158   2.0000      -0.769835       -20.9483
 159   2.0000      -0.764348       -20.7990
 160   2.0000      -0.755910       -20.5694
 161   2.0000      -0.753429       -20.5018
 162   2.0000      -0.751405       -20.4468
 163   2.0000      -0.738476       -20.0950
 164   2.0000      -0.718544       -19.5526
 165   2.0000      -0.712096       -19.3771
 166   2.0000      -0.709310       -19.3013
 167   2.0000      -0.698271       -19.0009
 168   2.0000      -0.696177       -18.9439
 169   2.0000      -0.695401       -18.9228
 170   2.0000      -0.692542       -18.8450
 171   2.0000      -0.677952       -18.4480
 172   2.0000      -0.676998       -18.4220
 173   2.0000      -0.669173       -18.2091
 174   2.0000      -0.660550       -17.9745
 175   2.0000      -0.657227       -17.8841
 176   2.0000      -0.654320       -17.8050
 177   2.0000      -0.646957       -17.6046
 178   2.0000      -0.631017       -17.1708
 179   2.0000      -0.628827       -17.1113
 180   2.0000      -0.626576       -17.0500
 181   2.0000      -0.619798       -16.8655
 182   2.0000      -0.615998       -16.7622
 183   2.0000      -0.609649       -16.5894
 184   2.0000      -0.608027       -16.5453
 185   2.0000      -0.604201       -16.4412
 186   2.0000      -0.602484       -16.3944
 187   2.0000      -0.597372       -16.2553
 188   2.0000      -0.595225       -16.1969
 189   2.0000      -0.594712       -16.1829
 190   2.0000      -0.587610       -15.9897
 191   2.0000      -0.581396       -15.8206
 192   2.0000      -0.579823       -15.7778
 193   2.0000      -0.577723       -15.7206
 194   2.0000      -0.573827       -15.6146
 195   2.0000      -0.562396       -15.3036
 196   2.0000      -0.557655       -15.1746
 197   2.0000      -0.554345       -15.0845
 198   2.0000      -0.551121       -14.9968
 199   2.0000      -0.547830       -14.9072
 200   2.0000      -0.546309       -14.8658
 201   2.0000      -0.543540       -14.7905
 202   2.0000      -0.541762       -14.7421
 203   2.0000      -0.539642       -14.6844
 204   2.0000      -0.535383       -14.5685
 205   2.0000      -0.533524       -14.5179
 206   2.0000      -0.532392       -14.4871
 207   2.0000      -0.530423       -14.4336
 208   2.0000      -0.525947       -14.3117
 209   2.0000      -0.524476       -14.2717
 210   2.0000      -0.522817       -14.2266
 211   2.0000      -0.521997       -14.2043
 212   2.0000      -0.520039       -14.1510
 213   2.0000      -0.519315       -14.1313
 214   2.0000      -0.515281       -14.0215
 215   2.0000      -0.514160       -13.9910
 216   2.0000      -0.513069       -13.9613
 217   2.0000      -0.510449       -13.8900
 218   2.0000      -0.508897       -13.8478
 219   2.0000      -0.507086       -13.7985
 220   2.0000      -0.503089       -13.6898
 221   2.0000      -0.501637       -13.6502
 222   2.0000      -0.497228       -13.5303
 223   2.0000      -0.495730       -13.4895
 224   2.0000      -0.493449       -13.4274
 225   2.0000      -0.488962       -13.3053
 226   2.0000      -0.485872       -13.2212
 227   2.0000      -0.483266       -13.1503
 228   2.0000      -0.480940       -13.0870
 229   2.0000      -0.476846       -12.9756
 230   2.0000      -0.474337       -12.9074
 231   2.0000      -0.469182       -12.7671
 232   2.0000      -0.467207       -12.7134
 233   2.0000      -0.463363       -12.6087
 234   2.0000      -0.461832       -12.5671
 235   2.0000      -0.460631       -12.5344
 236   2.0000      -0.459624       -12.5070
 237   2.0000      -0.456799       -12.4301
 238   2.0000      -0.455201       -12.3866
 239   2.0000      -0.451512       -12.2863
 240   2.0000      -0.451130       -12.2759
 241   2.0000      -0.450021       -12.2457
 242   2.0000      -0.449007       -12.2181
 243   2.0000      -0.446410       -12.1474
 244   2.0000      -0.445885       -12.1332
 245   2.0000      -0.442396       -12.0382
 246   2.0000      -0.441282       -12.0079
 247   2.0000      -0.438768       -11.9395
 248   2.0000      -0.432667       -11.7735
 249   2.0000      -0.432023       -11.7559
 250   2.0000      -0.429094       -11.6762
 251   2.0000      -0.425736       -11.5849
 252   2.0000      -0.421437       -11.4679
 253   2.0000      -0.420843       -11.4517
 254   2.0000      -0.414679       -11.2840
 255   2.0000      -0.411376       -11.1941
 256   2.0000      -0.408732       -11.1222
 257   2.0000      -0.405047       -11.0219
 258   2.0000      -0.393029       -10.6949
 259   2.0000      -0.389855       -10.6085
 260   2.0000      -0.379398       -10.3240
 261   2.0000      -0.378545       -10.3007
 262   2.0000      -0.377085       -10.2610
 263   2.0000      -0.374799       -10.1988
 264   2.0000      -0.372130       -10.1262
 265   2.0000      -0.370295       -10.0762
 266   2.0000      -0.367969       -10.0130
 267   2.0000      -0.365955        -9.9582
 268   2.0000      -0.361104        -9.8261
 269   2.0000      -0.355953        -9.6860
 270   2.0000      -0.354131        -9.6364
 271   2.0000      -0.348229        -9.4758
 272   2.0000      -0.347335        -9.4515
 273   2.0000      -0.337933        -9.1956
 274   2.0000      -0.335107        -9.1187
 275   2.0000      -0.331042        -9.0081
 276   2.0000      -0.321056        -8.7364
 277   2.0000      -0.318736        -8.6732
 278   2.0000      -0.314622        -8.5613
 279   2.0000      -0.297816        -8.1040
 280   2.0000      -0.295585        -8.0433
 281   2.0000      -0.293806        -7.9949
 282   2.0000      -0.265186        -7.2161
 283   2.0000      -0.234343        -6.3768
 284   0.0000      -0.141886        -3.8609
 285   0.0000      -0.106694        -2.9033
 286   0.0000      -0.088950        -2.4204
 287   0.0000      -0.067199        -1.8286
 288   0.0000      -0.061098        -1.6626

MULLIKEN ATOMIC CHARGES
-----------------------
   0 C :    0.300416
   1 C :   -0.355069
   2 C :   -0.189861
   3 N :    0.159480
   4 C :   -0.194332
   5 N :    0.168979
   6 C :    0.024864
   7 C :   -0.016272
   8 C :   -0.064885
   9 C :    0.122444
  10 C :   -0.084837
  11 C :   -0.035037
  12 S :    0.180911
  13 C :   -0.122909
  14 C :    0.038709
  15 Br:    0.026025
  16 C :    0.154317
  17 O :   -0.132472
  18 C :   -0.055667
  19 C :   -0.056427
  20 C :    0.086752
  21 C :   -0.069344
  22 C :   -0.094807
  23 C :    0.150977
  24 O :   -0.187850
  25 N :   -0.088569
  26 C :    0.134690
  27 O :   -0.249746
  28 C :    0.222989
  29 O :   -0.128721
  30 C :   -0.007294
  31 C :   -0.046571
  32 C :    0.052766
  33 C :    0.040148
  34 C :   -0.039794
  35 S :    0.168296
  36 C :   -0.023839
  37 C :    0.050293
  38 C :    0.032249
  39 C :   -0.004103
  40 S :    0.066870
  41 C :   -0.013917
  42 C :    0.075491
  43 C :   -0.075948
  44 C :   -0.057040
  45 C :    0.177973
  46 O :   -0.174124
  47 N :   -0.125433
  48 C :    0.120717
  49 O :   -0.238330
  50 C :    0.219873
  51 O :   -0.136323
  52 C :    0.028907
  53 C :   -0.122649
  54 C :    0.309288
  55 C :   -0.356404
  56 C :   -0.081674
  57 N :    0.109776
  58 C :   -0.232079
  59 N :    0.184198
  60 C :    0.009029
  61 C :    0.003590
  62 C :    0.138792
  63 O :   -0.126599
  64 C :   -0.072608
  65 C :    0.109931
  66 C :   -0.064662
  67 C :   -0.005619
  68 S :    0.147395
  69 C :   -0.101474
  70 C :    0.041173
  71 Br:    0.029811
  72 H :   -0.006887
  73 H :   -0.005668
  74 H :   -0.000435
  75 H :    0.028994
  76 H :    0.126377
  77 H :    0.015254
  78 H :    0.003273
  79 H :   -0.001969
  80 H :    0.003135
  81 H :    0.009033
  82 H :    0.015267
  83 H :    0.143636
  84 H :    0.036477
  85 H :   -0.005784
  86 H :   -0.013956
  87 H :   -0.001576
Sum of atomic charges:   -0.0000000

LOEWDIN ATOMIC CHARGES
----------------------
   0 C :    0.061847
   1 C :   -0.139631
   2 C :   -0.023720
   3 N :   -0.049901
   4 C :   -0.026657
   5 N :   -0.040087
   6 C :   -0.026671
   7 C :   -0.046003
   8 C :    0.025974
   9 C :   -0.029772
  10 C :   -0.144092
  11 C :   -0.015312
  12 S :    0.430471
  13 C :   -0.271995
  14 C :   -0.068299
  15 Br:    0.139146
  16 C :    0.085785
  17 O :   -0.119607
  18 C :   -0.062157
  19 C :    0.039675
  20 C :    0.056112
  21 C :   -0.093720
  22 C :   -0.119379
  23 C :    0.049037
  24 O :   -0.202635
  25 N :    0.048269
  26 C :    0.086442
  27 O :   -0.055172
  28 C :    0.104055
  29 O :   -0.130414
  30 C :   -0.062672
  31 C :   -0.127954
  32 C :   -0.018112
  33 C :   -0.025073
  34 C :   -0.159839
  35 S :    0.498368
  36 C :   -0.166289
  37 C :   -0.013436
  38 C :   -0.024934
  39 C :   -0.119421
  40 S :    0.422770
  41 C :   -0.060031
  42 C :    0.076001
  43 C :   -0.114389
  44 C :   -0.083983
  45 C :    0.080235
  46 O :   -0.169899
  47 N :    0.029246
  48 C :    0.078927
  49 O :   -0.042989
  50 C :    0.100955
  51 O :   -0.142695
  52 C :    0.038440
  53 C :   -0.055415
  54 C :    0.083886
  55 C :   -0.143514
  56 C :    0.046192
  57 N :   -0.062984
  58 C :   -0.024610
  59 N :   -0.038926
  60 C :   -0.008269
  61 C :   -0.050893
  62 C :    0.085341
  63 O :   -0.128684
  64 C :    0.024078
  65 C :   -0.030458
  66 C :   -0.140343
  67 C :   -0.007082
  68 S :    0.447822
  69 C :   -0.269127
  70 C :   -0.066221
  71 Br:    0.148347
  72 H :    0.042891
  73 H :    0.038881
  74 H :    0.039931
  75 H :    0.049656
  76 H :    0.060291
  77 H :    0.048833
  78 H :    0.039829
  79 H :    0.037119
  80 H :    0.040270
  81 H :    0.041862
  82 H :    0.054976
  83 H :    0.062891
  84 H :    0.058198
  85 H :    0.042443
  86 H :    0.037732
  87 H :    0.040243

  Mayer bond orders larger than 0.100000
B(  0-C ,  1-C ) :   1.6308 B(  0-C ,  6-C ) :   1.0036 B(  0-C , 18-C ) :   1.0700
B(  1-C ,  2-C ) :   1.1423 B(  1-C ,  4-C ) :   1.1469 B(  2-C ,  3-N ) :   2.9710
B(  4-C ,  5-N ) :   2.9672 B(  6-C ,  7-C ) :   1.2687 B(  6-C , 11-C ) :   1.3955
B(  7-C ,  8-C ) :   1.4271 B(  7-C , 16-C ) :   0.9408 B(  8-C ,  9-C ) :   1.2420
B(  8-C , 72-H ) :   1.0165 B(  9-C , 10-C ) :   1.3029 B(  9-C , 14-C ) :   1.1632
B( 10-C , 11-C ) :   1.3296 B( 10-C , 12-S ) :   1.0831 B( 11-C , 73-H ) :   0.9843
B( 12-S , 13-C ) :   1.0817 B( 13-C , 14-C ) :   1.6177 B( 13-C , 15-Br) :   1.0203
B( 14-C , 74-H ) :   1.0006 B( 16-C , 17-O ) :   2.2293 B( 16-C , 18-C ) :   0.9217
B( 18-C , 19-C ) :   1.6129 B( 19-C , 20-C ) :   1.1376 B( 19-C , 75-H ) :   0.9228
B( 20-C , 21-C ) :   1.3450 B( 20-C , 25-N ) :   1.2323 B( 21-C , 22-C ) :   1.2671
B( 21-C , 28-C ) :   0.9645 B( 22-C , 23-C ) :   0.9394 B( 22-C , 26-C ) :   1.2890
B( 23-C , 24-O ) :   2.1169 B( 23-C , 25-N ) :   1.1139 B( 25-N , 76-H ) :   0.8611
B( 26-C , 27-O ) :   1.1186 B( 26-C , 30-C ) :   1.3051 B( 27-O , 28-C ) :   1.0075
B( 28-C , 29-O ) :   2.2444 B( 30-C , 31-C ) :   1.4179 B( 30-C , 77-H ) :   0.9593
B( 31-C , 32-C ) :   1.1730 B( 31-C , 35-S ) :   1.1314 B( 32-C , 33-C ) :   1.5658
B( 32-C , 78-H ) :   0.9962 B( 33-C , 34-C ) :   1.2096 B( 33-C , 79-H ) :   0.9941
B( 34-C , 35-S ) :   1.1107 B( 34-C , 36-C ) :   1.4177 B( 36-C , 37-C ) :   1.2292
B( 36-C , 40-S ) :   1.0765 B( 37-C , 38-C ) :   1.5406 B( 37-C , 80-H ) :   0.9957
B( 38-C , 39-C ) :   1.1892 B( 38-C , 81-H ) :   0.9999 B( 39-C , 40-S ) :   1.0642
B( 39-C , 41-C ) :   1.4467 B( 41-C , 42-C ) :   1.2837 B( 41-C , 82-H ) :   0.9588
B( 42-C , 43-C ) :   1.2737 B( 42-C , 47-N ) :   1.1654 B( 43-C , 44-C ) :   1.2617
B( 43-C , 50-C ) :   0.9875 B( 44-C , 45-C ) :   0.9255 B( 44-C , 48-C ) :   1.3692
B( 45-C , 46-O ) :   2.1266 B( 45-C , 47-N ) :   1.1181 B( 47-N , 83-H ) :   0.8989
B( 48-C , 49-O ) :   1.1389 B( 48-C , 52-C ) :   1.1802 B( 49-O , 50-C ) :   0.9997
B( 50-C , 51-O ) :   2.2434 B( 52-C , 53-C ) :   1.5896 B( 52-C , 84-H ) :   0.9495
B( 53-C , 54-C ) :   1.0705 B( 53-C , 62-C ) :   0.9259 B( 54-C , 55-C ) :   1.6044
B( 54-C , 60-C ) :   1.0199 B( 55-C , 56-C ) :   1.1686 B( 55-C , 58-C ) :   1.1632
B( 56-C , 57-N ) :   2.8511 B( 57-N , 76-H ) :   0.1363 B( 58-C , 59-N ) :   3.0087
B( 60-C , 61-C ) :   1.2755 B( 60-C , 67-C ) :   1.4201 B( 61-C , 62-C ) :   0.9164
B( 61-C , 64-C ) :   1.4206 B( 62-C , 63-O ) :   2.2910 B( 64-C , 65-C ) :   1.2519
B( 64-C , 85-H ) :   1.0162 B( 65-C , 66-C ) :   1.3117 B( 65-C , 70-C ) :   1.1631
B( 66-C , 67-C ) :   1.3242 B( 66-C , 68-S ) :   1.0804 B( 67-C , 86-H ) :   0.9829
B( 68-S , 69-C ) :   1.0888 B( 69-C , 70-C ) :   1.6242 B( 69-C , 71-Br) :   1.0225
B( 70-C , 87-H ) :   1.0003

-----------------------------------------------------------------------------
         ABSORPTION SPECTRUM VIA TRANSITION ELECTRIC DIPOLE MOMENTS
-----------------------------------------------------------------------------
State   Energy  Wavelength   fosc         T2         TX        TY        TZ
        (cm-1)    (nm)                  (au**2)     (au)      (au)      (au)
-----------------------------------------------------------------------------
   0    5726.6   1746.2   0.191972883  11.03617  -1.34029  -0.18104   3.03430
   1   11913.6    839.4   0.088855585   2.45537   0.35709  -0.83016   1.28012
   2   13367.3    748.1   0.834503059  20.55221  -2.96363   3.34793  -0.74864
   3   16797.1    595.3   0.071978828   1.41074  -0.88858   0.67541   0.40618
   4   17399.4    574.7   0.314392878   5.94858  -0.13247   1.52153  -1.90157
   5   19210.6    520.5   0.014132878   0.24219   0.20097   0.41801   0.16455
   6   19779.0    505.6   0.073496611   1.22332   0.56139   0.33962  -0.89040
   7   20706.4    482.9   0.183269894   2.91382   0.44902   0.50015  -1.56909
   8   21645.1    462.0   0.045996598   0.69959  -0.68050   0.10511  -0.47483
   9   22001.0    454.5   0.045456837   0.68019  -0.10189   0.68741   0.44416
  10   22737.1    439.8   0.085991282   1.24508  -0.92946   0.55340  -0.27374
  11   23426.2    426.9   0.013167326   0.18504   0.31254  -0.28478  -0.07911
  12   23604.6    423.6   0.051096164   0.71264  -0.10201  -0.58662   0.59842
  13   24736.0    404.3   0.052660953   0.70087   0.18903   0.70631  -0.40776
  14   24941.3    400.9   0.027793186   0.36686  -0.32775  -0.42091   0.28683
  15   25286.7    395.5   0.046772638   0.60894  -0.25016   0.46775   0.57234
  16   25776.5    387.9   0.030892424   0.39455   0.17212  -0.56397  -0.21649
  17   25827.0    387.2   0.046254783   0.58960   0.21370  -0.16947   0.71778
  18   26126.5    382.8   0.079241670   0.99850  -0.41994   0.69916   0.57734
  19   26734.9    374.0   0.099269091   1.22239   0.39880  -0.75353  -0.70395
  20   26989.4    370.5   0.079033747   0.96404  -0.18412   0.76126  -0.59213
  21   27671.3    361.4   0.145456740   1.73053  -0.26100  -0.93046  -0.89255
  22   28250.9    354.0   0.164019230   1.91134  -0.61493   1.16636   0.41572
  23   28379.3    352.4   0.087178915   1.01131  -0.44841   0.65020  -0.62248
  24   28472.7    351.2   0.073062017   0.84477  -0.66590   0.56479   0.28699
  25   28880.3    346.3   0.013090980   0.14923   0.23291  -0.08033  -0.29754
  26   29179.0    342.7   0.051035414   0.57581   0.16932   0.61324   0.41362
  27   29678.2    336.9   0.071829808   0.79679   0.04856  -0.88404   0.11358
  28   29883.2    334.6   0.019157146   0.21105  -0.11995  -0.44340   0.00717
  29   30005.9    333.3   0.053260997   0.58436  -0.33060   0.54446   0.42263
  30   30289.9    330.1   0.010477456   0.11388  -0.26210   0.20954   0.03566
  31   30504.2    327.8   0.000899167   0.00970  -0.04919  -0.06972   0.04922
  32   30851.6    324.1   0.062719684   0.66927   0.31453  -0.72665  -0.20571
  33   30858.0    324.1   0.065682544   0.70074   0.24461   0.56490   0.56727
  34   31135.8    321.2   0.001385964   0.01465  -0.11742   0.02887  -0.00576
  35   31535.7    317.1   0.045559306   0.47561  -0.31562   0.42947  -0.43766
  36   31879.3    313.7   0.106100690   1.09568  -0.21641  -0.24957   0.99326
  37   32133.3    311.2   0.122843631   1.25856   0.37357  -0.98423  -0.38768
  38   32410.8    308.5   0.468822710   4.76205  -0.42030  -1.43416  -1.59016
  39   32642.4    306.4   0.057586759   0.58079  -0.16169  -0.71870  -0.19521
  40   32683.8    306.0   0.016667223   0.16788   0.27645  -0.30026   0.03614
  41   33240.9    300.8   0.041680366   0.41279  -0.28839  -0.05984   0.57100
  42   33330.4    300.0   0.121782124   1.20287   0.47228   0.49878   0.85501
  43   33605.5    297.6   0.105330021   1.03185   0.60716  -0.03524   0.81361
  44   33716.4    296.6   0.017120600   0.16717  -0.01493  -0.29514   0.28255
  45   34008.1    294.0   0.021748692   0.21054   0.06910   0.37425   0.25631
  46   34287.5    291.7   0.022595459   0.21695  -0.41457  -0.18624   0.10197
  47   34297.6    291.6   0.067197037   0.64500  -0.08998   0.69704   0.38864
  48   34400.6    290.7   0.004707881   0.04505   0.10817   0.00951  -0.18238
  49   34592.7    289.1   0.006793873   0.06466   0.00975   0.14412  -0.20926
  50   34971.9    285.9   0.019491315   0.18348  -0.03859   0.34951   0.24462
  51   35215.5    284.0   0.121579723   1.13659   0.21303  -0.66646  -0.80439
  52   35359.3    282.8   0.117189080   1.09109   0.04752  -0.94266  -0.44747
  53   35835.1    279.1   0.091545543   0.84102   0.25276  -0.70033  -0.53542
  54   36428.1    274.5   0.024264644   0.21929   0.26261  -0.36844   0.12073
  55   36587.5    273.3   0.009565294   0.08607   0.03647  -0.21043   0.20114
  56   36763.1    272.0   0.150298428   1.34591  -0.38535   0.61923  -0.90221
  57   36876.7    271.2   0.058644150   0.52354  -0.36607   0.08499   0.61831
  58   37112.8    269.4   0.040076536   0.35550  -0.55610   0.20352   0.06950
  59   37307.9    268.0   0.020621944   0.18197   0.29777   0.30418  -0.02795
  60   37503.6    266.6   0.012854665   0.11284   0.03396   0.07099   0.32657
  61   37617.2    265.8   0.030176311   0.26409   0.42061   0.29422   0.02480
  62   37734.8    265.0   0.024642830   0.21499   0.07653   0.28925   0.35422
  63   37752.5    264.9   0.007074144   0.06169   0.10814  -0.09546  -0.20219
  64   37922.1    263.7   0.272485864   2.36552  -0.59098   1.24809   0.67716
  65   38216.4    261.7   0.012956398   0.11161   0.02789   0.20943  -0.25879
  66   38465.3    260.0   0.066809363   0.57180   0.57659  -0.45915  -0.16889
  67   38620.4    258.9   0.035103218   0.29923  -0.54113   0.07634   0.02413
  68   38805.7    257.7   0.049037711   0.41602   0.30588  -0.56783   0.00462
  69   39041.9    256.1   0.118607388   1.00013   0.66428  -0.60247  -0.44260
  70   39309.8    254.4   0.046489069   0.38934   0.05850  -0.48443  -0.38890
  71   39519.8    253.0   0.003764878   0.03136   0.10723  -0.09664  -0.10260
  72   39579.4    252.7   0.003362136   0.02797   0.13260  -0.01369  -0.10096
  73   39791.7    251.3   0.033747849   0.27921  -0.34114   0.28415   0.28652
  74   40031.7    249.8   0.028127977   0.23132  -0.13450  -0.28459   0.36365
  75   40116.9    249.3   0.103544932   0.84972   0.57309  -0.24527  -0.67907
  76   40292.5    248.2   0.049923309   0.40790   0.32641  -0.53029  -0.14196

FINAL SINGLE POINT ENERGY     -9657.952560274529

DIPOLE MOMENT
-------------
                                X             Y             Z
Electronic contribution:     51.46416    -147.61836     -76.02575
Nuclear contribution   :    -54.72779     148.36949      73.17012
                        -----------------------------------------
Total Dipole Moment    :     -3.26364       0.75113      -2.85563
                        -----------------------------------------
Magnitude (a.u.)       :      4.40115
Magnitude (Debye)      :     11.18684

Rotational constants in cm-1:     0.001095     0.000513     0.000391
Rotational constants in MHz :    32.816865    15.391481    11.711491

                             ****ORCA TERMINATED NORMALLY****
TOTAL RUN TIME: 0 days 0 hours 11 minutes 11 seconds 898 msec
