                         Program Version 4.2.0 -  RELEASE  -
|  1> # ORCA input file
|  2> # SCF done       -159.358522101914          0.000236983923
|  3> ! CAM-B3LYP def2-SVP def2/J RIJCOSX Grid4 TightSCF
|  4> %maxcore 5000
|  5> %tddft
|  6>     Mode sTDDFT
|  7>     Ethresh 5.0
|  8>     maxcore 5000
|  9> end
| 10>
| 11> %pal
| 12>   nprocs 6
| 13>   end
| 14> * xyz 0 1
| 15>    C        1.60368       -12.31270         3.06790
| 16>    C        2.57492       -12.79042         2.27905
| 17>    C        3.15234       -14.10455         2.29206
| 18>    C        4.12289       -14.30161         1.37391
| 19>    C        4.39920       -13.17073         0.55582
| 20>    S        3.35573       -11.82876         1.01414
| 21>    C        5.31818       -13.07467        -0.45420
| 22>    C        6.21538       -14.07000        -0.92649
| 23>    C        7.00425       -13.67641        -1.95601
| 24>    C        6.79182       -12.33634        -2.37899
| 25>    S        5.52445       -11.59636        -1.37869
| 26>    C        7.41222       -11.66810        -3.38489
| 27>    N        7.10783       -10.38357        -3.70611
| 28>    C        7.68000        -9.60997        -4.69250
| 29>    C        8.78160        -9.93127        -5.43243
| 30>    S        9.19542        -8.69996        -6.55569
| 31>    C        7.86984        -7.73026        -6.04325
| 32>    C        7.14131        -8.32204        -5.05266
| 33>    N        6.02143        -7.80297        -4.44044
| 34>    C        5.50891        -6.54485        -4.62072
| 35>    C        4.33712        -6.15743        -4.09349
| 36>    C        3.72001        -4.85724        -4.22565
| 37>    C        2.43425        -4.67738        -3.69167
| 38>    C        1.79226        -3.47031        -3.82560
| 39>    C        2.44101        -2.39122        -4.45086
| 40>    C        3.71714        -2.54948        -4.97094
| 41>    C        4.33941        -3.77660        -4.86527
| 42>    C        1.58012        -1.23037        -4.38532
| 43>    C        0.39855        -1.59051        -3.71743
| 44>    C        0.41273        -3.06203        -3.35908
| 45>    C        0.21740        -3.29318        -1.85372
| 46>    C        1.23539        -2.52834        -1.01543
| 47>    C       -0.70335        -3.73565        -4.19133
| 48>    C       -0.75224        -5.25680        -4.13593
| 49>    C       -0.59415        -0.66585        -3.51080
| 50>    C       -0.43237         0.65037        -3.97092
| 51>    C        0.75539         0.99538        -4.62748
| 52>    C        1.75792         0.07026        -4.83619
| 53>    C       -1.52311         1.57692        -3.77478
| 54>    C       -1.60140         2.84545        -4.21219
| 55>    C       -2.72265         3.71022        -3.92254
| 56>    S       -2.39499         5.27796        -3.47473
| 57>    C       -4.07140         3.27922        -3.98451
| 58>    C       -4.58118         2.22529        -4.67682
| 59>    S       -3.73333         1.06413        -5.68493
| 60>    C       -5.27133         0.38465        -6.15028
| 61>    C       -6.29841         1.00604        -5.53181
| 62>    O       -5.91388         2.02606        -4.70570
| 63>    C       -7.69460         0.71141        -5.64975
| 64>    C       -8.62074         1.38097        -4.93378
| 65>    N       -9.97772         1.25145        -4.94457
| 66>    C      -10.72168         0.58697        -5.91209
| 67>    C      -10.33322         0.21361        -7.16670
| 68>    S      -11.58657        -0.58573        -8.03296
| 69>    C      -12.68222        -0.37400        -6.72163
| 70>    C      -12.10072         0.26129        -5.67078
| 71>    N      -12.70489         0.61298        -4.47086
| 72>    C      -12.14871         1.83122        -3.91945
| 73>    C      -10.65757         1.59787        -3.70558
| 74>    H        1.15702       -12.93389         3.82397
| 75>    H        1.24203       -11.30528         2.97484
| 76>    H        2.80980       -14.84441         2.99392
| 77>    H        4.65908       -15.22585         1.24719
| 78>    H        6.24399       -15.04917        -0.48336
| 79>    H        7.73840       -14.29906        -2.43634
| 80>    H        8.16604       -12.15779        -3.97991
| 81>    H        6.41493        -9.94773        -3.11226
| 82>    H        9.38726       -10.81167        -5.37888
| 83>    H        7.70829        -6.78622        -6.51973
| 84>    H        5.45128        -8.43385        -3.89504
| 85>    H        6.12759        -5.88480        -5.20494
| 86>    H        3.77023        -6.88398        -3.52240
| 87>    H        1.96729        -5.49995        -3.16979
| 88>    H        4.22096        -1.72243        -5.44932
| 89>    H        5.33195        -3.89519        -5.27185
| 90>    H        0.30977        -4.35883        -1.63923
| 91>    H       -0.79154        -2.97998        -1.57601
| 92>    H        2.24742        -2.83288        -1.27330
| 93>    H        1.07504        -2.72390         0.04259
| 94>    H        1.14694        -1.45767        -1.18575
| 95>    H       -0.57430        -3.42789        -5.23259
| 96>    H       -1.65999        -3.33534        -3.84714
| 97>    H        0.14761        -5.68802        -4.56551
| 98>    H       -1.60469        -5.61111        -4.71229
| 99>    H       -0.86454        -5.61371        -3.11545
|100>    H       -1.50743        -0.93773        -2.99994
|101>    H        0.89336         2.00678        -4.97652
|102>    H        2.66673         0.35594        -5.34502
|103>    H       -2.36087         1.18181        -3.21142
|104>    H       -0.75956         3.32433        -4.69106
|105>    H       -4.80291         3.93411        -3.52957
|106>    H       -5.31456        -0.43609        -6.83289
|107>    H       -7.93948        -0.09715        -6.31440
|108>    H       -8.26850         2.11813        -4.22214
|109>    H       -9.40495         0.38730        -7.66668
|110>    H      -13.68670        -0.73648        -6.79957
|111>    H      -13.71478         0.58199        -4.50051
|112>    H      -12.62399         2.04033        -2.95966
|113>    H      -12.29589         2.69713        -4.58475
|114>    H      -10.53706         0.78033        -2.98219
|115>    H      -10.19593         2.49863        -3.29249
|116> *
|117>
|118>                          ****END OF INPUT****

CARTESIAN COORDINATES (ANGSTROEM)
---------------------------------
  C      1.603680  -12.312700    3.067900
  C      2.574920  -12.790420    2.279050
  C      3.152340  -14.104550    2.292060
  C      4.122890  -14.301610    1.373910
  C      4.399200  -13.170730    0.555820
  S      3.355730  -11.828760    1.014140
  C      5.318180  -13.074670   -0.454200
  C      6.215380  -14.070000   -0.926490
  C      7.004250  -13.676410   -1.956010
  C      6.791820  -12.336340   -2.378990
  S      5.524450  -11.596360   -1.378690
  C      7.412220  -11.668100   -3.384890
  N      7.107830  -10.383570   -3.706110
  C      7.680000   -9.609970   -4.692500
  C      8.781600   -9.931270   -5.432430
  S      9.195420   -8.699960   -6.555690
  C      7.869840   -7.730260   -6.043250
  C      7.141310   -8.322040   -5.052660
  N      6.021430   -7.802970   -4.440440
  C      5.508910   -6.544850   -4.620720
  C      4.337120   -6.157430   -4.093490
  C      3.720010   -4.857240   -4.225650
  C      2.434250   -4.677380   -3.691670
  C      1.792260   -3.470310   -3.825600
  C      2.441010   -2.391220   -4.450860
  C      3.717140   -2.549480   -4.970940
  C      4.339410   -3.776600   -4.865270
  C      1.580120   -1.230370   -4.385320
  C      0.398550   -1.590510   -3.717430
  C      0.412730   -3.062030   -3.359080
  C      0.217400   -3.293180   -1.853720
  C      1.235390   -2.528340   -1.015430
  C     -0.703350   -3.735650   -4.191330
  C     -0.752240   -5.256800   -4.135930
  C     -0.594150   -0.665850   -3.510800
  C     -0.432370    0.650370   -3.970920
  C      0.755390    0.995380   -4.627480
  C      1.757920    0.070260   -4.836190
  C     -1.523110    1.576920   -3.774780
  C     -1.601400    2.845450   -4.212190
  C     -2.722650    3.710220   -3.922540
  S     -2.394990    5.277960   -3.474730
  C     -4.071400    3.279220   -3.984510
  C     -4.581180    2.225290   -4.676820
  S     -3.733330    1.064130   -5.684930
  C     -5.271330    0.384650   -6.150280
  C     -6.298410    1.006040   -5.531810
  O     -5.913880    2.026060   -4.705700
  C     -7.694600    0.711410   -5.649750
  C     -8.620740    1.380970   -4.933780
  N     -9.977720    1.251450   -4.944570
  C    -10.721680    0.586970   -5.912090
  C    -10.333220    0.213610   -7.166700
  S    -11.586570   -0.585730   -8.032960
  C    -12.682220   -0.374000   -6.721630
  C    -12.100720    0.261290   -5.670780
  N    -12.704890    0.612980   -4.470860
  C    -12.148710    1.831220   -3.919450
  C    -10.657570    1.597870   -3.705580
  H      1.157020  -12.933890    3.823970
  H      1.242030  -11.305280    2.974840
  H      2.809800  -14.844410    2.993920
  H      4.659080  -15.225850    1.247190
  H      6.243990  -15.049170   -0.483360
  H      7.738400  -14.299060   -2.436340
  H      8.166040  -12.157790   -3.979910
  H      6.414930   -9.947730   -3.112260
  H      9.387260  -10.811670   -5.378880
  H      7.708290   -6.786220   -6.519730
  H      5.451280   -8.433850   -3.895040
  H      6.127590   -5.884800   -5.204940
  H      3.770230   -6.883980   -3.522400
  H      1.967290   -5.499950   -3.169790
  H      4.220960   -1.722430   -5.449320
  H      5.331950   -3.895190   -5.271850
  H      0.309770   -4.358830   -1.639230
  H     -0.791540   -2.979980   -1.576010
  H      2.247420   -2.832880   -1.273300
  H      1.075040   -2.723900    0.042590
  H      1.146940   -1.457670   -1.185750
  H     -0.574300   -3.427890   -5.232590
  H     -1.659990   -3.335340   -3.847140
  H      0.147610   -5.688020   -4.565510
  H     -1.604690   -5.611110   -4.712290
  H     -0.864540   -5.613710   -3.115450
  H     -1.507430   -0.937730   -2.999940
  H      0.893360    2.006780   -4.976520
  H      2.666730    0.355940   -5.345020
  H     -2.360870    1.181810   -3.211420
  H     -0.759560    3.324330   -4.691060
  H     -4.802910    3.934110   -3.529570
  H     -5.314560   -0.436090   -6.832890
  H     -7.939480   -0.097150   -6.314400
  H     -8.268500    2.118130   -4.222140
  H     -9.404950    0.387300   -7.666680
  H    -13.686700   -0.736480   -6.799570
  H    -13.714780    0.581990   -4.500510
  H    -12.623990    2.040330   -2.959660
  H    -12.295890    2.697130   -4.584750
  H    -10.537060    0.780330   -2.982190
  H    -10.195930    2.498630   -3.292490

 Total Charge           Charge          ....    0
 Multiplicity           Mult            ....    1
 Number of Electrons    NEL             ....  462
 Basis Dimension        Dim             .... 1060

ORBITAL ENERGIES
----------------

  NO   OCC          E(Eh)            E(eV)
   0   2.0000     -88.953008     -2420.5344
   1   2.0000     -88.946305     -2420.3520
   2   2.0000     -88.941675     -2420.2260
   3   2.0000     -88.937327     -2420.1077
   4   2.0000     -88.924932     -2419.7704
   5   2.0000     -88.850224     -2417.7375
   6   2.0000     -19.288708      -524.8724
   7   2.0000     -14.459038      -393.4504
   8   2.0000     -14.452113      -393.2620
   9   2.0000     -14.448406      -393.1611
  10   2.0000     -14.419110      -392.3639
  11   2.0000     -10.368159      -282.1320
  12   2.0000     -10.343151      -281.4514
  13   2.0000     -10.323173      -280.9078
  14   2.0000     -10.320075      -280.8235
  15   2.0000     -10.318807      -280.7890
  16   2.0000     -10.315636      -280.7027
  17   2.0000     -10.315322      -280.6942
  18   2.0000     -10.311813      -280.5987
  19   2.0000     -10.310673      -280.5677
  20   2.0000     -10.310289      -280.5572
  21   2.0000     -10.304825      -280.4086
  22   2.0000     -10.302133      -280.3353
  23   2.0000     -10.301452      -280.3168
  24   2.0000     -10.294287      -280.1218
  25   2.0000     -10.293029      -280.0876
  26   2.0000     -10.292909      -280.0843
  27   2.0000     -10.287097      -279.9262
  28   2.0000     -10.284152      -279.8460
  29   2.0000     -10.281609      -279.7768
  30   2.0000     -10.281193      -279.7655
  31   2.0000     -10.280182      -279.7380
  32   2.0000     -10.278000      -279.6786
  33   2.0000     -10.275718      -279.6165
  34   2.0000     -10.274638      -279.5871
  35   2.0000     -10.270394      -279.4716
  36   2.0000     -10.270192      -279.4661
  37   2.0000     -10.269717      -279.4532
  38   2.0000     -10.267881      -279.4033
  39   2.0000     -10.267326      -279.3881
  40   2.0000     -10.266261      -279.3592
  41   2.0000     -10.261536      -279.2306
  42   2.0000     -10.260868      -279.2124
  43   2.0000     -10.260420      -279.2002
  44   2.0000     -10.259920      -279.1866
  45   2.0000     -10.259451      -279.1739
  46   2.0000     -10.259107      -279.1645
  47   2.0000     -10.258157      -279.1386
  48   2.0000     -10.258080      -279.1365
  49   2.0000     -10.256732      -279.0999
  50   2.0000     -10.256552      -279.0950
  51   2.0000     -10.256531      -279.0944
  52   2.0000     -10.256483      -279.0931
  53   2.0000     -10.256469      -279.0927
  54   2.0000     -10.255165      -279.0572
  55   2.0000     -10.255067      -279.0546
  56   2.0000     -10.252353      -278.9807
  57   2.0000     -10.245546      -278.7955
  58   2.0000     -10.238235      -278.5965
  59   2.0000      -8.048380      -219.0076
  60   2.0000      -8.042206      -218.8395
  61   2.0000      -8.037517      -218.7119
  62   2.0000      -8.033577      -218.6047
  63   2.0000      -8.021665      -218.2806
  64   2.0000      -7.946633      -216.2389
  65   2.0000      -6.018354      -163.7677
  66   2.0000      -6.013992      -163.6490
  67   2.0000      -6.011816      -163.5898
  68   2.0000      -6.009140      -163.5170
  69   2.0000      -6.007454      -163.4711
  70   2.0000      -6.007068      -163.4606
  71   2.0000      -6.003925      -163.3751
  72   2.0000      -6.003467      -163.3627
  73   2.0000      -6.002784      -163.3440
  74   2.0000      -5.999652      -163.2588
  75   2.0000      -5.999323      -163.2499
  76   2.0000      -5.994085      -163.1073
  77   2.0000      -5.991532      -163.0379
  78   2.0000      -5.987708      -162.9338
  79   2.0000      -5.982046      -162.7797
  80   2.0000      -5.915787      -160.9767
  81   2.0000      -5.914548      -160.9430
  82   2.0000      -5.906237      -160.7169
  83   2.0000      -1.207779       -32.8653
  84   2.0000      -1.076487       -29.2927
  85   2.0000      -1.071126       -29.1468
  86   2.0000      -1.041806       -28.3490
  87   2.0000      -1.018981       -27.7279
  88   2.0000      -0.980106       -26.6700
  89   2.0000      -0.976582       -26.5741
  90   2.0000      -0.964767       -26.2527
  91   2.0000      -0.959518       -26.1098
  92   2.0000      -0.953523       -25.9467
  93   2.0000      -0.937939       -25.5226
  94   2.0000      -0.928675       -25.2705
  95   2.0000      -0.916578       -24.9414
  96   2.0000      -0.909629       -24.7523
  97   2.0000      -0.893943       -24.3254
  98   2.0000      -0.879407       -23.9299
  99   2.0000      -0.874978       -23.8094
 100   2.0000      -0.860996       -23.4289
 101   2.0000      -0.853495       -23.2248
 102   2.0000      -0.846196       -23.0262
 103   2.0000      -0.840478       -22.8706
 104   2.0000      -0.834132       -22.6979
 105   2.0000      -0.829829       -22.5808
 106   2.0000      -0.827356       -22.5135
 107   2.0000      -0.822554       -22.3828
 108   2.0000      -0.821029       -22.3413
 109   2.0000      -0.811653       -22.0862
 110   2.0000      -0.809856       -22.0373
 111   2.0000      -0.801911       -21.8211
 112   2.0000      -0.799567       -21.7573
 113   2.0000      -0.788664       -21.4606
 114   2.0000      -0.770290       -20.9606
 115   2.0000      -0.767163       -20.8756
 116   2.0000      -0.755696       -20.5635
 117   2.0000      -0.755000       -20.5446
 118   2.0000      -0.728408       -19.8210
 119   2.0000      -0.718742       -19.5580
 120   2.0000      -0.716802       -19.5052
 121   2.0000      -0.714433       -19.4407
 122   2.0000      -0.705763       -19.2048
 123   2.0000      -0.701221       -19.0812
 124   2.0000      -0.694501       -18.8983
 125   2.0000      -0.683009       -18.5856
 126   2.0000      -0.680012       -18.5041
 127   2.0000      -0.675833       -18.3904
 128   2.0000      -0.668086       -18.1795
 129   2.0000      -0.666015       -18.1232
 130   2.0000      -0.656851       -17.8738
 131   2.0000      -0.650354       -17.6970
 132   2.0000      -0.645661       -17.5693
 133   2.0000      -0.644235       -17.5305
 134   2.0000      -0.638101       -17.3636
 135   2.0000      -0.629577       -17.1317
 136   2.0000      -0.622052       -16.9269
 137   2.0000      -0.614395       -16.7185
 138   2.0000      -0.611560       -16.6414
 139   2.0000      -0.609481       -16.5848
 140   2.0000      -0.603796       -16.4301
 141   2.0000      -0.599073       -16.3016
 142   2.0000      -0.587397       -15.9839
 143   2.0000      -0.586967       -15.9722
 144   2.0000      -0.583653       -15.8820
 145   2.0000      -0.580804       -15.8045
 146   2.0000      -0.577839       -15.7238
 147   2.0000      -0.572445       -15.5770
 148   2.0000      -0.571954       -15.5637
 149   2.0000      -0.558379       -15.1943
 150   2.0000      -0.556337       -15.1387
 151   2.0000      -0.555520       -15.1165
 152   2.0000      -0.546638       -14.8748
 153   2.0000      -0.540729       -14.7140
 154   2.0000      -0.539750       -14.6873
 155   2.0000      -0.532772       -14.4975
 156   2.0000      -0.528811       -14.3897
 157   2.0000      -0.524835       -14.2815
 158   2.0000      -0.522921       -14.2294
 159   2.0000      -0.519008       -14.1229
 160   2.0000      -0.513272       -13.9668
 161   2.0000      -0.511949       -13.9308
 162   2.0000      -0.511186       -13.9101
 163   2.0000      -0.507118       -13.7994
 164   2.0000      -0.506559       -13.7842
 165   2.0000      -0.502269       -13.6674
 166   2.0000      -0.501233       -13.6393
 167   2.0000      -0.499235       -13.5849
 168   2.0000      -0.495248       -13.4764
 169   2.0000      -0.492299       -13.3961
 170   2.0000      -0.491746       -13.3811
 171   2.0000      -0.488456       -13.2916
 172   2.0000      -0.484909       -13.1950
 173   2.0000      -0.481416       -13.1000
 174   2.0000      -0.478297       -13.0151
 175   2.0000      -0.473006       -12.8711
 176   2.0000      -0.471834       -12.8392
 177   2.0000      -0.469776       -12.7832
 178   2.0000      -0.468616       -12.7517
 179   2.0000      -0.467582       -12.7235
 180   2.0000      -0.463990       -12.6258
 181   2.0000      -0.462984       -12.5984
 182   2.0000      -0.458527       -12.4772
 183   2.0000      -0.455101       -12.3839
 184   2.0000      -0.451068       -12.2742
 185   2.0000      -0.449904       -12.2425
 186   2.0000      -0.448080       -12.1929
 187   2.0000      -0.446993       -12.1633
 188   2.0000      -0.442959       -12.0535
 189   2.0000      -0.441168       -12.0048
 190   2.0000      -0.440466       -11.9857
 191   2.0000      -0.434597       -11.8260
 192   2.0000      -0.429805       -11.6956
 193   2.0000      -0.427322       -11.6280
 194   2.0000      -0.424134       -11.5413
 195   2.0000      -0.422658       -11.5011
 196   2.0000      -0.422130       -11.4867
 197   2.0000      -0.421147       -11.4600
 198   2.0000      -0.420043       -11.4300
 199   2.0000      -0.416146       -11.3239
 200   2.0000      -0.413072       -11.2403
 201   2.0000      -0.412268       -11.2184
 202   2.0000      -0.410890       -11.1809
 203   2.0000      -0.404514       -11.0074
 204   2.0000      -0.399440       -10.8693
 205   2.0000      -0.397853       -10.8261
 206   2.0000      -0.390128       -10.6159
 207   2.0000      -0.388691       -10.5768
 208   2.0000      -0.387708       -10.5501
 209   2.0000      -0.378617       -10.3027
 210   2.0000      -0.374774       -10.1981
 211   2.0000      -0.371647       -10.1130
 212   2.0000      -0.370416       -10.0795
 213   2.0000      -0.370179       -10.0731
 214   2.0000      -0.360528        -9.8105
 215   2.0000      -0.337413        -9.1815
 216   2.0000      -0.329670        -8.9708
 217   2.0000      -0.323516        -8.8033
 218   2.0000      -0.314160        -8.5487
 219   2.0000      -0.310614        -8.4522
 220   2.0000      -0.308282        -8.3888
 221   2.0000      -0.304291        -8.2802
 222   2.0000      -0.297883        -8.1058
 223   2.0000      -0.274899        -7.4804
 224   2.0000      -0.270723        -7.3668
 225   2.0000      -0.264819        -7.2061
 226   2.0000      -0.255759        -6.9595
 227   2.0000      -0.245450        -6.6790
 228   2.0000      -0.228383        -6.2146
 229   2.0000      -0.225524        -6.1368
 230   2.0000      -0.204662        -5.5691
 231   0.0000      -0.042148        -1.1469
 232   0.0000      -0.041840        -1.1385
 233   0.0000      -0.005575        -0.1517
 234   0.0000       0.003231         0.0879
 235   0.0000       0.020631         0.5614

MULLIKEN ATOMIC CHARGES
-----------------------
   0 C :   -0.040232
   1 C :   -0.056945
   2 C :    0.041449
   3 C :    0.031102
   4 C :   -0.073694
   5 S :    0.056775
   6 C :   -0.041163
   7 C :    0.017692
   8 C :    0.045079
   9 C :   -0.051752
  10 S :    0.012759
  11 C :    0.038906
  12 N :   -0.058597
  13 C :    0.127073
  14 C :   -0.216135
  15 S :    0.111494
  16 C :   -0.225628
  17 C :    0.140927
  18 N :   -0.062631
  19 C :    0.081730
  20 C :   -0.034624
  21 C :    0.136257
  22 C :   -0.125222
  23 C :    0.029530
  24 C :    0.097649
  25 C :   -0.049163
  26 C :   -0.022503
  27 C :    0.109393
  28 C :    0.015688
  29 C :   -0.131690
  30 C :    0.056048
  31 C :    0.022389
  32 C :    0.079663
  33 C :    0.031967
  34 C :   -0.108031
  35 C :    0.102699
  36 C :   -0.002305
  37 C :   -0.048462
  38 C :    0.006850
  39 C :    0.023047
  40 C :   -0.075543
  41 S :   -0.204627
  42 C :   -0.009943
  43 C :    0.112212
  44 S :    0.095862
  45 C :   -0.137865
  46 C :    0.234107
  47 O :   -0.215043
  48 C :   -0.077786
  49 C :    0.100374
  50 N :   -0.204157
  51 C :    0.175798
  52 C :   -0.215144
  53 S :    0.097228
  54 C :   -0.204231
  55 C :    0.099382
  56 N :   -0.150914
  57 C :    0.109568
  58 C :    0.141311
  59 H :    0.013493
  60 H :    0.014650
  61 H :   -0.017823
  62 H :   -0.016774
  63 H :   -0.020376
  64 H :   -0.017046
  65 H :    0.005790
  66 H :    0.120084
  67 H :    0.010328
  68 H :    0.011973
  69 H :    0.109469
  70 H :    0.004288
  71 H :   -0.038787
  72 H :   -0.045286
  73 H :   -0.040323
  74 H :   -0.046422
  75 H :    0.004076
  76 H :   -0.004854
  77 H :    0.021017
  78 H :    0.007197
  79 H :    0.023680
  80 H :    0.002881
  81 H :   -0.006868
  82 H :    0.019700
  83 H :    0.008088
  84 H :    0.001646
  85 H :   -0.043183
  86 H :   -0.029112
  87 H :   -0.039622
  88 H :   -0.002663
  89 H :    0.004597
  90 H :   -0.001313
  91 H :    0.024876
  92 H :   -0.003804
  93 H :    0.016954
  94 H :    0.018158
  95 H :   -0.004093
  96 H :    0.110846
  97 H :    0.015433
  98 H :    0.016680
  99 H :    0.028596
 100 H :    0.025871
Sum of atomic charges:   -0.0000000

LOEWDIN ATOMIC CHARGES
----------------------
   0 C :   -0.093722
   1 C :   -0.137125
   2 C :   -0.043025
   3 C :   -0.025680
   4 C :   -0.194126
   5 S :    0.331057
   6 C :   -0.169114
   7 C :   -0.053661
   8 C :   -0.026395
   9 C :   -0.201035
  10 S :    0.318724
  11 C :    0.013082
  12 N :    0.027228
  13 C :   -0.028803
  14 C :   -0.238509
  15 S :    0.429248
  16 C :   -0.241349
  17 C :   -0.024306
  18 N :    0.015532
  19 C :    0.041781
  20 C :   -0.092511
  21 C :   -0.013453
  22 C :   -0.032738
  23 C :    0.005020
  24 C :   -0.028117
  25 C :   -0.016137
  26 C :   -0.029389
  27 C :   -0.012475
  28 C :    0.001015
  29 C :   -0.034054
  30 C :   -0.015428
  31 C :   -0.056662
  32 C :   -0.009739
  33 C :   -0.059563
  34 C :   -0.017499
  35 C :   -0.032197
  36 C :   -0.008210
  37 C :   -0.021394
  38 C :   -0.011310
  39 C :   -0.060368
  40 C :   -0.129498
  41 S :   -0.032413
  42 C :   -0.153561
  43 C :   -0.045376
  44 S :    0.404144
  45 C :   -0.234130
  46 C :    0.037094
  47 O :   -0.023919
  48 C :   -0.118116
  49 C :    0.046464
  50 N :   -0.012338
  51 C :   -0.026470
  52 C :   -0.228004
  53 S :    0.419388
  54 C :   -0.242805
  55 C :   -0.030747
  56 N :   -0.059040
  57 C :    0.029574
  58 C :    0.047120
  59 H :    0.025753
  60 H :    0.023094
  61 H :    0.030720
  62 H :    0.030415
  63 H :    0.029405
  64 H :    0.031607
  65 H :    0.034359
  66 H :    0.067629
  67 H :    0.018491
  68 H :    0.018894
  69 H :    0.077073
  70 H :    0.026505
  71 H :    0.021075
  72 H :    0.020848
  73 H :    0.025360
  74 H :    0.020117
  75 H :    0.018757
  76 H :    0.019113
  77 H :    0.025863
  78 H :    0.022851
  79 H :    0.026049
  80 H :    0.025995
  81 H :    0.018686
  82 H :    0.024145
  83 H :    0.025854
  84 H :    0.019204
  85 H :    0.022691
  86 H :    0.027153
  87 H :    0.025628
  88 H :    0.025366
  89 H :    0.030262
  90 H :    0.038406
  91 H :    0.029136
  92 H :    0.034279
  93 H :    0.029150
  94 H :    0.019945
  95 H :    0.017940
  96 H :    0.073522
  97 H :    0.030221
  98 H :    0.013360
  99 H :    0.023413
 100 H :    0.029705

  Mayer bond orders larger than 0.100000
B(  0-C ,  1-C ) :   1.8655 B(  0-C , 59-H ) :   0.9500 B(  0-C , 60-H ) :   0.9413
B(  1-C ,  2-C ) :   1.0813 B(  1-C ,  5-S ) :   1.0091 B(  2-C ,  3-C ) :   1.6620
B(  2-C , 61-H ) :   0.9923 B(  3-C ,  4-C ) :   1.1539 B(  3-C , 62-H ) :   0.9905
B(  4-C ,  5-S ) :   1.0235 B(  4-C ,  6-C ) :   1.5833 B(  6-C ,  7-C ) :   1.1617
B(  6-C , 10-S ) :   1.0369 B(  7-C ,  8-C ) :   1.6340 B(  7-C , 63-H ) :   0.9902
B(  8-C ,  9-C ) :   1.1432 B(  8-C , 64-H ) :   0.9929 B(  9-C , 10-S ) :   0.9877
B(  9-C , 11-C ) :   1.6101 B( 11-C , 12-N ) :   1.1721 B( 11-C , 65-H ) :   0.9687
B( 12-N , 13-C ) :   1.1171 B( 12-N , 66-H ) :   0.9115 B( 13-C , 14-C ) :   1.5213
B( 13-C , 17-C ) :   1.2325 B( 14-C , 15-S ) :   1.1419 B( 14-C , 67-H ) :   0.9771
B( 15-S , 16-C ) :   1.1362 B( 16-C , 17-C ) :   1.5217 B( 16-C , 68-H ) :   0.9767
B( 17-C , 18-N ) :   1.1225 B( 18-N , 19-C ) :   1.1364 B( 18-N , 69-H ) :   0.9201
B( 19-C , 20-C ) :   1.6778 B( 19-C , 70-H ) :   0.9640 B( 20-C , 21-C ) :   1.0956
B( 20-C , 71-H ) :   0.9738 B( 21-C , 22-C ) :   1.2915 B( 21-C , 26-C ) :   1.3459
B( 22-C , 23-C ) :   1.3829 B( 22-C , 72-H ) :   1.0045 B( 23-C , 24-C ) :   1.3858
B( 23-C , 29-C ) :   0.9198 B( 24-C , 25-C ) :   1.3305 B( 24-C , 27-C ) :   0.9977
B( 25-C , 26-C ) :   1.4002 B( 25-C , 73-H ) :   0.9883 B( 26-C , 74-H ) :   0.9819
B( 27-C , 28-C ) :   1.3814 B( 27-C , 37-C ) :   1.3261 B( 28-C , 29-C ) :   0.9244
B( 28-C , 34-C ) :   1.3757 B( 29-C , 30-C ) :   1.0323 B( 29-C , 32-C ) :   1.0149
B( 30-C , 31-C ) :   1.1012 B( 30-C , 75-H ) :   0.9386 B( 30-C , 76-H ) :   0.9392
B( 31-C , 77-H ) :   0.9655 B( 31-C , 78-H ) :   0.9650 B( 31-C , 79-H ) :   0.9636
B( 32-C , 33-C ) :   1.1142 B( 32-C , 80-H ) :   0.9388 B( 32-C , 81-H ) :   0.9369
B( 33-C , 82-H ) :   0.9608 B( 33-C , 83-H ) :   0.9596 B( 33-C , 84-H ) :   0.9628
B( 34-C , 35-C ) :   1.2902 B( 34-C , 85-H ) :   1.0095 B( 35-C , 36-C ) :   1.3569
B( 35-C , 38-C ) :   1.0806 B( 36-C , 37-C ) :   1.3971 B( 36-C , 86-H ) :   0.9835
B( 37-C , 87-H ) :   0.9894 B( 38-C , 39-C ) :   1.7101 B( 38-C , 88-H ) :   0.9749
B( 39-C , 40-C ) :   1.0507 B( 39-C , 89-H ) :   0.9476 B( 40-C , 41-S ) :   1.5703
B( 40-C , 42-C ) :   1.1875 B( 42-C , 43-C ) :   1.5720 B( 42-C , 90-H ) :   0.9502
B( 43-C , 44-S ) :   1.0770 B( 43-C , 47-O ) :   1.1129 B( 44-S , 45-C ) :   1.0035
B( 45-C , 46-C ) :   1.6549 B( 45-C , 91-H ) :   0.9634 B( 46-C , 47-O ) :   1.0572
B( 46-C , 48-C ) :   1.1518 B( 48-C , 49-C ) :   1.6610 B( 48-C , 92-H ) :   0.9594
B( 49-C , 50-N ) :   1.1415 B( 49-C , 93-H ) :   0.9551 B( 50-N , 51-C ) :   1.0512
B( 50-N , 58-C ) :   0.9669 B( 51-C , 52-C ) :   1.5168 B( 51-C , 55-C ) :   1.2473
B( 52-C , 53-S ) :   1.1489 B( 52-C , 94-H ) :   0.9715 B( 53-S , 54-C ) :   1.1249
B( 54-C , 55-C ) :   1.5353 B( 54-C , 95-H ) :   0.9816 B( 55-C , 56-N ) :   1.1314
B( 56-N , 57-C ) :   1.0276 B( 56-N , 96-H ) :   0.9273 B( 57-C , 58-C ) :   1.0838
B( 57-C , 97-H ) :   0.9416 B( 57-C , 98-H ) :   0.9373 B( 58-C , 99-H ) :   0.9421
B( 58-C ,100-H ) :   0.9420

-----------------------------------------------------------------------------
         ABSORPTION SPECTRUM VIA TRANSITION ELECTRIC DIPOLE MOMENTS
-----------------------------------------------------------------------------
State   Energy  Wavelength   fosc         T2         TX        TY        TZ
        (cm-1)    (nm)                  (au**2)     (au)      (au)      (au)
-----------------------------------------------------------------------------
   0   19533.4    511.9   0.029909254   0.50408   0.41593  -0.57198   0.06268
   1   21419.2    466.9   1.240055705  19.05961   2.32150   1.53157  -3.36519
   2   23422.5    426.9   0.186185098   2.61690   1.43840   0.51135   0.53518
   3   26451.7    378.0   1.239544166  15.42709  -2.57548   2.91460   0.54689
   4   28171.7    355.0   0.189954387   2.21979  -0.96433   1.13166   0.09599
   5   28318.0    353.1   0.041063991   0.47739  -0.50235   0.28966   0.37567
   6   30273.1    330.3   0.002482086   0.02699   0.10055  -0.11880  -0.05261
   7   31719.3    315.3   0.263920073   2.73920  -1.47921   0.65937   0.34112
   8   31962.5    312.9   0.170011037   1.75110  -1.26192   0.02843  -0.39729
   9   32567.8    307.1   0.189619862   1.91677  -0.71516   1.12888   0.36187
  10   32954.5    303.4   0.565525094   5.64954  -2.17573  -0.79620  -0.53084
  11   33549.3    298.1   0.090975380   0.89272   0.68201  -0.62338  -0.19745
  12   34534.5    289.6   0.001684639   0.01606   0.01002  -0.11533   0.05156
  13   34734.4    287.9   0.012875912   0.12204  -0.07881   0.16796  -0.29600
  14   35556.6    281.2   0.200482805   1.85623   0.28881  -1.29815   0.29603
  15   36143.0    276.7   0.366100721   3.33467  -0.93690   1.49585   0.46833
  16   36585.8    273.3   0.096912383   0.87205  -0.29077  -0.86871  -0.18121
  17   37008.0    270.2   0.015639354   0.13912  -0.23700  -0.26632  -0.10968
  18   37523.4    266.5   0.000321377   0.00282  -0.02574   0.02592   0.03854
  19   37669.6    265.5   0.067462857   0.58959  -0.65598   0.09681  -0.38718
  20   38755.5    258.0   0.043462531   0.36920  -0.02602  -0.48311   0.36760
  21   39071.8    255.9   0.022254460   0.18751   0.17649  -0.34531  -0.19268
  22   39107.9    255.7   0.033273864   0.28010  -0.49063   0.09773   0.17272
  23   39224.5    254.9   0.009501848   0.07975  -0.19073  -0.16208  -0.13078
  24   39440.9    253.5   0.001028806   0.00859  -0.02499  -0.04292   0.07824
  25   39900.7    250.6   0.000767655   0.00633   0.01663  -0.04641  -0.06248
  26   40101.4    249.4   0.004997054   0.04102   0.05777  -0.18130   0.06941

FINAL SINGLE POINT ENERGY     -4534.177478952171

DIPOLE MOMENT
-------------
                                X             Y             Z
Electronic contribution:     14.59413      -1.05012     -16.32614
Nuclear contribution   :    -16.18858      -1.68766      15.97656
                        -----------------------------------------
Total Dipole Moment    :     -1.59445      -2.73779      -0.34958
                        -----------------------------------------
Magnitude (a.u.)       :      3.18747
Magnitude (Debye)      :      8.10190

Rotational constants in cm-1:     0.001343     0.000271     0.000246
Rotational constants in MHz :    40.272959     8.132225     7.366149

                             ****ORCA TERMINATED NORMALLY****
TOTAL RUN TIME: 0 days 0 hours 7 minutes 40 seconds 504 msec
