                         Program Version 4.2.0 -  RELEASE  -
|  1> # ORCA input file
|  2> # SCF done       -185.249975860599          0.000527897606
|  3> ! CAM-B3LYP def2-SVP def2/J RIJCOSX Grid4 TightSCF
|  4> %maxcore 5000
|  5> %tddft
|  6>     Mode sTDDFT
|  7>     Ethresh 5.0
|  8>     maxcore 5000
|  9> end
| 10>
| 11> %pal
| 12>   nprocs 6
| 13>   end
| 14> * xyz 0 1
| 15>    C       -4.45192        -5.68841         7.17130
| 16>    C       -4.51357        -5.71946         8.55368
| 17>    C       -3.31575        -5.73202         9.27279
| 18>    C       -3.35551        -5.77083        10.68864
| 19>    N       -3.39489        -5.80623        11.83220
| 20>    C       -2.06962        -5.71197         8.61800
| 21>    C       -0.87247        -5.72449         9.37367
| 22>    N        0.10742        -5.74167         9.96584
| 23>    C       -2.01152        -5.68599         7.22357
| 24>    C       -3.20000        -5.67371         6.52584
| 25>    C       -3.40408        -5.67862         5.06449
| 26>    O       -2.53485        -5.76704         4.21216
| 27>    C       -4.85336        -5.67152         4.85665
| 28>    C       -5.50351        -5.66617         6.15276
| 29>    C       -6.84720        -5.57842         6.39864
| 30>    C       -7.41622        -5.55782         7.69086
| 31>    N       -7.93356        -5.54273         8.71457
| 32>    C       -7.84423        -5.47303         5.40433
| 33>    N       -8.70282        -5.36872         4.64978
| 34>    C       -5.47376        -5.82669         3.63918
| 35>    C       -4.92279        -5.67770         2.35991
| 36>    S       -5.76719        -6.45133         1.02232
| 37>    C       -4.63924        -5.84467        -0.15627
| 38>    C       -3.69585        -5.03928         0.46551
| 39>    C       -3.83767        -4.95396         1.86388
| 40>    S       -2.75263        -3.88843         2.67774
| 41>    C       -1.92862        -3.31597         1.23339
| 42>    S       -0.76690        -2.18163         1.28905
| 43>    S       -2.42366        -4.10208        -0.25702
| 44>    C       -4.72696        -6.20597        -1.51651
| 45>    S       -3.49180        -5.70677        -2.65615
| 46>    C       -4.29325        -6.57405        -3.89668
| 47>    C       -5.46328        -7.20506        -3.45657
| 48>    C       -5.70593        -6.99692        -2.11102
| 49>    C       -6.11975        -7.96122        -4.58865
| 50>    C       -6.21926        -9.45694        -4.27753
| 51>    C       -7.50022        -7.38165        -4.91290
| 52>    C       -5.13704        -7.69360        -5.70602
| 53>    C       -4.09360        -6.87083        -5.25914
| 54>    S       -2.93639        -6.54934        -6.47461
| 55>    C       -3.84159        -7.53831        -7.60773
| 56>    C       -4.99448        -8.06669        -7.02983
| 57>    C       -3.31472        -7.71022        -8.90393
| 58>    C       -3.85848        -8.45580        -9.90322
| 59>    C       -3.24645        -8.60804       -11.16406
| 60>    S       -1.70183        -7.89881       -11.55445
| 61>    C       -1.70935        -8.55506       -13.18142
| 62>    C       -2.86331        -9.30796       -13.36616
| 63>    C       -3.72112        -9.32194       -12.25491
| 64>    S       -5.19584       -10.22768       -12.41980
| 65>    C       -4.89390       -10.76406       -14.06562
| 66>    S       -5.92267       -11.71974       -14.87970
| 67>    S       -3.38374       -10.18194       -14.76717
| 68>    C       -0.63878        -8.43516       -14.08341
| 69>    C        0.42619        -7.58148       -14.03030
| 70>    C        1.69565        -7.93217       -14.71538
| 71>    O        1.86850        -8.78701       -15.54997
| 72>    C        2.71551        -7.04946       -14.09463
| 73>    C        4.08274        -7.05757       -14.26948
| 74>    C        4.84633        -6.15079       -13.53091
| 75>    C        4.22219        -5.26036       -12.63637
| 76>    C        2.83465        -5.24869       -12.47863
| 77>    C        2.08404        -6.14766       -13.21456
| 78>    C        0.63901        -6.36150       -13.28761
| 79>    C       -0.31720        -5.43133       -12.97371
| 80>    C       -1.66610        -5.56777       -13.36522
| 81>    N       -2.75667        -5.63728       -13.71553
| 82>    C       -0.04555        -4.21437       -12.31717
| 83>    N        0.13022        -3.22759       -11.75877
| 84>    C        5.01572        -4.36539       -11.87630
| 85>    N        5.64850        -3.64456       -11.25146
| 86>    C        6.25485        -6.13243       -13.67450
| 87>    N        7.39294        -6.13383       -13.80019
| 88>    H       -5.44815        -5.73953         9.09123
| 89>    H       -1.06444        -5.67485         6.70589
| 90>    H       -6.50926        -6.14402         3.63990
| 91>    H       -6.53792        -7.38809        -1.55346
| 92>    H       -6.87115        -9.61682        -3.42285
| 93>    H       -5.23688        -9.86342        -4.04862
| 94>    H       -6.62650        -9.98912        -5.13312
| 95>    H       -8.16838        -7.51601        -4.06641
| 96>    H       -7.92258        -7.88710        -5.77734
| 97>    H       -7.42382        -6.31935        -5.13257
| 98>    H       -5.67749        -8.69650        -7.56921
| 99>    H       -2.37858        -7.20244        -9.10347
|100>    H       -4.79806        -8.97238        -9.76854
|101>    H       -0.60586        -9.18320       -14.87043
|102>    H        4.55077        -7.74735       -14.95523
|103>    H        2.38449        -4.55711       -11.78362
|104> *
|105>
|106>                          ****END OF INPUT****

CARTESIAN COORDINATES (ANGSTROEM)
---------------------------------
  C     -4.451920   -5.688410    7.171300
  C     -4.513570   -5.719460    8.553680
  C     -3.315750   -5.732020    9.272790
  C     -3.355510   -5.770830   10.688640
  N     -3.394890   -5.806230   11.832200
  C     -2.069620   -5.711970    8.618000
  C     -0.872470   -5.724490    9.373670
  N      0.107420   -5.741670    9.965840
  C     -2.011520   -5.685990    7.223570
  C     -3.200000   -5.673710    6.525840
  C     -3.404080   -5.678620    5.064490
  O     -2.534850   -5.767040    4.212160
  C     -4.853360   -5.671520    4.856650
  C     -5.503510   -5.666170    6.152760
  C     -6.847200   -5.578420    6.398640
  C     -7.416220   -5.557820    7.690860
  N     -7.933560   -5.542730    8.714570
  C     -7.844230   -5.473030    5.404330
  N     -8.702820   -5.368720    4.649780
  C     -5.473760   -5.826690    3.639180
  C     -4.922790   -5.677700    2.359910
  S     -5.767190   -6.451330    1.022320
  C     -4.639240   -5.844670   -0.156270
  C     -3.695850   -5.039280    0.465510
  C     -3.837670   -4.953960    1.863880
  S     -2.752630   -3.888430    2.677740
  C     -1.928620   -3.315970    1.233390
  S     -0.766900   -2.181630    1.289050
  S     -2.423660   -4.102080   -0.257020
  C     -4.726960   -6.205970   -1.516510
  S     -3.491800   -5.706770   -2.656150
  C     -4.293250   -6.574050   -3.896680
  C     -5.463280   -7.205060   -3.456570
  C     -5.705930   -6.996920   -2.111020
  C     -6.119750   -7.961220   -4.588650
  C     -6.219260   -9.456940   -4.277530
  C     -7.500220   -7.381650   -4.912900
  C     -5.137040   -7.693600   -5.706020
  C     -4.093600   -6.870830   -5.259140
  S     -2.936390   -6.549340   -6.474610
  C     -3.841590   -7.538310   -7.607730
  C     -4.994480   -8.066690   -7.029830
  C     -3.314720   -7.710220   -8.903930
  C     -3.858480   -8.455800   -9.903220
  C     -3.246450   -8.608040  -11.164060
  S     -1.701830   -7.898810  -11.554450
  C     -1.709350   -8.555060  -13.181420
  C     -2.863310   -9.307960  -13.366160
  C     -3.721120   -9.321940  -12.254910
  S     -5.195840  -10.227680  -12.419800
  C     -4.893900  -10.764060  -14.065620
  S     -5.922670  -11.719740  -14.879700
  S     -3.383740  -10.181940  -14.767170
  C     -0.638780   -8.435160  -14.083410
  C      0.426190   -7.581480  -14.030300
  C      1.695650   -7.932170  -14.715380
  O      1.868500   -8.787010  -15.549970
  C      2.715510   -7.049460  -14.094630
  C      4.082740   -7.057570  -14.269480
  C      4.846330   -6.150790  -13.530910
  C      4.222190   -5.260360  -12.636370
  C      2.834650   -5.248690  -12.478630
  C      2.084040   -6.147660  -13.214560
  C      0.639010   -6.361500  -13.287610
  C     -0.317200   -5.431330  -12.973710
  C     -1.666100   -5.567770  -13.365220
  N     -2.756670   -5.637280  -13.715530
  C     -0.045550   -4.214370  -12.317170
  N      0.130220   -3.227590  -11.758770
  C      5.015720   -4.365390  -11.876300
  N      5.648500   -3.644560  -11.251460
  C      6.254850   -6.132430  -13.674500
  N      7.392940   -6.133830  -13.800190
  H     -5.448150   -5.739530    9.091230
  H     -1.064440   -5.674850    6.705890
  H     -6.509260   -6.144020    3.639900
  H     -6.537920   -7.388090   -1.553460
  H     -6.871150   -9.616820   -3.422850
  H     -5.236880   -9.863420   -4.048620
  H     -6.626500   -9.989120   -5.133120
  H     -8.168380   -7.516010   -4.066410
  H     -7.922580   -7.887100   -5.777340
  H     -7.423820   -6.319350   -5.132570
  H     -5.677490   -8.696500   -7.569210
  H     -2.378580   -7.202440   -9.103470
  H     -4.798060   -8.972380   -9.768540
  H     -0.605860   -9.183200  -14.870430
  H      4.550770   -7.747350  -14.955230
  H      2.384490   -4.557110  -11.783620

 Total Charge           Charge          ....    0
 Multiplicity           Mult            ....    1
 Number of Electrons    NEL             ....  566
 Basis Dimension        Dim             .... 1142

ORBITAL ENERGIES
----------------

  NO   OCC          E(Eh)            E(eV)
   0   2.0000     -89.002504     -2421.8813
   1   2.0000     -88.999192     -2421.7911
   2   2.0000     -88.997998     -2421.7587
   3   2.0000     -88.997464     -2421.7441
   4   2.0000     -88.997043     -2421.7327
   5   2.0000     -88.996169     -2421.7089
   6   2.0000     -88.995404     -2421.6881
   7   2.0000     -88.993276     -2421.6301
   8   2.0000     -88.918157     -2419.5861
   9   2.0000     -88.913335     -2419.4549
  10   2.0000     -19.244315      -523.6644
  11   2.0000     -19.239243      -523.5264
  12   2.0000     -14.438396      -392.8887
  13   2.0000     -14.436894      -392.8479
  14   2.0000     -14.435759      -392.8170
  15   2.0000     -14.433355      -392.7516
  16   2.0000     -14.431192      -392.6927
  17   2.0000     -14.431132      -392.6911
  18   2.0000     -14.430354      -392.6699
  19   2.0000     -14.428777      -392.6270
  20   2.0000     -10.399119      -282.9744
  21   2.0000     -10.391400      -282.7644
  22   2.0000     -10.391174      -282.7582
  23   2.0000     -10.390021      -282.7268
  24   2.0000     -10.369179      -282.1597
  25   2.0000     -10.368178      -282.1325
  26   2.0000     -10.365234      -282.0524
  27   2.0000     -10.364789      -282.0403
  28   2.0000     -10.364711      -282.0381
  29   2.0000     -10.363901      -282.0161
  30   2.0000     -10.362558      -281.9796
  31   2.0000     -10.361785      -281.9585
  32   2.0000     -10.361378      -281.9474
  33   2.0000     -10.358128      -281.8590
  34   2.0000     -10.358073      -281.8575
  35   2.0000     -10.357884      -281.8523
  36   2.0000     -10.349715      -281.6301
  37   2.0000     -10.347529      -281.5706
  38   2.0000     -10.347236      -281.5626
  39   2.0000     -10.347166      -281.5607
  40   2.0000     -10.346959      -281.5551
  41   2.0000     -10.346000      -281.5290
  42   2.0000     -10.345778      -281.5229
  43   2.0000     -10.344110      -281.4775
  44   2.0000     -10.342034      -281.4211
  45   2.0000     -10.341439      -281.4049
  46   2.0000     -10.339961      -281.3646
  47   2.0000     -10.339403      -281.3495
  48   2.0000     -10.338895      -281.3356
  49   2.0000     -10.338270      -281.3186
  50   2.0000     -10.337951      -281.3100
  51   2.0000     -10.337540      -281.2988
  52   2.0000     -10.337174      -281.2888
  53   2.0000     -10.336278      -281.2644
  54   2.0000     -10.335817      -281.2519
  55   2.0000     -10.334764      -281.2232
  56   2.0000     -10.330450      -281.1058
  57   2.0000     -10.329144      -281.0703
  58   2.0000     -10.327952      -281.0379
  59   2.0000     -10.327739      -281.0321
  60   2.0000     -10.327506      -281.0257
  61   2.0000     -10.326806      -281.0067
  62   2.0000     -10.326347      -280.9942
  63   2.0000     -10.325168      -280.9621
  64   2.0000     -10.321347      -280.8581
  65   2.0000     -10.321345      -280.8581
  66   2.0000     -10.319350      -280.8038
  67   2.0000     -10.318048      -280.7684
  68   2.0000     -10.315083      -280.6877
  69   2.0000     -10.311452      -280.5889
  70   2.0000     -10.310609      -280.5659
  71   2.0000     -10.292653      -280.0773
  72   2.0000     -10.291918      -280.0573
  73   2.0000      -8.097147      -220.3346
  74   2.0000      -8.095101      -220.2789
  75   2.0000      -8.093416      -220.2330
  76   2.0000      -8.092150      -220.1986
  77   2.0000      -8.092068      -220.1964
  78   2.0000      -8.091282      -220.1750
  79   2.0000      -8.090871      -220.1638
  80   2.0000      -8.089021      -220.1134
  81   2.0000      -8.015253      -218.1061
  82   2.0000      -8.010321      -217.9719
  83   2.0000      -6.066553      -165.0793
  84   2.0000      -6.064968      -165.0362
  85   2.0000      -6.063011      -164.9829
  86   2.0000      -6.062399      -164.9663
  87   2.0000      -6.061852      -164.9514
  88   2.0000      -6.061367      -164.9382
  89   2.0000      -6.061194      -164.9335
  90   2.0000      -6.060576      -164.9167
  91   2.0000      -6.060418      -164.9124
  92   2.0000      -6.059109      -164.8767
  93   2.0000      -6.058959      -164.8727
  94   2.0000      -6.058897      -164.8710
  95   2.0000      -6.057345      -164.8287
  96   2.0000      -6.057175      -164.8241
  97   2.0000      -6.056915      -164.8170
  98   2.0000      -6.056386      -164.8027
  99   2.0000      -6.055899      -164.7894
 100   2.0000      -6.054770      -164.7587
 101   2.0000      -6.054581      -164.7535
 102   2.0000      -6.054353      -164.7473
 103   2.0000      -6.053375      -164.7207
 104   2.0000      -6.052353      -164.6929
 105   2.0000      -6.051931      -164.6814
 106   2.0000      -6.049687      -164.6203
 107   2.0000      -5.984646      -162.8505
 108   2.0000      -5.982345      -162.7879
 109   2.0000      -5.979739      -162.7170
 110   2.0000      -5.977398      -162.6533
 111   2.0000      -5.975117      -162.5912
 112   2.0000      -5.970209      -162.4577
 113   2.0000      -1.158821       -31.5331
 114   2.0000      -1.155177       -31.4340
 115   2.0000      -1.056120       -28.7385
 116   2.0000      -1.053963       -28.6798
 117   2.0000      -1.046722       -28.4827
 118   2.0000      -1.046395       -28.4738
 119   2.0000      -1.045629       -28.4530
 120   2.0000      -1.032399       -28.0930
 121   2.0000      -1.031634       -28.0722
 122   2.0000      -1.015585       -27.6355
 123   2.0000      -1.015369       -27.6296
 124   2.0000      -1.014411       -27.6035
 125   2.0000      -1.013112       -27.5682
 126   2.0000      -1.012655       -27.5558
 127   2.0000      -1.010504       -27.4972
 128   2.0000      -1.008800       -27.4508
 129   2.0000      -0.994591       -27.0642
 130   2.0000      -0.991902       -26.9910
 131   2.0000      -0.983116       -26.7520
 132   2.0000      -0.981953       -26.7203
 133   2.0000      -0.965254       -26.2659
 134   2.0000      -0.949572       -25.8392
 135   2.0000      -0.936888       -25.4940
 136   2.0000      -0.931098       -25.3365
 137   2.0000      -0.930457       -25.3190
 138   2.0000      -0.920378       -25.0448
 139   2.0000      -0.909220       -24.7411
 140   2.0000      -0.908496       -24.7214
 141   2.0000      -0.905121       -24.6296
 142   2.0000      -0.903422       -24.5834
 143   2.0000      -0.896775       -24.4025
 144   2.0000      -0.891031       -24.2462
 145   2.0000      -0.886320       -24.1180
 146   2.0000      -0.867053       -23.5937
 147   2.0000      -0.865531       -23.5523
 148   2.0000      -0.857094       -23.3227
 149   2.0000      -0.855651       -23.2835
 150   2.0000      -0.837496       -22.7894
 151   2.0000      -0.819478       -22.2991
 152   2.0000      -0.813900       -22.1473
 153   2.0000      -0.813767       -22.1437
 154   2.0000      -0.812139       -22.0994
 155   2.0000      -0.810649       -22.0589
 156   2.0000      -0.804280       -21.8856
 157   2.0000      -0.787480       -21.4284
 158   2.0000      -0.771223       -20.9860
 159   2.0000      -0.757721       -20.6186
 160   2.0000      -0.754980       -20.5440
 161   2.0000      -0.745083       -20.2747
 162   2.0000      -0.734478       -19.9862
 163   2.0000      -0.728720       -19.8295
 164   2.0000      -0.717471       -19.5234
 165   2.0000      -0.715639       -19.4735
 166   2.0000      -0.707833       -19.2611
 167   2.0000      -0.694965       -18.9110
 168   2.0000      -0.692360       -18.8401
 169   2.0000      -0.679900       -18.5010
 170   2.0000      -0.675142       -18.3715
 171   2.0000      -0.672227       -18.2922
 172   2.0000      -0.666122       -18.1261
 173   2.0000      -0.662026       -18.0146
 174   2.0000      -0.661063       -17.9885
 175   2.0000      -0.657976       -17.9044
 176   2.0000      -0.655981       -17.8501
 177   2.0000      -0.655573       -17.8390
 178   2.0000      -0.651929       -17.7399
 179   2.0000      -0.633352       -17.2344
 180   2.0000      -0.627630       -17.0787
 181   2.0000      -0.623460       -16.9652
 182   2.0000      -0.617723       -16.8091
 183   2.0000      -0.616634       -16.7795
 184   2.0000      -0.606903       -16.5147
 185   2.0000      -0.600855       -16.3501
 186   2.0000      -0.595641       -16.2082
 187   2.0000      -0.589196       -16.0328
 188   2.0000      -0.580291       -15.7905
 189   2.0000      -0.575036       -15.6475
 190   2.0000      -0.572946       -15.5907
 191   2.0000      -0.570733       -15.5304
 192   2.0000      -0.570041       -15.5116
 193   2.0000      -0.566165       -15.4061
 194   2.0000      -0.565375       -15.3846
 195   2.0000      -0.563753       -15.3405
 196   2.0000      -0.561116       -15.2687
 197   2.0000      -0.559784       -15.2325
 198   2.0000      -0.555118       -15.1055
 199   2.0000      -0.552507       -15.0345
 200   2.0000      -0.549261       -14.9462
 201   2.0000      -0.546384       -14.8679
 202   2.0000      -0.538865       -14.6633
 203   2.0000      -0.538296       -14.6478
 204   2.0000      -0.536009       -14.5856
 205   2.0000      -0.533273       -14.5111
 206   2.0000      -0.528738       -14.3877
 207   2.0000      -0.528088       -14.3700
 208   2.0000      -0.525356       -14.2957
 209   2.0000      -0.522716       -14.2238
 210   2.0000      -0.520625       -14.1669
 211   2.0000      -0.519081       -14.1249
 212   2.0000      -0.512009       -13.9325
 213   2.0000      -0.509442       -13.8626
 214   2.0000      -0.509053       -13.8520
 215   2.0000      -0.504902       -13.7391
 216   2.0000      -0.499572       -13.5940
 217   2.0000      -0.498082       -13.5535
 218   2.0000      -0.495891       -13.4939
 219   2.0000      -0.494179       -13.4473
 220   2.0000      -0.491836       -13.3835
 221   2.0000      -0.489060       -13.3080
 222   2.0000      -0.487680       -13.2704
 223   2.0000      -0.484102       -13.1731
 224   2.0000      -0.481484       -13.1018
 225   2.0000      -0.481248       -13.0954
 226   2.0000      -0.473398       -12.8818
 227   2.0000      -0.469307       -12.7705
 228   2.0000      -0.468494       -12.7484
 229   2.0000      -0.467888       -12.7319
 230   2.0000      -0.465838       -12.6761
 231   2.0000      -0.463930       -12.6242
 232   2.0000      -0.463143       -12.6028
 233   2.0000      -0.462622       -12.5886
 234   2.0000      -0.462357       -12.5814
 235   2.0000      -0.460758       -12.5379
 236   2.0000      -0.458838       -12.4856
 237   2.0000      -0.456825       -12.4309
 238   2.0000      -0.455813       -12.4033
 239   2.0000      -0.455559       -12.3964
 240   2.0000      -0.455034       -12.3821
 241   2.0000      -0.453775       -12.3478
 242   2.0000      -0.453101       -12.3295
 243   2.0000      -0.450227       -12.2513
 244   2.0000      -0.449170       -12.2225
 245   2.0000      -0.447484       -12.1767
 246   2.0000      -0.447447       -12.1757
 247   2.0000      -0.446710       -12.1556
 248   2.0000      -0.445623       -12.1260
 249   2.0000      -0.441943       -12.0259
 250   2.0000      -0.440785       -11.9944
 251   2.0000      -0.440153       -11.9772
 252   2.0000      -0.437276       -11.8989
 253   2.0000      -0.436513       -11.8781
 254   2.0000      -0.435312       -11.8455
 255   2.0000      -0.431254       -11.7350
 256   2.0000      -0.430183       -11.7059
 257   2.0000      -0.429439       -11.6856
 258   2.0000      -0.428782       -11.6678
 259   2.0000      -0.426906       -11.6167
 260   2.0000      -0.420428       -11.4404
 261   2.0000      -0.413669       -11.2565
 262   2.0000      -0.404585       -11.0093
 263   2.0000      -0.390295       -10.6205
 264   2.0000      -0.385852       -10.4996
 265   2.0000      -0.383083       -10.4242
 266   2.0000      -0.377422       -10.2702
 267   2.0000      -0.372943       -10.1483
 268   2.0000      -0.371545       -10.1102
 269   2.0000      -0.363724        -9.8974
 270   2.0000      -0.362158        -9.8548
 271   2.0000      -0.360191        -9.8013
 272   2.0000      -0.358445        -9.7538
 273   2.0000      -0.354100        -9.6356
 274   2.0000      -0.342306        -9.3146
 275   2.0000      -0.338385        -9.2079
 276   2.0000      -0.323240        -8.7958
 277   2.0000      -0.313949        -8.5430
 278   2.0000      -0.308518        -8.3952
 279   2.0000      -0.302441        -8.2298
 280   2.0000      -0.299418        -8.1476
 281   2.0000      -0.292805        -7.9676
 282   2.0000      -0.257610        -7.0099
 283   0.0000      -0.131417        -3.5760
 284   0.0000      -0.118529        -3.2253
 285   0.0000      -0.104234        -2.8363
 286   0.0000      -0.099017        -2.6944
 287   0.0000      -0.075415        -2.0521

MULLIKEN ATOMIC CHARGES
-----------------------
   0 C :    0.042146
   1 C :   -0.039180
   2 C :   -0.059046
   3 C :   -0.176593
   4 N :    0.200710
   5 C :   -0.064822
   6 C :   -0.174419
   7 N :    0.197671
   8 C :   -0.032925
   9 C :    0.004145
  10 C :    0.129344
  11 O :   -0.164572
  12 C :   -0.087940
  13 C :    0.302997
  14 C :   -0.324823
  15 C :   -0.189818
  16 N :    0.170171
  17 C :   -0.200579
  18 N :    0.172202
  19 C :    0.025677
  20 C :   -0.156364
  21 S :    0.163457
  22 C :   -0.069620
  23 C :   -0.072400
  24 C :    0.037031
  25 S :    0.262801
  26 C :   -0.162684
  27 S :   -0.081711
  28 S :    0.188186
  29 C :   -0.082707
  30 S :    0.167023
  31 C :   -0.072143
  32 C :    0.030587
  33 C :   -0.063347
  34 C :   -0.114651
  35 C :    0.100651
  36 C :    0.106286
  37 C :    0.010080
  38 C :   -0.081324
  39 S :    0.181446
  40 C :   -0.085521
  41 C :   -0.027634
  42 C :    0.060164
  43 C :   -0.018825
  44 C :   -0.081870
  45 S :    0.141524
  46 C :   -0.148101
  47 C :    0.043673
  48 C :   -0.018114
  49 S :    0.199317
  50 C :   -0.170438
  51 S :   -0.075316
  52 S :    0.222956
  53 C :    0.029640
  54 C :   -0.146132
  55 C :    0.148452
  56 O :   -0.124937
  57 C :    0.004554
  58 C :   -0.031605
  59 C :   -0.065805
  60 C :   -0.061383
  61 C :   -0.037969
  62 C :    0.037314
  63 C :    0.240386
  64 C :   -0.311407
  65 C :   -0.207471
  66 N :    0.181715
  67 C :   -0.174894
  68 N :    0.169273
  69 C :   -0.174231
  70 N :    0.201133
  71 C :   -0.173809
  72 N :    0.194516
  73 H :    0.020566
  74 H :    0.016633
  75 H :    0.023593
  76 H :   -0.003741
  77 H :    0.017465
  78 H :    0.026058
  79 H :    0.017038
  80 H :    0.018964
  81 H :    0.017838
  82 H :    0.027433
  83 H :   -0.013574
  84 H :    0.003104
  85 H :   -0.003256
  86 H :    0.031155
  87 H :    0.018936
  88 H :    0.021693
Sum of atomic charges:   -0.0000000

LOEWDIN ATOMIC CHARGES
----------------------
   0 C :    0.000614
   1 C :    0.034543
   2 C :   -0.025389
   3 C :   -0.031848
   4 N :   -0.011395
   5 C :   -0.027280
   6 C :   -0.031896
   7 N :   -0.012865
   8 C :    0.046289
   9 C :   -0.025808
  10 C :    0.062482
  11 O :   -0.159054
  12 C :   -0.109300
  13 C :    0.069824
  14 C :   -0.122950
  15 C :   -0.022381
  16 N :   -0.033015
  17 C :   -0.022917
  18 N :   -0.037184
  19 C :    0.042441
  20 C :   -0.194928
  21 S :    0.455824
  22 C :   -0.167428
  23 C :   -0.229570
  24 C :   -0.171123
  25 S :    0.498143
  26 C :   -0.449373
  27 S :    0.013670
  28 S :    0.402847
  29 C :   -0.192206
  30 S :    0.459975
  31 C :   -0.184444
  32 C :   -0.029190
  33 C :   -0.037873
  34 C :   -0.035145
  35 C :   -0.022832
  36 C :   -0.021771
  37 C :   -0.027336
  38 C :   -0.190148
  39 S :    0.464217
  40 C :   -0.168551
  41 C :   -0.035136
  42 C :   -0.012535
  43 C :   -0.055663
  44 C :   -0.142330
  45 S :    0.468258
  46 C :   -0.204134
  47 C :   -0.170162
  48 C :   -0.225013
  49 S :    0.410059
  50 C :   -0.439630
  51 S :    0.019816
  52 S :    0.432165
  53 C :    0.051322
  54 C :   -0.107997
  55 C :    0.082138
  56 O :   -0.128479
  57 C :   -0.030243
  58 C :    0.048897
  59 C :   -0.029544
  60 C :   -0.023169
  61 C :    0.029823
  62 C :    0.005366
  63 C :    0.051475
  64 C :   -0.133318
  65 C :   -0.037762
  66 N :   -0.037196
  67 C :   -0.024648
  68 N :   -0.036743
  69 C :   -0.031638
  70 N :   -0.011174
  71 C :   -0.032376
  72 N :   -0.013511
  73 H :    0.052266
  74 H :    0.054130
  75 H :    0.046140
  76 H :    0.032055
  77 H :    0.026755
  78 H :    0.031629
  79 H :    0.026613
  80 H :    0.027201
  81 H :    0.026816
  82 H :    0.032514
  83 H :    0.033426
  84 H :    0.027368
  85 H :    0.032882
  86 H :    0.050740
  87 H :    0.054923
  88 H :    0.051957

  Mayer bond orders larger than 0.100000
B(  0-C ,  1-C ) :   1.3663 B(  0-C ,  9-C ) :   1.3313 B(  0-C , 13-C ) :   0.9584
B(  1-C ,  2-C ) :   1.3841 B(  1-C , 73-H ) :   0.9873 B(  2-C ,  3-C ) :   1.0879
B(  2-C ,  5-C ) :   1.4059 B(  3-C ,  4-N ) :   3.0424 B(  5-C ,  6-C ) :   1.0836
B(  5-C ,  8-C ) :   1.3594 B(  6-C ,  7-N ) :   3.0453 B(  8-C ,  9-C ) :   1.3673
B(  8-C , 74-H ) :   1.0161 B(  9-C , 10-C ) :   0.9252 B( 10-C , 11-O ) :   2.1433
B( 10-C , 12-C ) :   1.0051 B( 12-C , 13-C ) :   1.0818 B( 12-C , 19-C ) :   1.5050
B( 13-C , 14-C ) :   1.6583 B( 14-C , 15-C ) :   1.1442 B( 14-C , 17-C ) :   1.1398
B( 15-C , 16-N ) :   2.9639 B( 17-C , 18-N ) :   2.9864 B( 19-C , 20-C ) :   1.2775
B( 19-C , 75-H ) :   0.9246 B( 20-C , 21-S ) :   1.0724 B( 20-C , 24-C ) :   1.4478
B( 21-S , 22-C ) :   1.1443 B( 22-C , 23-C ) :   1.4998 B( 22-C , 29-C ) :   1.2056
B( 23-C , 24-C ) :   1.2971 B( 23-C , 28-S ) :   1.0055 B( 24-C , 25-S ) :   1.0697
B( 25-S , 26-C ) :   1.0595 B( 25-S , 27-S ) :   0.1188 B( 26-C , 27-S ) :   1.7179
B( 26-C , 28-S ) :   1.0517 B( 27-S , 28-S ) :   0.1294 B( 29-C , 30-S ) :   1.1023
B( 29-C , 33-C ) :   1.4043 B( 30-S , 31-C ) :   1.1095 B( 31-C , 32-C ) :   1.4884
B( 31-C , 38-C ) :   1.1863 B( 32-C , 33-C ) :   1.3547 B( 32-C , 34-C ) :   0.9354
B( 33-C , 76-H ) :   1.0003 B( 34-C , 35-C ) :   1.0360 B( 34-C , 36-C ) :   1.0316
B( 34-C , 37-C ) :   0.9370 B( 35-C , 77-H ) :   0.9646 B( 35-C , 78-H ) :   0.9651
B( 35-C , 79-H ) :   0.9647 B( 36-C , 80-H ) :   0.9651 B( 36-C , 81-H ) :   0.9647
B( 36-C , 82-H ) :   0.9636 B( 37-C , 38-C ) :   1.4842 B( 37-C , 41-C ) :   1.3573
B( 38-C , 39-S ) :   1.1051 B( 39-S , 40-C ) :   1.1054 B( 40-C , 41-C ) :   1.4151
B( 40-C , 42-C ) :   1.1649 B( 41-C , 83-H ) :   0.9995 B( 42-C , 43-C ) :   1.6240
B( 42-C , 84-H ) :   0.9547 B( 43-C , 44-C ) :   1.2089 B( 43-C , 85-H ) :   0.9695
B( 44-C , 45-S ) :   1.1282 B( 44-C , 48-C ) :   1.4896 B( 45-S , 46-C ) :   1.0791
B( 46-C , 47-C ) :   1.4749 B( 46-C , 53-C ) :   1.2042 B( 47-C , 48-C ) :   1.2994
B( 47-C , 52-S ) :   1.0417 B( 48-C , 49-S ) :   0.9938 B( 49-S , 50-C ) :   1.0666
B( 49-S , 51-S ) :   0.1377 B( 50-C , 51-S ) :   1.7318 B( 50-C , 52-S ) :   1.0453
B( 51-S , 52-S ) :   0.1231 B( 53-C , 54-C ) :   1.5950 B( 53-C , 86-H ) :   0.9435
B( 54-C , 55-C ) :   0.9542 B( 54-C , 63-C ) :   1.0577 B( 55-C , 56-O ) :   2.2852
B( 55-C , 57-C ) :   0.8972 B( 57-C , 58-C ) :   1.3746 B( 57-C , 62-C ) :   1.3351
B( 58-C , 59-C ) :   1.3631 B( 58-C , 87-H ) :   1.0138 B( 59-C , 60-C ) :   1.4054
B( 59-C , 71-C ) :   1.0866 B( 60-C , 61-C ) :   1.3850 B( 60-C , 69-C ) :   1.0853
B( 61-C , 62-C ) :   1.3671 B( 61-C , 88-H ) :   0.9914 B( 62-C , 63-C ) :   0.9799
B( 63-C , 64-C ) :   1.6574 B( 64-C , 65-C ) :   1.1497 B( 64-C , 67-C ) :   1.1358
B( 65-C , 66-N ) :   3.0286 B( 67-C , 68-N ) :   2.9850 B( 69-C , 70-N ) :   3.0452
B( 71-C , 72-N ) :   3.0440

-----------------------------------------------------------------------------
         ABSORPTION SPECTRUM VIA TRANSITION ELECTRIC DIPOLE MOMENTS
-----------------------------------------------------------------------------
State   Energy  Wavelength   fosc         T2         TX        TY        TZ
        (cm-1)    (nm)                  (au**2)     (au)      (au)      (au)
-----------------------------------------------------------------------------
   0   13343.2    749.4   1.836658787  45.31527  -1.84023   0.44102   6.46021
   1   17420.8    574.0   0.495529872   9.36435  -0.82206  -1.26808  -2.66093
   2   21139.9    473.0   0.208212017   3.24249   0.60741   1.05024   1.33062
   3   21723.5    460.3   0.176160788   2.66966  -1.20130  -0.43103   1.02017
   4   21886.8    456.9   0.071321776   1.07279   0.10252   0.97358  -0.33828
   5   22194.7    450.6   0.289002406   4.28675   1.70980   1.07074   0.46566
   6   22494.6    444.6   0.043584982   0.63787   0.15367   0.44734   0.64354
   7   22748.5    439.6   0.015678436   0.22690   0.29158   0.11378  -0.35907
   8   24753.5    404.0   0.000522740   0.00695   0.06431   0.05032   0.01685
   9   25377.3    394.1   0.127581621   1.65508   0.51878   0.99264   0.63295
  10   26054.2    383.8   0.200244023   2.53021   0.83965   1.13896  -0.72662
  11   26564.5    376.4   0.269955718   3.34554  -0.44825  -0.74898  -1.60737
  12   27951.1    357.8   0.018395411   0.21666  -0.34710   0.25326   0.17902
  13   28515.3    350.7   0.012567788   0.14510  -0.25479   0.25625  -0.12046
  14   28691.9    348.5   0.014886234   0.17081  -0.20767  -0.30851   0.18028
  15   28930.5    345.7   0.043519969   0.49523  -0.35628   0.43968   0.41831
  16   29371.0    340.5   0.088307157   0.98981  -0.99240  -0.07020   0.00478
  17   29481.9    339.2   0.003928094   0.04386   0.19882   0.04757  -0.04551
  18   29758.8    336.0   0.079222992   0.87642   0.92073  -0.12631  -0.11279
  19   30143.3    331.7   0.024928999   0.27226  -0.01405   0.06512   0.51752
  20   30236.6    330.7   0.014380977   0.15658  -0.36204  -0.10386   0.12133
  21   30555.8    327.3   0.047466989   0.51142   0.16154  -0.41505  -0.55951
  22   30980.8    322.8   0.098410773   1.04574  -0.94837   0.28915  -0.25048
  23   31202.3    320.5   0.020782226   0.21927   0.29629  -0.17556  -0.31727
  24   31316.6    319.3   0.073079095   0.76823   0.86749   0.00677  -0.12508
  25   31432.9    318.1   0.008155700   0.08542  -0.14349   0.07383   0.24368
  26   31531.0    317.1   0.053543387   0.55904   0.22406   0.05878  -0.71090
  27   31848.6    314.0   0.012070925   0.12477  -0.02977  -0.16911   0.30869
  28   31945.4    313.0   0.000641134   0.00661  -0.04384  -0.06720  -0.01300
  29   32577.3    307.0   0.091006811   0.91967   0.77904   0.39893   0.39196
  30   32953.0    303.5   0.000212105   0.00212   0.03591  -0.02824  -0.00564
  31   33676.6    296.9   0.051358457   0.50206   0.39690  -0.20737   0.54912
  32   34073.7    293.5   0.178603867   1.72563   1.22889  -0.17334   0.43059
  33   34242.2    292.0   0.000524944   0.00505  -0.01548   0.02267   0.06552
  34   34358.0    291.1   0.272939483   2.61525   1.61215   0.12743   0.00020
  35   34751.6    287.8   0.001777317   0.01684   0.07816  -0.01189  -0.10289
  36   34897.6    286.6   0.081421239   0.76810  -0.86875  -0.09923   0.05942
  37   35456.7    282.0   0.027322010   0.25368  -0.27826   0.23452   0.34821
  38   35483.6    281.8   0.173630306   1.61092   1.16269  -0.42671   0.27748
  39   35672.0    280.3   0.143948981   1.32849   1.10763   0.31488   0.04992
  40   35820.2    279.2   0.001777405   0.01634   0.11208  -0.00327  -0.06135
  41   36112.7    276.9   0.109108145   0.99465   0.85250  -0.27424  -0.43896
  42   36276.3    275.7   0.071574598   0.64955  -0.61863  -0.20170   0.47556
  43   36406.7    274.7   0.178238367   1.61174   1.24730  -0.07844  -0.22322
  44   36922.4    270.8   0.069337997   0.61824   0.52477  -0.42994   0.39750
  45   36950.3    270.6   0.015608909   0.13907   0.29574  -0.22716   0.00256
  46   37068.0    269.8   0.026283311   0.23343  -0.44360  -0.11833  -0.15049
  47   37349.8    267.7   0.023025680   0.20296  -0.20602  -0.21706  -0.33674
  48   37655.8    265.6   0.031098505   0.27188   0.36214   0.34109  -0.15618
  49   37792.0    264.6   0.106488916   0.92764  -0.66565  -0.45646  -0.52554
  50   38158.2    262.1   0.027115285   0.23394   0.08833   0.44260   0.17391
  51   38282.3    261.2   0.127390973   1.09551   0.99134   0.16801   0.29074
  52   38616.9    259.0   0.214109038   1.82530   0.15882  -0.49420  -1.24733
  53   38652.2    258.7   0.113776324   0.96907  -0.98306  -0.00157  -0.05154
  54   38911.7    257.0   0.012993883   0.10993  -0.29926   0.12212  -0.07394
  55   39067.3    256.0   0.065224024   0.54963  -0.50957   0.10088   0.52895
  56   39104.5    255.7   0.031687718   0.26677  -0.03830   0.33972   0.38717
  57   39558.7    252.8   0.078368648   0.65219   0.69656   0.34200   0.22367
  58   39580.7    252.6   0.032831515   0.27308   0.11002   0.09063   0.50275
  59   39633.6    252.3   0.013358484   0.11096  -0.26527  -0.12967   0.15420
  60   39765.2    251.5   0.171080611   1.41636   1.00020   0.51434   0.38913
  61   40060.5    249.6   0.160881460   1.32210   0.09082   1.00082   0.55876
  62   40153.0    249.0   0.121708526   0.99788   0.85560   0.47703  -0.19565
  63   40322.6    248.0   0.035246633   0.28777   0.00621  -0.37126   0.38716

FINAL SINGLE POINT ENERGY     -6594.929307059281

DIPOLE MOMENT
-------------
                                X             Y             Z
Electronic contribution:     21.50053      13.65732       2.81451
Nuclear contribution   :    -24.51693     -16.49651      -5.39256
                        -----------------------------------------
Total Dipole Moment    :     -3.01641      -2.83919      -2.57804
                        -----------------------------------------
Magnitude (a.u.)       :      4.87914
Magnitude (Debye)      :     12.40179

Rotational constants in cm-1:     0.001250     0.000198     0.000177
Rotational constants in MHz :    37.482713     5.950366     5.317412

                             ****ORCA TERMINATED NORMALLY****
TOTAL RUN TIME: 0 days 0 hours 9 minutes 45 seconds 98 msec
