                         Program Version 4.2.0 -  RELEASE  -
|  1> # ORCA input file
|  2> # SCF done       -209.752399527880          0.000897993611
|  3> ! CAM-B3LYP def2-SVP def2/J RIJCOSX Grid4 TightSCF
|  4> %maxcore 5000
|  5> %tddft
|  6>     Mode sTDDFT
|  7>     Ethresh 5.0
|  8>     maxcore 5000
|  9> end
| 10>
| 11> %pal
| 12>   nprocs 6
| 13>   end
| 14> * xyz 0 1
| 15>    C       -3.52339         0.39897        -5.00787
| 16>    C       -3.53641         1.69534        -5.49570
| 17>    C       -2.32918         2.39411        -5.56171
| 18>    C       -2.31945         3.71923        -6.06288
| 19>    N       -2.31763         4.79003        -6.46822
| 20>    C       -1.12017         1.80728        -5.14199
| 21>    C        0.08705         2.54228        -5.21427
| 22>    N        1.07551         3.11848        -5.26382
| 23>    C       -1.11150         0.49873        -4.65667
| 24>    C       -2.30915        -0.18094        -4.60170
| 25>    C       -2.54673        -1.56963        -4.14251
| 26>    O       -1.68324        -2.31559        -3.72709
| 27>    C       -3.99057        -1.80695        -4.32159
| 28>    C       -4.59514        -0.57694        -4.80358
| 29>    C       -5.92753        -0.31056        -4.98682
| 30>    C       -6.43051         0.92543        -5.44851
| 31>    N       -6.90716         1.90059        -5.82125
| 32>    C       -7.00551        -1.18374        -4.72212
| 33>    N       -7.95050        -1.80556        -4.52379
| 34>    C       -4.69954        -2.97116        -4.14146
| 35>    C       -4.32927        -4.22937        -3.63983
| 36>    S       -5.60692        -5.45010        -3.58905
| 37>    C       -3.14800        -4.72135        -3.11833
| 38>    C       -3.23174        -6.04332        -2.65845
| 39>    C       -2.21002        -6.82694        -2.04989
| 40>    C       -0.84524        -6.20795        -1.91776
| 41>    C       -0.74874        -5.35974        -0.64729
| 42>    C       -2.51011        -8.08220        -1.57239
| 43>    C       -1.48770        -8.95803        -0.89849
| 44>    C       -0.85892        -9.92855        -1.90102
| 45>    C       -4.53216        -6.57532        -2.84293
| 46>    C       -4.81333        -7.85429        -2.40350
| 47>    S       -6.32474        -8.70308        -2.51918
| 48>    C       -3.82099        -8.60872        -1.74616
| 49>    C       -4.32979        -9.85808        -1.32771
| 50>    C       -5.64724       -10.06234        -1.65724
| 51>    C       -6.47456       -11.17915        -1.35142
| 52>    N       -6.10067       -12.14780        -0.44183
| 53>    C       -7.12312       -13.03609        -0.32203
| 54>    C       -7.54876       -14.17291         0.35891
| 55>    C       -8.82825       -14.45799        -0.12861
| 56>    N       -9.16828       -13.52812        -1.09135
| 57>    C       -8.15238       -12.63492        -1.20905
| 58>    C       -7.74714       -11.46476        -1.84769
| 59>    C       -9.73487       -15.48645         0.24544
| 60>    C       -9.59229       -16.26631         1.34190
| 61>    C      -10.51011       -17.27314         1.75581
| 62>    S      -10.40670       -17.86398         3.40061
| 63>    C      -11.52986       -17.87666         1.06263
| 64>    C      -12.26348       -18.81899         1.81742
| 65>    C      -13.37526       -19.60915         1.41068
| 66>    C      -13.84176       -19.44240        -0.01063
| 67>    C      -14.73809       -18.21135        -0.16035
| 68>    C      -13.98305       -20.44979         2.31848
| 69>    C      -15.20183       -21.27583         2.01129
| 70>    C      -16.46753       -20.59478         2.53899
| 71>    C      -11.76851       -18.90277         3.13528
| 72>    C      -12.38564       -19.73237         4.04886
| 73>    S      -11.98996       -19.92996         5.72236
| 74>    C      -13.48687       -20.52010         3.65101
| 75>    C      -13.95856       -21.30177         4.72305
| 76>    C      -13.30497       -21.08046         5.91383
| 77>    C      -13.57533       -21.71454         7.14789
| 78>    C      -13.26626       -21.27332         8.40115
| 79>    C      -13.17798       -22.22256         9.53581
| 80>    O      -13.55234       -23.37132         9.56638
| 81>    C      -12.47501       -21.47220        10.60726
| 82>    C      -12.03860       -21.92670        11.83311
| 83>    C      -11.36733       -21.03016        12.66749
| 84>    C      -11.14644       -19.70332        12.25080
| 85>    C      -11.60368       -19.24909        11.01210
| 86>    C      -12.27371       -20.14032        10.19285
| 87>    C      -12.89720       -19.96101         8.88242
| 88>    C      -13.31847       -18.76343         8.36585
| 89>    C      -14.20732       -18.67061         7.27345
| 90>    N      -14.98298       -18.56836         6.43351
| 91>    C      -13.00643       -17.51046         8.92993
| 92>    N      -12.76436       -16.46994         9.34908
| 93>    C      -10.44565       -18.81395        13.10239
| 94>    N       -9.87660       -18.08903        13.78179
| 95>    C      -10.90252       -21.45764        13.93426
| 96>    N      -10.53592       -21.82106        14.95652
| 97>    H       -4.43972         2.18057        -5.82835
| 98>    H       -0.19405         0.03057        -4.33357
| 99>    H       -5.74349        -2.92819        -4.42862
|100>    H       -2.26267        -4.11564        -3.07079
|101>    H       -0.65107        -5.57498        -2.78406
|102>    H       -0.07619        -6.97917        -1.90106
|103>    H       -1.48262        -4.55801        -0.66850
|104>    H        0.24163        -4.91901        -0.56542
|105>    H       -0.93360        -5.96699         0.23632
|106>    H       -1.96711        -9.52288        -0.09743
|107>    H       -0.70727        -8.35309        -0.44028
|108>    H       -1.62154       -10.55503        -2.35822
|109>    H       -0.13316       -10.56880        -1.40492
|110>    H       -0.35322        -9.38125        -2.69318
|111>    H       -3.74406       -10.59767        -0.81283
|112>    H       -5.24675       -12.14225         0.08703
|113>    H       -7.01801       -14.73708         1.09808
|114>    H      -10.05189       -13.49918        -1.57025
|115>    H       -8.27308       -10.87906        -2.57466
|116>    H      -10.61073       -15.60167        -0.37977
|117>    H       -8.75322       -16.09763         2.00113
|118>    H      -11.72674       -17.64908         0.03160
|119>    H      -14.38788       -20.32241        -0.34699
|120>    H      -12.97072       -19.33725        -0.66025
|121>    H      -15.63998       -18.32277         0.43543
|122>    H      -15.02656       -18.07963        -1.20073
|123>    H      -14.22078       -17.31565         0.17542
|124>    H      -15.09714       -22.25711         2.47792
|125>    H      -15.30737       -21.43801         0.93989
|126>    H      -16.38554       -20.39712         3.60486
|127>    H      -17.33483       -21.22735         2.36505
|128>    H      -16.62697       -19.64567         2.03401
|129>    H      -14.78677       -21.98429         4.66282
|130>    H      -14.01721       -22.70455         7.09205
|131>    H      -12.21041       -22.94727        12.13987
|132>    H      -11.41704       -18.22783        10.71890
|133> *
|134>
|135>                          ****END OF INPUT****

CARTESIAN COORDINATES (ANGSTROEM)
---------------------------------
  C     -3.523390    0.398970   -5.007870
  C     -3.536410    1.695340   -5.495700
  C     -2.329180    2.394110   -5.561710
  C     -2.319450    3.719230   -6.062880
  N     -2.317630    4.790030   -6.468220
  C     -1.120170    1.807280   -5.141990
  C      0.087050    2.542280   -5.214270
  N      1.075510    3.118480   -5.263820
  C     -1.111500    0.498730   -4.656670
  C     -2.309150   -0.180940   -4.601700
  C     -2.546730   -1.569630   -4.142510
  O     -1.683240   -2.315590   -3.727090
  C     -3.990570   -1.806950   -4.321590
  C     -4.595140   -0.576940   -4.803580
  C     -5.927530   -0.310560   -4.986820
  C     -6.430510    0.925430   -5.448510
  N     -6.907160    1.900590   -5.821250
  C     -7.005510   -1.183740   -4.722120
  N     -7.950500   -1.805560   -4.523790
  C     -4.699540   -2.971160   -4.141460
  C     -4.329270   -4.229370   -3.639830
  S     -5.606920   -5.450100   -3.589050
  C     -3.148000   -4.721350   -3.118330
  C     -3.231740   -6.043320   -2.658450
  C     -2.210020   -6.826940   -2.049890
  C     -0.845240   -6.207950   -1.917760
  C     -0.748740   -5.359740   -0.647290
  C     -2.510110   -8.082200   -1.572390
  C     -1.487700   -8.958030   -0.898490
  C     -0.858920   -9.928550   -1.901020
  C     -4.532160   -6.575320   -2.842930
  C     -4.813330   -7.854290   -2.403500
  S     -6.324740   -8.703080   -2.519180
  C     -3.820990   -8.608720   -1.746160
  C     -4.329790   -9.858080   -1.327710
  C     -5.647240  -10.062340   -1.657240
  C     -6.474560  -11.179150   -1.351420
  N     -6.100670  -12.147800   -0.441830
  C     -7.123120  -13.036090   -0.322030
  C     -7.548760  -14.172910    0.358910
  C     -8.828250  -14.457990   -0.128610
  N     -9.168280  -13.528120   -1.091350
  C     -8.152380  -12.634920   -1.209050
  C     -7.747140  -11.464760   -1.847690
  C     -9.734870  -15.486450    0.245440
  C     -9.592290  -16.266310    1.341900
  C    -10.510110  -17.273140    1.755810
  S    -10.406700  -17.863980    3.400610
  C    -11.529860  -17.876660    1.062630
  C    -12.263480  -18.818990    1.817420
  C    -13.375260  -19.609150    1.410680
  C    -13.841760  -19.442400   -0.010630
  C    -14.738090  -18.211350   -0.160350
  C    -13.983050  -20.449790    2.318480
  C    -15.201830  -21.275830    2.011290
  C    -16.467530  -20.594780    2.538990
  C    -11.768510  -18.902770    3.135280
  C    -12.385640  -19.732370    4.048860
  S    -11.989960  -19.929960    5.722360
  C    -13.486870  -20.520100    3.651010
  C    -13.958560  -21.301770    4.723050
  C    -13.304970  -21.080460    5.913830
  C    -13.575330  -21.714540    7.147890
  C    -13.266260  -21.273320    8.401150
  C    -13.177980  -22.222560    9.535810
  O    -13.552340  -23.371320    9.566380
  C    -12.475010  -21.472200   10.607260
  C    -12.038600  -21.926700   11.833110
  C    -11.367330  -21.030160   12.667490
  C    -11.146440  -19.703320   12.250800
  C    -11.603680  -19.249090   11.012100
  C    -12.273710  -20.140320   10.192850
  C    -12.897200  -19.961010    8.882420
  C    -13.318470  -18.763430    8.365850
  C    -14.207320  -18.670610    7.273450
  N    -14.982980  -18.568360    6.433510
  C    -13.006430  -17.510460    8.929930
  N    -12.764360  -16.469940    9.349080
  C    -10.445650  -18.813950   13.102390
  N     -9.876600  -18.089030   13.781790
  C    -10.902520  -21.457640   13.934260
  N    -10.535920  -21.821060   14.956520
  H     -4.439720    2.180570   -5.828350
  H     -0.194050    0.030570   -4.333570
  H     -5.743490   -2.928190   -4.428620
  H     -2.262670   -4.115640   -3.070790
  H     -0.651070   -5.574980   -2.784060
  H     -0.076190   -6.979170   -1.901060
  H     -1.482620   -4.558010   -0.668500
  H      0.241630   -4.919010   -0.565420
  H     -0.933600   -5.966990    0.236320
  H     -1.967110   -9.522880   -0.097430
  H     -0.707270   -8.353090   -0.440280
  H     -1.621540  -10.555030   -2.358220
  H     -0.133160  -10.568800   -1.404920
  H     -0.353220   -9.381250   -2.693180
  H     -3.744060  -10.597670   -0.812830
  H     -5.246750  -12.142250    0.087030
  H     -7.018010  -14.737080    1.098080
  H    -10.051890  -13.499180   -1.570250
  H     -8.273080  -10.879060   -2.574660
  H    -10.610730  -15.601670   -0.379770
  H     -8.753220  -16.097630    2.001130
  H    -11.726740  -17.649080    0.031600
  H    -14.387880  -20.322410   -0.346990
  H    -12.970720  -19.337250   -0.660250
  H    -15.639980  -18.322770    0.435430
  H    -15.026560  -18.079630   -1.200730
  H    -14.220780  -17.315650    0.175420
  H    -15.097140  -22.257110    2.477920
  H    -15.307370  -21.438010    0.939890
  H    -16.385540  -20.397120    3.604860
  H    -17.334830  -21.227350    2.365050
  H    -16.626970  -19.645670    2.034010
  H    -14.786770  -21.984290    4.662820
  H    -14.017210  -22.704550    7.092050
  H    -12.210410  -22.947270   12.139870
  H    -11.417040  -18.227830   10.718900

 Total Charge           Charge          ....    0
 Multiplicity           Mult            ....    1
 Number of Electrons    NEL             ....  582
 Basis Dimension        Dim             .... 1344

ORBITAL ENERGIES
----------------

  NO   OCC          E(Eh)            E(eV)
   0   2.0000     -88.971607     -2421.0405
   1   2.0000     -88.969694     -2420.9885
   2   2.0000     -88.968672     -2420.9607
   3   2.0000     -88.964797     -2420.8552
   4   2.0000     -19.237549      -523.4803
   5   2.0000     -19.233279      -523.3641
   6   2.0000     -14.471570      -393.7914
   7   2.0000     -14.470458      -393.7612
   8   2.0000     -14.429920      -392.6581
   9   2.0000     -14.429703      -392.6522
  10   2.0000     -14.426916      -392.5763
  11   2.0000     -14.426854      -392.5747
  12   2.0000     -14.426797      -392.5731
  13   2.0000     -14.426630      -392.5686
  14   2.0000     -14.425540      -392.5389
  15   2.0000     -14.425010      -392.5245
  16   2.0000     -10.388507      -282.6856
  17   2.0000     -10.385216      -282.5961
  18   2.0000     -10.361024      -281.9378
  19   2.0000     -10.359104      -281.8855
  20   2.0000     -10.358552      -281.8705
  21   2.0000     -10.357330      -281.8373
  22   2.0000     -10.357181      -281.8332
  23   2.0000     -10.357047      -281.8296
  24   2.0000     -10.356827      -281.8236
  25   2.0000     -10.356683      -281.8197
  26   2.0000     -10.338066      -281.3131
  27   2.0000     -10.336986      -281.2837
  28   2.0000     -10.336285      -281.2646
  29   2.0000     -10.335637      -281.2470
  30   2.0000     -10.332317      -281.1566
  31   2.0000     -10.332010      -281.1483
  32   2.0000     -10.331790      -281.1423
  33   2.0000     -10.331215      -281.1267
  34   2.0000     -10.330995      -281.1207
  35   2.0000     -10.330617      -281.1104
  36   2.0000     -10.329140      -281.0702
  37   2.0000     -10.327495      -281.0254
  38   2.0000     -10.327221      -281.0180
  39   2.0000     -10.325605      -280.9740
  40   2.0000     -10.325572      -280.9731
  41   2.0000     -10.324304      -280.9386
  42   2.0000     -10.323535      -280.9177
  43   2.0000     -10.323526      -280.9174
  44   2.0000     -10.323297      -280.9112
  45   2.0000     -10.323198      -280.9085
  46   2.0000     -10.323060      -280.9047
  47   2.0000     -10.322699      -280.8949
  48   2.0000     -10.321427      -280.8603
  49   2.0000     -10.321396      -280.8595
  50   2.0000     -10.319503      -280.8079
  51   2.0000     -10.317716      -280.7593
  52   2.0000     -10.314730      -280.6781
  53   2.0000     -10.313165      -280.6355
  54   2.0000     -10.312354      -280.6134
  55   2.0000     -10.310259      -280.5564
  56   2.0000     -10.308726      -280.5147
  57   2.0000     -10.305454      -280.4257
  58   2.0000     -10.304535      -280.4007
  59   2.0000     -10.299711      -280.2694
  60   2.0000     -10.299504      -280.2637
  61   2.0000     -10.299437      -280.2619
  62   2.0000     -10.295367      -280.1512
  63   2.0000     -10.294494      -280.1274
  64   2.0000     -10.294324      -280.1228
  65   2.0000     -10.292794      -280.0812
  66   2.0000     -10.291837      -280.0551
  67   2.0000     -10.291008      -280.0326
  68   2.0000     -10.289299      -279.9861
  69   2.0000     -10.289236      -279.9843
  70   2.0000     -10.287888      -279.9477
  71   2.0000     -10.283797      -279.8363
  72   2.0000     -10.281009      -279.7605
  73   2.0000     -10.279878      -279.7297
  74   2.0000     -10.278960      -279.7047
  75   2.0000     -10.278423      -279.6901
  76   2.0000     -10.277920      -279.6764
  77   2.0000     -10.275400      -279.6079
  78   2.0000     -10.269616      -279.4505
  79   2.0000     -10.267600      -279.3956
  80   2.0000     -10.266017      -279.3525
  81   2.0000     -10.264741      -279.3178
  82   2.0000      -8.066765      -219.5078
  83   2.0000      -8.065358      -219.4696
  84   2.0000      -8.064189      -219.4377
  85   2.0000      -8.060689      -219.3425
  86   2.0000      -6.036381      -164.2583
  87   2.0000      -6.034818      -164.2158
  88   2.0000      -6.033799      -164.1880
  89   2.0000      -6.032336      -164.1482
  90   2.0000      -6.030853      -164.1079
  91   2.0000      -6.030160      -164.0890
  92   2.0000      -6.029684      -164.0760
  93   2.0000      -6.028114      -164.0333
  94   2.0000      -6.026859      -163.9992
  95   2.0000      -6.026141      -163.9796
  96   2.0000      -6.025590      -163.9646
  97   2.0000      -6.022230      -163.8732
  98   2.0000      -1.151982       -31.3470
  99   2.0000      -1.148481       -31.2518
 100   2.0000      -1.102742       -30.0071
 101   2.0000      -1.066891       -29.0316
 102   2.0000      -1.041374       -28.3372
 103   2.0000      -1.040209       -28.3055
 104   2.0000      -1.026414       -27.9302
 105   2.0000      -1.026121       -27.9222
 106   2.0000      -1.019926       -27.7536
 107   2.0000      -1.018960       -27.7273
 108   2.0000      -1.009321       -27.4650
 109   2.0000      -1.009228       -27.4625
 110   2.0000      -1.006332       -27.3837
 111   2.0000      -1.006087       -27.3770
 112   2.0000      -1.005265       -27.3547
 113   2.0000      -1.005085       -27.3497
 114   2.0000      -0.990402       -26.9502
 115   2.0000      -0.990087       -26.9416
 116   2.0000      -0.976346       -26.5677
 117   2.0000      -0.975873       -26.5548
 118   2.0000      -0.945856       -25.7381
 119   2.0000      -0.945495       -25.7282
 120   2.0000      -0.923676       -25.1345
 121   2.0000      -0.923251       -25.1229
 122   2.0000      -0.916959       -24.9517
 123   2.0000      -0.915026       -24.8991
 124   2.0000      -0.912270       -24.8241
 125   2.0000      -0.902123       -24.5480
 126   2.0000      -0.901378       -24.5277
 127   2.0000      -0.895745       -24.3744
 128   2.0000      -0.885075       -24.0841
 129   2.0000      -0.881385       -23.9837
 130   2.0000      -0.879718       -23.9383
 131   2.0000      -0.875414       -23.8212
 132   2.0000      -0.868757       -23.6401
 133   2.0000      -0.855086       -23.2681
 134   2.0000      -0.854422       -23.2500
 135   2.0000      -0.847058       -23.0496
 136   2.0000      -0.840140       -22.8614
 137   2.0000      -0.835059       -22.7231
 138   2.0000      -0.833786       -22.6885
 139   2.0000      -0.822355       -22.3774
 140   2.0000      -0.807605       -21.9761
 141   2.0000      -0.807012       -21.9599
 142   2.0000      -0.804511       -21.8919
 143   2.0000      -0.795415       -21.6443
 144   2.0000      -0.793199       -21.5840
 145   2.0000      -0.777478       -21.1563
 146   2.0000      -0.757543       -20.6138
 147   2.0000      -0.751679       -20.4542
 148   2.0000      -0.749530       -20.3957
 149   2.0000      -0.743672       -20.2364
 150   2.0000      -0.739716       -20.1287
 151   2.0000      -0.724050       -19.7024
 152   2.0000      -0.717978       -19.5372
 153   2.0000      -0.715499       -19.4697
 154   2.0000      -0.713824       -19.4241
 155   2.0000      -0.710324       -19.3289
 156   2.0000      -0.708791       -19.2872
 157   2.0000      -0.704937       -19.1823
 158   2.0000      -0.697839       -18.9892
 159   2.0000      -0.692050       -18.8316
 160   2.0000      -0.687917       -18.7192
 161   2.0000      -0.683463       -18.5980
 162   2.0000      -0.675581       -18.3835
 163   2.0000      -0.668739       -18.1973
 164   2.0000      -0.663656       -18.0590
 165   2.0000      -0.661927       -18.0119
 166   2.0000      -0.658720       -17.9247
 167   2.0000      -0.654170       -17.8009
 168   2.0000      -0.653749       -17.7894
 169   2.0000      -0.648411       -17.6442
 170   2.0000      -0.643935       -17.5224
 171   2.0000      -0.641120       -17.4458
 172   2.0000      -0.637352       -17.3432
 173   2.0000      -0.620390       -16.8817
 174   2.0000      -0.618227       -16.8228
 175   2.0000      -0.614115       -16.7109
 176   2.0000      -0.610489       -16.6123
 177   2.0000      -0.604275       -16.4431
 178   2.0000      -0.596698       -16.2370
 179   2.0000      -0.591276       -16.0894
 180   2.0000      -0.589077       -16.0296
 181   2.0000      -0.578604       -15.7446
 182   2.0000      -0.575412       -15.6578
 183   2.0000      -0.569450       -15.4955
 184   2.0000      -0.566801       -15.4235
 185   2.0000      -0.566264       -15.4088
 186   2.0000      -0.562719       -15.3124
 187   2.0000      -0.560899       -15.2628
 188   2.0000      -0.558587       -15.1999
 189   2.0000      -0.558172       -15.1886
 190   2.0000      -0.555169       -15.1069
 191   2.0000      -0.552220       -15.0267
 192   2.0000      -0.550786       -14.9877
 193   2.0000      -0.548787       -14.9333
 194   2.0000      -0.547378       -14.8949
 195   2.0000      -0.538266       -14.6470
 196   2.0000      -0.536639       -14.6027
 197   2.0000      -0.534883       -14.5549
 198   2.0000      -0.533339       -14.5129
 199   2.0000      -0.532773       -14.4975
 200   2.0000      -0.530061       -14.4237
 201   2.0000      -0.527225       -14.3465
 202   2.0000      -0.525258       -14.2930
 203   2.0000      -0.523291       -14.2395
 204   2.0000      -0.520174       -14.1547
 205   2.0000      -0.519683       -14.1413
 206   2.0000      -0.517681       -14.0868
 207   2.0000      -0.516099       -14.0438
 208   2.0000      -0.514034       -13.9876
 209   2.0000      -0.512525       -13.9465
 210   2.0000      -0.509741       -13.8708
 211   2.0000      -0.508745       -13.8437
 212   2.0000      -0.507601       -13.8125
 213   2.0000      -0.505851       -13.7649
 214   2.0000      -0.503686       -13.7060
 215   2.0000      -0.502204       -13.6657
 216   2.0000      -0.501300       -13.6411
 217   2.0000      -0.496312       -13.5053
 218   2.0000      -0.492621       -13.4049
 219   2.0000      -0.489789       -13.3278
 220   2.0000      -0.486131       -13.2283
 221   2.0000      -0.485331       -13.2065
 222   2.0000      -0.479948       -13.0600
 223   2.0000      -0.478749       -13.0274
 224   2.0000      -0.477996       -13.0069
 225   2.0000      -0.469437       -12.7740
 226   2.0000      -0.468404       -12.7459
 227   2.0000      -0.465353       -12.6629
 228   2.0000      -0.463007       -12.5990
 229   2.0000      -0.460679       -12.5357
 230   2.0000      -0.460473       -12.5301
 231   2.0000      -0.459784       -12.5114
 232   2.0000      -0.459116       -12.4932
 233   2.0000      -0.458960       -12.4889
 234   2.0000      -0.458776       -12.4839
 235   2.0000      -0.455450       -12.3934
 236   2.0000      -0.454900       -12.3785
 237   2.0000      -0.454054       -12.3555
 238   2.0000      -0.452972       -12.3260
 239   2.0000      -0.452555       -12.3146
 240   2.0000      -0.452287       -12.3073
 241   2.0000      -0.450954       -12.2711
 242   2.0000      -0.450735       -12.2651
 243   2.0000      -0.449587       -12.2339
 244   2.0000      -0.449535       -12.2325
 245   2.0000      -0.447445       -12.1756
 246   2.0000      -0.446184       -12.1413
 247   2.0000      -0.442283       -12.0351
 248   2.0000      -0.442092       -12.0299
 249   2.0000      -0.439737       -11.9659
 250   2.0000      -0.438874       -11.9424
 251   2.0000      -0.437410       -11.9025
 252   2.0000      -0.437108       -11.8943
 253   2.0000      -0.436352       -11.8737
 254   2.0000      -0.434969       -11.8361
 255   2.0000      -0.432519       -11.7694
 256   2.0000      -0.432277       -11.7628
 257   2.0000      -0.430257       -11.7079
 258   2.0000      -0.428887       -11.6706
 259   2.0000      -0.427547       -11.6341
 260   2.0000      -0.426822       -11.6144
 261   2.0000      -0.426699       -11.6111
 262   2.0000      -0.425687       -11.5835
 263   2.0000      -0.421265       -11.4632
 264   2.0000      -0.419836       -11.4243
 265   2.0000      -0.418423       -11.3859
 266   2.0000      -0.417524       -11.3614
 267   2.0000      -0.405245       -11.0273
 268   2.0000      -0.402591       -10.9551
 269   2.0000      -0.400169       -10.8891
 270   2.0000      -0.399556       -10.8725
 271   2.0000      -0.385314       -10.4849
 272   2.0000      -0.379583       -10.3290
 273   2.0000      -0.377497       -10.2722
 274   2.0000      -0.371188       -10.1006
 275   2.0000      -0.367118        -9.9898
 276   2.0000      -0.364782        -9.9262
 277   2.0000      -0.358405        -9.7527
 278   2.0000      -0.356701        -9.7063
 279   2.0000      -0.351599        -9.5675
 280   2.0000      -0.344655        -9.3785
 281   2.0000      -0.342565        -9.3217
 282   2.0000      -0.338671        -9.2157
 283   2.0000      -0.330135        -8.9834
 284   2.0000      -0.320484        -8.7208
 285   2.0000      -0.303130        -8.2486
 286   2.0000      -0.293144        -7.9768
 287   2.0000      -0.287986        -7.8365
 288   2.0000      -0.286569        -7.7979
 289   2.0000      -0.272847        -7.4245
 290   2.0000      -0.231318        -6.2945
 291   0.0000      -0.111156        -3.0247
 292   0.0000      -0.108763        -2.9596
 293   0.0000      -0.093353        -2.5403
 294   0.0000      -0.091280        -2.4839
 295   0.0000      -0.056571        -1.5394

MULLIKEN ATOMIC CHARGES
-----------------------
   0 C :    0.046672
   1 C :   -0.040974
   2 C :   -0.061737
   3 C :   -0.174397
   4 N :    0.200918
   5 C :   -0.067058
   6 C :   -0.173399
   7 N :    0.196264
   8 C :   -0.039449
   9 C :    0.001747
  10 C :    0.162453
  11 O :   -0.151027
  12 C :   -0.094418
  13 C :    0.317132
  14 C :   -0.349377
  15 C :   -0.189295
  16 N :    0.166653
  17 C :   -0.191813
  18 N :    0.165232
  19 C :    0.061077
  20 C :   -0.086349
  21 S :    0.148169
  22 C :   -0.048867
  23 C :    0.086352
  24 C :   -0.089061
  25 C :    0.039940
  26 C :    0.038550
  27 C :   -0.114995
  28 C :    0.043056
  29 C :    0.034639
  30 C :   -0.096969
  31 C :   -0.122629
  32 S :    0.143839
  33 C :    0.115890
  34 C :   -0.111821
  35 C :   -0.007039
  36 C :    0.091221
  37 N :   -0.035938
  38 C :    0.111798
  39 C :   -0.170460
  40 C :    0.095427
  41 N :   -0.029505
  42 C :    0.111120
  43 C :   -0.175416
  44 C :    0.022061
  45 C :    0.029141
  46 C :   -0.032592
  47 S :    0.138493
  48 C :   -0.077117
  49 C :    0.110380
  50 C :   -0.099765
  51 C :    0.053041
  52 C :    0.032926
  53 C :   -0.088492
  54 C :    0.049271
  55 C :    0.025944
  56 C :   -0.134762
  57 C :   -0.101376
  58 S :    0.140262
  59 C :    0.099183
  60 C :    0.007373
  61 C :   -0.092185
  62 C :    0.065025
  63 C :   -0.145682
  64 C :    0.148030
  65 O :   -0.127808
  66 C :    0.006665
  67 C :   -0.036074
  68 C :   -0.072226
  69 C :   -0.062029
  70 C :   -0.036284
  71 C :    0.033850
  72 C :    0.248652
  73 C :   -0.307739
  74 C :   -0.196002
  75 N :    0.180052
  76 C :   -0.180063
  77 N :    0.171221
  78 C :   -0.174328
  79 N :    0.199279
  80 C :   -0.173590
  81 N :    0.198113
  82 H :    0.019395
  83 H :    0.013216
  84 H :    0.005885
  85 H :    0.015215
  86 H :    0.017338
  87 H :    0.004822
  88 H :    0.014169
  89 H :    0.021366
  90 H :    0.007963
  91 H :    0.002251
  92 H :    0.006328
  93 H :    0.011362
  94 H :    0.018334
  95 H :    0.012916
  96 H :   -0.039039
  97 H :    0.123842
  98 H :   -0.031593
  99 H :    0.122863
 100 H :   -0.023215
 101 H :   -0.026295
 102 H :   -0.015079
 103 H :   -0.024051
 104 H :   -0.000007
 105 H :    0.006521
 106 H :    0.008261
 107 H :    0.015762
 108 H :    0.011090
 109 H :    0.006456
 110 H :   -0.002943
 111 H :    0.026440
 112 H :    0.017774
 113 H :    0.008897
 114 H :   -0.003850
 115 H :    0.031390
 116 H :    0.016595
 117 H :    0.022616
Sum of atomic charges:    0.0000000

LOEWDIN ATOMIC CHARGES
----------------------
   0 C :    0.002511
   1 C :    0.033796
   2 C :   -0.025387
   3 C :   -0.031398
   4 N :   -0.012949
   5 C :   -0.029904
   6 C :   -0.031619
   7 N :   -0.016217
   8 C :    0.046078
   9 C :   -0.027920
  10 C :    0.087502
  11 O :   -0.138922
  12 C :   -0.110672
  13 C :    0.070212
  14 C :   -0.130074
  15 C :   -0.021594
  16 N :   -0.040059
  17 C :   -0.025356
  18 N :   -0.037997
  19 C :    0.060174
  20 C :   -0.177215
  21 S :    0.421967
  22 C :    0.013285
  23 C :   -0.056028
  24 C :   -0.007196
  25 C :   -0.029046
  26 C :   -0.046355
  27 C :   -0.025228
  28 C :   -0.028685
  29 C :   -0.048410
  30 C :   -0.156901
  31 C :   -0.189957
  32 S :    0.423013
  33 C :   -0.020768
  34 C :   -0.083047
  35 C :   -0.139367
  36 C :   -0.023201
  37 N :    0.071194
  38 C :   -0.015970
  39 C :   -0.090219
  40 C :   -0.003335
  41 N :    0.072675
  42 C :   -0.022886
  43 C :   -0.089675
  44 C :   -0.015599
  45 C :   -0.051505
  46 C :   -0.139495
  47 S :    0.413665
  48 C :   -0.067645
  49 C :   -0.024028
  50 C :   -0.023296
  51 C :   -0.027569
  52 C :   -0.048831
  53 C :   -0.010138
  54 C :   -0.028357
  55 C :   -0.047947
  56 C :   -0.187022
  57 C :   -0.153623
  58 S :    0.429219
  59 C :   -0.050577
  60 C :    0.011798
  61 C :   -0.179489
  62 C :    0.065429
  63 C :   -0.109231
  64 C :    0.082329
  65 O :   -0.131492
  66 C :   -0.030973
  67 C :    0.048364
  68 C :   -0.031272
  69 C :   -0.023950
  70 C :    0.030717
  71 C :    0.006382
  72 C :    0.052035
  73 C :   -0.126094
  74 C :   -0.030825
  75 N :   -0.039890
  76 C :   -0.022834
  77 N :   -0.037143
  78 C :   -0.030906
  79 N :   -0.013267
  80 C :   -0.032155
  81 N :   -0.016071
  82 H :    0.052035
  83 H :    0.052523
  84 H :    0.044067
  85 H :    0.031979
  86 H :    0.032298
  87 H :    0.026906
  88 H :    0.025053
  89 H :    0.027385
  90 H :    0.022813
  91 H :    0.025032
  92 H :    0.027315
  93 H :    0.023459
  94 H :    0.025121
  95 H :    0.025220
  96 H :    0.021104
  97 H :    0.088925
  98 H :    0.024517
  99 H :    0.090197
 100 H :    0.024367
 101 H :    0.027474
 102 H :    0.028233
 103 H :    0.025719
 104 H :    0.026310
 105 H :    0.026578
 106 H :    0.024161
 107 H :    0.024747
 108 H :    0.022602
 109 H :    0.026137
 110 H :    0.026365
 111 H :    0.027361
 112 H :    0.025587
 113 H :    0.024334
 114 H :    0.036820
 115 H :    0.053416
 116 H :    0.054096
 117 H :    0.052185

  Mayer bond orders larger than 0.100000
B(  0-C ,  1-C ) :   1.3580 B(  0-C ,  9-C ) :   1.3374 B(  0-C , 13-C ) :   0.9484
B(  1-C ,  2-C ) :   1.3901 B(  1-C , 82-H ) :   0.9858 B(  2-C ,  3-C ) :   1.0867
B(  2-C ,  5-C ) :   1.4058 B(  3-C ,  4-N ) :   3.0424 B(  5-C ,  6-C ) :   1.0850
B(  5-C ,  8-C ) :   1.3588 B(  6-C ,  7-N ) :   3.0450 B(  8-C ,  9-C ) :   1.3651
B(  8-C , 83-H ) :   1.0154 B(  9-C , 10-C ) :   0.9355 B( 10-C , 11-O ) :   2.1579
B( 10-C , 12-C ) :   0.9580 B( 11-O , 85-H ) :   0.1014 B( 12-C , 13-C ) :   1.1021
B( 12-C , 19-C ) :   1.5331 B( 13-C , 14-C ) :   1.6262 B( 14-C , 15-C ) :   1.1531
B( 14-C , 17-C ) :   1.1411 B( 15-C , 16-N ) :   2.9592 B( 17-C , 18-N ) :   2.9704
B( 19-C , 20-C ) :   1.2571 B( 19-C , 84-H ) :   0.9099 B( 20-C , 21-S ) :   1.0492
B( 20-C , 22-C ) :   1.4437 B( 21-S , 30-C ) :   1.0959 B( 22-C , 23-C ) :   1.2416
B( 22-C , 85-H ) :   0.9614 B( 23-C , 24-C ) :   1.2008 B( 23-C , 30-C ) :   1.3128
B( 24-C , 25-C ) :   1.0735 B( 24-C , 27-C ) :   1.5719 B( 25-C , 26-C ) :   1.1110
B( 25-C , 86-H ) :   0.9162 B( 25-C , 87-H ) :   0.9172 B( 26-C , 88-H ) :   0.9659
B( 26-C , 89-H ) :   0.9670 B( 26-C , 90-H ) :   0.9637 B( 27-C , 28-C ) :   1.0713
B( 27-C , 33-C ) :   1.2039 B( 28-C , 29-C ) :   1.1110 B( 28-C , 91-H ) :   0.9164
B( 28-C , 92-H ) :   0.9187 B( 29-C , 93-H ) :   0.9670 B( 29-C , 94-H ) :   0.9677
B( 29-C , 95-H ) :   0.9637 B( 30-C , 31-C ) :   1.3822 B( 31-C , 32-S ) :   1.0489
B( 31-C , 33-C ) :   1.3661 B( 32-S , 35-C ) :   1.1091 B( 33-C , 34-C ) :   1.2093
B( 34-C , 35-C ) :   1.5131 B( 34-C , 96-H ) :   0.9908 B( 35-C , 36-C ) :   1.0874
B( 36-C , 37-N ) :   1.2132 B( 36-C , 43-C ) :   1.4099 B( 37-N , 38-C ) :   1.1618
B( 37-N , 97-H ) :   0.9330 B( 38-C , 39-C ) :   1.2575 B( 38-C , 42-C ) :   1.3215
B( 39-C , 40-C ) :   1.4043 B( 39-C , 98-H ) :   1.0326 B( 40-C , 41-N ) :   1.1740
B( 40-C , 44-C ) :   1.1137 B( 41-N , 42-C ) :   1.1698 B( 41-N , 99-H ) :   0.9354
B( 42-C , 43-C ) :   1.2589 B( 43-C ,100-H ) :   1.0251 B( 44-C , 45-C ) :   1.7014
B( 44-C ,101-H ) :   0.9621 B( 45-C , 46-C ) :   1.0982 B( 45-C ,102-H ) :   0.9621
B( 46-C , 47-S ) :   1.0844 B( 46-C , 48-C ) :   1.5422 B( 47-S , 56-C ) :   1.0616
B( 48-C , 49-C ) :   1.2130 B( 48-C ,103-H ) :   0.9826 B( 49-C , 50-C ) :   1.2105
B( 49-C , 56-C ) :   1.3557 B( 50-C , 51-C ) :   1.0764 B( 50-C , 53-C ) :   1.5568
B( 51-C , 52-C ) :   1.1078 B( 51-C ,104-H ) :   0.9227 B( 51-C ,105-H ) :   0.9152
B( 52-C ,106-H ) :   0.9644 B( 52-C ,107-H ) :   0.9643 B( 52-C ,108-H ) :   0.9671
B( 53-C , 54-C ) :   1.0815 B( 53-C , 59-C ) :   1.2022 B( 54-C , 55-C ) :   1.1074
B( 54-C ,109-H ) :   0.9156 B( 54-C ,110-H ) :   0.9203 B( 55-C ,111-H ) :   0.9672
B( 55-C ,112-H ) :   0.9642 B( 55-C ,113-H ) :   0.9627 B( 56-C , 57-C ) :   1.3965
B( 57-C , 58-S ) :   1.0733 B( 57-C , 59-C ) :   1.3434 B( 58-S , 61-C ) :   1.0648
B( 59-C , 60-C ) :   1.2215 B( 60-C , 61-C ) :   1.4623 B( 60-C ,114-H ) :   0.9910
B( 61-C , 62-C ) :   1.1398 B( 62-C , 63-C ) :   1.6038 B( 62-C ,115-H ) :   0.9536
B( 63-C , 64-C ) :   0.9540 B( 63-C , 72-C ) :   1.0525 B( 64-C , 65-O ) :   2.2864
B( 64-C , 66-C ) :   0.8967 B( 66-C , 67-C ) :   1.3712 B( 66-C , 71-C ) :   1.3370
B( 67-C , 68-C ) :   1.3634 B( 67-C ,116-H ) :   1.0147 B( 68-C , 69-C ) :   1.4058
B( 68-C , 80-C ) :   1.0892 B( 69-C , 70-C ) :   1.3846 B( 69-C , 78-C ) :   1.0851
B( 70-C , 71-C ) :   1.3637 B( 70-C ,117-H ) :   0.9907 B( 71-C , 72-C ) :   0.9795
B( 72-C , 73-C ) :   1.6653 B( 73-C , 74-C ) :   1.1524 B( 73-C , 76-C ) :   1.1410
B( 74-C , 75-N ) :   3.0168 B( 76-C , 77-N ) :   2.9846 B( 78-C , 79-N ) :   3.0447
B( 80-C , 81-N ) :   3.0457

-----------------------------------------------------------------------------
         ABSORPTION SPECTRUM VIA TRANSITION ELECTRIC DIPOLE MOMENTS
-----------------------------------------------------------------------------
State   Energy  Wavelength   fosc         T2         TX        TY        TZ
        (cm-1)    (nm)                  (au**2)     (au)      (au)      (au)
-----------------------------------------------------------------------------
   0   14414.2    693.8   1.715624821  39.18381  -1.99078  -4.70199   3.62103
   1   15971.6    626.1   0.314639745   6.48544   0.10900  -2.45277  -0.67638
   2   20019.0    499.5   0.378443927   6.22349  -1.36517  -1.91682   0.82800
   3   20579.6    485.9   0.101046057   1.61644   0.40473   0.44839  -1.11874
   4   20852.7    479.6   0.027346633   0.43174  -0.13700   0.57869   0.27944
   5   22678.0    441.0   0.370509981   5.37861  -0.55573  -2.15731  -0.64481
   6   22796.5    438.7   0.178569181   2.57878   0.20010   0.75082  -1.40535
   7   23696.9    422.0   0.234656510   3.25999   1.20792  -1.06141   0.82118
   8   24770.1    403.7   0.750360962   9.97283  -2.11919  -2.24594   0.66153
   9   26683.8    374.8   0.119014315   1.46834  -0.15156   0.32205  -1.15830
  10   26931.4    371.3   0.155925907   1.90605  -0.64618  -1.04124   0.63586
  11   28423.8    351.8   0.011020751   0.12765  -0.35347  -0.00094  -0.05200
  12   28549.7    350.3   0.019609953   0.22613   0.33747   0.09842   0.32024
  13   29252.9    341.8   0.045072986   0.50725  -0.02930  -0.62290   0.34407
  14   29553.4    338.4   0.004455092   0.04963  -0.19687   0.10395  -0.00795
  15   29891.1    334.5   0.014774634   0.16272  -0.35056   0.08477  -0.18068
  16   30117.3    332.0   0.121931294   1.33283  -0.29636   1.10943  -0.11906
  17   30781.5    324.9   0.020454191   0.21876   0.18289   0.21748  -0.37150
  18   31010.8    322.5   0.015726697   0.16696   0.11595   0.39180  -0.00216
  19   31379.2    318.7   0.083943241   0.88068  -0.38888   0.22990  -0.82256
  20   31695.5    315.5   0.011223975   0.11658  -0.27865  -0.19550  -0.02673
  21   31964.8    312.8   0.018862651   0.19427  -0.23448   0.02152  -0.37259
  22   32078.0    311.7   0.072839483   0.74754   0.71239   0.48869  -0.03486
  23   32384.8    308.8   0.031594072   0.32117  -0.27636  -0.00891  -0.49469
  24   32496.5    307.7   0.050126544   0.50782   0.04076   0.54474  -0.45762
  25   32769.9    305.2   0.011277292   0.11329   0.11170   0.19520   0.25043
  26   32960.1    303.4   0.035209297   0.35168  -0.20641   0.47613  -0.28701
  27   33569.3    297.9   0.070652834   0.69289   0.79572   0.23192   0.07700
  28   33696.9    296.8   0.149346800   1.45909   1.06239   0.53818  -0.20195
  29   34194.0    292.4   0.032110590   0.30915   0.03673   0.03798  -0.55350
  30   34577.6    289.2   0.225435402   2.14636  -0.00328  -1.17949   0.86899
  31   34794.4    287.4   0.368184503   3.48363  -1.43847   0.14169  -1.18083
  32   35142.8    284.6   0.050839955   0.47626  -0.27400  -0.31272   0.55081
  33   35292.5    283.3   0.008921183   0.08322   0.22110   0.00352  -0.18526
  34   35535.0    281.4   0.199525240   1.84849  -1.07908  -0.80827   0.17546
  35   35933.6    278.3   0.032431686   0.29713  -0.08820  -0.29303  -0.45109
  36   36157.0    276.6   0.277290879   2.52475   0.79563  -0.44606   1.30106
  37   36454.4    274.3   0.049329882   0.44549  -0.57691  -0.32944   0.06428
  38   36879.7    271.2   0.107760903   0.96194   0.97735   0.04058  -0.07130
  39   36988.9    270.4   0.053215212   0.47363   0.30070  -0.43306   0.44235
  40   37395.6    267.4   0.161539883   1.42212   0.96965   0.00450   0.69417
  41   37432.4    267.1   0.011731560   0.10318  -0.26626  -0.05489  -0.17109
  42   37593.8    266.0   0.064383519   0.56381  -0.17969  -0.40347   0.60724
  43   37842.5    264.3   0.019788786   0.17215  -0.39431   0.11486   0.05896
  44   37997.9    263.2   0.032557492   0.28208  -0.37858   0.25247  -0.27388
  45   38160.2    262.1   0.177066269   1.52757  -0.09474   1.16846  -0.39154
  46   38515.9    259.6   0.199241793   1.70301  -0.02141  -1.07447   0.74031
  47   39109.2    255.7   0.079626846   0.67028   0.65753  -0.48059   0.08347
  48   39176.7    255.3   0.083859721   0.70469   0.81560   0.18525   0.07194
  49   39606.4    252.5   0.060250768   0.50081   0.46738  -0.45805   0.26936
  50   39993.9    250.0   0.144408377   1.18871  -0.02342   0.21321  -1.06897

FINAL SINGLE POINT ENERGY     -4822.714354414337

DIPOLE MOMENT
-------------
                                X             Y             Z
Electronic contribution:     -0.15695      43.95486      30.47493
Nuclear contribution   :      0.15166     -49.43618     -33.13482
                        -----------------------------------------
Total Dipole Moment    :     -0.00529      -5.48131      -2.65988
                        -----------------------------------------
Magnitude (a.u.)       :      6.09260
Magnitude (Debye)      :     15.48617

Rotational constants in cm-1:     0.001284     0.000127     0.000122
Rotational constants in MHz :    38.480757     3.796120     3.649873

                             ****ORCA TERMINATED NORMALLY****
TOTAL RUN TIME: 0 days 0 hours 14 minutes 4 seconds 167 msec
