                         Program Version 4.2.0 -  RELEASE  -
|  1> # ORCA input file
|  2> # SCF done       -186.649809845768          0.000627870686
|  3> ! CAM-B3LYP def2-SVP def2/J RIJCOSX Grid4 TightSCF
|  4> %maxcore 5000
|  5> %tddft
|  6>     Mode sTDDFT
|  7>     Ethresh 5.0
|  8>     maxcore 5000
|  9> end
| 10>
| 11> %pal
| 12>   nprocs 6
| 13>   end
| 14> * xyz 0 1
| 15>    C       -2.51142        11.70684         8.70206
| 16>    C       -2.48315        12.94459         9.19301
| 17>    C       -1.86854        13.31088        10.43542
| 18>    O       -1.25176        12.39073        11.21890
| 19>    C       -0.77252        13.01850        12.32312
| 20>    C       -1.08622        14.36790        12.24641
| 21>    C       -1.78840        14.55536        11.03633
| 22>    O       -2.28486        15.71990        10.55752
| 23>    O       -0.80951        15.37769        13.11975
| 24>    C       -0.07735        12.29866        13.33352
| 25>    C        0.17731        10.97125        13.26767
| 26>    C        0.85326        10.21518        14.26253
| 27>    S        1.12914         8.51501        14.00182
| 28>    C        1.91274         8.34755        15.54418
| 29>    C        1.94815         9.56028        16.20433
| 30>    C        1.35900        10.60031        15.48900
| 31>    C        2.40651         7.09365        15.99542
| 32>    C        2.96655         6.79176        17.22009
| 33>    C        3.33039         5.45232        17.34962
| 34>    C        3.06353         4.69828        16.22692
| 35>    S        2.34172         5.67960        14.98179
| 36>    C        3.29916         3.31464        16.02153
| 37>    S        3.91506         2.30611        17.29728
| 38>    C        3.88753         0.89772        16.26722
| 39>    C        3.42395         1.23215        15.00803
| 40>    C        3.09309         2.57708        14.87249
| 41>    C        4.29177        -0.35583        16.78971
| 42>    C        4.35882        -1.51068        16.08078
| 43>    C        4.73106        -2.74292        16.66291
| 44>    S        4.82170        -4.20841        15.63667
| 45>    C        5.25724        -5.08212        17.04441
| 46>    C        5.30191        -4.22720        18.15315
| 47>    N        5.01338        -2.95337        17.91996
| 48>    C        5.66574        -4.98380        19.39203
| 49>    C        5.81855        -6.37425        18.84728
| 50>    C        5.57635        -6.38832        17.47085
| 51>    S        5.74129        -7.95633        16.79697
| 52>    C        6.13082        -8.61344        18.37957
| 53>    C        6.12829        -7.62893        19.35600
| 54>    C        6.38490       -10.00494        18.48410
| 55>    C        6.62159       -10.67109        19.64037
| 56>    C        6.86792       -12.06647        19.73104
| 57>    S        7.06094       -12.80353        21.29974
| 58>    C        7.29246       -14.37541        20.59575
| 59>    C        7.22523       -14.30364        19.21736
| 60>    C        6.98706       -13.01889        18.73688
| 61>    C        7.50750       -15.52640        21.39993
| 62>    C        7.74102       -16.82170        20.98361
| 63>    C        7.90051       -17.72362        22.03390
| 64>    C        7.79126       -17.14220        23.28130
| 65>    S        7.48909       -15.43494        23.13778
| 66>    C        7.88531       -17.77155        24.55134
| 67>    S        7.66639       -16.87747        26.02597
| 68>    C        7.90329       -18.30676        26.99568
| 69>    C        8.14339       -19.40006        26.18497
| 70>    C        8.13354       -19.10308        24.82463
| 71>    C        7.81978       -18.21264        28.41000
| 72>    C        7.94799       -19.24724        29.27687
| 73>    C        7.83266       -19.09662        30.68253
| 74>    C        7.93583       -20.12898        31.55372
| 75>    C        7.80514       -19.99985        32.96154
| 76>    O        7.91274       -21.10744        33.74144
| 77>    C        7.74390       -20.74364        35.03796
| 78>    C        7.52502       -19.37885        35.09703
| 79>    C        7.56288       -18.89684        33.77128
| 80>    O        7.39496       -17.61127        33.38256
| 81>    O        7.30431       -18.57433        36.17647
| 82>    C        7.80274       -21.71336        36.09316
| 83>    C        8.01848       -23.01568        35.91175
| 84>    H       -2.98918        11.48338         7.76524
| 85>    H       -2.05878        10.88683         9.23206
| 86>    H       -2.93781        13.77381         8.67057
| 87>    H       -2.07448        16.41401        11.19508
| 88>    H       -0.32359        15.02577        13.87257
| 89>    H        0.24955        12.87524        14.18814
| 90>    H       -0.15744        10.42956        12.39458
| 91>    H        2.39146         9.68309        17.17593
| 92>    H        1.29932        11.60775        15.85953
| 93>    H        3.10067         7.52135        17.99773
| 94>    H        3.77757         5.03024        18.23239
| 95>    H        3.32220         0.51549        14.21357
| 96>    H        2.71189         3.01936        13.96858
| 97>    H        4.56078        -0.38818        17.83608
| 98>    H        4.12151        -1.53322        15.02754
| 99>    H        4.88012        -4.91924        20.14715
|100>    H        6.58846        -4.60977        19.83917
|101>    H        6.34773        -7.82944        20.38853
|102>    H        6.36895       -10.55207        17.55195
|103>    H        6.61728       -10.13257        20.57743
|104>    H        7.34243       -15.16333        18.58275
|105>    H        6.90718       -12.78736        17.69029
|106>    H        7.79442       -17.10264        19.94752
|107>    H        8.08718       -18.77248        21.89182
|108>    H        8.32076       -20.38713        26.57168
|109>    H        8.30192       -19.83452        24.05490
|110>    H        7.62676       -17.22430        28.80655
|111>    H        8.13796       -20.24328        28.90090
|112>    H        7.64500       -18.10483        31.06682
|113>    H        8.12315       -21.13288        31.19789
|114>    H        7.24278       -17.08336        34.17758
|115>    H        7.31524       -19.10512        36.97941
|116>    H        7.65602       -21.31745        37.09090
|117>    H        8.16628       -23.41922        34.92589
|118>    H        8.05323       -23.70177        36.73857
|119> *
|120>
|121>                          ****END OF INPUT****

CARTESIAN COORDINATES (ANGSTROEM)
---------------------------------
  C     -2.511420   11.706840    8.702060
  C     -2.483150   12.944590    9.193010
  C     -1.868540   13.310880   10.435420
  O     -1.251760   12.390730   11.218900
  C     -0.772520   13.018500   12.323120
  C     -1.086220   14.367900   12.246410
  C     -1.788400   14.555360   11.036330
  O     -2.284860   15.719900   10.557520
  O     -0.809510   15.377690   13.119750
  C     -0.077350   12.298660   13.333520
  C      0.177310   10.971250   13.267670
  C      0.853260   10.215180   14.262530
  S      1.129140    8.515010   14.001820
  C      1.912740    8.347550   15.544180
  C      1.948150    9.560280   16.204330
  C      1.359000   10.600310   15.489000
  C      2.406510    7.093650   15.995420
  C      2.966550    6.791760   17.220090
  C      3.330390    5.452320   17.349620
  C      3.063530    4.698280   16.226920
  S      2.341720    5.679600   14.981790
  C      3.299160    3.314640   16.021530
  S      3.915060    2.306110   17.297280
  C      3.887530    0.897720   16.267220
  C      3.423950    1.232150   15.008030
  C      3.093090    2.577080   14.872490
  C      4.291770   -0.355830   16.789710
  C      4.358820   -1.510680   16.080780
  C      4.731060   -2.742920   16.662910
  S      4.821700   -4.208410   15.636670
  C      5.257240   -5.082120   17.044410
  C      5.301910   -4.227200   18.153150
  N      5.013380   -2.953370   17.919960
  C      5.665740   -4.983800   19.392030
  C      5.818550   -6.374250   18.847280
  C      5.576350   -6.388320   17.470850
  S      5.741290   -7.956330   16.796970
  C      6.130820   -8.613440   18.379570
  C      6.128290   -7.628930   19.356000
  C      6.384900  -10.004940   18.484100
  C      6.621590  -10.671090   19.640370
  C      6.867920  -12.066470   19.731040
  S      7.060940  -12.803530   21.299740
  C      7.292460  -14.375410   20.595750
  C      7.225230  -14.303640   19.217360
  C      6.987060  -13.018890   18.736880
  C      7.507500  -15.526400   21.399930
  C      7.741020  -16.821700   20.983610
  C      7.900510  -17.723620   22.033900
  C      7.791260  -17.142200   23.281300
  S      7.489090  -15.434940   23.137780
  C      7.885310  -17.771550   24.551340
  S      7.666390  -16.877470   26.025970
  C      7.903290  -18.306760   26.995680
  C      8.143390  -19.400060   26.184970
  C      8.133540  -19.103080   24.824630
  C      7.819780  -18.212640   28.410000
  C      7.947990  -19.247240   29.276870
  C      7.832660  -19.096620   30.682530
  C      7.935830  -20.128980   31.553720
  C      7.805140  -19.999850   32.961540
  O      7.912740  -21.107440   33.741440
  C      7.743900  -20.743640   35.037960
  C      7.525020  -19.378850   35.097030
  C      7.562880  -18.896840   33.771280
  O      7.394960  -17.611270   33.382560
  O      7.304310  -18.574330   36.176470
  C      7.802740  -21.713360   36.093160
  C      8.018480  -23.015680   35.911750
  H     -2.989180   11.483380    7.765240
  H     -2.058780   10.886830    9.232060
  H     -2.937810   13.773810    8.670570
  H     -2.074480   16.414010   11.195080
  H     -0.323590   15.025770   13.872570
  H      0.249550   12.875240   14.188140
  H     -0.157440   10.429560   12.394580
  H      2.391460    9.683090   17.175930
  H      1.299320   11.607750   15.859530
  H      3.100670    7.521350   17.997730
  H      3.777570    5.030240   18.232390
  H      3.322200    0.515490   14.213570
  H      2.711890    3.019360   13.968580
  H      4.560780   -0.388180   17.836080
  H      4.121510   -1.533220   15.027540
  H      4.880120   -4.919240   20.147150
  H      6.588460   -4.609770   19.839170
  H      6.347730   -7.829440   20.388530
  H      6.368950  -10.552070   17.551950
  H      6.617280  -10.132570   20.577430
  H      7.342430  -15.163330   18.582750
  H      6.907180  -12.787360   17.690290
  H      7.794420  -17.102640   19.947520
  H      8.087180  -18.772480   21.891820
  H      8.320760  -20.387130   26.571680
  H      8.301920  -19.834520   24.054900
  H      7.626760  -17.224300   28.806550
  H      8.137960  -20.243280   28.900900
  H      7.645000  -18.104830   31.066820
  H      8.123150  -21.132880   31.197890
  H      7.242780  -17.083360   34.177580
  H      7.315240  -19.105120   36.979410
  H      7.656020  -21.317450   37.090900
  H      8.166280  -23.419220   34.925890
  H      8.053230  -23.701770   36.738570

 Total Charge           Charge          ....    0
 Multiplicity           Mult            ....    1
 Number of Electrons    NEL             ....  542
 Basis Dimension        Dim             .... 1173

ORBITAL ENERGIES
----------------

  NO   OCC          E(Eh)            E(eV)
   0   2.0000     -88.956782     -2420.6371
   1   2.0000     -88.953505     -2420.5479
   2   2.0000     -88.952322     -2420.5157
   3   2.0000     -88.950408     -2420.4637
   4   2.0000     -88.950352     -2420.4621
   5   2.0000     -88.948161     -2420.4025
   6   2.0000     -88.946895     -2420.3681
   7   2.0000     -88.944351     -2420.2988
   8   2.0000     -19.275970      -524.5258
   9   2.0000     -19.274486      -524.4854
  10   2.0000     -19.261870      -524.1421
  11   2.0000     -19.260205      -524.0968
  12   2.0000     -19.249976      -523.8185
  13   2.0000     -19.246692      -523.7291
  14   2.0000     -14.400272      -391.8513
  15   2.0000     -10.329165      -281.0709
  16   2.0000     -10.327637      -281.0293
  17   2.0000     -10.325107      -280.9604
  18   2.0000     -10.323673      -280.9214
  19   2.0000     -10.322910      -280.9007
  20   2.0000     -10.321063      -280.8504
  21   2.0000     -10.316900      -280.7371
  22   2.0000     -10.315470      -280.6982
  23   2.0000     -10.314214      -280.6640
  24   2.0000     -10.302533      -280.3462
  25   2.0000     -10.302254      -280.3386
  26   2.0000     -10.301043      -280.3056
  27   2.0000     -10.300631      -280.2944
  28   2.0000     -10.297515      -280.2096
  29   2.0000     -10.297458      -280.2081
  30   2.0000     -10.297225      -280.2017
  31   2.0000     -10.296395      -280.1792
  32   2.0000     -10.295751      -280.1616
  33   2.0000     -10.295428      -280.1528
  34   2.0000     -10.295287      -280.1490
  35   2.0000     -10.295226      -280.1474
  36   2.0000     -10.294873      -280.1377
  37   2.0000     -10.294490      -280.1273
  38   2.0000     -10.292215      -280.0654
  39   2.0000     -10.289280      -279.9856
  40   2.0000     -10.284049      -279.8432
  41   2.0000     -10.281504      -279.7740
  42   2.0000     -10.279772      -279.7268
  43   2.0000     -10.279349      -279.7153
  44   2.0000     -10.276699      -279.6432
  45   2.0000     -10.276011      -279.6245
  46   2.0000     -10.274834      -279.5925
  47   2.0000     -10.274817      -279.5920
  48   2.0000     -10.271600      -279.5044
  49   2.0000     -10.270774      -279.4820
  50   2.0000     -10.270645      -279.4785
  51   2.0000     -10.270282      -279.4686
  52   2.0000     -10.270126      -279.4643
  53   2.0000     -10.269879      -279.4576
  54   2.0000     -10.268782      -279.4278
  55   2.0000     -10.268753      -279.4270
  56   2.0000     -10.267847      -279.4023
  57   2.0000     -10.267729      -279.3991
  58   2.0000     -10.267602      -279.3957
  59   2.0000     -10.266282      -279.3597
  60   2.0000     -10.266187      -279.3572
  61   2.0000     -10.265602      -279.3412
  62   2.0000     -10.264644      -279.3152
  63   2.0000     -10.264451      -279.3099
  64   2.0000     -10.263154      -279.2746
  65   2.0000     -10.261837      -279.2388
  66   2.0000     -10.260178      -279.1936
  67   2.0000     -10.258793      -279.1560
  68   2.0000     -10.252242      -278.9777
  69   2.0000      -8.052031      -219.1069
  70   2.0000      -8.048647      -219.0148
  71   2.0000      -8.048003      -218.9973
  72   2.0000      -8.046272      -218.9502
  73   2.0000      -8.046152      -218.9469
  74   2.0000      -8.044020      -218.8889
  75   2.0000      -8.042773      -218.8550
  76   2.0000      -8.040247      -218.7862
  77   2.0000      -6.021151      -163.8438
  78   2.0000      -6.017976      -163.7575
  79   2.0000      -6.017375      -163.7411
  80   2.0000      -6.017364      -163.7408
  81   2.0000      -6.015507      -163.6903
  82   2.0000      -6.015387      -163.6870
  83   2.0000      -6.014189      -163.6544
  84   2.0000      -6.013954      -163.6480
  85   2.0000      -6.013381      -163.6324
  86   2.0000      -6.013294      -163.6301
  87   2.0000      -6.012015      -163.5953
  88   2.0000      -6.011467      -163.5803
  89   2.0000      -6.011414      -163.5789
  90   2.0000      -6.010706      -163.5596
  91   2.0000      -6.009901      -163.5377
  92   2.0000      -6.009491      -163.5266
  93   2.0000      -6.009251      -163.5200
  94   2.0000      -6.008367      -163.4960
  95   2.0000      -6.008200      -163.4914
  96   2.0000      -6.008000      -163.4860
  97   2.0000      -6.005963      -163.4306
  98   2.0000      -6.005454      -163.4167
  99   2.0000      -6.004861      -163.4006
 100   2.0000      -6.002347      -163.3322
 101   2.0000      -1.196513       -32.5588
 102   2.0000      -1.194627       -32.5075
 103   2.0000      -1.152617       -31.3643
 104   2.0000      -1.152158       -31.3518
 105   2.0000      -1.134834       -30.8804
 106   2.0000      -1.133748       -30.8508
 107   2.0000      -1.056337       -28.7444
 108   2.0000      -0.993246       -27.0276
 109   2.0000      -0.988998       -26.9120
 110   2.0000      -0.986935       -26.8559
 111   2.0000      -0.979826       -26.6624
 112   2.0000      -0.974696       -26.5228
 113   2.0000      -0.962740       -26.1975
 114   2.0000      -0.957813       -26.0634
 115   2.0000      -0.922652       -25.1066
 116   2.0000      -0.906707       -24.6728
 117   2.0000      -0.905961       -24.6525
 118   2.0000      -0.895415       -24.3655
 119   2.0000      -0.888884       -24.1878
 120   2.0000      -0.884669       -24.0731
 121   2.0000      -0.881582       -23.9891
 122   2.0000      -0.879883       -23.9428
 123   2.0000      -0.876781       -23.8584
 124   2.0000      -0.872842       -23.7512
 125   2.0000      -0.861044       -23.4302
 126   2.0000      -0.854706       -23.2577
 127   2.0000      -0.843390       -22.9498
 128   2.0000      -0.838329       -22.8121
 129   2.0000      -0.833256       -22.6740
 130   2.0000      -0.831050       -22.6140
 131   2.0000      -0.826125       -22.4800
 132   2.0000      -0.825453       -22.4617
 133   2.0000      -0.821233       -22.3469
 134   2.0000      -0.816990       -22.2314
 135   2.0000      -0.811057       -22.0700
 136   2.0000      -0.806285       -21.9401
 137   2.0000      -0.797006       -21.6876
 138   2.0000      -0.789787       -21.4912
 139   2.0000      -0.773169       -21.0390
 140   2.0000      -0.771380       -20.9903
 141   2.0000      -0.758728       -20.6460
 142   2.0000      -0.746893       -20.3240
 143   2.0000      -0.731474       -19.9044
 144   2.0000      -0.724322       -19.7098
 145   2.0000      -0.716647       -19.5010
 146   2.0000      -0.710934       -19.3455
 147   2.0000      -0.698812       -19.0156
 148   2.0000      -0.695755       -18.9324
 149   2.0000      -0.687671       -18.7125
 150   2.0000      -0.686139       -18.6708
 151   2.0000      -0.675913       -18.3925
 152   2.0000      -0.671324       -18.2677
 153   2.0000      -0.668826       -18.1997
 154   2.0000      -0.668637       -18.1945
 155   2.0000      -0.663852       -18.0643
 156   2.0000      -0.658819       -17.9274
 157   2.0000      -0.651220       -17.7206
 158   2.0000      -0.640434       -17.4271
 159   2.0000      -0.631772       -17.1914
 160   2.0000      -0.629666       -17.1341
 161   2.0000      -0.625725       -17.0269
 162   2.0000      -0.619000       -16.8438
 163   2.0000      -0.615669       -16.7532
 164   2.0000      -0.614101       -16.7105
 165   2.0000      -0.613181       -16.6855
 166   2.0000      -0.610591       -16.6150
 167   2.0000      -0.607847       -16.5404
 168   2.0000      -0.605715       -16.4823
 169   2.0000      -0.604690       -16.4545
 170   2.0000      -0.602716       -16.4007
 171   2.0000      -0.590215       -16.0606
 172   2.0000      -0.584734       -15.9114
 173   2.0000      -0.579431       -15.7671
 174   2.0000      -0.577192       -15.7062
 175   2.0000      -0.575594       -15.6627
 176   2.0000      -0.570865       -15.5340
 177   2.0000      -0.565006       -15.3746
 178   2.0000      -0.562667       -15.3109
 179   2.0000      -0.558995       -15.2110
 180   2.0000      -0.556677       -15.1479
 181   2.0000      -0.555295       -15.1103
 182   2.0000      -0.550549       -14.9812
 183   2.0000      -0.542304       -14.7569
 184   2.0000      -0.541088       -14.7237
 185   2.0000      -0.536490       -14.5986
 186   2.0000      -0.532772       -14.4975
 187   2.0000      -0.529027       -14.3955
 188   2.0000      -0.523260       -14.2386
 189   2.0000      -0.520371       -14.1600
 190   2.0000      -0.509413       -13.8618
 191   2.0000      -0.509051       -13.8520
 192   2.0000      -0.508483       -13.8365
 193   2.0000      -0.500912       -13.6305
 194   2.0000      -0.500074       -13.6077
 195   2.0000      -0.499101       -13.5812
 196   2.0000      -0.495151       -13.4737
 197   2.0000      -0.493562       -13.4305
 198   2.0000      -0.490613       -13.3503
 199   2.0000      -0.489626       -13.3234
 200   2.0000      -0.486642       -13.2422
 201   2.0000      -0.484778       -13.1915
 202   2.0000      -0.483569       -13.1586
 203   2.0000      -0.481820       -13.1110
 204   2.0000      -0.481455       -13.1011
 205   2.0000      -0.480025       -13.0621
 206   2.0000      -0.479391       -13.0449
 207   2.0000      -0.478404       -13.0180
 208   2.0000      -0.477468       -12.9926
 209   2.0000      -0.475920       -12.9505
 210   2.0000      -0.474216       -12.9041
 211   2.0000      -0.473778       -12.8922
 212   2.0000      -0.472739       -12.8639
 213   2.0000      -0.470737       -12.8094
 214   2.0000      -0.463331       -12.6079
 215   2.0000      -0.462324       -12.5805
 216   2.0000      -0.459569       -12.5055
 217   2.0000      -0.459068       -12.4919
 218   2.0000      -0.457554       -12.4507
 219   2.0000      -0.454755       -12.3745
 220   2.0000      -0.451196       -12.2777
 221   2.0000      -0.450057       -12.2467
 222   2.0000      -0.448941       -12.2163
 223   2.0000      -0.446865       -12.1598
 224   2.0000      -0.444873       -12.1056
 225   2.0000      -0.442649       -12.0451
 226   2.0000      -0.440658       -11.9909
 227   2.0000      -0.438898       -11.9430
 228   2.0000      -0.432359       -11.7651
 229   2.0000      -0.431657       -11.7460
 230   2.0000      -0.429752       -11.6942
 231   2.0000      -0.428010       -11.6467
 232   2.0000      -0.425390       -11.5755
 233   2.0000      -0.423800       -11.5322
 234   2.0000      -0.420538       -11.4434
 235   2.0000      -0.415938       -11.3183
 236   2.0000      -0.414528       -11.2799
 237   2.0000      -0.411377       -11.1941
 238   2.0000      -0.410919       -11.1817
 239   2.0000      -0.410681       -11.1752
 240   2.0000      -0.408283       -11.1100
 241   2.0000      -0.407182       -11.0800
 242   2.0000      -0.406590       -11.0639
 243   2.0000      -0.399722       -10.8770
 244   2.0000      -0.398967       -10.8564
 245   2.0000      -0.392986       -10.6937
 246   2.0000      -0.387296       -10.5389
 247   2.0000      -0.379247       -10.3198
 248   2.0000      -0.369339       -10.0502
 249   2.0000      -0.361467        -9.8360
 250   2.0000      -0.350402        -9.5349
 251   2.0000      -0.341340        -9.2883
 252   2.0000      -0.340656        -9.2697
 253   2.0000      -0.331543        -9.0217
 254   2.0000      -0.326889        -8.8951
 255   2.0000      -0.323282        -8.7970
 256   2.0000      -0.320584        -8.7235
 257   2.0000      -0.317622        -8.6429
 258   2.0000      -0.315438        -8.5835
 259   2.0000      -0.315003        -8.5717
 260   2.0000      -0.313603        -8.5336
 261   2.0000      -0.308938        -8.4066
 262   2.0000      -0.302272        -8.2252
 263   2.0000      -0.294398        -8.0110
 264   2.0000      -0.287706        -7.8289
 265   2.0000      -0.275682        -7.5017
 266   2.0000      -0.258034        -7.0215
 267   2.0000      -0.242386        -6.5957
 268   2.0000      -0.223848        -6.0912
 269   2.0000      -0.213269        -5.8033
 270   2.0000      -0.202488        -5.5100
 271   0.0000      -0.062770        -1.7081
 272   0.0000      -0.049506        -1.3471
 273   0.0000      -0.037444        -1.0189
 274   0.0000      -0.023126        -0.6293
 275   0.0000      -0.002948        -0.0802

MULLIKEN ATOMIC CHARGES
-----------------------
   0 C :   -0.002214
   1 C :   -0.022769
   2 C :    0.044322
   3 O :   -0.222096
   4 C :    0.088508
   5 C :    0.080971
   6 C :    0.082875
   7 O :   -0.180457
   8 O :   -0.204015
   9 C :   -0.048754
  10 C :    0.058047
  11 C :   -0.070509
  12 S :    0.124468
  13 C :   -0.047029
  14 C :   -0.002013
  15 C :    0.007345
  16 C :   -0.028259
  17 C :   -0.005144
  18 C :   -0.011086
  19 C :   -0.031936
  20 S :    0.118190
  21 C :   -0.045941
  22 S :    0.124903
  23 C :   -0.075829
  24 C :    0.018607
  25 C :   -0.012713
  26 C :    0.070533
  27 C :    0.042389
  28 C :   -0.109098
  29 S :    0.115424
  30 C :   -0.065428
  31 C :   -0.226019
  32 N :   -0.019025
  33 C :    0.387274
  34 C :   -0.164396
  35 C :   -0.098128
  36 S :    0.138195
  37 C :   -0.079206
  38 C :   -0.019186
  39 C :    0.041878
  40 C :    0.056167
  41 C :   -0.071106
  42 S :    0.117833
  43 C :   -0.046445
  44 C :   -0.004237
  45 C :    0.004881
  46 C :   -0.029616
  47 C :   -0.006437
  48 C :   -0.004270
  49 C :   -0.028864
  50 S :    0.119060
  51 C :   -0.047592
  52 S :    0.117270
  53 C :   -0.069607
  54 C :    0.012837
  55 C :   -0.006622
  56 C :    0.052528
  57 C :    0.019480
  58 C :   -0.003702
  59 C :   -0.017899
  60 C :    0.105817
  61 O :   -0.216753
  62 C :    0.065338
  63 C :    0.082495
  64 C :    0.061083
  65 O :   -0.176570
  66 O :   -0.207659
  67 C :   -0.050598
  68 C :   -0.006549
  69 H :    0.016645
  70 H :    0.019471
  71 H :    0.000517
  72 H :    0.190728
  73 H :    0.189251
  74 H :   -0.038400
  75 H :   -0.005660
  76 H :   -0.024213
  77 H :   -0.029337
  78 H :   -0.021545
  79 H :   -0.013366
  80 H :   -0.017300
  81 H :   -0.012773
  82 H :    0.000803
  83 H :   -0.019970
  84 H :    0.034460
  85 H :    0.032665
  86 H :   -0.026437
  87 H :   -0.023660
  88 H :   -0.023297
  89 H :   -0.023679
  90 H :   -0.020926
  91 H :   -0.024141
  92 H :   -0.023719
  93 H :   -0.023985
  94 H :   -0.024052
  95 H :   -0.020796
  96 H :   -0.017906
  97 H :    0.004024
  98 H :   -0.017990
  99 H :    0.190899
 100 H :    0.190060
 101 H :   -0.032349
 102 H :    0.025893
 103 H :    0.017142
Sum of atomic charges:   -0.0000000

LOEWDIN ATOMIC CHARGES
----------------------
   0 C :   -0.048400
   1 C :   -0.035434
   2 C :   -0.002239
   3 O :    0.003521
   4 C :   -0.017574
   5 C :   -0.019348
   6 C :   -0.009873
   7 O :   -0.053289
   8 O :   -0.064859
   9 C :   -0.045694
  10 C :   -0.044105
  11 C :   -0.168692
  12 S :    0.427978
  13 C :   -0.190118
  14 C :   -0.053129
  15 C :   -0.061679
  16 C :   -0.181607
  17 C :   -0.056202
  18 C :   -0.059904
  19 C :   -0.184482
  20 S :    0.426210
  21 C :   -0.181307
  22 S :    0.435657
  23 C :   -0.173065
  24 C :   -0.048680
  25 C :   -0.062898
  26 C :   -0.012988
  27 C :   -0.063023
  28 C :   -0.121923
  29 S :    0.398767
  30 C :   -0.219386
  31 C :   -0.038155
  32 N :   -0.093110
  33 C :   -0.012637
  34 C :   -0.049131
  35 C :   -0.202754
  36 S :    0.430017
  37 C :   -0.166646
  38 C :   -0.055400
  39 C :   -0.042209
  40 C :   -0.044440
  41 C :   -0.169751
  42 S :    0.422913
  43 C :   -0.187823
  44 C :   -0.054794
  45 C :   -0.057441
  46 C :   -0.186458
  47 C :   -0.055465
  48 C :   -0.056960
  49 C :   -0.183655
  50 S :    0.419052
  51 C :   -0.190294
  52 S :    0.423202
  53 C :   -0.168317
  54 C :   -0.057289
  55 C :   -0.054434
  56 C :   -0.049467
  57 C :   -0.018135
  58 C :   -0.023994
  59 C :   -0.038501
  60 C :   -0.001196
  61 O :    0.003578
  62 C :   -0.024662
  63 C :   -0.018561
  64 C :   -0.007954
  65 O :   -0.046933
  66 O :   -0.066907
  67 C :   -0.049026
  68 C :   -0.046790
  69 H :    0.023770
  70 H :    0.022942
  71 H :    0.039763
  72 H :    0.101284
  73 H :    0.097110
  74 H :    0.022373
  75 H :    0.031923
  76 H :    0.027986
  77 H :    0.024375
  78 H :    0.028725
  79 H :    0.026836
  80 H :    0.028890
  81 H :    0.026368
  82 H :    0.034607
  83 H :    0.026175
  84 H :    0.054858
  85 H :    0.054531
  86 H :    0.028792
  87 H :    0.025433
  88 H :    0.025325
  89 H :    0.027962
  90 H :    0.027538
  91 H :    0.028167
  92 H :    0.028265
  93 H :    0.027289
  94 H :    0.027622
  95 H :    0.026770
  96 H :    0.024787
  97 H :    0.029887
  98 H :    0.033016
  99 H :    0.102130
 100 H :    0.097157
 101 H :    0.024612
 102 H :    0.026777
 103 H :    0.024246

  Mayer bond orders larger than 0.100000
B(  0-C ,  1-C ) :   1.9007 B(  0-C , 69-H ) :   0.9453 B(  0-C , 70-H ) :   0.9576
B(  1-C ,  2-C ) :   1.1467 B(  1-C , 71-H ) :   0.9576 B(  2-C ,  3-O ) :   1.1163
B(  2-C ,  4-C ) :   0.1109 B(  2-C ,  6-C ) :   1.4281 B(  3-O ,  4-C ) :   1.1253
B(  4-C ,  5-C ) :   1.3238 B(  4-C ,  9-C ) :   1.1565 B(  5-C ,  6-C ) :   1.2307
B(  5-C ,  8-O ) :   1.2212 B(  6-C ,  7-O ) :   1.2610 B(  7-O , 72-H ) :   0.9560
B(  8-O , 73-H ) :   0.9607 B(  9-C , 10-C ) :   1.6890 B(  9-C , 74-H ) :   0.9526
B( 10-C , 11-C ) :   1.0991 B( 10-C , 75-H ) :   0.9722 B( 11-C , 12-S ) :   1.1148
B( 11-C , 13-C ) :   0.1049 B( 11-C , 15-C ) :   1.4940 B( 12-S , 13-C ) :   1.1220
B( 13-C , 14-C ) :   1.5116 B( 13-C , 16-C ) :   1.1131 B( 14-C , 15-C ) :   1.2822
B( 14-C , 76-H ) :   0.9941 B( 15-C , 77-H ) :   0.9897 B( 16-C , 17-C ) :   1.5246
B( 16-C , 19-C ) :   0.1062 B( 16-C , 20-S ) :   1.1152 B( 17-C , 18-C ) :   1.2662
B( 17-C , 78-H ) :   0.9955 B( 18-C , 19-C ) :   1.5018 B( 18-C , 79-H ) :   0.9921
B( 19-C , 20-S ) :   1.1179 B( 19-C , 21-C ) :   1.1562 B( 21-C , 22-S ) :   1.1337
B( 21-C , 25-C ) :   1.4824 B( 22-S , 23-C ) :   1.1069 B( 23-C , 24-C ) :   1.4900
B( 23-C , 26-C ) :   1.1151 B( 24-C , 25-C ) :   1.2892 B( 24-C , 80-H ) :   0.9910
B( 25-C , 81-H ) :   0.9915 B( 26-C , 27-C ) :   1.7060 B( 26-C , 82-H ) :   0.9641
B( 27-C , 28-C ) :   1.1284 B( 27-C , 83-H ) :   0.9452 B( 28-C , 29-S ) :   1.0635
B( 28-C , 32-N ) :   1.6542 B( 29-S , 30-C ) :   1.0834 B( 30-C , 31-C ) :   1.4829
B( 30-C , 35-C ) :   1.1942 B( 31-C , 32-N ) :   1.4421 B( 31-C , 33-C ) :   1.0439
B( 33-C , 34-C ) :   0.9825 B( 33-C , 84-H ) :   0.8629 B( 33-C , 85-H ) :   0.8605
B( 34-C , 35-C ) :   1.5189 B( 34-C , 38-C ) :   1.3164 B( 35-C , 36-S ) :   1.0829
B( 36-S , 37-C ) :   1.1010 B( 37-C , 38-C ) :   1.4631 B( 37-C , 39-C ) :   1.1303
B( 38-C , 86-H ) :   0.9966 B( 39-C , 40-C ) :   1.7056 B( 39-C , 87-H ) :   0.9586
B( 40-C , 41-C ) :   1.1252 B( 40-C , 88-H ) :   0.9601 B( 41-C , 42-S ) :   1.1107
B( 41-C , 43-C ) :   0.1043 B( 41-C , 45-C ) :   1.4890 B( 42-S , 43-C ) :   1.1221
B( 43-C , 44-C ) :   1.5059 B( 43-C , 46-C ) :   1.1179 B( 44-C , 45-C ) :   1.2838
B( 44-C , 89-H ) :   0.9955 B( 45-C , 90-H ) :   0.9924 B( 46-C , 47-C ) :   1.5187
B( 46-C , 49-C ) :   0.1133 B( 46-C , 50-S ) :   1.1126 B( 47-C , 48-C ) :   1.2664
B( 47-C , 91-H ) :   0.9957 B( 48-C , 49-C ) :   1.5185 B( 48-C , 92-H ) :   0.9950
B( 49-C , 50-S ) :   1.1153 B( 49-C , 51-C ) :   1.1169 B( 51-C , 52-S ) :   1.1214
B( 51-C , 53-C ) :   0.1046 B( 51-C , 55-C ) :   1.5064 B( 52-S , 53-C ) :   1.1125
B( 53-C , 54-C ) :   1.4934 B( 53-C , 56-C ) :   1.1047 B( 54-C , 55-C ) :   1.2847
B( 54-C , 93-H ) :   0.9912 B( 55-C , 94-H ) :   0.9944 B( 56-C , 57-C ) :   1.6613
B( 56-C , 95-H ) :   0.9672 B( 57-C , 58-C ) :   1.1431 B( 57-C , 96-H ) :   0.9836
B( 58-C , 59-C ) :   1.6137 B( 58-C , 97-H ) :   0.9836 B( 59-C , 60-C ) :   1.1339
B( 59-C , 98-H ) :   0.9694 B( 60-C , 61-O ) :   1.1117 B( 60-C , 62-C ) :   0.1091
B( 60-C , 64-C ) :   1.4303 B( 61-O , 62-C ) :   1.1187 B( 62-C , 63-C ) :   1.3549
B( 62-C , 67-C ) :   1.1219 B( 63-C , 64-C ) :   1.2482 B( 63-C , 66-O ) :   1.2150
B( 64-C , 65-O ) :   1.2305 B( 65-O , 99-H ) :   0.9508 B( 66-O ,100-H ) :   0.9591
B( 67-C , 68-C ) :   1.9217 B( 67-C ,101-H ) :   0.9554 B( 68-C ,102-H ) :   0.9588
B( 68-C ,103-H ) :   0.9435

-----------------------------------------------------------------------------
         ABSORPTION SPECTRUM VIA TRANSITION ELECTRIC DIPOLE MOMENTS
-----------------------------------------------------------------------------
State   Energy  Wavelength   fosc         T2         TX        TY        TZ
        (cm-1)    (nm)                  (au**2)     (au)      (au)      (au)
-----------------------------------------------------------------------------
   0   17279.2    578.7   4.514147858  86.00582   1.97896  -8.07429   4.11039
   1   20280.1    493.1   0.556122518   9.02766  -1.10689   1.30522   2.46958
   2   23014.2    434.5   0.866719677  12.39818   0.64063  -0.68565   3.39377
   3   24299.8    411.5   0.048565529   0.65796   0.07599   0.39904   0.70211
   4   25838.5    387.0   0.087197936   1.11100  -0.06104  -0.11090   1.04641
   5   26238.8    381.1   0.067504823   0.84697   0.85161  -0.34203  -0.06885
   6   27938.2    357.9   0.057187109   0.67387   0.15049  -0.74630  -0.30701
   7   28813.6    347.1   0.213128083   2.43511  -0.43437   0.94369  -1.16442
   8   29685.8    336.9   0.160714002   1.78230  -0.26482  -0.23608  -1.28703
   9   30471.6    328.2   0.109289615   1.18075   0.32169  -0.55967   0.87409
  10   31081.6    321.7   0.027286383   0.28901   0.09911  -0.07304  -0.52331
  11   31761.6    314.8   0.041095595   0.42596   0.06270   0.64754   0.05212
  12   32700.1    305.8   0.017603493   0.17723  -0.16478   0.05067  -0.38406
  13   32980.1    303.2   0.095120037   0.94950  -0.35941  -0.65161  -0.62907
  14   34079.5    293.4   0.055461041   0.53576  -0.00050   0.72310   0.11354
  15   34306.0    291.5   0.006499817   0.06237  -0.00894   0.10726  -0.22536
  16   34350.1    291.1   0.005658959   0.05424  -0.00411   0.11538  -0.20225
  17   35153.1    284.5   0.039756313   0.37232   0.10618  -0.59950   0.04054
  18   35568.2    281.2   0.011441293   0.10590   0.08317  -0.13353   0.28487
  19   36261.9    275.8   0.066112462   0.60022   0.19253  -0.12212   0.74043
  20   36949.3    270.6   0.041358944   0.36850  -0.17672   0.57682   0.06741
  21   37092.1    269.6   0.002274271   0.02019   0.05055   0.09092  -0.09677
  22   37636.7    265.7   0.009978768   0.08729   0.11418  -0.27225   0.01141
  23   38353.2    260.7   0.017515243   0.15035  -0.05251  -0.38265   0.03412
  24   38673.7    258.6   0.002078229   0.01769  -0.04871   0.00609  -0.12362
  25   38835.4    257.5   0.057674774   0.48892   0.04447  -0.67061  -0.19292
  26   39811.0    251.2   0.248041491   2.05114  -0.10903   1.42798   0.01091
  27   40043.5    249.7   0.003620486   0.02977   0.05776  -0.13661   0.08813

FINAL SINGLE POINT ENERGY     -5766.079069814110

DIPOLE MOMENT
-------------
                                X             Y             Z
Electronic contribution:      1.09702      20.62806     -27.36213
Nuclear contribution   :     -0.87907     -20.21653      29.26237
                        -----------------------------------------
Total Dipole Moment    :      0.21795       0.41154       1.90024
                        -----------------------------------------
Magnitude (a.u.)       :      1.95647
Magnitude (Debye)      :      4.97294

Rotational constants in cm-1:     0.001500     0.000081     0.000077
Rotational constants in MHz :    44.961607     2.431057     2.319445

                             ****ORCA TERMINATED NORMALLY****
TOTAL RUN TIME: 0 days 0 hours 9 minutes 18 seconds 304 msec
