                         Program Version 4.2.0 -  RELEASE  -
|  1> # ORCA input file
|  2> # SCF done       -198.267568149669          0.000349941839
|  3> ! CAM-B3LYP def2-SVP def2/J RIJCOSX Grid4 TightSCF
|  4> %maxcore 5000
|  5> %tddft
|  6>     Mode sTDDFT
|  7>     Ethresh 5.0
|  8>     maxcore 5000
|  9> end
| 10>
| 11> %pal
| 12>   nprocs 6
| 13>   end
| 14> * xyz 0 1
| 15>    C        1.08571         0.61186         1.20337
| 16>    S        0.81983        -0.91720         1.93625
| 17>    C        0.01132        -1.52392         0.52010
| 18>    C       -0.03196        -0.55935        -0.46435
| 19>    C        0.59270         0.66811        -0.06433
| 20>    O        0.66347         1.73499        -0.91375
| 21>    C        1.29199         2.89188        -0.42056
| 22>    O       -0.61244        -0.81501        -1.67085
| 23>    C       -1.14788         0.26610        -2.40414
| 24>    C       -0.49967        -2.87892         0.50636
| 25>    C       -0.81683        -3.51772        -0.69945
| 26>    C       -1.31613        -4.79715        -0.66944
| 27>    C       -1.50595        -5.47339         0.54592
| 28>    C       -1.17860        -4.85420         1.74242
| 29>    C       -0.67932        -3.56719         1.71153
| 30>    C       -2.04690        -6.78877         0.26188
| 31>    C       -2.18009        -6.92328        -1.12934
| 32>    C       -1.72985        -5.66564        -1.83423
| 33>    C       -0.54703        -5.94131        -2.77996
| 34>    C        0.64086        -6.57679        -2.06777
| 35>    C       -2.88298        -5.02240        -2.62642
| 36>    C       -4.09797        -4.71937        -1.75809
| 37>    C       -2.66974        -8.08433        -1.67786
| 38>    C       -3.05396        -9.13379        -0.83771
| 39>    C       -2.92641        -8.98633         0.54381
| 40>    C       -2.42057        -7.82607         1.10141
| 41>    C       -3.59799       -10.36871        -1.41512
| 42>    C       -4.69616       -10.97489        -0.87230
| 43>    C       -5.23357       -12.13910        -1.47175
| 44>    C       -6.33533       -12.90872        -1.14587
| 45>    C       -7.25395       -12.69432         0.01372
| 46>    C       -8.69168       -12.39364        -0.44355
| 47>    N       -9.39620       -11.67517         0.60338
| 48>    C       -7.19068       -13.88795         0.98228
| 49>    N       -7.87737       -13.58589         2.23137
| 50>    C       -6.41808       -13.95996        -2.13383
| 51>    C       -7.30540       -14.95301        -2.32661
| 52>    C       -7.16517       -15.93630        -3.43701
| 53>    C       -5.99449       -15.69981        -4.33730
| 54>    C       -5.12303       -14.69256        -4.14603
| 55>    C       -5.29142       -13.79266        -3.06812
| 56>    C       -4.58495       -12.68119        -2.65892
| 57>    C       -3.43488       -12.04290        -3.17897
| 58>    C       -2.96745       -10.92094        -2.57693
| 59>    C       -7.05641       -17.31622        -2.83051
| 60>    C       -7.89247       -18.31403        -3.10593
| 61>    C       -7.83840       -19.66446        -2.56728
| 62>    C       -8.58267       -20.66458        -3.20691
| 63>    C       -8.55672       -21.95318        -2.72834
| 64>    C       -7.83158       -22.25684        -1.56337
| 65>    C       -7.09459       -21.27498        -0.91917
| 66>    C       -7.09365       -19.99221        -1.43148
| 67>    C       -8.06641       -23.64466        -1.22067
| 68>    C       -8.93125       -24.19848        -2.17625
| 69>    C       -9.25310       -23.18698        -3.25663
| 70>    C       -8.59411       -23.70136        -4.55816
| 71>    C       -8.63708       -22.74947        -5.74636
| 72>    C      -10.76413       -22.98086        -3.42908
| 73>    C      -11.44684       -22.59498        -2.12187
| 74>    C       -9.35136       -25.50329        -2.08007
| 75>    C       -8.90696       -26.28828        -1.00812
| 76>    C       -8.04758       -25.72317        -0.05836
| 77>    C       -7.62385       -24.41337        -0.15456
| 78>    C       -9.32796       -27.66627        -0.86421
| 79>    S       -9.12226       -28.47525         0.66293
| 80>    C       -9.80956       -29.92522         0.05628
| 81>    C      -10.18929       -29.81058        -1.24616
| 82>    C       -9.91085       -28.51118        -1.78575
| 83>    O      -10.17432       -28.08724        -3.05351
| 84>    C      -10.27351       -29.04835        -4.08298
| 85>    O      -10.78407       -30.77961        -2.00224
| 86>    C      -11.00755       -32.01870        -1.37603
| 87>    H        1.60210         1.36736         1.75829
| 88>    H        1.24244         3.62309        -1.22566
| 89>    H        2.33888         2.69801        -0.16588
| 90>    H        0.77320         3.28204         0.46099
| 91>    H       -1.74008        -0.18972        -3.19727
| 92>    H       -0.36243         0.88571        -2.84161
| 93>    H       -1.79372         0.89036        -1.78137
| 94>    H       -0.66117        -3.00315        -1.63217
| 95>    H       -1.31249        -5.36428         2.68484
| 96>    H       -0.42401        -3.07011         2.63675
| 97>    H       -0.23531        -4.99792        -3.23327
| 98>    H       -0.88619        -6.60213        -3.58111
| 99>    H        1.00675        -5.92398        -1.27843
|100>    H        1.45061        -6.75387        -2.77240
|101>    H        0.35709        -7.52747        -1.62144
|102>    H       -3.17407        -5.69825        -3.43383
|103>    H       -2.52017        -4.09617        -3.07723
|104>    H       -4.48784        -5.63163        -1.31186
|105>    H       -4.88429        -4.26588        -2.35774
|106>    H       -3.83338        -4.03160        -0.95803
|107>    H       -2.78782        -8.18448        -2.74734
|108>    H       -3.21074        -9.80811         1.18530
|109>    H       -2.31960        -7.73286         2.17282
|110>    H       -5.18180       -10.54426        -0.00856
|111>    H       -6.91673       -11.80698         0.55883
|112>    H       -9.18770       -13.33402        -0.73563
|113>    H       -8.65406       -11.74837        -1.32816
|114>    H       -9.37695       -12.23881         1.44943
|115>    H      -10.36449       -11.52712         0.33908
|116>    H       -6.12901       -14.15190         1.13101
|117>    H       -7.68590       -14.75594         0.53915
|118>    H       -7.41437       -12.81216         2.69868
|119>    H       -7.84251       -14.38751         2.85272
|120>    H       -8.15399       -15.10507        -1.67462
|121>    H       -8.08620       -15.90930        -4.03795
|122>    H       -5.87840       -16.40065        -5.15041
|123>    H       -4.28737       -14.55285        -4.81737
|124>    H       -2.94488       -12.45337        -4.05036
|125>    H       -2.08328       -10.42796        -2.95482
|126>    H       -6.21955       -17.44296        -2.15973
|127>    H       -8.69434       -18.14146        -3.81562
|128>    H       -9.17747       -20.40403        -4.07054
|129>    H       -6.53746       -21.50560        -0.02315
|130>    H       -6.53086       -19.22238        -0.92594
|131>    H       -9.08677       -24.63789        -4.82914
|132>    H       -7.54943       -23.93253        -4.33337
|133>    H       -9.65867       -22.48635        -6.00812
|134>    H       -8.18185       -23.23020        -6.61000
|135>    H       -8.08003       -21.84090        -5.53438
|136>    H      -11.20361       -23.90525        -3.80960
|137>    H      -10.93851       -22.19603        -4.16666
|138>    H      -11.31732       -23.37677        -1.37693
|139>    H      -12.51214       -22.44486        -2.28339
|140>    H      -11.02394       -21.67346        -1.72732
|141>    H      -10.02615       -25.92583        -2.80446
|142>    H       -7.71122       -26.33420         0.76715
|143>    H       -6.96096       -23.99830         0.58995
|144>    H       -9.89769       -30.76789         0.71013
|145>    H      -10.27014       -28.47685        -5.01089
|146>    H      -11.19829       -29.62403        -4.00970
|147>    H       -9.42179       -29.73290        -4.07447
|148>    H      -11.47638       -32.65094        -2.12804
|149>    H      -11.67679       -31.91487        -0.51606
|150>    H      -10.06777       -32.47457        -1.04835
|151> *
|152>
|153>                          ****END OF INPUT****

CARTESIAN COORDINATES (ANGSTROEM)
---------------------------------
  C      1.085710    0.611860    1.203370
  S      0.819830   -0.917200    1.936250
  C      0.011320   -1.523920    0.520100
  C     -0.031960   -0.559350   -0.464350
  C      0.592700    0.668110   -0.064330
  O      0.663470    1.734990   -0.913750
  C      1.291990    2.891880   -0.420560
  O     -0.612440   -0.815010   -1.670850
  C     -1.147880    0.266100   -2.404140
  C     -0.499670   -2.878920    0.506360
  C     -0.816830   -3.517720   -0.699450
  C     -1.316130   -4.797150   -0.669440
  C     -1.505950   -5.473390    0.545920
  C     -1.178600   -4.854200    1.742420
  C     -0.679320   -3.567190    1.711530
  C     -2.046900   -6.788770    0.261880
  C     -2.180090   -6.923280   -1.129340
  C     -1.729850   -5.665640   -1.834230
  C     -0.547030   -5.941310   -2.779960
  C      0.640860   -6.576790   -2.067770
  C     -2.882980   -5.022400   -2.626420
  C     -4.097970   -4.719370   -1.758090
  C     -2.669740   -8.084330   -1.677860
  C     -3.053960   -9.133790   -0.837710
  C     -2.926410   -8.986330    0.543810
  C     -2.420570   -7.826070    1.101410
  C     -3.597990  -10.368710   -1.415120
  C     -4.696160  -10.974890   -0.872300
  C     -5.233570  -12.139100   -1.471750
  C     -6.335330  -12.908720   -1.145870
  C     -7.253950  -12.694320    0.013720
  C     -8.691680  -12.393640   -0.443550
  N     -9.396200  -11.675170    0.603380
  C     -7.190680  -13.887950    0.982280
  N     -7.877370  -13.585890    2.231370
  C     -6.418080  -13.959960   -2.133830
  C     -7.305400  -14.953010   -2.326610
  C     -7.165170  -15.936300   -3.437010
  C     -5.994490  -15.699810   -4.337300
  C     -5.123030  -14.692560   -4.146030
  C     -5.291420  -13.792660   -3.068120
  C     -4.584950  -12.681190   -2.658920
  C     -3.434880  -12.042900   -3.178970
  C     -2.967450  -10.920940   -2.576930
  C     -7.056410  -17.316220   -2.830510
  C     -7.892470  -18.314030   -3.105930
  C     -7.838400  -19.664460   -2.567280
  C     -8.582670  -20.664580   -3.206910
  C     -8.556720  -21.953180   -2.728340
  C     -7.831580  -22.256840   -1.563370
  C     -7.094590  -21.274980   -0.919170
  C     -7.093650  -19.992210   -1.431480
  C     -8.066410  -23.644660   -1.220670
  C     -8.931250  -24.198480   -2.176250
  C     -9.253100  -23.186980   -3.256630
  C     -8.594110  -23.701360   -4.558160
  C     -8.637080  -22.749470   -5.746360
  C    -10.764130  -22.980860   -3.429080
  C    -11.446840  -22.594980   -2.121870
  C     -9.351360  -25.503290   -2.080070
  C     -8.906960  -26.288280   -1.008120
  C     -8.047580  -25.723170   -0.058360
  C     -7.623850  -24.413370   -0.154560
  C     -9.327960  -27.666270   -0.864210
  S     -9.122260  -28.475250    0.662930
  C     -9.809560  -29.925220    0.056280
  C    -10.189290  -29.810580   -1.246160
  C     -9.910850  -28.511180   -1.785750
  O    -10.174320  -28.087240   -3.053510
  C    -10.273510  -29.048350   -4.082980
  O    -10.784070  -30.779610   -2.002240
  C    -11.007550  -32.018700   -1.376030
  H      1.602100    1.367360    1.758290
  H      1.242440    3.623090   -1.225660
  H      2.338880    2.698010   -0.165880
  H      0.773200    3.282040    0.460990
  H     -1.740080   -0.189720   -3.197270
  H     -0.362430    0.885710   -2.841610
  H     -1.793720    0.890360   -1.781370
  H     -0.661170   -3.003150   -1.632170
  H     -1.312490   -5.364280    2.684840
  H     -0.424010   -3.070110    2.636750
  H     -0.235310   -4.997920   -3.233270
  H     -0.886190   -6.602130   -3.581110
  H      1.006750   -5.923980   -1.278430
  H      1.450610   -6.753870   -2.772400
  H      0.357090   -7.527470   -1.621440
  H     -3.174070   -5.698250   -3.433830
  H     -2.520170   -4.096170   -3.077230
  H     -4.487840   -5.631630   -1.311860
  H     -4.884290   -4.265880   -2.357740
  H     -3.833380   -4.031600   -0.958030
  H     -2.787820   -8.184480   -2.747340
  H     -3.210740   -9.808110    1.185300
  H     -2.319600   -7.732860    2.172820
  H     -5.181800  -10.544260   -0.008560
  H     -6.916730  -11.806980    0.558830
  H     -9.187700  -13.334020   -0.735630
  H     -8.654060  -11.748370   -1.328160
  H     -9.376950  -12.238810    1.449430
  H    -10.364490  -11.527120    0.339080
  H     -6.129010  -14.151900    1.131010
  H     -7.685900  -14.755940    0.539150
  H     -7.414370  -12.812160    2.698680
  H     -7.842510  -14.387510    2.852720
  H     -8.153990  -15.105070   -1.674620
  H     -8.086200  -15.909300   -4.037950
  H     -5.878400  -16.400650   -5.150410
  H     -4.287370  -14.552850   -4.817370
  H     -2.944880  -12.453370   -4.050360
  H     -2.083280  -10.427960   -2.954820
  H     -6.219550  -17.442960   -2.159730
  H     -8.694340  -18.141460   -3.815620
  H     -9.177470  -20.404030   -4.070540
  H     -6.537460  -21.505600   -0.023150
  H     -6.530860  -19.222380   -0.925940
  H     -9.086770  -24.637890   -4.829140
  H     -7.549430  -23.932530   -4.333370
  H     -9.658670  -22.486350   -6.008120
  H     -8.181850  -23.230200   -6.610000
  H     -8.080030  -21.840900   -5.534380
  H    -11.203610  -23.905250   -3.809600
  H    -10.938510  -22.196030   -4.166660
  H    -11.317320  -23.376770   -1.376930
  H    -12.512140  -22.444860   -2.283390
  H    -11.023940  -21.673460   -1.727320
  H    -10.026150  -25.925830   -2.804460
  H     -7.711220  -26.334200    0.767150
  H     -6.960960  -23.998300    0.589950
  H     -9.897690  -30.767890    0.710130
  H    -10.270140  -28.476850   -5.010890
  H    -11.198290  -29.624030   -4.009700
  H     -9.421790  -29.732900   -4.074470
  H    -11.476380  -32.650940   -2.128040
  H    -11.676790  -31.914870   -0.516060
  H    -10.067770  -32.474570   -1.048350

 Total Charge           Charge          ....    0
 Multiplicity           Mult            ....    1
 Number of Electrons    NEL             ....  526
 Basis Dimension        Dim             .... 1336

ORBITAL ENERGIES
----------------

  NO   OCC          E(Eh)            E(eV)
   0   2.0000     -88.939313     -2420.1617
   1   2.0000     -88.936228     -2420.0778
   2   2.0000     -19.246241      -523.7168
   3   2.0000     -19.243432      -523.6404
   4   2.0000     -19.235381      -523.4213
   5   2.0000     -19.231294      -523.3101
   6   2.0000     -14.380111      -391.3027
   7   2.0000     -14.345036      -390.3483
   8   2.0000     -10.326676      -281.0031
   9   2.0000     -10.323583      -280.9190
  10   2.0000     -10.323520      -280.9173
  11   2.0000     -10.321452      -280.8610
  12   2.0000     -10.321060      -280.8503
  13   2.0000     -10.317503      -280.7535
  14   2.0000     -10.307551      -280.4827
  15   2.0000     -10.304067      -280.3879
  16   2.0000     -10.285662      -279.8871
  17   2.0000     -10.281917      -279.7852
  18   2.0000     -10.279918      -279.7308
  19   2.0000     -10.278753      -279.6991
  20   2.0000     -10.277772      -279.6724
  21   2.0000     -10.275055      -279.5985
  22   2.0000     -10.274648      -279.5874
  23   2.0000     -10.270242      -279.4675
  24   2.0000     -10.268132      -279.4101
  25   2.0000     -10.266680      -279.3706
  26   2.0000     -10.266153      -279.3562
  27   2.0000     -10.265935      -279.3503
  28   2.0000     -10.263872      -279.2942
  29   2.0000     -10.260915      -279.2137
  30   2.0000     -10.259976      -279.1881
  31   2.0000     -10.259880      -279.1855
  32   2.0000     -10.259353      -279.1712
  33   2.0000     -10.259212      -279.1673
  34   2.0000     -10.258877      -279.1582
  35   2.0000     -10.258586      -279.1503
  36   2.0000     -10.258516      -279.1484
  37   2.0000     -10.258364      -279.1443
  38   2.0000     -10.258269      -279.1417
  39   2.0000     -10.257911      -279.1320
  40   2.0000     -10.256856      -279.1032
  41   2.0000     -10.256643      -279.0975
  42   2.0000     -10.255671      -279.0710
  43   2.0000     -10.254624      -279.0425
  44   2.0000     -10.254579      -279.0413
  45   2.0000     -10.253699      -279.0173
  46   2.0000     -10.253535      -279.0129
  47   2.0000     -10.253467      -279.0110
  48   2.0000     -10.252704      -278.9903
  49   2.0000     -10.252304      -278.9794
  50   2.0000     -10.252139      -278.9749
  51   2.0000     -10.251443      -278.9559
  52   2.0000     -10.251006      -278.9440
  53   2.0000     -10.250713      -278.9361
  54   2.0000     -10.250673      -278.9350
  55   2.0000     -10.250351      -278.9262
  56   2.0000     -10.250343      -278.9260
  57   2.0000     -10.249263      -278.8966
  58   2.0000     -10.249144      -278.8934
  59   2.0000     -10.248435      -278.8741
  60   2.0000     -10.248275      -278.8698
  61   2.0000     -10.247493      -278.8485
  62   2.0000     -10.247349      -278.8446
  63   2.0000     -10.247221      -278.8411
  64   2.0000     -10.246669      -278.8260
  65   2.0000     -10.246383      -278.8183
  66   2.0000     -10.245222      -278.7867
  67   2.0000     -10.243721      -278.7458
  68   2.0000     -10.242514      -278.7130
  69   2.0000     -10.236984      -278.5625
  70   2.0000     -10.231470      -278.4124
  71   2.0000     -10.230392      -278.3831
  72   2.0000      -8.034857      -218.6396
  73   2.0000      -8.031812      -218.5567
  74   2.0000      -6.004351      -163.3867
  75   2.0000      -6.001298      -163.3036
  76   2.0000      -6.000310      -163.2767
  77   2.0000      -5.997263      -163.1938
  78   2.0000      -5.996518      -163.1735
  79   2.0000      -5.993468      -163.0906
  80   2.0000      -1.153057       -31.3763
  81   2.0000      -1.150008       -31.2933
  82   2.0000      -1.131777       -30.7972
  83   2.0000      -1.128080       -30.6966
  84   2.0000      -0.975403       -26.5421
  85   2.0000      -0.971066       -26.4241
  86   2.0000      -0.969187       -26.3729
  87   2.0000      -0.965599       -26.2753
  88   2.0000      -0.962001       -26.1774
  89   2.0000      -0.959325       -26.1046
  90   2.0000      -0.935210       -25.4483
  91   2.0000      -0.930035       -25.3075
  92   2.0000      -0.926058       -25.1993
  93   2.0000      -0.920251       -25.0413
  94   2.0000      -0.905643       -24.6438
  95   2.0000      -0.900539       -24.5049
  96   2.0000      -0.887230       -24.1427
  97   2.0000      -0.873734       -23.7755
  98   2.0000      -0.862003       -23.4563
  99   2.0000      -0.858292       -23.3553
 100   2.0000      -0.844773       -22.9874
 101   2.0000      -0.833430       -22.6788
 102   2.0000      -0.830655       -22.6033
 103   2.0000      -0.829313       -22.5668
 104   2.0000      -0.826778       -22.4978
 105   2.0000      -0.823181       -22.3999
 106   2.0000      -0.821776       -22.3616
 107   2.0000      -0.821276       -22.3480
 108   2.0000      -0.820241       -22.3199
 109   2.0000      -0.815795       -22.1989
 110   2.0000      -0.813961       -22.1490
 111   2.0000      -0.812147       -22.0996
 112   2.0000      -0.808124       -21.9902
 113   2.0000      -0.800329       -21.7781
 114   2.0000      -0.790495       -21.5105
 115   2.0000      -0.777149       -21.1473
 116   2.0000      -0.762203       -20.7406
 117   2.0000      -0.753670       -20.5084
 118   2.0000      -0.751339       -20.4450
 119   2.0000      -0.746257       -20.3067
 120   2.0000      -0.745220       -20.2785
 121   2.0000      -0.742897       -20.2153
 122   2.0000      -0.738668       -20.1002
 123   2.0000      -0.720506       -19.6060
 124   2.0000      -0.710035       -19.3210
 125   2.0000      -0.708139       -19.2694
 126   2.0000      -0.703983       -19.1564
 127   2.0000      -0.693538       -18.8721
 128   2.0000      -0.684784       -18.6339
 129   2.0000      -0.682361       -18.5680
 130   2.0000      -0.674541       -18.3552
 131   2.0000      -0.665529       -18.1100
 132   2.0000      -0.661915       -18.0116
 133   2.0000      -0.658373       -17.9152
 134   2.0000      -0.654947       -17.8220
 135   2.0000      -0.651985       -17.7414
 136   2.0000      -0.645749       -17.5717
 137   2.0000      -0.643917       -17.5219
 138   2.0000      -0.638464       -17.3735
 139   2.0000      -0.631271       -17.1777
 140   2.0000      -0.631012       -17.1707
 141   2.0000      -0.627391       -17.0722
 142   2.0000      -0.624777       -17.0010
 143   2.0000      -0.621611       -16.9149
 144   2.0000      -0.616480       -16.7753
 145   2.0000      -0.615081       -16.7372
 146   2.0000      -0.603844       -16.4314
 147   2.0000      -0.599029       -16.3004
 148   2.0000      -0.582426       -15.8486
 149   2.0000      -0.579744       -15.7756
 150   2.0000      -0.574414       -15.6306
 151   2.0000      -0.572288       -15.5727
 152   2.0000      -0.565327       -15.3833
 153   2.0000      -0.564151       -15.3513
 154   2.0000      -0.561187       -15.2707
 155   2.0000      -0.557946       -15.1825
 156   2.0000      -0.556404       -15.1405
 157   2.0000      -0.553189       -15.0530
 158   2.0000      -0.549656       -14.9569
 159   2.0000      -0.548277       -14.9194
 160   2.0000      -0.546172       -14.8621
 161   2.0000      -0.538014       -14.6401
 162   2.0000      -0.536032       -14.5862
 163   2.0000      -0.535372       -14.5682
 164   2.0000      -0.534412       -14.5421
 165   2.0000      -0.532391       -14.4871
 166   2.0000      -0.531745       -14.4695
 167   2.0000      -0.526040       -14.3143
 168   2.0000      -0.525871       -14.3097
 169   2.0000      -0.523160       -14.2359
 170   2.0000      -0.522122       -14.2077
 171   2.0000      -0.519634       -14.1400
 172   2.0000      -0.516701       -14.0601
 173   2.0000      -0.514836       -14.0094
 174   2.0000      -0.511740       -13.9251
 175   2.0000      -0.508298       -13.8315
 176   2.0000      -0.506081       -13.7712
 177   2.0000      -0.503891       -13.7116
 178   2.0000      -0.501985       -13.6597
 179   2.0000      -0.501397       -13.6437
 180   2.0000      -0.499801       -13.6003
 181   2.0000      -0.497679       -13.5425
 182   2.0000      -0.496544       -13.5117
 183   2.0000      -0.492610       -13.4046
 184   2.0000      -0.491782       -13.3821
 185   2.0000      -0.490223       -13.3396
 186   2.0000      -0.486853       -13.2480
 187   2.0000      -0.483538       -13.1577
 188   2.0000      -0.482121       -13.1192
 189   2.0000      -0.480455       -13.0739
 190   2.0000      -0.477651       -12.9975
 191   2.0000      -0.473521       -12.8852
 192   2.0000      -0.472330       -12.8527
 193   2.0000      -0.468657       -12.7528
 194   2.0000      -0.465986       -12.6801
 195   2.0000      -0.464876       -12.6499
 196   2.0000      -0.461850       -12.5676
 197   2.0000      -0.458859       -12.4862
 198   2.0000      -0.457557       -12.4508
 199   2.0000      -0.456658       -12.4263
 200   2.0000      -0.456384       -12.4188
 201   2.0000      -0.454905       -12.3786
 202   2.0000      -0.451852       -12.2955
 203   2.0000      -0.448797       -12.2124
 204   2.0000      -0.444034       -12.0828
 205   2.0000      -0.441194       -12.0055
 206   2.0000      -0.438826       -11.9411
 207   2.0000      -0.436903       -11.8887
 208   2.0000      -0.436674       -11.8825
 209   2.0000      -0.435641       -11.8544
 210   2.0000      -0.432525       -11.7696
 211   2.0000      -0.430097       -11.7035
 212   2.0000      -0.427889       -11.6434
 213   2.0000      -0.426857       -11.6154
 214   2.0000      -0.423646       -11.5280
 215   2.0000      -0.423146       -11.5144
 216   2.0000      -0.419769       -11.4225
 217   2.0000      -0.416980       -11.3466
 218   2.0000      -0.414850       -11.2886
 219   2.0000      -0.409118       -11.1327
 220   2.0000      -0.408926       -11.1274
 221   2.0000      -0.408402       -11.1132
 222   2.0000      -0.407017       -11.0755
 223   2.0000      -0.405938       -11.0461
 224   2.0000      -0.403471       -10.9790
 225   2.0000      -0.402191       -10.9442
 226   2.0000      -0.401456       -10.9242
 227   2.0000      -0.400176       -10.8893
 228   2.0000      -0.397890       -10.8271
 229   2.0000      -0.392591       -10.6830
 230   2.0000      -0.392392       -10.6775
 231   2.0000      -0.391136       -10.6434
 232   2.0000      -0.390584       -10.6283
 233   2.0000      -0.384975       -10.4757
 234   2.0000      -0.384408       -10.4603
 235   2.0000      -0.379503       -10.3268
 236   2.0000      -0.377268       -10.2660
 237   2.0000      -0.376559       -10.2467
 238   2.0000      -0.375169       -10.2089
 239   2.0000      -0.372871       -10.1463
 240   2.0000      -0.371922       -10.1205
 241   2.0000      -0.367738       -10.0066
 242   2.0000      -0.366077        -9.9615
 243   2.0000      -0.363114        -9.8808
 244   2.0000      -0.360140        -9.7999
 245   2.0000      -0.353484        -9.6188
 246   2.0000      -0.345658        -9.4058
 247   2.0000      -0.329744        -8.9728
 248   2.0000      -0.315881        -8.5955
 249   2.0000      -0.308011        -8.3814
 250   2.0000      -0.304680        -8.2908
 251   2.0000      -0.301732        -8.2105
 252   2.0000      -0.300370        -8.1735
 253   2.0000      -0.298664        -8.1270
 254   2.0000      -0.295545        -8.0422
 255   2.0000      -0.280346        -7.6286
 256   2.0000      -0.276475        -7.5233
 257   2.0000      -0.272959        -7.4276
 258   2.0000      -0.270722        -7.3667
 259   2.0000      -0.268152        -7.2968
 260   2.0000      -0.237523        -6.4633
 261   2.0000      -0.235979        -6.4213
 262   2.0000      -0.207372        -5.6429
 263   0.0000      -0.052087        -1.4174
 264   0.0000      -0.015897        -0.4326
 265   0.0000      -0.004442        -0.1209
 266   0.0000       0.020619         0.5611
 267   0.0000       0.032555         0.8859

MULLIKEN ATOMIC CHARGES
-----------------------
   0 C :   -0.207551
   1 S :    0.103229
   2 C :   -0.175897
   3 C :    0.182040
   4 C :    0.199067
   5 O :   -0.322794
   6 C :    0.180380
   7 O :   -0.331519
   8 C :    0.200193
   9 C :    0.137555
  10 C :   -0.112528
  11 C :    0.012228
  12 C :    0.111171
  13 C :   -0.055371
  14 C :   -0.045910
  15 C :    0.121624
  16 C :    0.005538
  17 C :   -0.135385
  18 C :    0.069098
  19 C :    0.026947
  20 C :    0.072251
  21 C :    0.024490
  22 C :   -0.094359
  23 C :    0.080041
  24 C :   -0.008097
  25 C :   -0.061401
  26 C :    0.071993
  27 C :   -0.087840
  28 C :    0.050830
  29 C :   -0.035154
  30 C :   -0.051146
  31 C :    0.156034
  32 N :   -0.223856
  33 C :    0.137677
  34 N :   -0.217827
  35 C :    0.112631
  36 C :   -0.153392
  37 C :    0.131893
  38 C :   -0.036777
  39 C :    0.021923
  40 C :    0.005669
  41 C :    0.031330
  42 C :   -0.004888
  43 C :   -0.008149
  44 C :   -0.040179
  45 C :    0.005198
  46 C :    0.124554
  47 C :   -0.113365
  48 C :    0.022817
  49 C :    0.109228
  50 C :   -0.055072
  51 C :   -0.015881
  52 C :    0.105349
  53 C :    0.016712
  54 C :   -0.129352
  55 C :    0.081588
  56 C :    0.031673
  57 C :    0.050389
  58 C :    0.026405
  59 C :   -0.115767
  60 C :    0.140696
  61 C :   -0.047894
  62 C :   -0.054249
  63 C :   -0.176291
  64 S :    0.102918
  65 C :   -0.207486
  66 C :    0.199442
  67 C :    0.183082
  68 O :   -0.330206
  69 C :    0.201986
  70 O :   -0.325267
  71 C :    0.180962
  72 H :    0.010224
  73 H :    0.035796
  74 H :    0.022775
  75 H :    0.021718
  76 H :    0.024106
  77 H :    0.029975
  78 H :    0.013355
  79 H :   -0.024995
  80 H :   -0.042718
  81 H :   -0.023965
  82 H :   -0.003277
  83 H :   -0.007306
  84 H :    0.023094
  85 H :    0.003540
  86 H :    0.018686
  87 H :   -0.005484
  88 H :   -0.005294
  89 H :    0.022282
  90 H :    0.003237
  91 H :    0.022711
  92 H :   -0.038292
  93 H :   -0.032014
  94 H :   -0.040624
  95 H :   -0.038353
  96 H :   -0.028511
  97 H :   -0.035223
  98 H :   -0.002195
  99 H :    0.077635
 100 H :    0.078426
 101 H :   -0.003775
 102 H :   -0.018400
 103 H :    0.101245
 104 H :    0.094998
 105 H :   -0.006131
 106 H :    0.023468
 107 H :   -0.015526
 108 H :   -0.039109
 109 H :   -0.041520
 110 H :   -0.028913
 111 H :    0.004445
 112 H :   -0.026488
 113 H :   -0.043912
 114 H :   -0.040135
 115 H :   -0.033817
 116 H :   -0.004378
 117 H :    0.003309
 118 H :    0.000831
 119 H :    0.008742
 120 H :    0.017886
 121 H :   -0.001022
 122 H :    0.001912
 123 H :    0.023858
 124 H :    0.005599
 125 H :    0.016753
 126 H :   -0.024018
 127 H :   -0.021450
 128 H :   -0.041462
 129 H :    0.011687
 130 H :    0.023119
 131 H :    0.029353
 132 H :    0.014692
 133 H :    0.035425
 134 H :    0.023761
 135 H :    0.021675
Sum of atomic charges:   -0.0000000

LOEWDIN ATOMIC CHARGES
----------------------
   0 C :   -0.252161
   1 S :    0.427813
   2 C :   -0.191473
   3 C :   -0.000067
   4 C :   -0.008749
   5 O :   -0.106881
   6 C :    0.078107
   7 O :   -0.106744
   8 C :    0.077348
   9 C :   -0.032791
  10 C :   -0.018697
  11 C :    0.001403
  12 C :   -0.022148
  13 C :   -0.021520
  14 C :   -0.032671
  15 C :   -0.019777
  16 C :    0.002912
  17 C :   -0.035259
  18 C :   -0.012102
  19 C :   -0.058011
  20 C :   -0.011539
  21 C :   -0.057927
  22 C :   -0.024485
  23 C :   -0.014686
  24 C :   -0.021710
  25 C :   -0.021558
  26 C :   -0.017040
  27 C :   -0.021478
  28 C :   -0.016195
  29 C :   -0.042346
  30 C :   -0.038623
  31 C :    0.029648
  32 N :   -0.132309
  33 C :    0.024878
  34 N :   -0.104452
  35 C :   -0.016481
  36 C :    0.056650
  37 C :   -0.028504
  38 C :   -0.033503
  39 C :   -0.019218
  40 C :   -0.034151
  41 C :   -0.032694
  42 C :   -0.010871
  43 C :   -0.030007
  44 C :   -0.006662
  45 C :   -0.031566
  46 C :   -0.028481
  47 C :   -0.024450
  48 C :    0.001719
  49 C :   -0.015147
  50 C :   -0.020885
  51 C :   -0.017048
  52 C :   -0.024435
  53 C :    0.004289
  54 C :   -0.034065
  55 C :   -0.009038
  56 C :   -0.060210
  57 C :   -0.016118
  58 C :   -0.056814
  59 C :   -0.019352
  60 C :   -0.031065
  61 C :   -0.033187
  62 C :   -0.020823
  63 C :   -0.192509
  64 S :    0.428724
  65 C :   -0.251267
  66 C :   -0.008961
  67 C :    0.001296
  68 O :   -0.105673
  69 C :    0.077578
  70 O :   -0.107357
  71 C :    0.078529
  72 H :    0.019256
  73 H :    0.027463
  74 H :    0.015252
  75 H :    0.014506
  76 H :    0.021089
  77 H :    0.014075
  78 H :    0.014119
  79 H :    0.024462
  80 H :    0.024569
  81 H :    0.016281
  82 H :    0.019864
  83 H :    0.017826
  84 H :    0.026307
  85 H :    0.021568
  86 H :    0.024521
  87 H :    0.018393
  88 H :    0.019333
  89 H :    0.025886
  90 H :    0.021582
  91 H :    0.025979
  92 H :    0.023997
  93 H :    0.024829
  94 H :    0.024537
  95 H :    0.024105
  96 H :    0.024416
  97 H :   -0.007038
  98 H :    0.017186
  99 H :    0.033312
 100 H :    0.047999
 101 H :    0.003799
 102 H :    0.012208
 103 H :    0.056063
 104 H :    0.056332
 105 H :    0.025021
 106 H :    0.052970
 107 H :    0.023608
 108 H :    0.028276
 109 H :    0.025019
 110 H :    0.024661
 111 H :    0.025266
 112 H :    0.024466
 113 H :    0.021467
 114 H :    0.025200
 115 H :    0.024150
 116 H :    0.020286
 117 H :    0.026456
 118 H :    0.018636
 119 H :    0.025954
 120 H :    0.023596
 121 H :    0.020841
 122 H :    0.017680
 123 H :    0.026429
 124 H :    0.022094
 125 H :    0.024367
 126 H :    0.024107
 127 H :    0.016523
 128 H :    0.024811
 129 H :    0.019750
 130 H :    0.020782
 131 H :    0.014362
 132 H :    0.014509
 133 H :    0.027531
 134 H :    0.015496
 135 H :    0.014663

  Mayer bond orders larger than 0.100000
B(  0-C ,  1-S ) :   1.1003 B(  0-C ,  2-C ) :   0.1067 B(  0-C ,  4-C ) :   1.5097
B(  0-C , 72-H ) :   0.9798 B(  1-S ,  2-C ) :   1.1306 B(  2-C ,  3-C ) :   1.5346
B(  2-C ,  9-C ) :   1.0606 B(  3-C ,  4-C ) :   1.1910 B(  3-C ,  7-O ) :   1.1391
B(  4-C ,  5-O ) :   1.1248 B(  5-O ,  6-C ) :   0.9657 B(  6-C , 73-H ) :   0.9805
B(  6-C , 74-H ) :   0.9680 B(  6-C , 75-H ) :   0.9677 B(  7-O ,  8-C ) :   0.9424
B(  8-C , 76-H ) :   0.9787 B(  8-C , 77-H ) :   0.9722 B(  8-C , 78-H ) :   0.9721
B(  9-C , 10-C ) :   1.3286 B(  9-C , 14-C ) :   1.3349 B( 10-C , 11-C ) :   1.3687
B( 10-C , 79-H ) :   1.0045 B( 11-C , 12-C ) :   1.3725 B( 11-C , 17-C ) :   0.9155
B( 12-C , 13-C ) :   1.3406 B( 12-C , 15-C ) :   0.9850 B( 13-C , 14-C ) :   1.3924
B( 13-C , 80-H ) :   0.9919 B( 14-C , 81-H ) :   0.9803 B( 15-C , 16-C ) :   1.3701
B( 15-C , 25-C ) :   1.3452 B( 16-C , 17-C ) :   0.9144 B( 16-C , 22-C ) :   1.3868
B( 17-C , 18-C ) :   1.0378 B( 17-C , 20-C ) :   1.0378 B( 18-C , 19-C ) :   1.1034
B( 18-C , 82-H ) :   0.9390 B( 18-C , 83-H ) :   0.9387 B( 19-C , 84-H ) :   0.9640
B( 19-C , 85-H ) :   0.9636 B( 19-C , 86-H ) :   0.9639 B( 20-C , 21-C ) :   1.1019
B( 20-C , 87-H ) :   0.9389 B( 20-C , 88-H ) :   0.9385 B( 21-C , 89-H ) :   0.9643
B( 21-C , 90-H ) :   0.9638 B( 21-C , 91-H ) :   0.9645 B( 22-C , 23-C ) :   1.3290
B( 22-C , 92-H ) :   1.0031 B( 23-C , 24-C ) :   1.3957 B( 23-C , 26-C ) :   0.9400
B( 24-C , 25-C ) :   1.3639 B( 24-C , 93-H ) :   0.9859 B( 25-C , 94-H ) :   0.9933
B( 26-C , 27-C ) :   1.5912 B( 26-C , 43-C ) :   1.1461 B( 27-C , 28-C ) :   1.1233
B( 27-C , 95-H ) :   0.9926 B( 28-C , 29-C ) :   1.5098 B( 28-C , 41-C ) :   1.1177
B( 29-C , 30-C ) :   1.0297 B( 29-C , 35-C ) :   1.0830 B( 30-C , 31-C ) :   1.0335
B( 30-C , 33-C ) :   1.0484 B( 30-C , 96-H ) :   0.8772 B( 31-C , 32-N ) :   1.1073
B( 31-C , 97-H ) :   0.9243 B( 31-C , 98-H ) :   0.9447 B( 32-N , 99-H ) :   0.9417
B( 32-N ,100-H ) :   0.9671 B( 33-C , 34-N ) :   1.0765 B( 33-C ,101-H ) :   0.9471
B( 33-C ,102-H ) :   0.9306 B( 34-N , 99-H ) :   0.1039 B( 34-N ,103-H ) :   0.9628
B( 34-N ,104-H ) :   0.9677 B( 35-C , 36-C ) :   1.6373 B( 35-C , 40-C ) :   1.0466
B( 36-C , 37-C ) :   0.9742 B( 36-C ,105-H ) :   0.9713 B( 37-C , 38-C ) :   0.9878
B( 37-C , 44-C ) :   0.9537 B( 37-C ,106-H ) :   0.8731 B( 38-C , 39-C ) :   1.7047
B( 38-C ,107-H ) :   0.9756 B( 39-C , 40-C ) :   1.1326 B( 39-C ,108-H ) :   0.9891
B( 40-C , 41-C ) :   1.4395 B( 41-C , 42-C ) :   1.1414 B( 42-C , 43-C ) :   1.6000
B( 42-C ,109-H ) :   0.9921 B( 43-C ,110-H ) :   0.9825 B( 44-C , 45-C ) :   1.8195
B( 44-C ,111-H ) :   0.9610 B( 45-C , 46-C ) :   1.0354 B( 45-C ,112-H ) :   0.9780
B( 46-C , 47-C ) :   1.2925 B( 46-C , 51-C ) :   1.3657 B( 47-C , 48-C ) :   1.3805
B( 47-C ,113-H ) :   1.0055 B( 48-C , 49-C ) :   1.3870 B( 48-C , 54-C ) :   0.9189
B( 49-C , 50-C ) :   1.3340 B( 49-C , 52-C ) :   0.9918 B( 50-C , 51-C ) :   1.3860
B( 50-C ,114-H ) :   0.9906 B( 51-C ,115-H ) :   0.9860 B( 52-C , 53-C ) :   1.3806
B( 52-C , 62-C ) :   1.3358 B( 53-C , 54-C ) :   0.9240 B( 53-C , 59-C ) :   1.3685
B( 54-C , 55-C ) :   1.0157 B( 54-C , 57-C ) :   1.0331 B( 55-C , 56-C ) :   1.1135
B( 55-C ,116-H ) :   0.9367 B( 55-C ,117-H ) :   0.9379 B( 56-C ,118-H ) :   0.9627
B( 56-C ,119-H ) :   0.9598 B( 56-C ,120-H ) :   0.9604 B( 57-C , 58-C ) :   1.1059
B( 57-C ,121-H ) :   0.9389 B( 57-C ,122-H ) :   0.9377 B( 58-C ,123-H ) :   0.9631
B( 58-C ,124-H ) :   0.9643 B( 58-C ,125-H ) :   0.9645 B( 59-C , 60-C ) :   1.3312
B( 59-C ,126-H ) :   1.0008 B( 60-C , 61-C ) :   1.3302 B( 60-C , 63-C ) :   1.0655
B( 61-C , 62-C ) :   1.3964 B( 61-C ,127-H ) :   0.9800 B( 62-C ,128-H ) :   0.9914
B( 63-C , 64-S ) :   1.1298 B( 63-C , 65-C ) :   0.1066 B( 63-C , 67-C ) :   1.5320
B( 64-S , 65-C ) :   1.1012 B( 65-C , 66-C ) :   1.5113 B( 65-C ,129-H ) :   0.9794
B( 66-C , 67-C ) :   1.1898 B( 66-C , 70-O ) :   1.1223 B( 67-C , 68-O ) :   1.1402
B( 68-O , 69-C ) :   0.9421 B( 69-C ,130-H ) :   0.9784 B( 69-C ,131-H ) :   0.9726
B( 69-C ,132-H ) :   0.9724 B( 70-O , 71-C ) :   0.9654 B( 71-C ,133-H ) :   0.9804
B( 71-C ,134-H ) :   0.9679 B( 71-C ,135-H ) :   0.9678

-----------------------------------------------------------------------------
         ABSORPTION SPECTRUM VIA TRANSITION ELECTRIC DIPOLE MOMENTS
-----------------------------------------------------------------------------
State   Energy  Wavelength   fosc         T2         TX        TY        TZ
        (cm-1)    (nm)                  (au**2)     (au)      (au)      (au)
-----------------------------------------------------------------------------
   0   15115.1    661.6   0.054028566   1.17676   0.56923  -0.21982  -0.89689
   1   26733.1    374.1   0.410500409   5.05523  -1.19363  -1.89364  -0.21117
   2   28042.4    356.6   0.045822493   0.53795   0.10202   0.70710  -0.16599
   3   28540.6    350.4   1.238467245  14.28556   1.11736   3.56558   0.56896
   4   29569.3    338.2   0.047681726   0.53087  -0.49718  -0.53064   0.04582
   5   30570.4    327.1   0.475547374   5.12116  -0.94989  -2.00287  -0.45540
   6   32499.5    307.7   1.370957286  13.88744  -1.03985  -3.51587   0.66694
   7   33833.6    295.6   0.054360255   0.52894   0.69264   0.12088   0.18595
   8   34894.8    286.6   0.783183494   7.38888  -0.84129  -2.58390  -0.06765
   9   35637.9    280.6   0.002118814   0.01957   0.05617  -0.12732  -0.01444
  10   36527.8    273.8   0.018509837   0.16682   0.22529   0.26929  -0.20868
  11   37066.6    269.8   0.012497879   0.11100   0.13816   0.30025   0.04198
  12   37546.6    266.3   0.158836700   1.39270  -0.49058  -0.98292  -0.43115
  13   37940.1    263.6   0.152920546   1.32692   0.61852   0.72828   0.64340
  14   38659.0    258.7   0.024046800   0.20478  -0.22061  -0.36586   0.14919
  15   38943.6    256.8   0.024692051   0.20874  -0.01914   0.20821  -0.40622
  16   39912.2    250.5   0.030099801   0.24828  -0.16385  -0.32230  -0.34286

FINAL SINGLE POINT ENERGY     -3680.130346122952

DIPOLE MOMENT
-------------
                                X             Y             Z
Electronic contribution:     25.39224      -2.27079      26.28904
Nuclear contribution   :    -25.81644       1.02241     -26.60422
                        -----------------------------------------
Total Dipole Moment    :     -0.42420      -1.24839      -0.31518
                        -----------------------------------------
Magnitude (a.u.)       :      1.35564
Magnitude (Debye)      :      3.44576

Rotational constants in cm-1:     0.003772     0.000149     0.000148
Rotational constants in MHz :   113.093921     4.476524     4.436977

                             ****ORCA TERMINATED NORMALLY****
TOTAL RUN TIME: 0 days 0 hours 12 minutes 55 seconds 671 msec
