                         Program Version 4.2.0 -  RELEASE  -
|  1> # ORCA input file
|  2> # SCF done       -207.548382063372          0.000744335853
|  3> ! CAM-B3LYP def2-SVP def2/J RIJCOSX Grid4 TightSCF
|  4> %maxcore 5000
|  5> %tddft
|  6>     Mode sTDDFT
|  7>     Ethresh 5.0
|  8>     maxcore 5000
|  9> end
| 10>
| 11> %pal
| 12>   nprocs 6
| 13>   end
| 14> * xyz 0 1
| 15>    C       -5.45620         3.03361        -6.02501
| 16>    C       -5.00326         3.25359        -7.31746
| 17>    C       -5.11362         2.27268        -8.29355
| 18>    C       -5.68938         1.04329        -8.00814
| 19>    C       -6.14763         0.81348        -6.72193
| 20>    C       -6.02671         1.80676        -5.72214
| 21>    C       -6.56274         1.28718        -4.47077
| 22>    C       -6.75231         1.99039        -3.31447
| 23>    C       -6.43759         3.35996        -3.16531
| 24>    N       -6.20720         4.46807        -2.97938
| 25>    C       -7.32373         1.47750        -2.12793
| 26>    N       -7.77958         1.13807        -1.13174
| 27>    C       -6.84650        -0.12920        -4.69692
| 28>    C       -6.81201        -0.34282        -6.14182
| 29>    C       -7.51207        -1.29618        -6.82543
| 30>    C       -8.37737        -2.22458        -6.20500
| 31>    N       -9.12464        -2.95086        -5.72550
| 32>    C       -7.53760        -1.38547        -8.23459
| 33>    N       -7.59149        -1.49204        -9.37485
| 34>    C       -6.97348        -1.07276        -3.71573
| 35>    C       -6.79694        -2.46301        -3.87347
| 36>    C       -7.06722        -3.48519        -2.98458
| 37>    C       -6.65148        -4.70143        -3.58171
| 38>    C       -6.07958        -4.37677        -4.87794
| 39>    O       -5.57624        -5.03643        -5.73565
| 40>    O       -6.19923        -2.98836        -4.98602
| 41>    C       -6.93285        -5.72807        -2.69541
| 42>    O       -7.50758        -5.20367        -1.57447
| 43>    C       -7.62738        -3.81906        -1.67728
| 44>    O       -8.09292        -3.15202        -0.80561
| 45>    C       -6.67398        -7.10406        -2.82143
| 46>    C       -6.94775        -7.98970        -1.81847
| 47>    C       -6.67474        -9.38087        -1.80227
| 48>    C       -6.10729       -10.14116        -2.86608
| 49>    C       -5.82490       -11.54607        -2.72762
| 50>    N       -5.39145       -12.25069        -3.78130
| 51>    C       -5.14618       -11.64030        -4.91019
| 52>    C       -5.32386       -10.22154        -5.02172
| 53>    N       -5.81806        -9.53120        -4.02512
| 54>    C       -4.98608        -9.56171        -6.23211
| 55>    N       -4.69456        -9.07821        -7.22767
| 56>    C       -4.71796       -12.39533        -6.03354
| 57>    N       -4.36715       -12.96420        -6.96251
| 58>    C       -6.04842       -12.24062        -1.50961
| 59>    C       -6.59093       -11.49068        -0.44929
| 60>    C       -6.92727       -10.09668        -0.60765
| 61>    N       -7.41971        -9.58576         0.52341
| 62>    S       -7.43307       -10.72190         1.65205
| 63>    N       -6.80538       -11.91344         0.79576
| 64>    C       -5.75088       -13.61995        -1.35033
| 65>    C       -6.28966       -14.55500        -0.48362
| 66>    C       -5.61749       -15.78120        -0.73591
| 67>    C       -4.65012       -15.54654        -1.79372
| 68>    O       -3.85599       -16.26606        -2.32689
| 69>    O       -4.79987       -14.20635        -2.12501
| 70>    C       -6.17886       -16.75219         0.06783
| 71>    O       -7.17712       -16.20129         0.80692
| 72>    C       -7.32982       -14.84642         0.49944
| 73>    O       -8.19736       -14.18930         0.99090
| 74>    C       -5.84586       -18.12007         0.12931
| 75>    C       -6.49864       -19.03282         0.89702
| 76>    C       -6.15863       -20.41009         0.97981
| 77>    C       -5.55165       -21.18779         0.03947
| 78>    C       -4.87832       -22.45706         0.33077
| 79>    C       -5.06508       -23.25980         1.42051
| 80>    C       -5.99761       -23.03317         2.45730
| 81>    N       -6.73271       -22.91929         3.33109
| 82>    C       -4.37217       -24.47330         1.63234
| 83>    N       -3.84874       -25.46696         1.86496
| 84>    C       -3.96852       -22.70914        -0.77715
| 85>    C       -4.21838       -21.76314        -1.79803
| 86>    C       -3.46627       -21.76020        -2.96135
| 87>    C       -2.47048       -22.71458        -3.10462
| 88>    C       -2.23215       -23.65376        -2.10996
| 89>    C       -2.97344       -23.66145        -0.93795
| 90>    C       -5.32283       -20.91407        -1.38165
| 91>    C       -6.14063       -20.21373        -2.22171
| 92>    C       -5.94071       -20.13397        -3.61880
| 93>    N       -5.83553       -20.04546        -4.75692
| 94>    C       -7.33193       -19.56665        -1.82905
| 95>    N       -8.32800       -19.05460        -1.58124
| 96>    H       -5.35466         3.80446        -5.27902
| 97>    H       -4.55319         4.20300        -7.56343
| 98>    H       -4.74512         2.46595        -9.28914
| 99>    H       -5.76174         0.28428        -8.77007
|100>    H       -7.14244        -0.76346        -2.69328
|101>    H       -6.22229        -7.42040        -3.74946
|102>    H       -7.39503        -7.61120        -0.90729
|103>    H       -5.00427       -18.40020        -0.48985
|104>    H       -7.27515       -18.67883         1.56203
|105>    H       -6.36352       -20.86544         1.94050
|106>    H       -3.63348       -21.02645        -3.73295
|107>    H       -1.87140       -22.72297        -4.00195
|108>    H       -1.45265       -24.38762        -2.24510
|109>    H       -2.76590       -24.39060        -0.17223
|110> *
|111>
|112>                          ****END OF INPUT****

CARTESIAN COORDINATES (ANGSTROEM)
---------------------------------
  C     -5.456200    3.033610   -6.025010
  C     -5.003260    3.253590   -7.317460
  C     -5.113620    2.272680   -8.293550
  C     -5.689380    1.043290   -8.008140
  C     -6.147630    0.813480   -6.721930
  C     -6.026710    1.806760   -5.722140
  C     -6.562740    1.287180   -4.470770
  C     -6.752310    1.990390   -3.314470
  C     -6.437590    3.359960   -3.165310
  N     -6.207200    4.468070   -2.979380
  C     -7.323730    1.477500   -2.127930
  N     -7.779580    1.138070   -1.131740
  C     -6.846500   -0.129200   -4.696920
  C     -6.812010   -0.342820   -6.141820
  C     -7.512070   -1.296180   -6.825430
  C     -8.377370   -2.224580   -6.205000
  N     -9.124640   -2.950860   -5.725500
  C     -7.537600   -1.385470   -8.234590
  N     -7.591490   -1.492040   -9.374850
  C     -6.973480   -1.072760   -3.715730
  C     -6.796940   -2.463010   -3.873470
  C     -7.067220   -3.485190   -2.984580
  C     -6.651480   -4.701430   -3.581710
  C     -6.079580   -4.376770   -4.877940
  O     -5.576240   -5.036430   -5.735650
  O     -6.199230   -2.988360   -4.986020
  C     -6.932850   -5.728070   -2.695410
  O     -7.507580   -5.203670   -1.574470
  C     -7.627380   -3.819060   -1.677280
  O     -8.092920   -3.152020   -0.805610
  C     -6.673980   -7.104060   -2.821430
  C     -6.947750   -7.989700   -1.818470
  C     -6.674740   -9.380870   -1.802270
  C     -6.107290  -10.141160   -2.866080
  C     -5.824900  -11.546070   -2.727620
  N     -5.391450  -12.250690   -3.781300
  C     -5.146180  -11.640300   -4.910190
  C     -5.323860  -10.221540   -5.021720
  N     -5.818060   -9.531200   -4.025120
  C     -4.986080   -9.561710   -6.232110
  N     -4.694560   -9.078210   -7.227670
  C     -4.717960  -12.395330   -6.033540
  N     -4.367150  -12.964200   -6.962510
  C     -6.048420  -12.240620   -1.509610
  C     -6.590930  -11.490680   -0.449290
  C     -6.927270  -10.096680   -0.607650
  N     -7.419710   -9.585760    0.523410
  S     -7.433070  -10.721900    1.652050
  N     -6.805380  -11.913440    0.795760
  C     -5.750880  -13.619950   -1.350330
  C     -6.289660  -14.555000   -0.483620
  C     -5.617490  -15.781200   -0.735910
  C     -4.650120  -15.546540   -1.793720
  O     -3.855990  -16.266060   -2.326890
  O     -4.799870  -14.206350   -2.125010
  C     -6.178860  -16.752190    0.067830
  O     -7.177120  -16.201290    0.806920
  C     -7.329820  -14.846420    0.499440
  O     -8.197360  -14.189300    0.990900
  C     -5.845860  -18.120070    0.129310
  C     -6.498640  -19.032820    0.897020
  C     -6.158630  -20.410090    0.979810
  C     -5.551650  -21.187790    0.039470
  C     -4.878320  -22.457060    0.330770
  C     -5.065080  -23.259800    1.420510
  C     -5.997610  -23.033170    2.457300
  N     -6.732710  -22.919290    3.331090
  C     -4.372170  -24.473300    1.632340
  N     -3.848740  -25.466960    1.864960
  C     -3.968520  -22.709140   -0.777150
  C     -4.218380  -21.763140   -1.798030
  C     -3.466270  -21.760200   -2.961350
  C     -2.470480  -22.714580   -3.104620
  C     -2.232150  -23.653760   -2.109960
  C     -2.973440  -23.661450   -0.937950
  C     -5.322830  -20.914070   -1.381650
  C     -6.140630  -20.213730   -2.221710
  C     -5.940710  -20.133970   -3.618800
  N     -5.835530  -20.045460   -4.756920
  C     -7.331930  -19.566650   -1.829050
  N     -8.328000  -19.054600   -1.581240
  H     -5.354660    3.804460   -5.279020
  H     -4.553190    4.203000   -7.563430
  H     -4.745120    2.465950   -9.289140
  H     -5.761740    0.284280   -8.770070
  H     -7.142440   -0.763460   -2.693280
  H     -6.222290   -7.420400   -3.749460
  H     -7.395030   -7.611200   -0.907290
  H     -5.004270  -18.400200   -0.489850
  H     -7.275150  -18.678830    1.562030
  H     -6.363520  -20.865440    1.940500
  H     -3.633480  -21.026450   -3.732950
  H     -1.871400  -22.722970   -4.001950
  H     -1.452650  -24.387620   -2.245100
  H     -2.765900  -24.390600   -0.172230

 Total Charge           Charge          ....    0
 Multiplicity           Mult            ....    1
 Number of Electrons    NEL             ....  540
 Basis Dimension        Dim             .... 1208

ORBITAL ENERGIES
----------------

  NO   OCC          E(Eh)            E(eV)
   0   2.0000     -89.069817     -2423.7129
   1   2.0000     -19.310680      -525.4703
   2   2.0000     -19.309797      -525.4463
   3   2.0000     -19.308135      -525.4011
   4   2.0000     -19.307301      -525.3784
   5   2.0000     -19.243917      -523.6536
   6   2.0000     -19.237979      -523.4920
   7   2.0000     -19.237642      -523.4828
   8   2.0000     -19.236022      -523.4388
   9   2.0000     -14.484194      -394.1350
  10   2.0000     -14.479408      -394.0047
  11   2.0000     -14.475183      -393.8898
  12   2.0000     -14.472812      -393.8252
  13   2.0000     -14.444206      -393.0468
  14   2.0000     -14.442266      -392.9940
  15   2.0000     -14.438044      -392.8792
  16   2.0000     -14.438024      -392.8786
  17   2.0000     -14.435265      -392.8035
  18   2.0000     -14.434907      -392.7938
  19   2.0000     -14.434339      -392.7783
  20   2.0000     -14.433850      -392.7650
  21   2.0000     -14.431624      -392.7044
  22   2.0000     -14.431545      -392.7023
  23   2.0000     -10.442221      -284.1473
  24   2.0000     -10.438442      -284.0445
  25   2.0000     -10.437231      -284.0115
  26   2.0000     -10.436110      -283.9810
  27   2.0000     -10.404765      -283.1280
  28   2.0000     -10.403845      -283.1030
  29   2.0000     -10.402280      -283.0604
  30   2.0000     -10.400039      -282.9994
  31   2.0000     -10.398905      -282.9686
  32   2.0000     -10.398124      -282.9473
  33   2.0000     -10.379609      -282.4435
  34   2.0000     -10.377701      -282.3916
  35   2.0000     -10.370856      -282.2054
  36   2.0000     -10.369785      -282.1762
  37   2.0000     -10.369494      -282.1683
  38   2.0000     -10.368863      -282.1511
  39   2.0000     -10.368217      -282.1335
  40   2.0000     -10.367303      -282.1087
  41   2.0000     -10.365845      -282.0690
  42   2.0000     -10.365094      -282.0485
  43   2.0000     -10.363286      -281.9993
  44   2.0000     -10.358182      -281.8605
  45   2.0000     -10.350254      -281.6447
  46   2.0000     -10.349223      -281.6167
  47   2.0000     -10.347633      -281.5734
  48   2.0000     -10.346099      -281.5317
  49   2.0000     -10.343099      -281.4500
  50   2.0000     -10.342041      -281.4212
  51   2.0000     -10.339251      -281.3453
  52   2.0000     -10.338446      -281.3234
  53   2.0000     -10.336861      -281.2803
  54   2.0000     -10.335698      -281.2486
  55   2.0000     -10.335360      -281.2395
  56   2.0000     -10.335211      -281.2354
  57   2.0000     -10.335135      -281.2333
  58   2.0000     -10.334412      -281.2136
  59   2.0000     -10.333322      -281.1840
  60   2.0000     -10.332621      -281.1649
  61   2.0000     -10.332117      -281.1512
  62   2.0000     -10.331967      -281.1471
  63   2.0000     -10.329737      -281.0864
  64   2.0000     -10.328509      -281.0530
  65   2.0000     -10.328094      -281.0417
  66   2.0000     -10.325271      -280.9649
  67   2.0000     -10.324740      -280.9504
  68   2.0000     -10.324170      -280.9350
  69   2.0000     -10.321563      -280.8640
  70   2.0000     -10.321442      -280.8607
  71   2.0000     -10.317429      -280.7515
  72   2.0000     -10.316659      -280.7306
  73   2.0000     -10.314837      -280.6810
  74   2.0000     -10.314405      -280.6692
  75   2.0000     -10.312931      -280.6291
  76   2.0000     -10.312433      -280.6156
  77   2.0000     -10.311376      -280.5868
  78   2.0000     -10.310436      -280.5612
  79   2.0000     -10.309494      -280.5356
  80   2.0000     -10.308415      -280.5062
  81   2.0000      -8.160671      -222.0632
  82   2.0000      -6.131578      -166.8487
  83   2.0000      -6.123946      -166.6411
  84   2.0000      -6.123690      -166.6341
  85   2.0000      -1.245398       -33.8890
  86   2.0000      -1.244763       -33.8717
  87   2.0000      -1.237397       -33.6713
  88   2.0000      -1.235911       -33.6308
  89   2.0000      -1.167237       -31.7621
  90   2.0000      -1.153105       -31.3776
  91   2.0000      -1.148604       -31.2551
  92   2.0000      -1.147319       -31.2201
  93   2.0000      -1.146540       -31.1990
  94   2.0000      -1.143282       -31.1103
  95   2.0000      -1.069043       -29.0901
  96   2.0000      -1.053456       -28.6660
  97   2.0000      -1.049871       -28.5684
  98   2.0000      -1.033769       -28.1303
  99   2.0000      -1.030008       -28.0279
 100   2.0000      -1.029339       -28.0097
 101   2.0000      -1.023296       -27.8453
 102   2.0000      -1.021625       -27.7998
 103   2.0000      -1.019332       -27.7374
 104   2.0000      -1.016505       -27.6605
 105   2.0000      -1.014508       -27.6062
 106   2.0000      -1.013935       -27.5906
 107   2.0000      -1.012155       -27.5421
 108   2.0000      -1.009843       -27.4792
 109   2.0000      -1.004375       -27.3304
 110   2.0000      -0.978332       -26.6218
 111   2.0000      -0.973002       -26.4767
 112   2.0000      -0.963887       -26.2287
 113   2.0000      -0.962963       -26.2036
 114   2.0000      -0.957806       -26.0632
 115   2.0000      -0.953718       -25.9520
 116   2.0000      -0.952585       -25.9212
 117   2.0000      -0.949068       -25.8254
 118   2.0000      -0.930706       -25.3258
 119   2.0000      -0.928429       -25.2638
 120   2.0000      -0.917274       -24.9603
 121   2.0000      -0.912315       -24.8254
 122   2.0000      -0.906027       -24.6542
 123   2.0000      -0.900164       -24.4947
 124   2.0000      -0.880590       -23.9621
 125   2.0000      -0.876806       -23.8591
 126   2.0000      -0.872019       -23.7289
 127   2.0000      -0.853088       -23.2137
 128   2.0000      -0.852400       -23.1950
 129   2.0000      -0.840275       -22.8650
 130   2.0000      -0.833884       -22.6911
 131   2.0000      -0.809364       -22.0239
 132   2.0000      -0.807862       -21.9830
 133   2.0000      -0.803789       -21.8722
 134   2.0000      -0.795056       -21.6346
 135   2.0000      -0.787594       -21.4315
 136   2.0000      -0.778866       -21.1940
 137   2.0000      -0.777940       -21.1688
 138   2.0000      -0.767017       -20.8716
 139   2.0000      -0.748307       -20.3625
 140   2.0000      -0.744474       -20.2582
 141   2.0000      -0.741280       -20.1713
 142   2.0000      -0.738589       -20.0980
 143   2.0000      -0.731120       -19.8948
 144   2.0000      -0.729696       -19.8560
 145   2.0000      -0.729135       -19.8408
 146   2.0000      -0.724764       -19.7218
 147   2.0000      -0.721242       -19.6260
 148   2.0000      -0.717286       -19.5183
 149   2.0000      -0.712375       -19.3847
 150   2.0000      -0.697545       -18.9812
 151   2.0000      -0.691038       -18.8041
 152   2.0000      -0.682428       -18.5698
 153   2.0000      -0.681070       -18.5329
 154   2.0000      -0.678681       -18.4678
 155   2.0000      -0.678021       -18.4499
 156   2.0000      -0.676402       -18.4058
 157   2.0000      -0.659434       -17.9441
 158   2.0000      -0.651266       -17.7218
 159   2.0000      -0.648922       -17.6581
 160   2.0000      -0.638383       -17.3713
 161   2.0000      -0.633412       -17.2360
 162   2.0000      -0.629606       -17.1325
 163   2.0000      -0.624932       -17.0053
 164   2.0000      -0.618668       -16.8348
 165   2.0000      -0.616174       -16.7669
 166   2.0000      -0.614318       -16.7165
 167   2.0000      -0.612681       -16.6719
 168   2.0000      -0.603084       -16.4107
 169   2.0000      -0.601571       -16.3696
 170   2.0000      -0.600004       -16.3269
 171   2.0000      -0.598647       -16.2900
 172   2.0000      -0.596672       -16.2363
 173   2.0000      -0.590197       -16.0601
 174   2.0000      -0.583918       -15.8892
 175   2.0000      -0.580021       -15.7832
 176   2.0000      -0.579866       -15.7790
 177   2.0000      -0.579665       -15.7735
 178   2.0000      -0.575327       -15.6554
 179   2.0000      -0.564156       -15.3515
 180   2.0000      -0.560853       -15.2616
 181   2.0000      -0.559100       -15.2139
 182   2.0000      -0.555482       -15.1154
 183   2.0000      -0.554760       -15.0958
 184   2.0000      -0.553519       -15.0620
 185   2.0000      -0.550404       -14.9773
 186   2.0000      -0.550181       -14.9712
 187   2.0000      -0.548078       -14.9140
 188   2.0000      -0.547078       -14.8868
 189   2.0000      -0.542871       -14.7723
 190   2.0000      -0.538670       -14.6580
 191   2.0000      -0.536867       -14.6089
 192   2.0000      -0.534369       -14.5409
 193   2.0000      -0.528074       -14.3696
 194   2.0000      -0.525433       -14.2978
 195   2.0000      -0.524910       -14.2835
 196   2.0000      -0.524692       -14.2776
 197   2.0000      -0.516792       -14.0626
 198   2.0000      -0.511480       -13.9181
 199   2.0000      -0.508835       -13.8461
 200   2.0000      -0.507110       -13.7992
 201   2.0000      -0.505941       -13.7674
 202   2.0000      -0.503781       -13.7086
 203   2.0000      -0.500899       -13.6301
 204   2.0000      -0.499156       -13.5827
 205   2.0000      -0.497085       -13.5264
 206   2.0000      -0.495407       -13.4807
 207   2.0000      -0.491715       -13.3802
 208   2.0000      -0.490177       -13.3384
 209   2.0000      -0.484133       -13.1739
 210   2.0000      -0.481115       -13.0918
 211   2.0000      -0.479853       -13.0575
 212   2.0000      -0.479039       -13.0353
 213   2.0000      -0.474484       -12.9114
 214   2.0000      -0.472598       -12.8600
 215   2.0000      -0.471983       -12.8433
 216   2.0000      -0.469324       -12.7710
 217   2.0000      -0.467929       -12.7330
 218   2.0000      -0.467299       -12.7159
 219   2.0000      -0.466666       -12.6986
 220   2.0000      -0.464654       -12.6439
 221   2.0000      -0.464384       -12.6365
 222   2.0000      -0.463469       -12.6116
 223   2.0000      -0.463239       -12.6054
 224   2.0000      -0.460828       -12.5398
 225   2.0000      -0.459751       -12.5105
 226   2.0000      -0.459313       -12.4985
 227   2.0000      -0.457601       -12.4520
 228   2.0000      -0.457129       -12.4391
 229   2.0000      -0.456289       -12.4162
 230   2.0000      -0.450540       -12.2598
 231   2.0000      -0.449610       -12.2345
 232   2.0000      -0.449196       -12.2233
 233   2.0000      -0.446990       -12.1632
 234   2.0000      -0.445267       -12.1163
 235   2.0000      -0.444071       -12.0838
 236   2.0000      -0.442379       -12.0378
 237   2.0000      -0.441612       -12.0169
 238   2.0000      -0.441200       -12.0057
 239   2.0000      -0.439842       -11.9687
 240   2.0000      -0.437842       -11.9143
 241   2.0000      -0.433338       -11.7917
 242   2.0000      -0.431938       -11.7536
 243   2.0000      -0.430084       -11.7032
 244   2.0000      -0.426847       -11.6151
 245   2.0000      -0.426771       -11.6130
 246   2.0000      -0.425717       -11.5844
 247   2.0000      -0.424223       -11.5437
 248   2.0000      -0.417406       -11.3582
 249   2.0000      -0.416007       -11.3201
 250   2.0000      -0.407692       -11.0939
 251   2.0000      -0.402410       -10.9501
 252   2.0000      -0.400269       -10.8919
 253   2.0000      -0.399843       -10.8803
 254   2.0000      -0.399743       -10.8776
 255   2.0000      -0.395613       -10.7652
 256   2.0000      -0.391369       -10.6497
 257   2.0000      -0.380114       -10.3434
 258   2.0000      -0.377865       -10.2822
 259   2.0000      -0.375644       -10.2218
 260   2.0000      -0.372630       -10.1398
 261   2.0000      -0.369572       -10.0566
 262   2.0000      -0.360658        -9.8140
 263   2.0000      -0.348941        -9.4952
 264   2.0000      -0.344863        -9.3842
 265   2.0000      -0.341499        -9.2927
 266   2.0000      -0.325963        -8.8699
 267   2.0000      -0.321822        -8.7572
 268   2.0000      -0.297800        -8.1035
 269   2.0000      -0.272452        -7.4138
 270   0.0000      -0.166782        -4.5384
 271   0.0000      -0.130963        -3.5637
 272   0.0000      -0.122099        -3.3225
 273   0.0000      -0.101836        -2.7711
 274   0.0000      -0.097279        -2.6471

MULLIKEN ATOMIC CHARGES
-----------------------
   0 C :   -0.036862
   1 C :    0.049162
   2 C :    0.051960
   3 C :   -0.031601
   4 C :    0.015564
   5 C :    0.018655
   6 C :    0.281088
   7 C :   -0.328976
   8 C :   -0.188208
   9 N :    0.172977
  10 C :   -0.191249
  11 N :    0.187224
  12 C :   -0.027434
  13 C :    0.223219
  14 C :   -0.278892
  15 C :   -0.186027
  16 N :    0.170266
  17 C :   -0.184004
  18 N :    0.175230
  19 C :    0.013319
  20 C :    0.060707
  21 C :   -0.006145
  22 C :   -0.036556
  23 C :    0.240090
  24 O :   -0.099665
  25 O :   -0.266280
  26 C :    0.133865
  27 O :   -0.248537
  28 C :    0.247068
  29 O :   -0.088240
  30 C :   -0.013030
  31 C :   -0.064329
  32 C :    0.124116
  33 C :   -0.051447
  34 C :   -0.028769
  35 N :    0.091178
  36 C :   -0.149061
  37 C :   -0.102640
  38 N :    0.037855
  39 C :   -0.210658
  40 N :    0.256798
  41 C :   -0.192361
  42 N :    0.253281
  43 C :    0.114580
  44 C :    0.002205
  45 C :    0.005516
  46 N :   -0.273730
  47 S :    0.590188
  48 N :   -0.247452
  49 C :    0.001299
  50 C :   -0.042482
  51 C :   -0.066383
  52 C :    0.242892
  53 O :   -0.119695
  54 O :   -0.215258
  55 C :    0.120072
  56 O :   -0.241732
  57 C :    0.239719
  58 O :   -0.106951
  59 C :   -0.024033
  60 C :    0.025978
  61 C :    0.042208
  62 C :   -0.042213
  63 C :    0.283473
  64 C :   -0.329212
  65 C :   -0.184715
  66 N :    0.171333
  67 C :   -0.190172
  68 N :    0.171962
  69 C :    0.019371
  70 C :    0.003692
  71 C :   -0.023489
  72 C :    0.049054
  73 C :    0.047054
  74 C :   -0.032088
  75 C :    0.207659
  76 C :   -0.311076
  77 C :   -0.185029
  78 N :    0.181570
  79 C :   -0.191169
  80 N :    0.189666
  81 H :    0.009486
  82 H :    0.007602
  83 H :    0.009500
  84 H :    0.014255
  85 H :    0.036019
  86 H :    0.044097
  87 H :    0.033961
  88 H :    0.040223
  89 H :    0.044372
  90 H :    0.034573
  91 H :    0.017015
  92 H :    0.012320
  93 H :    0.010875
  94 H :    0.010438
Sum of atomic charges:   -0.0000000

LOEWDIN ATOMIC CHARGES
----------------------
   0 C :    0.006594
   1 C :    0.004345
   2 C :    0.010238
   3 C :    0.004611
   4 C :   -0.007331
   5 C :   -0.014940
   6 C :    0.071567
   7 C :   -0.114220
   8 C :   -0.018106
   9 N :   -0.032734
  10 C :   -0.027148
  11 N :   -0.021301
  12 C :   -0.006814
  13 C :    0.063093
  14 C :   -0.100895
  15 C :   -0.020256
  16 N :   -0.042087
  17 C :   -0.017806
  18 N :   -0.027546
  19 C :    0.021775
  20 C :    0.084851
  21 C :   -0.076947
  22 C :   -0.108068
  23 C :    0.107634
  24 O :   -0.109008
  25 O :   -0.047925
  26 C :    0.115342
  27 O :   -0.047337
  28 C :    0.111266
  29 O :   -0.093983
  30 C :   -0.012241
  31 C :    0.032279
  32 C :   -0.010191
  33 C :    0.001177
  34 C :    0.008700
  35 N :    0.012873
  36 C :   -0.015695
  37 C :   -0.011186
  38 N :    0.004087
  39 C :   -0.040673
  40 N :    0.018852
  41 C :   -0.035419
  42 N :    0.013423
  43 C :   -0.039568
  44 C :   -0.037614
  45 C :   -0.037685
  46 N :   -0.278634
  47 S :    0.724383
  48 N :   -0.259245
  49 C :    0.109107
  50 C :   -0.101646
  51 C :   -0.110594
  52 C :    0.103411
  53 O :   -0.123575
  54 O :   -0.026707
  55 C :    0.106626
  56 O :   -0.042808
  57 C :    0.111499
  58 O :   -0.109191
  59 C :   -0.008177
  60 C :    0.022318
  61 C :    0.043284
  62 C :   -0.023386
  63 C :    0.075123
  64 C :   -0.119778
  65 C :   -0.023850
  66 N :   -0.031957
  67 C :   -0.019151
  68 N :   -0.033867
  69 C :   -0.013598
  70 C :   -0.010345
  71 C :    0.007422
  72 C :    0.010721
  73 C :    0.007100
  74 C :    0.006965
  75 C :    0.060702
  76 C :   -0.115522
  77 C :   -0.021188
  78 N :   -0.026647
  79 C :   -0.020350
  80 N :   -0.027949
  81 H :    0.042312
  82 H :    0.039297
  83 H :    0.039865
  84 H :    0.043458
  85 H :    0.060631
  86 H :    0.046254
  87 H :    0.047688
  88 H :    0.048448
  89 H :    0.051955
  90 H :    0.053001
  91 H :    0.044567
  92 H :    0.040930
  93 H :    0.040281
  94 H :    0.042834

  Mayer bond orders larger than 0.100000
B(  0-C ,  1-C ) :   1.3734 B(  0-C ,  5-C ) :   1.3802 B(  0-C , 81-H ) :   0.9850
B(  1-C ,  2-C ) :   1.3760 B(  1-C , 82-H ) :   0.9855 B(  2-C ,  3-C ) :   1.3662
B(  2-C , 83-H ) :   0.9861 B(  3-C ,  4-C ) :   1.3843 B(  3-C , 84-H ) :   0.9872
B(  4-C ,  5-C ) :   1.3049 B(  4-C , 13-C ) :   1.0090 B(  5-C ,  6-C ) :   1.0077
B(  6-C ,  7-C ) :   1.6610 B(  6-C , 12-C ) :   1.0361 B(  7-C ,  8-C ) :   1.1481
B(  7-C , 10-C ) :   1.1321 B(  8-C ,  9-N ) :   2.9806 B( 10-C , 11-N ) :   2.9839
B( 12-C , 13-C ) :   1.0105 B( 12-C , 19-C ) :   1.5882 B( 13-C , 14-C ) :   1.6870
B( 14-C , 15-C ) :   1.1457 B( 14-C , 17-C ) :   1.1446 B( 15-C , 16-N ) :   3.0000
B( 17-C , 18-N ) :   2.9950 B( 19-C , 20-C ) :   1.1882 B( 19-C , 85-H ) :   0.9305
B( 20-C , 21-C ) :   1.4151 B( 20-C , 25-O ) :   1.1149 B( 21-C , 22-C ) :   1.1898
B( 21-C , 28-C ) :   0.9163 B( 22-C , 23-C ) :   0.9420 B( 22-C , 26-C ) :   1.3408
B( 23-C , 24-O ) :   2.2852 B( 23-C , 25-O ) :   0.9823 B( 26-C , 27-O ) :   1.1424
B( 26-C , 30-C ) :   1.2040 B( 27-O , 28-C ) :   1.0023 B( 28-C , 29-O ) :   2.2864
B( 30-C , 31-C ) :   1.5180 B( 30-C , 86-H ) :   0.9449 B( 31-C , 32-C ) :   1.1863
B( 31-C , 87-H ) :   0.9792 B( 32-C , 33-C ) :   1.2058 B( 32-C , 43-C ) :   0.1375
B( 32-C , 45-C ) :   1.1882 B( 33-C , 34-C ) :   1.1288 B( 33-C , 38-N ) :   1.4349
B( 34-C , 35-N ) :   1.4844 B( 34-C , 43-C ) :   1.2290 B( 35-N , 36-C ) :   1.7414
B( 36-C , 37-C ) :   1.2049 B( 36-C , 41-C ) :   1.1535 B( 37-C , 38-N ) :   1.7307
B( 37-C , 39-C ) :   1.1416 B( 39-C , 40-N ) :   3.0422 B( 41-C , 42-N ) :   3.0485
B( 43-C , 44-C ) :   1.2642 B( 43-C , 49-C ) :   1.0743 B( 44-C , 45-C ) :   1.0940
B( 44-C , 48-N ) :   1.5247 B( 45-C , 46-N ) :   1.5210 B( 46-N , 47-S ) :   1.3025
B( 46-N , 48-N ) :   0.1493 B( 47-S , 48-N ) :   1.3027 B( 49-C , 50-C ) :   1.4393
B( 49-C , 54-O ) :   1.1998 B( 50-C , 51-C ) :   1.1628 B( 50-C , 57-C ) :   0.9241
B( 51-C , 52-C ) :   0.9459 B( 51-C , 55-C ) :   1.3702 B( 52-C , 53-O ) :   2.2556
B( 52-C , 54-O ) :   1.0117 B( 55-C , 56-O ) :   1.1623 B( 55-C , 59-C ) :   1.2351
B( 56-O , 57-C ) :   1.0003 B( 57-C , 58-O ) :   2.2592 B( 59-C , 60-C ) :   1.6058
B( 59-C , 88-H ) :   0.9454 B( 60-C , 61-C ) :   1.1235 B( 60-C , 89-H ) :   0.9636
B( 61-C , 62-C ) :   1.6774 B( 61-C , 90-H ) :   0.9208 B( 62-C , 63-C ) :   1.0333
B( 62-C , 75-C ) :   0.9957 B( 63-C , 64-C ) :   1.6609 B( 63-C , 69-C ) :   1.0051
B( 64-C , 65-C ) :   1.1324 B( 64-C , 67-C ) :   1.1447 B( 65-C , 66-N ) :   2.9827
B( 67-C , 68-N ) :   2.9830 B( 69-C , 70-C ) :   1.3076 B( 69-C , 74-C ) :   1.3768
B( 70-C , 71-C ) :   1.3804 B( 70-C , 75-C ) :   1.0074 B( 71-C , 72-C ) :   1.3699
B( 71-C , 91-H ) :   0.9879 B( 72-C , 73-C ) :   1.3726 B( 72-C , 92-H ) :   0.9866
B( 73-C , 74-C ) :   1.3754 B( 73-C , 93-H ) :   0.9866 B( 74-C , 94-H ) :   0.9848
B( 75-C , 76-C ) :   1.6857 B( 76-C , 77-C ) :   1.1346 B( 76-C , 79-C ) :   1.1499
B( 77-C , 78-N ) :   3.0040 B( 79-C , 80-N ) :   2.9961

-----------------------------------------------------------------------------
         ABSORPTION SPECTRUM VIA TRANSITION ELECTRIC DIPOLE MOMENTS
-----------------------------------------------------------------------------
State   Energy  Wavelength   fosc         T2         TX        TY        TZ
        (cm-1)    (nm)                  (au**2)     (au)      (au)      (au)
-----------------------------------------------------------------------------
   0    9372.0   1067.0   1.294647415  45.47707   0.15613  -6.48113   1.85677
   1   14764.6    677.3   0.029886683   0.66639  -0.16407   0.66966  -0.43708
   2   17368.0    575.8   0.019592959   0.37139  -0.17861   0.29031  -0.50518
   3   17945.0    557.3   0.510591844   9.36714  -0.13780  -2.95378   0.78953
   4   21016.8    475.8   0.000968721   0.01517  -0.03254   0.10964   0.04577
   5   21816.9    458.4   0.031718678   0.47863   0.42205   0.51173  -0.19656
   6   22888.3    436.9   0.013213258   0.19005   0.29123  -0.09764  -0.30936
   7   23540.9    424.8   0.007417101   0.10373   0.24869  -0.19132  -0.07263
   8   23619.3    423.4   0.162115068   2.25960  -0.09880   1.04776  -1.07333
   9   23879.5    418.8   0.082373704   1.13564   0.24947   0.86453   0.57095
  10   24659.6    405.5   0.012872152   0.17185   0.21659  -0.30283  -0.18228
  11   25371.9    394.1   0.001652592   0.02144  -0.08234  -0.04619   0.11193
  12   25800.1    387.6   0.017733019   0.22628  -0.16208  -0.28127   0.34770
  13   26370.4    379.2   0.030579180   0.38175  -0.05052  -0.36191  -0.49822
  14   26649.4    375.2   0.084241953   1.04068   0.13229  -0.37890  -0.93788
  15   27388.3    365.1   0.070551058   0.84804  -0.16298   0.81919  -0.38782
  16   27582.4    362.6   0.049810609   0.59452   0.49427  -0.32472  -0.49474
  17   27739.8    360.5   0.091597246   1.08706   0.37998   0.74743  -0.61969
  18   27752.8    360.3   0.038992118   0.46254  -0.10848  -0.52417   0.41954
  19   28435.6    351.7   0.026515952   0.30699   0.12988   0.40050  -0.36016
  20   28827.8    346.9   0.027147544   0.31002   0.18484  -0.00879  -0.52515
  21   28938.6    345.6   0.082628278   0.94000  -0.35947  -0.32341   0.84035
  22   29610.8    337.7   0.197789210   2.19901   0.55182  -0.67600  -1.19897
  23   30299.7    330.0   0.128229323   1.39324   0.60648  -0.24524  -0.98249
  24   31284.9    319.6   0.024114862   0.25376  -0.21371   0.09391   0.44640
  25   31418.7    318.3   0.319555705   3.34838  -0.54571   1.15033  -1.31428
  26   31559.3    316.9   0.302225278   3.15267  -0.24965  -1.25397   1.23203
  27   31744.4    315.0   0.540329726   5.60361  -0.37042  -1.08005  -2.07362
  28   31818.9    314.3   0.011803346   0.12212   0.03818   0.12262  -0.32501
  29   32375.2    308.9   0.002066360   0.02101   0.06395  -0.12581   0.03309
  30   33081.5    302.3   0.039889787   0.39696  -0.19839   0.06863  -0.59405
  31   33213.3    301.1   0.038321610   0.37985   0.05587  -0.53757   0.29621
  32   33436.7    299.1   0.038429791   0.37837   0.58827  -0.13705  -0.11630
  33   33581.8    297.8   0.013355498   0.13093  -0.23602  -0.17705  -0.20946
  34   33779.3    296.0   0.128433599   1.25171   0.54756  -0.97340   0.06622
  35   33827.0    295.6   0.057702488   0.56157   0.16111   0.40485   0.60968
  36   33916.4    294.8   0.093593885   0.90848   0.08032   0.08607  -0.94584
  37   34005.5    294.1   0.016823341   0.16287   0.21750  -0.30662  -0.14678
  38   34143.5    292.9   0.018390886   0.17732  -0.20808   0.35635   0.08391
  39   34312.5    291.4   0.038110334   0.36565  -0.30359   0.37230   0.36726
  40   34593.4    289.1   0.032822220   0.31236   0.25202   0.07020  -0.49388
  41   34755.8    287.7   0.425751070   4.03277  -0.90878  -1.18863   1.33942
  42   35014.1    285.6   0.014088654   0.13247   0.14829  -0.22998  -0.23997
  43   35318.6    283.1   0.020015855   0.18657   0.40511  -0.12244  -0.08639
  44   35550.7    281.3   0.186935525   1.73109   0.82498  -0.88052  -0.52458
  45   35752.6    279.7   0.014472721   0.13327   0.05704  -0.27333  -0.23517
  46   36377.4    274.9   0.021116815   0.19111  -0.39167   0.10252   0.16490
  47   36554.6    273.6   0.002667144   0.02402  -0.11383   0.10310  -0.02081
  48   36702.0    272.5   0.029727431   0.26665   0.21541  -0.45387  -0.11940
  49   36747.6    272.1   0.023472508   0.21028  -0.37828   0.02136   0.25832
  50   37051.2    269.9   0.006898535   0.06130   0.11238  -0.03207  -0.21826
  51   37190.6    268.9   0.125840127   1.11394   0.20095   0.90184   0.51014
  52   37324.8    267.9   0.265736329   2.34384  -0.12478   0.64335   1.38361
  53   37383.6    267.5   0.040365091   0.35547   0.11476   0.51015   0.28644
  54   37664.7    265.5   0.043677647   0.38177   0.49285   0.29628  -0.22603
  55   38195.6    261.8   0.163587309   1.40998   0.01449  -0.63527   1.00310
  56   38315.6    261.0   0.045576798   0.39160   0.08670  -0.01678  -0.61952
  57   38840.5    257.5   0.015882982   0.13462  -0.35117   0.06215  -0.08628
  58   39025.0    256.2   0.021736336   0.18337  -0.21739  -0.00471  -0.36890
  59   39226.1    254.9   0.224765878   1.88639   0.90864  -1.02903  -0.04324
  60   39296.0    254.5   0.088849694   0.74436   0.01809  -0.32833   0.79764
  61   39580.4    252.7   0.309333126   2.57290   1.13164   0.29261  -1.09848
  62   39809.5    251.2   0.105807321   0.87499  -0.29178  -0.77598   0.43326
  63   40043.8    249.7   0.023252765   0.19117   0.22431   0.20492  -0.31442
  64   40078.2    249.5   0.001755171   0.01442   0.04285  -0.11217   0.00017
  65   40253.7    248.4   0.108831893   0.89007  -0.50765   0.79421   0.03993

FINAL SINGLE POINT ENERGY     -3980.222460801341

DIPOLE MOMENT
-------------
                                X             Y             Z
Electronic contribution:    -12.04474       7.30444       9.38986
Nuclear contribution   :     14.72576      -7.39558      -8.29776
                        -----------------------------------------
Total Dipole Moment    :      2.68102      -0.09114       1.09210
                        -----------------------------------------
Magnitude (a.u.)       :      2.89635
Magnitude (Debye)      :      7.36193

Rotational constants in cm-1:     0.002435     0.000202     0.000191
Rotational constants in MHz :    73.011134     6.049035     5.718583

                             ****ORCA TERMINATED NORMALLY****
TOTAL RUN TIME: 0 days 0 hours 10 minutes 50 seconds 331 msec
