                         Program Version 4.2.0 -  RELEASE  -
|  1> # ORCA input file
|  2> # SCF done       -177.636096100235          0.000695813813
|  3> ! CAM-B3LYP def2-SVP def2/J RIJCOSX Grid4 TightSCF
|  4> %maxcore 5000
|  5> %tddft
|  6>     Mode sTDDFT
|  7>     Ethresh 5.0
|  8>     maxcore 5000
|  9> end
| 10>
| 11> %pal
| 12>   nprocs 6
| 13>   end
| 14> * xyz 0 1
| 15>    C       -1.84576        -6.89805         7.16952
| 16>    C       -0.99046        -5.81389         7.04366
| 17>    C       -1.26397        -4.78378         6.15390
| 18>    C       -2.40787        -4.80243         5.37052
| 19>    C       -3.27278        -5.87715         5.49173
| 20>    C       -2.99029        -6.93416         6.38743
| 21>    C       -4.04057        -7.93586         6.28349
| 22>    C       -4.19499        -9.03168         7.08481
| 23>    C       -3.33259        -9.35221         8.15769
| 24>    N       -2.67463        -9.67303         9.04081
| 25>    C       -5.24365        -9.97432         6.99857
| 26>    N       -6.06631       -10.77454         6.99679
| 27>    C       -4.88321        -7.53953         5.15199
| 28>    C       -4.53239        -6.15815         4.82547
| 29>    C       -5.33912        -5.23604         4.22177
| 30>    C       -6.64961        -5.48253         3.76273
| 31>    N       -7.73071        -5.59630         3.39400
| 32>    C       -4.97089        -3.88842         4.01396
| 33>    N       -4.73086        -2.78685         3.80296
| 34>    C       -5.73019        -8.38016         4.49922
| 35>    C       -6.30162        -8.23533         3.20770
| 36>    S       -7.84638        -8.99279         2.89296
| 37>    C       -7.86078        -8.47310         1.16305
| 38>    O       -8.79098        -8.72894         0.43114
| 39>    C       -6.62593        -7.78728         0.90883
| 40>    C       -5.78949        -7.66448         2.05456
| 41>    C       -4.50974        -7.05756         1.79622
| 42>    O       -3.57718        -6.83648         2.52291
| 43>    S       -4.47911        -6.61226         0.03473
| 44>    C       -6.08232        -7.25780        -0.25953
| 45>    C       -6.61403        -7.19856        -1.55945
| 46>    N       -7.86519        -7.66640        -1.88985
| 47>    C       -8.04437        -7.48319        -3.21583
| 48>    C       -8.93544        -7.68125        -4.25832
| 49>    C       -8.29336        -7.19838        -5.41561
| 50>    N       -7.04648        -6.70905        -5.08087
| 51>    C       -6.86223        -6.86922        -3.74811
| 52>    C       -5.96983        -6.68720        -2.71050
| 53>    C       -8.71425        -7.19752        -6.76033
| 54>    C       -9.92518        -7.64907        -7.19931
| 55>    C      -10.33845        -7.71733        -8.54333
| 56>    S      -11.97133        -8.29189        -8.82927
| 57>    C      -11.82574        -8.15587       -10.64172
| 58>    O      -12.71734        -8.42140       -11.39111
| 59>    C      -10.47988        -7.69728       -10.89716
| 60>    C       -9.68669        -7.44298        -9.74990
| 61>    C       -8.36469        -6.97217       -10.06804
| 62>    O       -7.42406        -6.66608        -9.38290
| 63>    S       -8.24038        -6.88571       -11.88612
| 64>    C       -9.88977        -7.43915       -12.11925
| 65>    C      -10.46117        -7.72140       -13.38148
| 66>    C      -10.13265        -7.16272       -14.58218
| 67>    C      -10.37497        -7.76544       -15.89079
| 68>    C      -11.15300        -8.85515       -16.16708
| 69>    C      -11.87438        -9.62412       -15.22624
| 70>    N      -12.46448       -10.32645       -14.53702
| 71>    C      -11.34755        -9.37566       -17.46616
| 72>    N      -11.55681        -9.84455       -18.49218
| 73>    C       -9.57017        -7.01912       -16.84948
| 74>    C       -8.95013        -5.93430       -16.18722
| 75>    C       -8.09012        -5.08737       -16.86642
| 76>    C       -7.85698        -5.32303       -18.21292
| 77>    C       -8.47546        -6.37790       -18.86966
| 78>    C       -9.33478        -7.23512       -18.19875
| 79>    C       -9.41228        -5.91419       -14.80981
| 80>    C       -9.42513        -4.82348       -13.98410
| 81>    C       -8.78091        -3.60488       -14.28734
| 82>    N       -8.26685        -2.59756       -14.47930
| 83>    C      -10.16717        -4.74697       -12.78537
| 84>    N      -10.79897        -4.61802       -11.83594
| 85>    H       -1.61078        -7.69390         7.85689
| 86>    H       -0.09423        -5.77703         7.64376
| 87>    H       -0.57565        -3.95723         6.06631
| 88>    H       -2.60342        -4.00581         4.67185
| 89>    H       -5.99064        -9.31105         4.98742
| 90>    H       -8.49805        -8.09651        -1.21526
| 91>    H       -9.91128        -8.11901        -4.21630
| 92>    H       -6.40016        -6.31196        -5.74260
| 93>    H       -4.98713        -6.26121        -2.72702
| 94>    H       -8.00145        -6.82279        -7.48141
| 95>    H      -10.65366        -7.99687        -6.47997
| 96>    H      -11.19817        -8.51622       -13.36300
| 97>    H       -7.59916        -4.27052       -16.36283
| 98>    H       -7.18440        -4.67638       -18.75513
| 99>    H       -8.28281        -6.54009       -19.91902
|100>    H       -9.80030        -8.05152       -18.72552
|101> *
|102>
|103>                          ****END OF INPUT****

CARTESIAN COORDINATES (ANGSTROEM)
---------------------------------
  C     -1.845760   -6.898050    7.169520
  C     -0.990460   -5.813890    7.043660
  C     -1.263970   -4.783780    6.153900
  C     -2.407870   -4.802430    5.370520
  C     -3.272780   -5.877150    5.491730
  C     -2.990290   -6.934160    6.387430
  C     -4.040570   -7.935860    6.283490
  C     -4.194990   -9.031680    7.084810
  C     -3.332590   -9.352210    8.157690
  N     -2.674630   -9.673030    9.040810
  C     -5.243650   -9.974320    6.998570
  N     -6.066310  -10.774540    6.996790
  C     -4.883210   -7.539530    5.151990
  C     -4.532390   -6.158150    4.825470
  C     -5.339120   -5.236040    4.221770
  C     -6.649610   -5.482530    3.762730
  N     -7.730710   -5.596300    3.394000
  C     -4.970890   -3.888420    4.013960
  N     -4.730860   -2.786850    3.802960
  C     -5.730190   -8.380160    4.499220
  C     -6.301620   -8.235330    3.207700
  S     -7.846380   -8.992790    2.892960
  C     -7.860780   -8.473100    1.163050
  O     -8.790980   -8.728940    0.431140
  C     -6.625930   -7.787280    0.908830
  C     -5.789490   -7.664480    2.054560
  C     -4.509740   -7.057560    1.796220
  O     -3.577180   -6.836480    2.522910
  S     -4.479110   -6.612260    0.034730
  C     -6.082320   -7.257800   -0.259530
  C     -6.614030   -7.198560   -1.559450
  N     -7.865190   -7.666400   -1.889850
  C     -8.044370   -7.483190   -3.215830
  C     -8.935440   -7.681250   -4.258320
  C     -8.293360   -7.198380   -5.415610
  N     -7.046480   -6.709050   -5.080870
  C     -6.862230   -6.869220   -3.748110
  C     -5.969830   -6.687200   -2.710500
  C     -8.714250   -7.197520   -6.760330
  C     -9.925180   -7.649070   -7.199310
  C    -10.338450   -7.717330   -8.543330
  S    -11.971330   -8.291890   -8.829270
  C    -11.825740   -8.155870  -10.641720
  O    -12.717340   -8.421400  -11.391110
  C    -10.479880   -7.697280  -10.897160
  C     -9.686690   -7.442980   -9.749900
  C     -8.364690   -6.972170  -10.068040
  O     -7.424060   -6.666080   -9.382900
  S     -8.240380   -6.885710  -11.886120
  C     -9.889770   -7.439150  -12.119250
  C    -10.461170   -7.721400  -13.381480
  C    -10.132650   -7.162720  -14.582180
  C    -10.374970   -7.765440  -15.890790
  C    -11.153000   -8.855150  -16.167080
  C    -11.874380   -9.624120  -15.226240
  N    -12.464480  -10.326450  -14.537020
  C    -11.347550   -9.375660  -17.466160
  N    -11.556810   -9.844550  -18.492180
  C     -9.570170   -7.019120  -16.849480
  C     -8.950130   -5.934300  -16.187220
  C     -8.090120   -5.087370  -16.866420
  C     -7.856980   -5.323030  -18.212920
  C     -8.475460   -6.377900  -18.869660
  C     -9.334780   -7.235120  -18.198750
  C     -9.412280   -5.914190  -14.809810
  C     -9.425130   -4.823480  -13.984100
  C     -8.780910   -3.604880  -14.287340
  N     -8.266850   -2.597560  -14.479300
  C    -10.167170   -4.746970  -12.785370
  N    -10.798970   -4.618020  -11.835940
  H     -1.610780   -7.693900    7.856890
  H     -0.094230   -5.777030    7.643760
  H     -0.575650   -3.957230    6.066310
  H     -2.603420   -4.005810    4.671850
  H     -5.990640   -9.311050    4.987420
  H     -8.498050   -8.096510   -1.215260
  H     -9.911280   -8.119010   -4.216300
  H     -6.400160   -6.311960   -5.742600
  H     -4.987130   -6.261210   -2.727020
  H     -8.001450   -6.822790   -7.481410
  H    -10.653660   -7.996870   -6.479970
  H    -11.198170   -8.516220  -13.363000
  H     -7.599160   -4.270520  -16.362830
  H     -7.184400   -4.676380  -18.755130
  H     -8.282810   -6.540090  -19.919020
  H     -9.800300   -8.051520  -18.725520

 Total Charge           Charge          ....    0
 Multiplicity           Mult            ....    1
 Number of Electrons    NEL             ....  494
 Basis Dimension        Dim             .... 1076

ORBITAL ENERGIES
----------------

  NO   OCC          E(Eh)            E(eV)
   0   2.0000     -88.976354     -2421.1697
   1   2.0000     -88.970980     -2421.0235
   2   2.0000     -88.965656     -2420.8786
   3   2.0000     -88.963760     -2420.8270
   4   2.0000     -19.252050      -523.8749
   5   2.0000     -19.243522      -523.6429
   6   2.0000     -19.239487      -523.5331
   7   2.0000     -19.234612      -523.4004
   8   2.0000     -14.492879      -394.3713
   9   2.0000     -14.479182      -393.9986
  10   2.0000     -14.433632      -392.7591
  11   2.0000     -14.430548      -392.6752
  12   2.0000     -14.430467      -392.6730
  13   2.0000     -14.429296      -392.6411
  14   2.0000     -14.428814      -392.6280
  15   2.0000     -14.426891      -392.5757
  16   2.0000     -14.426808      -392.5734
  17   2.0000     -14.426449      -392.5636
  18   2.0000     -10.414532      -283.3938
  19   2.0000     -10.406525      -283.1759
  20   2.0000     -10.405435      -283.1463
  21   2.0000     -10.402341      -283.0621
  22   2.0000     -10.368312      -282.1361
  23   2.0000     -10.364201      -282.0243
  24   2.0000     -10.362861      -281.9878
  25   2.0000     -10.361767      -281.9580
  26   2.0000     -10.361060      -281.9388
  27   2.0000     -10.360192      -281.9151
  28   2.0000     -10.360097      -281.9126
  29   2.0000     -10.358201      -281.8610
  30   2.0000     -10.356180      -281.8060
  31   2.0000     -10.355209      -281.7796
  32   2.0000     -10.353526      -281.7338
  33   2.0000     -10.349812      -281.6327
  34   2.0000     -10.347368      -281.5662
  35   2.0000     -10.347229      -281.5624
  36   2.0000     -10.340987      -281.3926
  37   2.0000     -10.339616      -281.3552
  38   2.0000     -10.335811      -281.2517
  39   2.0000     -10.335193      -281.2349
  40   2.0000     -10.334911      -281.2272
  41   2.0000     -10.334030      -281.2032
  42   2.0000     -10.332658      -281.1659
  43   2.0000     -10.332266      -281.1552
  44   2.0000     -10.332064      -281.1497
  45   2.0000     -10.330934      -281.1190
  46   2.0000     -10.330075      -281.0956
  47   2.0000     -10.328705      -281.0583
  48   2.0000     -10.328462      -281.0517
  49   2.0000     -10.327540      -281.0266
  50   2.0000     -10.323656      -280.9210
  51   2.0000     -10.321632      -280.8659
  52   2.0000     -10.321489      -280.8620
  53   2.0000     -10.320418      -280.8328
  54   2.0000     -10.319402      -280.8052
  55   2.0000     -10.319076      -280.7963
  56   2.0000     -10.317137      -280.7436
  57   2.0000     -10.314980      -280.6849
  58   2.0000     -10.312309      -280.6122
  59   2.0000     -10.308979      -280.5216
  60   2.0000     -10.308435      -280.5068
  61   2.0000     -10.307716      -280.4872
  62   2.0000     -10.307419      -280.4791
  63   2.0000     -10.306978      -280.4671
  64   2.0000     -10.306516      -280.4546
  65   2.0000     -10.306327      -280.4494
  66   2.0000     -10.306313      -280.4490
  67   2.0000     -10.305464      -280.4259
  68   2.0000     -10.304376      -280.3963
  69   2.0000     -10.303307      -280.3672
  70   2.0000      -8.073518      -219.6916
  71   2.0000      -8.068159      -219.5458
  72   2.0000      -8.063392      -219.4160
  73   2.0000      -8.060423      -219.3353
  74   2.0000      -6.043062      -164.4401
  75   2.0000      -6.038941      -164.3279
  76   2.0000      -6.037605      -164.2916
  77   2.0000      -6.034533      -164.2080
  78   2.0000      -6.033481      -164.1794
  79   2.0000      -6.032757      -164.1597
  80   2.0000      -6.030005      -164.0848
  81   2.0000      -6.029361      -164.0673
  82   2.0000      -6.028762      -164.0509
  83   2.0000      -6.025865      -163.9721
  84   2.0000      -6.024532      -163.9358
  85   2.0000      -6.021470      -163.8525
  86   2.0000      -1.172546       -31.9066
  87   2.0000      -1.165265       -31.7085
  88   2.0000      -1.161364       -31.6023
  89   2.0000      -1.157314       -31.4921
  90   2.0000      -1.125766       -30.6337
  91   2.0000      -1.088068       -29.6078
  92   2.0000      -1.047207       -28.4960
  93   2.0000      -1.044444       -28.4208
  94   2.0000      -1.028991       -28.0003
  95   2.0000      -1.024930       -27.8898
  96   2.0000      -1.022164       -27.8145
  97   2.0000      -1.017449       -27.6862
  98   2.0000      -1.017032       -27.6748
  99   2.0000      -1.013826       -27.5876
 100   2.0000      -1.009905       -27.4809
 101   2.0000      -1.007440       -27.4138
 102   2.0000      -1.005344       -27.3568
 103   2.0000      -1.004648       -27.3379
 104   2.0000      -0.976473       -26.5712
 105   2.0000      -0.974254       -26.5108
 106   2.0000      -0.962585       -26.1933
 107   2.0000      -0.960199       -26.1284
 108   2.0000      -0.950915       -25.8757
 109   2.0000      -0.947749       -25.7895
 110   2.0000      -0.929951       -25.3052
 111   2.0000      -0.910562       -24.7776
 112   2.0000      -0.906112       -24.6566
 113   2.0000      -0.903807       -24.5939
 114   2.0000      -0.900114       -24.4933
 115   2.0000      -0.898190       -24.4410
 116   2.0000      -0.894642       -24.3444
 117   2.0000      -0.874224       -23.7888
 118   2.0000      -0.872316       -23.7369
 119   2.0000      -0.871419       -23.7125
 120   2.0000      -0.853338       -23.2205
 121   2.0000      -0.851570       -23.1724
 122   2.0000      -0.844421       -22.9779
 123   2.0000      -0.833083       -22.6693
 124   2.0000      -0.820658       -22.3312
 125   2.0000      -0.802004       -21.8236
 126   2.0000      -0.798601       -21.7310
 127   2.0000      -0.796303       -21.6685
 128   2.0000      -0.781462       -21.2647
 129   2.0000      -0.750523       -20.4228
 130   2.0000      -0.735976       -20.0269
 131   2.0000      -0.728265       -19.8171
 132   2.0000      -0.726432       -19.7672
 133   2.0000      -0.723867       -19.6974
 134   2.0000      -0.723681       -19.6924
 135   2.0000      -0.721990       -19.6464
 136   2.0000      -0.717053       -19.5120
 137   2.0000      -0.714296       -19.4370
 138   2.0000      -0.708700       -19.2847
 139   2.0000      -0.703715       -19.1490
 140   2.0000      -0.694285       -18.8924
 141   2.0000      -0.684043       -18.6138
 142   2.0000      -0.678541       -18.4640
 143   2.0000      -0.675805       -18.3896
 144   2.0000      -0.672579       -18.3018
 145   2.0000      -0.671904       -18.2834
 146   2.0000      -0.669860       -18.2278
 147   2.0000      -0.655204       -17.8290
 148   2.0000      -0.649607       -17.6767
 149   2.0000      -0.640597       -17.4315
 150   2.0000      -0.631706       -17.1896
 151   2.0000      -0.624120       -16.9832
 152   2.0000      -0.619339       -16.8531
 153   2.0000      -0.606412       -16.5013
 154   2.0000      -0.601878       -16.3779
 155   2.0000      -0.596761       -16.2387
 156   2.0000      -0.593750       -16.1568
 157   2.0000      -0.592647       -16.1267
 158   2.0000      -0.587881       -15.9971
 159   2.0000      -0.581428       -15.8215
 160   2.0000      -0.575872       -15.6703
 161   2.0000      -0.573638       -15.6095
 162   2.0000      -0.572852       -15.5881
 163   2.0000      -0.565616       -15.3912
 164   2.0000      -0.563286       -15.3278
 165   2.0000      -0.559948       -15.2370
 166   2.0000      -0.557702       -15.1759
 167   2.0000      -0.556675       -15.1479
 168   2.0000      -0.551007       -14.9937
 169   2.0000      -0.549272       -14.9465
 170   2.0000      -0.548130       -14.9154
 171   2.0000      -0.547643       -14.9021
 172   2.0000      -0.546320       -14.8661
 173   2.0000      -0.545759       -14.8509
 174   2.0000      -0.543352       -14.7854
 175   2.0000      -0.540216       -14.7000
 176   2.0000      -0.536321       -14.5940
 177   2.0000      -0.530232       -14.4283
 178   2.0000      -0.527529       -14.3548
 179   2.0000      -0.525798       -14.3077
 180   2.0000      -0.520639       -14.1673
 181   2.0000      -0.518001       -14.0955
 182   2.0000      -0.517126       -14.0717
 183   2.0000      -0.514642       -14.0041
 184   2.0000      -0.512472       -13.9451
 185   2.0000      -0.509694       -13.8695
 186   2.0000      -0.508412       -13.8346
 187   2.0000      -0.503528       -13.7017
 188   2.0000      -0.502299       -13.6682
 189   2.0000      -0.491248       -13.3675
 190   2.0000      -0.490825       -13.3560
 191   2.0000      -0.483570       -13.1586
 192   2.0000      -0.479700       -13.0533
 193   2.0000      -0.478684       -13.0256
 194   2.0000      -0.475682       -12.9440
 195   2.0000      -0.473113       -12.8741
 196   2.0000      -0.469252       -12.7690
 197   2.0000      -0.467557       -12.7229
 198   2.0000      -0.466198       -12.6859
 199   2.0000      -0.465370       -12.6634
 200   2.0000      -0.464319       -12.6348
 201   2.0000      -0.462987       -12.5985
 202   2.0000      -0.462097       -12.5743
 203   2.0000      -0.461644       -12.5620
 204   2.0000      -0.459411       -12.5012
 205   2.0000      -0.458042       -12.4640
 206   2.0000      -0.457744       -12.4559
 207   2.0000      -0.455461       -12.3937
 208   2.0000      -0.454736       -12.3740
 209   2.0000      -0.454169       -12.3586
 210   2.0000      -0.451568       -12.2878
 211   2.0000      -0.448657       -12.2086
 212   2.0000      -0.445921       -12.1341
 213   2.0000      -0.444588       -12.0978
 214   2.0000      -0.443128       -12.0581
 215   2.0000      -0.441783       -12.0215
 216   2.0000      -0.439597       -11.9621
 217   2.0000      -0.438012       -11.9189
 218   2.0000      -0.437958       -11.9174
 219   2.0000      -0.435825       -11.8594
 220   2.0000      -0.432441       -11.7673
 221   2.0000      -0.424717       -11.5571
 222   2.0000      -0.421849       -11.4791
 223   2.0000      -0.421632       -11.4732
 224   2.0000      -0.417726       -11.3669
 225   2.0000      -0.414119       -11.2687
 226   2.0000      -0.411923       -11.2090
 227   2.0000      -0.401877       -10.9356
 228   2.0000      -0.394374       -10.7315
 229   2.0000      -0.392678       -10.6853
 230   2.0000      -0.371751       -10.1159
 231   2.0000      -0.366934        -9.9848
 232   2.0000      -0.366067        -9.9612
 233   2.0000      -0.360028        -9.7969
 234   2.0000      -0.358068        -9.7435
 235   2.0000      -0.357685        -9.7331
 236   2.0000      -0.352384        -9.5889
 237   2.0000      -0.347893        -9.4667
 238   2.0000      -0.343272        -9.3409
 239   2.0000      -0.340628        -9.2690
 240   2.0000      -0.338543        -9.2122
 241   2.0000      -0.324932        -8.8418
 242   2.0000      -0.319760        -8.7011
 243   2.0000      -0.315843        -8.5945
 244   2.0000      -0.312617        -8.5067
 245   2.0000      -0.289611        -7.8807
 246   2.0000      -0.258703        -7.0397
 247   0.0000      -0.140679        -3.8281
 248   0.0000      -0.120415        -3.2767
 249   0.0000      -0.093822        -2.5530
 250   0.0000      -0.093678        -2.5491
 251   0.0000      -0.088634        -2.4118

MULLIKEN ATOMIC CHARGES
-----------------------
   0 C :   -0.035906
   1 C :    0.048555
   2 C :    0.047841
   3 C :   -0.025327
   4 C :    0.016892
   5 C :    0.020200
   6 C :    0.286034
   7 C :   -0.335517
   8 C :   -0.191497
   9 N :    0.167795
  10 C :   -0.179859
  11 N :    0.169279
  12 C :   -0.035010
  13 C :    0.274736
  14 C :   -0.336184
  15 C :   -0.204006
  16 N :    0.187248
  17 C :   -0.188376
  18 N :    0.175469
  19 C :    0.044791
  20 C :   -0.192980
  21 S :    0.118386
  22 C :    0.065077
  23 O :   -0.217011
  24 C :    0.052256
  25 C :    0.105531
  26 C :    0.061295
  27 O :   -0.152035
  28 S :    0.073645
  29 C :   -0.081328
  30 C :    0.057666
  31 N :   -0.020270
  32 C :    0.128285
  33 C :   -0.138035
  34 C :    0.091002
  35 N :   -0.024846
  36 C :    0.138427
  37 C :   -0.164575
  38 C :    0.042005
  39 C :    0.022103
  40 C :   -0.084795
  41 S :    0.062618
  42 C :    0.057936
  43 O :   -0.114351
  44 C :    0.128410
  45 C :    0.082022
  46 C :    0.043344
  47 O :   -0.178540
  48 S :    0.075262
  49 C :   -0.197878
  50 C :    0.011116
  51 C :   -0.048735
  52 C :    0.299275
  53 C :   -0.331873
  54 C :   -0.188624
  55 N :    0.177360
  56 C :   -0.191290
  57 N :    0.166591
  58 C :    0.016425
  59 C :    0.004619
  60 C :   -0.028944
  61 C :    0.048050
  62 C :    0.046720
  63 C :   -0.033976
  64 C :    0.222341
  65 C :   -0.313163
  66 C :   -0.185083
  67 N :    0.169843
  68 C :   -0.183777
  69 N :    0.180239
  70 H :    0.007915
  71 H :    0.006920
  72 H :    0.008409
  73 H :    0.009478
  74 H :    0.028970
  75 H :    0.146938
  76 H :   -0.007939
  77 H :    0.143090
  78 H :   -0.003131
  79 H :    0.006400
  80 H :   -0.008130
  81 H :    0.048375
  82 H :    0.008425
  83 H :    0.007475
  84 H :    0.006940
  85 H :    0.006969
Sum of atomic charges:    0.0000000

LOEWDIN ATOMIC CHARGES
----------------------
   0 C :    0.005801
   1 C :    0.004803
   2 C :    0.008777
   3 C :    0.008799
   4 C :   -0.000818
   5 C :   -0.011541
   6 C :    0.077689
   7 C :   -0.121509
   8 C :   -0.018437
   9 N :   -0.036619
  10 C :   -0.023271
  11 N :   -0.033634
  12 C :   -0.014353
  13 C :    0.077594
  14 C :   -0.122068
  15 C :   -0.023340
  16 N :   -0.038392
  17 C :   -0.018248
  18 N :   -0.037891
  19 C :    0.017734
  20 C :   -0.121796
  21 S :    0.401137
  22 C :   -0.037186
  23 O :   -0.173582
  24 C :   -0.146709
  25 C :   -0.108759
  26 C :   -0.039049
  27 O :   -0.133774
  28 S :    0.365440
  29 C :   -0.081223
  30 C :   -0.016264
  31 N :    0.087161
  32 C :    0.012293
  33 C :   -0.060859
  34 C :    0.012617
  35 N :    0.079851
  36 C :   -0.002125
  37 C :   -0.060894
  38 C :    0.038528
  39 C :   -0.058192
  40 C :   -0.066680
  41 S :    0.355918
  42 C :   -0.033619
  43 O :   -0.108120
  44 C :   -0.081671
  45 C :   -0.145928
  46 C :   -0.036428
  47 O :   -0.164850
  48 S :    0.361610
  49 C :   -0.130459
  50 C :    0.034680
  51 C :   -0.035240
  52 C :    0.072702
  53 C :   -0.117585
  54 C :   -0.026397
  55 N :   -0.024623
  56 C :   -0.017634
  57 N :   -0.038785
  58 C :   -0.013678
  59 C :   -0.009603
  60 C :    0.002279
  61 C :    0.006721
  62 C :    0.002913
  63 C :    0.006151
  64 C :    0.056893
  65 C :   -0.120472
  66 C :   -0.017906
  67 N :   -0.036334
  68 C :   -0.029699
  69 N :   -0.040513
  70 H :    0.042040
  71 H :    0.038895
  72 H :    0.039106
  73 H :    0.042667
  74 H :    0.050165
  75 H :    0.075892
  76 H :    0.034590
  77 H :    0.101231
  78 H :    0.030520
  79 H :    0.035019
  80 H :    0.031947
  81 H :    0.055498
  82 H :    0.041648
  83 H :    0.038708
  84 H :    0.038713
  85 H :    0.042029

  Mayer bond orders larger than 0.100000
B(  0-C ,  1-C ) :   1.3767 B(  0-C ,  5-C ) :   1.3728 B(  0-C , 70-H ) :   0.9841
B(  1-C ,  2-C ) :   1.3722 B(  1-C , 71-H ) :   0.9858 B(  2-C ,  3-C ) :   1.3677
B(  2-C , 72-H ) :   0.9860 B(  3-C ,  4-C ) :   1.3823 B(  3-C , 73-H ) :   0.9866
B(  4-C ,  5-C ) :   1.3085 B(  4-C , 13-C ) :   1.0132 B(  5-C ,  6-C ) :   1.0075
B(  6-C ,  7-C ) :   1.6514 B(  6-C , 12-C ) :   1.0417 B(  7-C ,  8-C ) :   1.1473
B(  7-C , 10-C ) :   1.1318 B(  8-C ,  9-N ) :   2.9806 B( 10-C , 11-N ) :   2.9758
B( 12-C , 13-C ) :   0.9951 B( 12-C , 19-C ) :   1.6917 B( 13-C , 14-C ) :   1.6634
B( 14-C , 15-C ) :   1.1627 B( 14-C , 17-C ) :   1.1414 B( 15-C , 16-N ) :   3.0073
B( 17-C , 18-N ) :   3.0002 B( 19-C , 20-C ) :   1.1472 B( 19-C , 74-H ) :   0.9065
B( 20-C , 21-S ) :   1.1136 B( 20-C , 25-C ) :   1.4513 B( 21-S , 22-C ) :   1.0357
B( 21-S , 23-O ) :   0.1005 B( 22-C , 23-O ) :   1.9816 B( 22-C , 24-C ) :   0.9949
B( 23-O , 75-H ) :   0.1338 B( 24-C , 25-C ) :   1.1577 B( 24-C , 29-C ) :   1.3743
B( 25-C , 26-C ) :   0.9576 B( 26-C , 27-O ) :   2.1113 B( 26-C , 28-S ) :   1.0025
B( 27-O , 28-S ) :   0.1050 B( 28-S , 29-C ) :   1.1010 B( 29-C , 30-C ) :   1.2486
B( 30-C , 31-N ) :   1.2332 B( 30-C , 37-C ) :   1.2918 B( 31-N , 32-C ) :   1.2156
B( 31-N , 75-H ) :   0.8626 B( 32-C , 33-C ) :   1.2917 B( 32-C , 36-C ) :   1.2319
B( 33-C , 34-C ) :   1.3504 B( 33-C , 76-H ) :   1.0305 B( 34-C , 35-N ) :   1.1719
B( 34-C , 38-C ) :   1.1631 B( 35-N , 36-C ) :   1.1770 B( 35-N , 77-H ) :   0.9288
B( 36-C , 37-C ) :   1.3323 B( 37-C , 78-H ) :   1.0217 B( 38-C , 39-C ) :   1.5649
B( 38-C , 79-H ) :   0.9284 B( 39-C , 40-C ) :   1.2468 B( 39-C , 80-H ) :   0.9545
B( 40-C , 41-S ) :   1.1033 B( 40-C , 45-C ) :   1.3503 B( 41-S , 42-C ) :   0.9831
B( 41-S , 43-O ) :   0.1079 B( 42-C , 43-O ) :   2.1758 B( 42-C , 44-C ) :   0.9261
B( 44-C , 45-C ) :   1.1922 B( 44-C , 49-C ) :   1.4663 B( 45-C , 46-C ) :   0.9699
B( 46-C , 47-O ) :   2.0496 B( 46-C , 48-S ) :   1.0146 B( 47-O , 48-S ) :   0.1039
B( 47-O , 79-H ) :   0.1208 B( 48-S , 49-C ) :   1.0800 B( 49-C , 50-C ) :   1.1761
B( 50-C , 51-C ) :   1.6159 B( 50-C , 81-H ) :   0.9191 B( 51-C , 52-C ) :   1.0493
B( 51-C , 64-C ) :   1.0180 B( 52-C , 53-C ) :   1.6520 B( 52-C , 58-C ) :   1.0013
B( 53-C , 54-C ) :   1.1308 B( 53-C , 56-C ) :   1.1506 B( 54-C , 55-N ) :   2.9725
B( 56-C , 57-N ) :   2.9752 B( 58-C , 59-C ) :   1.3097 B( 58-C , 63-C ) :   1.3787
B( 59-C , 60-C ) :   1.3813 B( 59-C , 64-C ) :   1.0104 B( 60-C , 61-C ) :   1.3650
B( 60-C , 82-H ) :   0.9876 B( 61-C , 62-C ) :   1.3752 B( 61-C , 83-H ) :   0.9871
B( 62-C , 63-C ) :   1.3736 B( 62-C , 84-H ) :   0.9857 B( 63-C , 85-H ) :   0.9842
B( 64-C , 65-C ) :   1.6562 B( 65-C , 66-C ) :   1.1446 B( 65-C , 68-C ) :   1.1504
B( 66-C , 67-N ) :   2.9953 B( 68-C , 69-N ) :   3.0117

-----------------------------------------------------------------------------
         ABSORPTION SPECTRUM VIA TRANSITION ELECTRIC DIPOLE MOMENTS
-----------------------------------------------------------------------------
State   Energy  Wavelength   fosc         T2         TX        TY        TZ
        (cm-1)    (nm)                  (au**2)     (au)      (au)      (au)
-----------------------------------------------------------------------------
   0   11503.5    869.3   2.013776868  57.63123  -1.47132   0.35468  -7.43913
   1   15976.3    625.9   0.020882492   0.43031   0.32255   0.34452  -0.45561
   2   19873.5    503.2   0.047205105   0.78197  -0.59726  -0.05940  -0.64940
   3   21183.8    472.1   0.203061338   3.15572   1.03557   0.14313   1.43625
   4   22204.8    450.4   0.024032537   0.35631   0.21135   0.54874   0.10259
   5   22537.5    443.7   0.030199813   0.44114   0.19400  -0.63335   0.04864
   6   22650.7    441.5   0.028805214   0.41866   0.53492   0.11109  -0.34667
   7   22901.3    436.7   0.034455840   0.49531   0.21719  -0.58967   0.31691
   8   23447.9    426.5   0.001026967   0.01442  -0.04154  -0.02083   0.11072
   9   24617.8    406.2   0.146489309   1.95899  -1.23791  -0.50960  -0.40849
  10   25421.2    393.4   0.002881968   0.03732   0.15323   0.00385   0.11759
  11   25659.8    389.7   0.018199781   0.23350   0.14903   0.09178  -0.45041
  12   26030.4    384.2   0.026406814   0.33397  -0.49472   0.05092  -0.29433
  13   26253.5    380.9   0.003836535   0.04811   0.07402   0.08768   0.18693
  14   26506.1    377.3   0.074998621   0.93150  -0.52047  -0.00391  -0.81277
  15   26640.5    375.4   0.007598613   0.09390  -0.14234  -0.11935   0.24372
  16   27593.2    362.4   0.009987417   0.11916  -0.17756  -0.28613  -0.07590
  17   28538.8    350.4   0.008260195   0.09529  -0.12913  -0.25278   0.12129
  18   28601.8    349.6   0.004195451   0.04829  -0.07041  -0.17563  -0.11175
  19   28853.2    346.6   0.005992716   0.06838  -0.01606  -0.12245   0.23049
  20   29390.9    340.2   0.009792960   0.10969   0.17809   0.15753   0.23056
  21   29645.6    337.3   0.001191456   0.01323   0.03915   0.08232  -0.07015
  22   30706.5    325.7   0.031051864   0.33292  -0.21123   0.35724  -0.40084
  23   30941.9    323.2   0.076342790   0.81226   0.25640   0.57567  -0.64431
  24   31100.3    321.5   0.034503999   0.36524   0.48463  -0.03882   0.35898
  25   31316.2    319.3   0.573037378   6.02406  -0.63090  -2.10535  -1.09249
  26   31359.0    318.9   0.058778933   0.61707   0.38784   0.43827   0.52399
  27   31778.0    314.7   0.257761039   2.67034  -0.02909   1.52083  -0.59714
  28   32182.3    310.7   0.445281647   4.55506   0.97092  -1.09292   1.55496
  29   32428.4    308.4   0.090938762   0.92321   0.06332   0.29139   0.91339
  30   33159.1    301.6   0.283102732   2.81072  -1.01706  -0.64165  -1.16816
  31   33297.2    300.3   0.010916015   0.10793   0.07134  -0.03732  -0.31850
  32   34334.5    291.3   0.064870645   0.62200   0.06635  -0.37110   0.69274
  33   34455.7    290.2   0.277786350   2.65415   1.09114   0.55388  -1.07554
  34   34631.7    288.8   0.191496484   1.82038  -0.92782  -0.72523  -0.65845
  35   34795.4    287.4   0.021065168   0.19930   0.00199   0.02422  -0.44577
  36   35101.1    284.9   0.024724837   0.23189   0.04856  -0.32233  -0.35446
  37   35262.7    283.6   0.004761866   0.04446  -0.10933  -0.05876   0.17044
  38   35862.1    278.8   0.181529568   1.66643  -0.99299  -0.71465   0.41193
  39   35976.4    278.0   0.025106753   0.22975   0.28760   0.17616  -0.34059
  40   36094.5    277.1   0.014810564   0.13508  -0.30759   0.14613   0.13828
  41   36702.0    272.5   0.001840618   0.01651  -0.07006   0.10509  -0.02359
  42   37154.9    269.1   0.058218812   0.51585  -0.67808  -0.23269   0.04370
  43   37199.3    268.8   0.064239421   0.56852   0.54691   0.14697   0.49780
  44   37297.6    268.1   0.007262458   0.06410  -0.21621  -0.07076   0.11112
  45   37394.6    267.4   0.016720615   0.14720   0.32295   0.19847  -0.05932
  46   37702.9    265.2   0.062289570   0.54390  -0.37580  -0.29866   0.55989
  47   37767.7    264.8   0.023092434   0.20129  -0.42600  -0.13128  -0.05079
  48   38142.6    262.2   0.048950574   0.42250  -0.11779  -0.09260   0.63249
  49   38365.5    260.7   0.231057356   1.98269  -0.89582  -1.08620  -0.01891
  50   38501.7    259.7   0.006328724   0.05411   0.01959  -0.20080  -0.11580
  51   38581.2    259.2   0.029591957   0.25251  -0.32681  -0.37894  -0.04590
  52   38600.5    259.1   0.062216225   0.53062  -0.55393  -0.40159   0.25000
  53   38886.2    257.2   0.315188936   2.66840  -0.95920   0.82363  -1.03440
  54   39470.2    253.4   0.031276137   0.26087   0.15380  -0.10155   0.47634
  55   39483.4    253.3   0.015481161   0.12908  -0.08290   0.03579  -0.34775
  56   39634.3    252.3   0.169861867   1.41091   0.08586   0.94603   0.71315
  57   39848.1    251.0   0.006192748   0.05116   0.13887   0.15621   0.08646
  58   39959.7    250.3   0.038783890   0.31952  -0.27326  -0.49478  -0.00705
  59   40209.9    248.7   0.030870639   0.25275   0.25404   0.38136  -0.20682

FINAL SINGLE POINT ENERGY     -4428.100259072237

DIPOLE MOMENT
-------------
                                X             Y             Z
Electronic contribution:    -12.51376      -6.75500       8.04292
Nuclear contribution   :     15.93411       7.45331      -8.59919
                        -----------------------------------------
Total Dipole Moment    :      3.42035       0.69831      -0.55627
                        -----------------------------------------
Magnitude (a.u.)       :      3.53495
Magnitude (Debye)      :      8.98512

Rotational constants in cm-1:     0.003118     0.000212     0.000204
Rotational constants in MHz :    93.479910     6.343471     6.125987

                             ****ORCA TERMINATED NORMALLY****
TOTAL RUN TIME: 0 days 0 hours 8 minutes 55 seconds 689 msec
