                         Program Version 4.2.0 -  RELEASE  -
|  1> # ORCA input file
|  2> # SCF done       -191.240051160883          0.000505949634
|  3> ! CAM-B3LYP def2-SVP def2/J RIJCOSX Grid4 TightSCF
|  4> %maxcore 5000
|  5> %tddft
|  6>     Mode sTDDFT
|  7>     Ethresh 5.0
|  8>     maxcore 5000
|  9> end
| 10>
| 11> %pal
| 12>   nprocs 6
| 13>   end
| 14> * xyz 0 1
| 15>    C       -2.19034       -10.47106        -2.03982
| 16>    C       -3.46122       -10.95052        -1.84886
| 17>    C       -3.75777       -12.29178        -1.53370
| 18>    N       -4.05359       -13.36487        -1.25440
| 19>    C       -4.61983       -10.17148        -2.04738
| 20>    N       -5.58251        -9.57959        -2.25203
| 21>    C       -0.98944       -11.29252        -2.17043
| 22>    C       -0.00354       -10.55008        -2.84697
| 23>    C        1.22571       -11.09446        -3.15722
| 24>    C        1.48199       -12.40598        -2.77474
| 25>    C        0.51019       -13.14589        -2.09081
| 26>    C       -0.73173       -12.59742        -1.78793
| 27>   Cl        0.84615       -14.76015        -1.61478
| 28>   Cl        2.99891       -13.11908        -3.14495
| 29>    C       -0.51364        -9.18965        -3.12553
| 30>    O        0.02958        -8.29941        -3.73469
| 31>    C       -1.83587        -9.12860        -2.44321
| 32>    C       -2.44428        -7.92185        -2.26649
| 33>    C       -3.47221        -7.55474        -1.35586
| 34>    C       -4.29738        -6.47978        -1.61479
| 35>    C       -5.37046        -6.09469        -0.82169
| 36>    C       -5.72614        -6.85375         0.38399
| 37>    C       -4.99556        -7.87704         0.88073
| 38>    S       -3.57750        -8.47825         0.13740
| 39>    C       -6.94105        -6.28354         0.85231
| 40>    C       -7.32879        -5.24560         0.00080
| 41>    C       -8.53792        -4.64164         0.41119
| 42>    C       -9.02684        -5.22656         1.53519
| 43>    S       -8.04688        -6.52188         2.14125
| 44>    C       -6.34470        -5.08963        -1.03373
| 45>    C       -6.43269        -4.09695        -2.03444
| 46>    C       -5.42709        -3.60778        -2.80806
| 47>    C       -5.66155        -2.63339        -3.81866
| 48>    N       -6.89894        -2.24115        -4.10063
| 49>    N       -7.17563        -1.35164        -5.00361
| 50>    C       -6.26767        -0.76088        -5.76611
| 51>    C       -4.89559        -1.12514        -5.61169
| 52>    C       -4.58536        -2.07951        -4.58238
| 53>    N       -3.28581        -2.27921        -4.60753
| 54>    O       -2.81460        -1.51200        -5.59296
| 55>    N       -3.76599        -0.81243        -6.21135
| 56>    C       -6.72404         0.24863        -6.66882
| 57>    C       -5.84709         1.07602        -7.33048
| 58>    C       -6.24135         2.14310        -8.12626
| 59>    C       -7.64578         2.32382        -8.49418
| 60>    C       -8.66235         1.60742        -7.95138
| 61>    S       -8.46020         0.38519        -6.76742
| 62>    C       -7.64944         3.36781        -9.46114
| 63>    C       -6.34635         3.83504        -9.66056
| 64>    C       -6.29545         4.88941       -10.59833
| 65>    C       -7.53031         5.18504       -11.08127
| 66>    S       -8.79987         4.21152       -10.41669
| 67>    C       -5.45226         3.11355        -8.79697
| 68>    C       -4.08139         3.37468        -8.61860
| 69>    C       -3.36777         2.96707        -7.52170
| 70>    C       -1.98143         3.10798        -7.38715
| 71>    C       -1.26864         2.57553        -6.33582
| 72>    C        0.16232         2.64387        -6.14173
| 73>    C        1.05825         3.41096        -6.84359
| 74>    C        2.44378         3.44612        -6.58324
| 75>    N        3.57825         3.52276        -6.42455
| 76>    C        0.73196         4.28984        -7.89693
| 77>    N        0.55018         5.03212        -8.75452
| 78>    C        0.49942         1.77014        -5.01793
| 79>    C       -0.68743         1.23153        -4.49339
| 80>    C       -1.84444         1.74047        -5.26088
| 81>    O       -3.01326         1.49718        -5.02475
| 82>    C       -0.68179         0.35507        -3.42869
| 83>    C        0.54122         0.00538        -2.87021
| 84>    C        1.72732         0.54014        -3.38149
| 85>    C        1.71651         1.42399        -4.45593
| 86>   Cl        3.23315         0.10285        -2.67954
| 87>   Cl        0.59019        -1.08843        -1.54780
| 88>    H        1.96676       -10.51601        -3.68587
| 89>    H       -1.45796       -13.19265        -1.25850
| 90>    H       -2.04004        -7.11627        -2.87269
| 91>    H       -4.13502        -5.97024        -2.55360
| 92>    H       -5.26030        -8.39186         1.79084
| 93>    H       -9.02088        -3.82563        -0.09420
| 94>    H       -9.92428        -4.97845         2.06738
| 95>    H       -7.40823        -3.64929        -2.17791
| 96>    H       -4.39659        -3.89789        -2.67090
| 97>    H       -4.79799         0.85245        -7.20614
| 98>    H       -9.69168         1.78710        -8.21997
| 99>    H       -5.40017         5.39911       -10.90405
|100>    H       -7.79038         5.93275       -11.80476
|101>    H       -3.58470         3.96112        -9.38264
|102>    H       -3.88803         2.51522        -6.69449
|103>    H       -1.44662         3.61435        -8.18022
|104>    H       -1.60187        -0.05226        -3.04078
|105>    H        2.65170         1.81138        -4.82542
|106> *
|107>
|108>                          ****END OF INPUT****

CARTESIAN COORDINATES (ANGSTROEM)
---------------------------------
  C     -2.190340  -10.471060   -2.039820
  C     -3.461220  -10.950520   -1.848860
  C     -3.757770  -12.291780   -1.533700
  N     -4.053590  -13.364870   -1.254400
  C     -4.619830  -10.171480   -2.047380
  N     -5.582510   -9.579590   -2.252030
  C     -0.989440  -11.292520   -2.170430
  C     -0.003540  -10.550080   -2.846970
  C      1.225710  -11.094460   -3.157220
  C      1.481990  -12.405980   -2.774740
  C      0.510190  -13.145890   -2.090810
  C     -0.731730  -12.597420   -1.787930
  Cl     0.846150  -14.760150   -1.614780
  Cl     2.998910  -13.119080   -3.144950
  C     -0.513640   -9.189650   -3.125530
  O      0.029580   -8.299410   -3.734690
  C     -1.835870   -9.128600   -2.443210
  C     -2.444280   -7.921850   -2.266490
  C     -3.472210   -7.554740   -1.355860
  C     -4.297380   -6.479780   -1.614790
  C     -5.370460   -6.094690   -0.821690
  C     -5.726140   -6.853750    0.383990
  C     -4.995560   -7.877040    0.880730
  S     -3.577500   -8.478250    0.137400
  C     -6.941050   -6.283540    0.852310
  C     -7.328790   -5.245600    0.000800
  C     -8.537920   -4.641640    0.411190
  C     -9.026840   -5.226560    1.535190
  S     -8.046880   -6.521880    2.141250
  C     -6.344700   -5.089630   -1.033730
  C     -6.432690   -4.096950   -2.034440
  C     -5.427090   -3.607780   -2.808060
  C     -5.661550   -2.633390   -3.818660
  N     -6.898940   -2.241150   -4.100630
  N     -7.175630   -1.351640   -5.003610
  C     -6.267670   -0.760880   -5.766110
  C     -4.895590   -1.125140   -5.611690
  C     -4.585360   -2.079510   -4.582380
  N     -3.285810   -2.279210   -4.607530
  O     -2.814600   -1.512000   -5.592960
  N     -3.765990   -0.812430   -6.211350
  C     -6.724040    0.248630   -6.668820
  C     -5.847090    1.076020   -7.330480
  C     -6.241350    2.143100   -8.126260
  C     -7.645780    2.323820   -8.494180
  C     -8.662350    1.607420   -7.951380
  S     -8.460200    0.385190   -6.767420
  C     -7.649440    3.367810   -9.461140
  C     -6.346350    3.835040   -9.660560
  C     -6.295450    4.889410  -10.598330
  C     -7.530310    5.185040  -11.081270
  S     -8.799870    4.211520  -10.416690
  C     -5.452260    3.113550   -8.796970
  C     -4.081390    3.374680   -8.618600
  C     -3.367770    2.967070   -7.521700
  C     -1.981430    3.107980   -7.387150
  C     -1.268640    2.575530   -6.335820
  C      0.162320    2.643870   -6.141730
  C      1.058250    3.410960   -6.843590
  C      2.443780    3.446120   -6.583240
  N      3.578250    3.522760   -6.424550
  C      0.731960    4.289840   -7.896930
  N      0.550180    5.032120   -8.754520
  C      0.499420    1.770140   -5.017930
  C     -0.687430    1.231530   -4.493390
  C     -1.844440    1.740470   -5.260880
  O     -3.013260    1.497180   -5.024750
  C     -0.681790    0.355070   -3.428690
  C      0.541220    0.005380   -2.870210
  C      1.727320    0.540140   -3.381490
  C      1.716510    1.423990   -4.455930
  Cl     3.233150    0.102850   -2.679540
  Cl     0.590190   -1.088430   -1.547800
  H      1.966760  -10.516010   -3.685870
  H     -1.457960  -13.192650   -1.258500
  H     -2.040040   -7.116270   -2.872690
  H     -4.135020   -5.970240   -2.553600
  H     -5.260300   -8.391860    1.790840
  H     -9.020880   -3.825630   -0.094200
  H     -9.924280   -4.978450    2.067380
  H     -7.408230   -3.649290   -2.177910
  H     -4.396590   -3.897890   -2.670900
  H     -4.797990    0.852450   -7.206140
  H     -9.691680    1.787100   -8.219970
  H     -5.400170    5.399110  -10.904050
  H     -7.790380    5.932750  -11.804760
  H     -3.584700    3.961120   -9.382640
  H     -3.888030    2.515220   -6.694490
  H     -1.446620    3.614350   -8.180220
  H     -1.601870   -0.052260   -3.040780
  H      2.651700    1.811380   -4.825420

 Total Charge           Charge          ....    0
 Multiplicity           Mult            ....    1
 Number of Electrons    NEL             ....  554
 Basis Dimension        Dim             .... 1144

ORBITAL ENERGIES
----------------

  NO   OCC          E(Eh)            E(eV)
   0   2.0000    -101.604576     -2764.8011
   1   2.0000    -101.604046     -2764.7867
   2   2.0000    -101.595842     -2764.5634
   3   2.0000    -101.593523     -2764.5003
   4   2.0000     -88.991933     -2421.5936
   5   2.0000     -88.988257     -2421.4936
   6   2.0000     -88.969672     -2420.9878
   7   2.0000     -88.964940     -2420.8591
   8   2.0000     -19.378315      -527.3107
   9   2.0000     -19.227458      -523.2057
  10   2.0000     -19.216448      -522.9061
  11   2.0000     -14.505487      -394.7144
  12   2.0000     -14.505163      -394.7055
  13   2.0000     -14.458035      -393.4231
  14   2.0000     -14.451347      -393.2411
  15   2.0000     -14.425093      -392.5267
  16   2.0000     -14.423152      -392.4739
  17   2.0000     -14.411295      -392.1513
  18   2.0000     -14.408940      -392.0872
  19   2.0000     -10.378899      -282.4242
  20   2.0000     -10.365861      -282.0694
  21   2.0000     -10.362154      -281.9685
  22   2.0000     -10.361087      -281.9395
  23   2.0000     -10.354841      -281.7695
  24   2.0000     -10.352783      -281.7136
  25   2.0000     -10.352506      -281.7060
  26   2.0000     -10.350044      -281.6390
  27   2.0000     -10.349522      -281.6248
  28   2.0000     -10.348101      -281.5861
  29   2.0000     -10.347515      -281.5702
  30   2.0000     -10.346336      -281.5381
  31   2.0000     -10.344702      -281.4936
  32   2.0000     -10.339639      -281.3559
  33   2.0000     -10.338617      -281.3281
  34   2.0000     -10.336652      -281.2746
  35   2.0000     -10.336045      -281.2581
  36   2.0000     -10.334125      -281.2058
  37   2.0000     -10.332476      -281.1610
  38   2.0000     -10.326918      -281.0097
  39   2.0000     -10.325378      -280.9678
  40   2.0000     -10.323046      -280.9044
  41   2.0000     -10.321244      -280.8553
  42   2.0000     -10.315424      -280.6970
  43   2.0000     -10.315094      -280.6880
  44   2.0000     -10.314361      -280.6680
  45   2.0000     -10.313928      -280.6562
  46   2.0000     -10.312075      -280.6058
  47   2.0000     -10.310206      -280.5550
  48   2.0000     -10.309795      -280.5438
  49   2.0000     -10.308791      -280.5165
  50   2.0000     -10.308487      -280.5082
  51   2.0000     -10.308393      -280.5056
  52   2.0000     -10.307994      -280.4948
  53   2.0000     -10.306858      -280.4639
  54   2.0000     -10.305637      -280.4306
  55   2.0000     -10.304695      -280.4050
  56   2.0000     -10.304065      -280.3879
  57   2.0000     -10.303929      -280.3842
  58   2.0000     -10.303642      -280.3763
  59   2.0000     -10.303272      -280.3663
  60   2.0000     -10.302244      -280.3383
  61   2.0000     -10.300966      -280.3035
  62   2.0000     -10.298929      -280.2481
  63   2.0000     -10.297905      -280.2202
  64   2.0000     -10.294281      -280.1216
  65   2.0000     -10.292701      -280.0786
  66   2.0000     -10.288773      -279.9717
  67   2.0000     -10.288740      -279.9708
  68   2.0000     -10.288105      -279.9536
  69   2.0000     -10.286716      -279.9158
  70   2.0000     -10.284218      -279.8478
  71   2.0000     -10.282728      -279.8072
  72   2.0000     -10.274497      -279.5833
  73   2.0000      -9.559570      -260.1291
  74   2.0000      -9.559135      -260.1173
  75   2.0000      -9.550887      -259.8928
  76   2.0000      -9.548502      -259.8279
  77   2.0000      -8.086760      -220.0519
  78   2.0000      -8.082511      -219.9363
  79   2.0000      -8.065118      -219.4630
  80   2.0000      -8.060330      -219.3327
  81   2.0000      -7.329959      -199.4583
  82   2.0000      -7.329522      -199.4464
  83   2.0000      -7.321213      -199.2203
  84   2.0000      -7.319837      -199.1829
  85   2.0000      -7.319392      -199.1708
  86   2.0000      -7.319094      -199.1627
  87   2.0000      -7.318879      -199.1568
  88   2.0000      -7.318650      -199.1506
  89   2.0000      -7.311173      -198.9471
  90   2.0000      -7.310467      -198.9279
  91   2.0000      -7.308764      -198.8816
  92   2.0000      -7.308063      -198.8625
  93   2.0000      -6.056314      -164.8007
  94   2.0000      -6.051883      -164.6801
  95   2.0000      -6.051715      -164.6755
  96   2.0000      -6.048740      -164.5946
  97   2.0000      -6.047311      -164.5557
  98   2.0000      -6.044869      -164.4893
  99   2.0000      -6.034593      -164.2096
 100   2.0000      -6.030268      -164.0919
 101   2.0000      -6.029817      -164.0797
 102   2.0000      -6.027117      -164.0062
 103   2.0000      -6.025488      -163.9619
 104   2.0000      -6.022348      -163.8764
 105   2.0000      -1.329430       -36.1756
 106   2.0000      -1.143086       -31.1050
 107   2.0000      -1.136219       -30.9181
 108   2.0000      -1.129410       -30.7328
 109   2.0000      -1.037926       -28.2434
 110   2.0000      -1.035762       -28.1845
 111   2.0000      -1.025563       -27.9070
 112   2.0000      -1.024967       -27.8908
 113   2.0000      -1.020702       -27.7747
 114   2.0000      -1.017807       -27.6959
 115   2.0000      -1.009663       -27.4743
 116   2.0000      -1.003586       -27.3090
 117   2.0000      -0.998964       -27.1832
 118   2.0000      -0.996601       -27.1189
 119   2.0000      -0.988835       -26.9076
 120   2.0000      -0.988474       -26.8978
 121   2.0000      -0.987465       -26.8703
 122   2.0000      -0.984238       -26.7825
 123   2.0000      -0.966804       -26.3081
 124   2.0000      -0.960188       -26.1280
 125   2.0000      -0.956531       -26.0285
 126   2.0000      -0.947804       -25.7911
 127   2.0000      -0.940282       -25.5864
 128   2.0000      -0.936305       -25.4782
 129   2.0000      -0.928259       -25.2592
 130   2.0000      -0.922177       -25.0937
 131   2.0000      -0.911634       -24.8068
 132   2.0000      -0.902744       -24.5649
 133   2.0000      -0.898753       -24.4563
 134   2.0000      -0.884271       -24.0622
 135   2.0000      -0.879724       -23.9385
 136   2.0000      -0.867337       -23.6015
 137   2.0000      -0.864655       -23.5285
 138   2.0000      -0.860936       -23.4272
 139   2.0000      -0.857539       -23.3348
 140   2.0000      -0.854423       -23.2500
 141   2.0000      -0.836726       -22.7685
 142   2.0000      -0.832848       -22.6629
 143   2.0000      -0.819172       -22.2908
 144   2.0000      -0.811884       -22.0925
 145   2.0000      -0.800458       -21.7816
 146   2.0000      -0.796489       -21.6736
 147   2.0000      -0.789032       -21.4706
 148   2.0000      -0.779732       -21.2176
 149   2.0000      -0.769829       -20.9481
 150   2.0000      -0.765249       -20.8235
 151   2.0000      -0.758773       -20.6473
 152   2.0000      -0.752194       -20.4682
 153   2.0000      -0.735002       -20.0004
 154   2.0000      -0.732759       -19.9394
 155   2.0000      -0.731117       -19.8947
 156   2.0000      -0.715994       -19.4832
 157   2.0000      -0.702854       -19.1256
 158   2.0000      -0.697768       -18.9872
 159   2.0000      -0.693636       -18.8748
 160   2.0000      -0.689983       -18.7754
 161   2.0000      -0.688092       -18.7239
 162   2.0000      -0.679803       -18.4984
 163   2.0000      -0.675349       -18.3772
 164   2.0000      -0.668851       -18.2004
 165   2.0000      -0.666610       -18.1394
 166   2.0000      -0.648129       -17.6365
 167   2.0000      -0.647202       -17.6113
 168   2.0000      -0.642788       -17.4912
 169   2.0000      -0.640099       -17.4180
 170   2.0000      -0.638864       -17.3844
 171   2.0000      -0.630329       -17.1521
 172   2.0000      -0.629898       -17.1404
 173   2.0000      -0.624985       -17.0067
 174   2.0000      -0.617787       -16.8108
 175   2.0000      -0.612233       -16.6597
 176   2.0000      -0.611231       -16.6324
 177   2.0000      -0.607541       -16.5320
 178   2.0000      -0.602053       -16.3827
 179   2.0000      -0.593696       -16.1553
 180   2.0000      -0.591830       -16.1045
 181   2.0000      -0.582432       -15.8488
 182   2.0000      -0.578652       -15.7459
 183   2.0000      -0.572045       -15.5661
 184   2.0000      -0.568114       -15.4592
 185   2.0000      -0.566004       -15.4018
 186   2.0000      -0.564426       -15.3588
 187   2.0000      -0.560873       -15.2621
 188   2.0000      -0.554095       -15.0777
 189   2.0000      -0.552620       -15.0376
 190   2.0000      -0.550119       -14.9695
 191   2.0000      -0.549302       -14.9473
 192   2.0000      -0.545682       -14.8488
 193   2.0000      -0.545340       -14.8395
 194   2.0000      -0.540290       -14.7021
 195   2.0000      -0.539150       -14.6710
 196   2.0000      -0.536023       -14.5859
 197   2.0000      -0.534700       -14.5499
 198   2.0000      -0.529355       -14.4045
 199   2.0000      -0.527979       -14.3670
 200   2.0000      -0.524498       -14.2723
 201   2.0000      -0.523779       -14.2528
 202   2.0000      -0.520541       -14.1647
 203   2.0000      -0.519308       -14.1311
 204   2.0000      -0.517736       -14.0883
 205   2.0000      -0.513966       -13.9857
 206   2.0000      -0.509321       -13.8593
 207   2.0000      -0.508241       -13.8300
 208   2.0000      -0.505925       -13.7669
 209   2.0000      -0.502207       -13.6658
 210   2.0000      -0.496208       -13.5025
 211   2.0000      -0.494317       -13.4511
 212   2.0000      -0.489878       -13.3303
 213   2.0000      -0.489604       -13.3228
 214   2.0000      -0.483032       -13.1440
 215   2.0000      -0.481851       -13.1118
 216   2.0000      -0.478073       -13.0090
 217   2.0000      -0.477586       -12.9958
 218   2.0000      -0.474136       -12.9019
 219   2.0000      -0.469079       -12.7643
 220   2.0000      -0.464597       -12.6423
 221   2.0000      -0.462456       -12.5841
 222   2.0000      -0.461865       -12.5680
 223   2.0000      -0.457565       -12.4510
 224   2.0000      -0.457147       -12.4396
 225   2.0000      -0.451561       -12.2876
 226   2.0000      -0.451381       -12.2827
 227   2.0000      -0.449684       -12.2365
 228   2.0000      -0.447795       -12.1851
 229   2.0000      -0.444252       -12.0887
 230   2.0000      -0.442588       -12.0434
 231   2.0000      -0.441174       -12.0049
 232   2.0000      -0.439255       -11.9527
 233   2.0000      -0.438333       -11.9276
 234   2.0000      -0.438060       -11.9202
 235   2.0000      -0.436578       -11.8799
 236   2.0000      -0.435111       -11.8400
 237   2.0000      -0.433465       -11.7952
 238   2.0000      -0.431373       -11.7383
 239   2.0000      -0.430706       -11.7201
 240   2.0000      -0.428735       -11.6665
 241   2.0000      -0.427552       -11.6343
 242   2.0000      -0.424390       -11.5482
 243   2.0000      -0.423182       -11.5154
 244   2.0000      -0.422204       -11.4888
 245   2.0000      -0.421055       -11.4575
 246   2.0000      -0.419298       -11.4097
 247   2.0000      -0.416602       -11.3363
 248   2.0000      -0.414663       -11.2835
 249   2.0000      -0.414208       -11.2712
 250   2.0000      -0.411873       -11.2076
 251   2.0000      -0.408331       -11.1113
 252   2.0000      -0.406537       -11.0624
 253   2.0000      -0.404419       -11.0048
 254   2.0000      -0.401342       -10.9211
 255   2.0000      -0.395574       -10.7641
 256   2.0000      -0.389512       -10.5992
 257   2.0000      -0.385989       -10.5033
 258   2.0000      -0.382594       -10.4109
 259   2.0000      -0.376833       -10.2541
 260   2.0000      -0.374574       -10.1927
 261   2.0000      -0.354702        -9.6519
 262   2.0000      -0.351060        -9.5528
 263   2.0000      -0.349032        -9.4976
 264   2.0000      -0.346792        -9.4367
 265   2.0000      -0.335601        -9.1322
 266   2.0000      -0.335264        -9.1230
 267   2.0000      -0.334888        -9.1128
 268   2.0000      -0.324956        -8.8425
 269   2.0000      -0.316380        -8.6091
 270   2.0000      -0.316292        -8.6067
 271   2.0000      -0.314149        -8.5484
 272   2.0000      -0.302706        -8.2371
 273   2.0000      -0.292445        -7.9578
 274   2.0000      -0.285674        -7.7736
 275   2.0000      -0.257599        -7.0096
 276   2.0000      -0.238718        -6.4959
 277   0.0000      -0.121855        -3.3158
 278   0.0000      -0.100337        -2.7303
 279   0.0000      -0.081836        -2.2269
 280   0.0000      -0.071546        -1.9469
 281   0.0000      -0.065067        -1.7706

MULLIKEN ATOMIC CHARGES
-----------------------
   0 C :    0.253780
   1 C :   -0.319087
   2 C :   -0.182031
   3 N :    0.165186
   4 C :   -0.207093
   5 N :    0.176258
   6 C :    0.020959
   7 C :   -0.000125
   8 C :   -0.029113
   9 C :    0.057410
  10 C :    0.053484
  11 C :   -0.018093
  12 Cl:   -0.033201
  13 Cl:   -0.039573
  14 C :    0.139131
  15 O :   -0.130416
  16 C :   -0.125337
  17 C :    0.035700
  18 C :   -0.112363
  19 C :    0.003872
  20 C :    0.066980
  21 C :    0.067989
  22 C :   -0.114839
  23 S :    0.158565
  24 C :   -0.095167
  25 C :    0.051058
  26 C :    0.014068
  27 C :   -0.064531
  28 S :    0.143772
  29 C :    0.113293
  30 C :    0.008520
  31 C :   -0.073982
  32 C :   -0.036911
  33 N :   -0.064417
  34 N :   -0.064927
  35 C :   -0.008151
  36 C :    0.019967
  37 C :    0.006373
  38 N :    0.067949
  39 O :   -0.088236
  40 N :    0.071712
  41 C :   -0.097935
  42 C :   -0.077077
  43 C :    0.054281
  44 C :    0.057949
  45 C :   -0.122429
  46 S :    0.221600
  47 C :   -0.109033
  48 C :    0.066438
  49 C :    0.012734
  50 C :   -0.068607
  51 S :    0.134764
  52 C :    0.072684
  53 C :    0.006533
  54 C :   -0.024247
  55 C :   -0.019818
  56 C :   -0.092248
  57 C :    0.317686
  58 C :   -0.346431
  59 C :   -0.190664
  60 N :    0.151759
  61 C :   -0.195349
  62 N :    0.145867
  63 C :    0.031110
  64 C :    0.001763
  65 C :    0.155580
  66 O :   -0.174793
  67 C :   -0.031700
  68 C :    0.059875
  69 C :    0.045727
  70 C :   -0.015896
  71 Cl:   -0.040405
  72 Cl:   -0.050207
  73 H :    0.003378
  74 H :    0.004342
  75 H :    0.038418
  76 H :   -0.003830
  77 H :    0.044441
  78 H :   -0.005944
  79 H :    0.033349
  80 H :    0.014757
  81 H :   -0.002330
  82 H :    0.020934
  83 H :    0.041896
  84 H :   -0.010743
  85 H :    0.032244
  86 H :   -0.001250
  87 H :    0.030077
  88 H :    0.009807
  89 H :   -0.016668
  90 H :   -0.000822
Sum of atomic charges:   -0.0000000

LOEWDIN ATOMIC CHARGES
----------------------
   0 C :    0.056414
   1 C :   -0.136702
   2 C :   -0.022364
   3 N :   -0.042798
   4 C :   -0.035790
   5 N :   -0.047010
   6 C :   -0.010263
   7 C :   -0.046541
   8 C :    0.003005
   9 C :   -0.135111
  10 C :   -0.128585
  11 C :   -0.015482
  12 Cl:    0.164702
  13 Cl:    0.161204
  14 C :    0.084077
  15 O :   -0.131980
  16 C :   -0.098180
  17 C :    0.047379
  18 C :   -0.181444
  19 C :    0.025037
  20 C :   -0.013365
  21 C :   -0.045055
  22 C :   -0.123581
  23 S :    0.491670
  24 C :   -0.189995
  25 C :   -0.038380
  26 C :   -0.057386
  27 C :   -0.156776
  28 S :    0.433907
  29 C :   -0.029940
  30 C :    0.041825
  31 C :   -0.050693
  32 C :   -0.003913
  33 N :   -0.054549
  34 N :   -0.061184
  35 C :   -0.031155
  36 C :   -0.054620
  37 C :   -0.061394
  38 N :   -0.009992
  39 O :    0.086039
  40 N :    0.002628
  41 C :   -0.174036
  42 C :    0.000688
  43 C :    0.005298
  44 C :   -0.051630
  45 C :   -0.133769
  46 S :    0.521421
  47 C :   -0.201128
  48 C :   -0.038336
  49 C :   -0.060843
  50 C :   -0.159537
  51 S :    0.426709
  52 C :   -0.054538
  53 C :    0.045303
  54 C :   -0.048301
  55 C :    0.069181
  56 C :   -0.108035
  57 C :    0.074114
  58 C :   -0.142908
  59 C :   -0.020726
  60 N :   -0.054237
  61 C :   -0.019971
  62 N :   -0.056222
  63 C :   -0.012137
  64 C :   -0.041402
  65 C :    0.087186
  66 O :   -0.160516
  67 C :   -0.002215
  68 C :   -0.135796
  69 C :   -0.132134
  70 C :   -0.013212
  71 Cl:    0.157752
  72 Cl:    0.153495
  73 H :    0.047314
  74 H :    0.044549
  75 H :    0.053192
  76 H :    0.043512
  77 H :    0.040717
  78 H :    0.035331
  79 H :    0.026455
  80 H :    0.040919
  81 H :    0.030814
  82 H :    0.044339
  83 H :    0.038591
  84 H :    0.033419
  85 H :    0.025768
  86 H :    0.036397
  87 H :    0.031292
  88 H :    0.041201
  89 H :    0.039035
  90 H :    0.043978

  Mayer bond orders larger than 0.100000
B(  0-C ,  1-C ) :   1.6538 B(  0-C ,  6-C ) :   1.0072 B(  0-C , 16-C ) :   1.0403
B(  1-C ,  2-C ) :   1.1353 B(  1-C ,  4-C ) :   1.1588 B(  2-C ,  3-N ) :   2.9914
B(  4-C ,  5-N ) :   3.0141 B(  6-C ,  7-C ) :   1.3266 B(  6-C , 11-C ) :   1.3497
B(  7-C ,  8-C ) :   1.3502 B(  7-C , 14-C ) :   0.9224 B(  8-C ,  9-C ) :   1.3451
B(  8-C , 73-H ) :   1.0159 B(  9-C , 10-C ) :   1.4059 B(  9-C , 13-Cl) :   1.0507
B( 10-C , 11-C ) :   1.3559 B( 10-C , 12-Cl) :   1.0720 B( 11-C , 74-H ) :   0.9895
B( 14-C , 15-O ) :   2.2787 B( 14-C , 16-C ) :   0.9401 B( 16-C , 17-C ) :   1.6338
B( 17-C , 18-C ) :   1.1257 B( 17-C , 75-H ) :   0.9461 B( 18-C , 19-C ) :   1.4570
B( 18-C , 23-S ) :   1.0637 B( 19-C , 20-C ) :   1.2531 B( 19-C , 76-H ) :   0.9749
B( 20-C , 21-C ) :   1.0580 B( 20-C , 29-C ) :   1.3410 B( 21-C , 22-C ) :   1.5816
B( 21-C , 24-C ) :   1.1919 B( 22-C , 23-S ) :   1.1623 B( 22-C , 77-H ) :   0.9409
B( 24-C , 25-C ) :   1.4183 B( 24-C , 28-S ) :   1.0886 B( 25-C , 26-C ) :   1.2184
B( 25-C , 29-C ) :   1.1237 B( 26-C , 27-C ) :   1.5935 B( 26-C , 78-H ) :   0.9990
B( 27-C , 28-S ) :   1.1480 B( 27-C , 79-H ) :   0.9659 B( 29-C , 30-C ) :   1.1227
B( 30-C , 31-C ) :   1.5754 B( 30-C , 80-H ) :   0.9684 B( 31-C , 32-C ) :   1.1835
B( 31-C , 81-H ) :   0.9761 B( 32-C , 33-N ) :   1.6484 B( 32-C , 35-C ) :   0.1034
B( 32-C , 37-C ) :   1.0274 B( 33-N , 34-N ) :   1.2255 B( 34-N , 35-C ) :   1.6971
B( 35-C , 36-C ) :   1.0844 B( 35-C , 41-C ) :   1.1532 B( 36-C , 37-C ) :   1.1729
B( 36-C , 40-N ) :   1.5775 B( 37-C , 38-N ) :   1.6325 B( 38-N , 39-O ) :   1.0651
B( 38-N , 40-N ) :   0.1782 B( 39-O , 40-N ) :   1.0674 B( 41-C , 42-C ) :   1.5217
B( 41-C , 46-S ) :   1.0741 B( 42-C , 43-C ) :   1.2592 B( 42-C , 82-H ) :   0.9447
B( 43-C , 44-C ) :   1.0893 B( 43-C , 52-C ) :   1.3146 B( 44-C , 45-C ) :   1.5626
B( 44-C , 47-C ) :   1.1792 B( 45-C , 46-S ) :   1.1651 B( 45-C , 83-H ) :   0.9412
B( 47-C , 48-C ) :   1.4336 B( 47-C , 51-S ) :   1.0801 B( 48-C , 49-C ) :   1.2234
B( 48-C , 52-C ) :   1.1007 B( 49-C , 50-C ) :   1.5860 B( 49-C , 84-H ) :   0.9994
B( 50-C , 51-S ) :   1.1535 B( 50-C , 85-H ) :   0.9668 B( 52-C , 53-C ) :   1.1919
B( 53-C , 54-C ) :   1.4738 B( 53-C , 86-H ) :   0.9768 B( 54-C , 55-C ) :   1.2339
B( 54-C , 87-H ) :   0.9710 B( 55-C , 56-C ) :   1.4679 B( 55-C , 88-H ) :   0.9667
B( 56-C , 57-C ) :   1.0858 B( 56-C , 65-C ) :   0.9748 B( 57-C , 58-C ) :   1.6206
B( 57-C , 63-C ) :   0.9862 B( 58-C , 59-C ) :   1.1419 B( 58-C , 61-C ) :   1.1482
B( 59-C , 60-N ) :   2.9711 B( 61-C , 62-N ) :   2.9712 B( 63-C , 64-C ) :   1.3328
B( 63-C , 70-C ) :   1.3465 B( 64-C , 65-C ) :   0.9494 B( 64-C , 67-C ) :   1.3435
B( 65-C , 66-O ) :   2.1311 B( 67-C , 68-C ) :   1.3427 B( 67-C , 89-H ) :   1.0147
B( 68-C , 69-C ) :   1.4150 B( 68-C , 72-Cl) :   1.0396 B( 69-C , 70-C ) :   1.3527
B( 69-C , 71-Cl) :   1.0705 B( 70-C , 90-H ) :   0.9867

-----------------------------------------------------------------------------
         ABSORPTION SPECTRUM VIA TRANSITION ELECTRIC DIPOLE MOMENTS
-----------------------------------------------------------------------------
State   Energy  Wavelength   fosc         T2         TX        TY        TZ
        (cm-1)    (nm)                  (au**2)     (au)      (au)      (au)
-----------------------------------------------------------------------------
   0   11121.8    899.1   0.781022290  23.11876   0.52394   4.41969  -1.81950
   1   15087.2    662.8   0.555724298  12.12628  -3.02615   1.71574  -0.15781
   2   16950.1    590.0   0.182975236   3.55383   1.88073   0.12797   0.01749
   3   18836.2    530.9   0.324239596   5.66693   1.37540  -0.34130   1.91278
   4   19546.8    511.6   0.017259975   0.29070   0.35545  -0.17952   0.36349
   5   20625.3    484.8   0.242257100   3.86680   0.22486  -0.27682   1.93381
   6   21764.0    459.5   0.042378355   0.64103  -0.79053   0.07361  -0.10334
   7   22299.0    448.5   0.006370613   0.09405   0.03298   0.05839  -0.29926
   8   22775.8    439.1   0.082445794   1.19171   0.96914  -0.42674   0.26529
   9   23334.4    428.6   0.015761453   0.22237  -0.23219   0.25813   0.31910
  10   23524.0    425.1   0.023670993   0.33127  -0.12792   0.09254  -0.55348
  11   24209.2    413.1   0.302967374   4.11994   1.65326  -0.62299   0.99927
  12   25173.0    397.3   0.146145181   1.91128  -1.32094  -0.11437   0.39155
  13   26354.4    379.4   0.074625921   0.93221   0.62930   0.61393  -0.39910
  14   26987.1    370.5   0.090358830   1.10227  -0.93198  -0.37816   0.30114
  15   27167.2    368.1   0.093618855   1.13447   0.60043  -0.86609   0.15440
  16   27317.1    366.1   0.004957968   0.05975   0.07824   0.21008  -0.09744
  17   27660.6    361.5   0.057814332   0.68810   0.21240   0.57645  -0.55739
  18   28620.5    349.4   0.113989771   1.31119   0.79682  -0.37607   0.73133
  19   29289.0    341.4   0.015663670   0.17606   0.11321  -0.31511   0.25288
  20   29385.4    340.3   0.007453913   0.08351  -0.11242   0.26527   0.02247
  21   29502.1    339.0   0.066392428   0.74087  -0.76066   0.27043   0.29855
  22   29712.9    336.6   0.056581454   0.62691   0.21137   0.32803  -0.68893
  23   29829.6    335.2   0.082931934   0.91527   0.53118  -0.43203   0.66818
  24   30689.9    325.8   0.025819395   0.27697   0.06784  -0.31159   0.41866
  25   30851.2    324.1   0.112871975   1.20445  -0.15268   0.69866  -0.83247
  26   30989.2    322.7   0.003948229   0.04194   0.01954   0.13009  -0.15697
  27   31203.9    320.5   0.032926424   0.34739   0.21556   0.53394   0.12579
  28   31651.2    315.9   0.026760522   0.27834  -0.45463  -0.14354   0.22594
  29   31698.6    315.5   0.111775512   1.16087   0.46981  -0.94491   0.21747
  30   32349.5    309.1   0.038468493   0.39148  -0.58691   0.18844   0.10725
  31   32527.4    307.4   0.004608247   0.04664   0.13121  -0.15759   0.06774
  32   32601.7    306.7   0.038836127   0.39217  -0.58538   0.10513   0.19606
  33   32666.7    306.1   0.125997925   1.26979  -0.10545  -0.16256   1.11007
  34   32760.4    305.2   0.028209167   0.28348  -0.51428   0.13660  -0.01823
  35   32785.8    305.0   0.105269594   1.05704   0.86874  -0.27917  -0.47372
  36   33463.8    298.8   0.049851215   0.49043   0.44025  -0.35505   0.41297
  37   33785.2    296.0   0.209138394   2.03790  -0.79334   1.18095  -0.11782
  38   34088.3    293.4   0.302716093   2.92352   1.51929  -0.71492  -0.32274
  39   34168.6    292.7   0.228651962   2.20304  -0.71531  -0.64879   1.12714
  40   34302.7    291.5   0.235751398   2.26257   1.18639  -0.92334  -0.04998
  41   34617.8    288.9   0.023025669   0.21897  -0.07825   0.43521  -0.15310
  42   34916.8    286.4   0.079684676   0.75130   0.77055  -0.27553   0.28571
  43   35187.3    284.2   0.182412708   1.70665   0.73479   0.83893  -0.68040
  44   35264.4    283.6   0.384057641   3.58538   0.58972   1.24117  -1.30274
  45   35709.2    280.0   0.071748005   0.66146  -0.52232  -0.20256   0.58959
  46   35800.8    279.3   0.099813900   0.91786  -0.95791   0.01321   0.00939
  47   35871.8    278.8   0.192378050   1.76554  -1.12463  -0.53407   0.46424
  48   36098.0    277.0   0.003360537   0.03065  -0.13107  -0.11551  -0.01127
  49   36749.3    272.1   0.184028310   1.64858  -0.69277   0.99114  -0.43161
  50   37072.0    269.7   0.123157729   1.09368   0.85221   0.52149  -0.30899
  51   37338.5    267.8   0.096415892   0.85010   0.34811  -0.65163   0.55162
  52   37461.5    266.9   0.327747607   2.88024  -0.50592  -1.06223   1.22309
  53   37662.1    265.5   0.001296823   0.01134   0.00397  -0.05871   0.08873
  54   37923.4    263.7   0.051595471   0.44790  -0.36377   0.54506  -0.13593
  55   38080.8    262.6   0.032397644   0.28008  -0.39009   0.31038  -0.17768
  56   38182.6    261.9   0.096821477   0.83480  -0.86846  -0.05505  -0.27848
  57   38287.8    261.2   0.027534876   0.23675  -0.28831   0.21276  -0.32919
  58   38464.9    260.0   0.156560875   1.33997  -0.52862   0.24345  -1.00063
  59   38774.7    257.9   0.060258455   0.51162   0.22501  -0.57286   0.36445
  60   38998.6    256.4   0.001607338   0.01357   0.05089  -0.01501   0.10370
  61   39633.0    252.3   0.035603344   0.29574  -0.41050   0.22445  -0.27722
  62   39785.5    251.3   0.001455557   0.01204   0.07289  -0.04684   0.06736
  63   39882.7    250.7   0.018709952   0.15444  -0.29456   0.25239   0.06308
  64   40094.9    249.4   0.020305808   0.16673   0.01365   0.40685   0.03183
  65   40267.8    248.3   0.020236925   0.16545  -0.33574   0.01657   0.22902
  66   40303.2    248.1   0.002953938   0.02413  -0.10008   0.00955  -0.11842

FINAL SINGLE POINT ENERGY     -6161.078734552380

DIPOLE MOMENT
-------------
                                X             Y             Z
Electronic contribution:     43.24427     -44.52035      19.57355
Nuclear contribution   :    -46.17839      44.02784     -18.38282
                        -----------------------------------------
Total Dipole Moment    :     -2.93411      -0.49250       1.19073
                        -----------------------------------------
Magnitude (a.u.)       :      3.20459
Magnitude (Debye)      :      8.14543

Rotational constants in cm-1:     0.000900     0.000334     0.000280
Rotational constants in MHz :    26.977620    10.012326     8.383972

                             ****ORCA TERMINATED NORMALLY****
TOTAL RUN TIME: 0 days 0 hours 10 minutes 57 seconds 748 msec
