                         Program Version 4.2.0 -  RELEASE  -
|  1> # ORCA input file
|  2> # SCF done       -182.893565713919          0.000933707611
|  3> ! CAM-B3LYP def2-SVP def2/J RIJCOSX Grid4 TightSCF
|  4> %maxcore 5000
|  5> %tddft
|  6>     Mode sTDDFT
|  7>     Ethresh 5.0
|  8>     maxcore 5000
|  9> end
| 10>
| 11> %pal
| 12>   nprocs 6
| 13>   end
| 14> * xyz 0 1
| 15>    C       -1.29399         0.06899         2.93545
| 16>    C       -0.70397         1.27312         3.23184
| 17>    C        0.20817         1.46878         4.28795
| 18>    N        0.95767         1.69315         5.12885
| 19>    C       -0.95453         2.48388         2.55438
| 20>    N       -1.12463         3.51406         2.07478
| 21>    C       -1.15848        -1.15661         3.71426
| 22>    C       -2.02819        -2.13400         3.17022
| 23>    C       -2.15318        -3.39171         3.70758
| 24>    C       -1.37697        -3.70280         4.83064
| 25>    C       -0.49394        -2.72770         5.35228
| 26>    C       -0.37532        -1.45194         4.81358
| 27>    S        0.38375        -3.32651         6.72410
| 28>    C       -0.45006        -4.84825         6.59627
| 29>    C       -1.33381        -4.91413         5.57163
| 30>   Br       -0.07342        -6.21661         7.81970
| 31>    C       -2.71808        -1.57485         1.98787
| 32>    O       -3.46222        -2.17754         1.23734
| 33>    C       -2.23504        -0.18563         1.86718
| 34>    C       -2.45675         0.65120         0.79788
| 35>    C       -3.45781         0.57860        -0.18257
| 36>    S       -3.09943         1.29759        -1.73425
| 37>    C       -4.62928         0.81967        -2.33234
| 38>    C       -5.41045         0.18104        -1.41826
| 39>    C       -6.79346        -0.26274        -1.76307
| 40>    C       -4.76162         0.04661        -0.15048
| 41>    C       -5.31798        -0.41107         1.07680
| 42>    C       -6.43530        -1.16472         1.26362
| 43>    C       -6.89871        -1.62407         2.51927
| 44>    C       -6.16311        -1.70664         3.66752
| 45>    C       -6.65421        -2.20366         4.88283
| 46>    S       -8.34952        -2.51138         5.13182
| 47>    C       -8.11491        -3.09268         6.75683
| 48>    C       -6.73865        -3.06321         7.08748
| 49>    C       -5.92345        -2.54500         6.03946
| 50>    C       -4.53390        -2.44272         6.22113
| 51>    C       -3.99202        -2.85187         7.40722
| 52>    F       -2.66271        -2.76263         7.59946
| 53>    C       -4.79575        -3.37169         8.43998
| 54>    F       -4.21361        -3.76915         9.58413
| 55>    C       -6.15233        -3.47630         8.29236
| 56>    C       -9.18204        -3.49180         7.55745
| 57>    C      -10.50554        -3.39189         7.18517
| 58>    C      -11.57649        -3.77184         7.98120
| 59>    C      -12.90393        -3.59887         7.62863
| 60>    C      -14.03857        -3.96054         8.38096
| 61>    C      -15.22957        -3.63888         7.79132
| 62>    C      -15.09328        -3.00054         6.54442
| 63>    S      -13.40041        -2.83590         6.13131
| 64>    C      -16.09128        -2.52492         5.70941
| 65>    C      -17.48606        -2.54742         5.93173
| 66>    C      -18.20405        -1.98825         4.92141
| 67>    C      -17.42299        -1.47566         3.84716
| 68>    S      -15.72614        -1.75214         4.18593
| 69>    C      -17.97190        -0.94056         2.71448
| 70>    C      -17.40603        -0.41684         1.51619
| 71>    C      -16.09667         0.05882         1.34055
| 72>    O      -15.37015         0.10729         2.47946
| 73>    C      -14.00069         0.44091         2.53614
| 74>    C      -15.64524         0.51291         0.05691
| 75>    O      -14.34653         0.92862        -0.01576
| 76>    C      -13.85191         1.40192        -1.24560
| 77>    C      -16.48443         0.53350        -1.03212
| 78>    C      -17.81338         0.11740        -0.87831
| 79>    C      -18.27979        -0.34901         0.39353
| 80>    N      -19.55957        -0.70311         0.35832
| 81>    S      -20.12148        -0.46180        -1.13660
| 82>    N      -18.76575         0.09517        -1.80806
| 83>    H       -2.83295        -4.11193         3.27917
| 84>    H        0.30644        -0.74070         5.24874
| 85>    H       -1.93292        -5.77839         5.34909
| 86>    H       -1.73860         1.44896         0.64380
| 87>    H       -4.88335         1.04275        -3.35100
| 88>    H       -7.05966         0.10186        -2.75279
| 89>    H       -7.51178         0.12585        -1.04333
| 90>    H       -6.85569        -1.35003        -1.77260
| 91>    H       -4.77905        -0.08821         1.95804
| 92>    H       -7.01895        -1.48153         0.41529
| 93>    H       -7.91017        -2.01208         2.54909
| 94>    H       -5.11711        -1.43716         3.64850
| 95>    H       -3.89220        -2.05370         5.44778
| 96>    H       -6.74401        -3.87609         9.09914
| 97>    H       -8.94715        -3.88023         8.53877
| 98>    H      -10.73039        -2.97230         6.21161
| 99>    H      -11.37849        -4.22206         8.94527
|100>    H      -13.94733        -4.44604         9.33669
|101>    H      -16.19188        -3.84180         8.22567
|102>    H      -17.91805        -2.96371         6.82405
|103>    H      -19.27728        -1.91581         4.90685
|104>    H      -19.05453        -0.98502         2.67218
|105>    H      -13.72688         0.29850         3.58170
|106>    H      -13.82694         1.47879         2.24881
|107>    H      -13.39593        -0.21921         1.91291
|108>    H      -13.88278         0.62650        -2.01672
|109>    H      -12.81654         1.67769        -1.05126
|110>    H      -14.40390         2.28189        -1.58888
|111>    H      -16.16274         0.87258        -2.00084
|112> *
|113>
|114>                          ****END OF INPUT****

CARTESIAN COORDINATES (ANGSTROEM)
---------------------------------
  C     -1.293990    0.068990    2.935450
  C     -0.703970    1.273120    3.231840
  C      0.208170    1.468780    4.287950
  N      0.957670    1.693150    5.128850
  C     -0.954530    2.483880    2.554380
  N     -1.124630    3.514060    2.074780
  C     -1.158480   -1.156610    3.714260
  C     -2.028190   -2.134000    3.170220
  C     -2.153180   -3.391710    3.707580
  C     -1.376970   -3.702800    4.830640
  C     -0.493940   -2.727700    5.352280
  C     -0.375320   -1.451940    4.813580
  S      0.383750   -3.326510    6.724100
  C     -0.450060   -4.848250    6.596270
  C     -1.333810   -4.914130    5.571630
  Br    -0.073420   -6.216610    7.819700
  C     -2.718080   -1.574850    1.987870
  O     -3.462220   -2.177540    1.237340
  C     -2.235040   -0.185630    1.867180
  C     -2.456750    0.651200    0.797880
  C     -3.457810    0.578600   -0.182570
  S     -3.099430    1.297590   -1.734250
  C     -4.629280    0.819670   -2.332340
  C     -5.410450    0.181040   -1.418260
  C     -6.793460   -0.262740   -1.763070
  C     -4.761620    0.046610   -0.150480
  C     -5.317980   -0.411070    1.076800
  C     -6.435300   -1.164720    1.263620
  C     -6.898710   -1.624070    2.519270
  C     -6.163110   -1.706640    3.667520
  C     -6.654210   -2.203660    4.882830
  S     -8.349520   -2.511380    5.131820
  C     -8.114910   -3.092680    6.756830
  C     -6.738650   -3.063210    7.087480
  C     -5.923450   -2.545000    6.039460
  C     -4.533900   -2.442720    6.221130
  C     -3.992020   -2.851870    7.407220
  F     -2.662710   -2.762630    7.599460
  C     -4.795750   -3.371690    8.439980
  F     -4.213610   -3.769150    9.584130
  C     -6.152330   -3.476300    8.292360
  C     -9.182040   -3.491800    7.557450
  C    -10.505540   -3.391890    7.185170
  C    -11.576490   -3.771840    7.981200
  C    -12.903930   -3.598870    7.628630
  C    -14.038570   -3.960540    8.380960
  C    -15.229570   -3.638880    7.791320
  C    -15.093280   -3.000540    6.544420
  S    -13.400410   -2.835900    6.131310
  C    -16.091280   -2.524920    5.709410
  C    -17.486060   -2.547420    5.931730
  C    -18.204050   -1.988250    4.921410
  C    -17.422990   -1.475660    3.847160
  S    -15.726140   -1.752140    4.185930
  C    -17.971900   -0.940560    2.714480
  C    -17.406030   -0.416840    1.516190
  C    -16.096670    0.058820    1.340550
  O    -15.370150    0.107290    2.479460
  C    -14.000690    0.440910    2.536140
  C    -15.645240    0.512910    0.056910
  O    -14.346530    0.928620   -0.015760
  C    -13.851910    1.401920   -1.245600
  C    -16.484430    0.533500   -1.032120
  C    -17.813380    0.117400   -0.878310
  C    -18.279790   -0.349010    0.393530
  N    -19.559570   -0.703110    0.358320
  S    -20.121480   -0.461800   -1.136600
  N    -18.765750    0.095170   -1.808060
  H     -2.832950   -4.111930    3.279170
  H      0.306440   -0.740700    5.248740
  H     -1.932920   -5.778390    5.349090
  H     -1.738600    1.448960    0.643800
  H     -4.883350    1.042750   -3.351000
  H     -7.059660    0.101860   -2.752790
  H     -7.511780    0.125850   -1.043330
  H     -6.855690   -1.350030   -1.772600
  H     -4.779050   -0.088210    1.958040
  H     -7.018950   -1.481530    0.415290
  H     -7.910170   -2.012080    2.549090
  H     -5.117110   -1.437160    3.648500
  H     -3.892200   -2.053700    5.447780
  H     -6.744010   -3.876090    9.099140
  H     -8.947150   -3.880230    8.538770
  H    -10.730390   -2.972300    6.211610
  H    -11.378490   -4.222060    8.945270
  H    -13.947330   -4.446040    9.336690
  H    -16.191880   -3.841800    8.225670
  H    -17.918050   -2.963710    6.824050
  H    -19.277280   -1.915810    4.906850
  H    -19.054530   -0.985020    2.672180
  H    -13.726880    0.298500    3.581700
  H    -13.826940    1.478790    2.248810
  H    -13.395930   -0.219210    1.912910
  H    -13.882780    0.626500   -2.016720
  H    -12.816540    1.677690   -1.051260
  H    -14.403900    2.281890   -1.588880
  H    -16.162740    0.872580   -2.000840

 Total Charge           Charge          ....    0
 Multiplicity           Mult            ....    1
 Number of Electrons    NEL             ....  542
 Basis Dimension        Dim             .... 1139

ORBITAL ENERGIES
----------------

  NO   OCC          E(Eh)            E(eV)
   0   2.0000    -482.877917    -13139.7761
   1   2.0000     -89.008821     -2422.0532
   2   2.0000     -88.966822     -2420.9103
   3   2.0000     -88.962175     -2420.7839
   4   2.0000     -88.958869     -2420.6939
   5   2.0000     -88.944866     -2420.3129
   6   2.0000     -88.942049     -2420.2362
   7   2.0000     -62.555688     -1702.2268
   8   2.0000     -56.389623     -1534.4396
   9   2.0000     -56.386937     -1534.3666
  10   2.0000     -56.386898     -1534.3655
  11   2.0000     -24.787324      -674.4974
  12   2.0000     -24.783317      -674.3884
  13   2.0000     -19.265184      -524.2323
  14   2.0000     -19.260391      -524.1019
  15   2.0000     -19.206659      -522.6398
  16   2.0000     -14.426942      -392.5770
  17   2.0000     -14.426079      -392.5536
  18   2.0000     -14.406640      -392.0246
  19   2.0000     -14.406350      -392.0167
  20   2.0000     -10.365775      -282.0671
  21   2.0000     -10.364328      -282.0277
  22   2.0000     -10.357558      -281.8435
  23   2.0000     -10.356935      -281.8265
  24   2.0000     -10.355278      -281.7814
  25   2.0000     -10.350319      -281.6465
  26   2.0000     -10.338304      -281.3196
  27   2.0000     -10.332583      -281.1639
  28   2.0000     -10.332036      -281.1490
  29   2.0000     -10.320013      -280.8218
  30   2.0000     -10.317179      -280.7447
  31   2.0000     -10.314169      -280.6628
  32   2.0000     -10.314042      -280.6593
  33   2.0000     -10.313716      -280.6505
  34   2.0000     -10.310076      -280.5514
  35   2.0000     -10.309885      -280.5462
  36   2.0000     -10.309735      -280.5422
  37   2.0000     -10.308005      -280.4951
  38   2.0000     -10.307598      -280.4840
  39   2.0000     -10.307115      -280.4709
  40   2.0000     -10.305672      -280.4316
  41   2.0000     -10.304936      -280.4116
  42   2.0000     -10.303803      -280.3807
  43   2.0000     -10.303329      -280.3678
  44   2.0000     -10.300436      -280.2891
  45   2.0000     -10.299831      -280.2727
  46   2.0000     -10.298440      -280.2348
  47   2.0000     -10.296586      -280.1843
  48   2.0000     -10.293934      -280.1122
  49   2.0000     -10.292084      -280.0618
  50   2.0000     -10.290514      -280.0191
  51   2.0000     -10.289300      -279.9861
  52   2.0000     -10.288706      -279.9699
  53   2.0000     -10.288545      -279.9655
  54   2.0000     -10.288294      -279.9587
  55   2.0000     -10.288133      -279.9543
  56   2.0000     -10.288019      -279.9512
  57   2.0000     -10.286635      -279.9136
  58   2.0000     -10.285960      -279.8952
  59   2.0000     -10.285001      -279.8691
  60   2.0000     -10.283821      -279.8370
  61   2.0000     -10.283276      -279.8222
  62   2.0000     -10.282069      -279.7893
  63   2.0000     -10.282028      -279.7882
  64   2.0000     -10.281810      -279.7823
  65   2.0000     -10.281219      -279.7662
  66   2.0000     -10.279848      -279.7289
  67   2.0000     -10.276932      -279.6495
  68   2.0000     -10.276829      -279.6467
  69   2.0000     -10.275826      -279.6194
  70   2.0000     -10.275640      -279.6144
  71   2.0000     -10.273271      -279.5499
  72   2.0000      -8.785135      -239.0557
  73   2.0000      -8.100886      -220.4363
  74   2.0000      -8.062891      -219.4024
  75   2.0000      -8.057145      -219.2461
  76   2.0000      -8.055112      -219.1907
  77   2.0000      -8.041121      -218.8100
  78   2.0000      -8.037207      -218.7035
  79   2.0000      -6.621401      -180.1775
  80   2.0000      -6.606880      -179.7824
  81   2.0000      -6.606706      -179.7776
  82   2.0000      -6.072215      -165.2334
  83   2.0000      -6.064596      -165.0260
  84   2.0000      -6.062894      -164.9797
  85   2.0000      -6.032575      -164.1547
  86   2.0000      -6.028295      -164.0383
  87   2.0000      -6.026144      -163.9797
  88   2.0000      -6.024345      -163.9308
  89   2.0000      -6.024094      -163.9239
  90   2.0000      -6.022289      -163.8748
  91   2.0000      -6.020203      -163.8181
  92   2.0000      -6.019678      -163.8038
  93   2.0000      -6.017250      -163.7377
  94   2.0000      -6.010774      -163.5615
  95   2.0000      -6.007031      -163.4596
  96   2.0000      -6.006833      -163.4542
  97   2.0000      -6.002760      -163.3434
  98   2.0000      -6.002141      -163.3265
  99   2.0000      -5.998247      -163.2206
 100   2.0000      -2.737271       -74.4849
 101   2.0000      -2.733224       -74.3748
 102   2.0000      -2.733054       -74.3702
 103   2.0000      -2.721537       -74.0568
 104   2.0000      -2.721512       -74.0561
 105   2.0000      -1.306311       -35.5465
 106   2.0000      -1.291229       -35.1361
 107   2.0000      -1.176925       -32.0258
 108   2.0000      -1.155068       -31.4310
 109   2.0000      -1.120496       -30.4903
 110   2.0000      -1.111312       -30.2403
 111   2.0000      -1.015023       -27.6202
 112   2.0000      -1.005089       -27.3499
 113   2.0000      -1.000865       -27.2349
 114   2.0000      -0.993366       -27.0309
 115   2.0000      -0.993193       -27.0262
 116   2.0000      -0.985099       -26.8059
 117   2.0000      -0.980973       -26.6936
 118   2.0000      -0.972833       -26.4721
 119   2.0000      -0.966993       -26.3132
 120   2.0000      -0.953250       -25.9393
 121   2.0000      -0.942701       -25.6522
 122   2.0000      -0.935283       -25.4503
 123   2.0000      -0.921155       -25.0659
 124   2.0000      -0.905098       -24.6290
 125   2.0000      -0.900573       -24.5058
 126   2.0000      -0.898749       -24.4562
 127   2.0000      -0.890673       -24.2364
 128   2.0000      -0.880977       -23.9726
 129   2.0000      -0.878125       -23.8950
 130   2.0000      -0.869610       -23.6633
 131   2.0000      -0.862977       -23.4828
 132   2.0000      -0.861768       -23.4499
 133   2.0000      -0.857359       -23.3299
 134   2.0000      -0.842395       -22.9227
 135   2.0000      -0.837868       -22.7996
 136   2.0000      -0.835473       -22.7344
 137   2.0000      -0.828608       -22.5476
 138   2.0000      -0.821613       -22.3572
 139   2.0000      -0.819790       -22.3076
 140   2.0000      -0.814738       -22.1701
 141   2.0000      -0.809049       -22.0153
 142   2.0000      -0.795373       -21.6432
 143   2.0000      -0.786018       -21.3886
 144   2.0000      -0.781227       -21.2583
 145   2.0000      -0.761311       -20.7163
 146   2.0000      -0.753081       -20.4924
 147   2.0000      -0.745923       -20.2976
 148   2.0000      -0.741026       -20.1643
 149   2.0000      -0.734064       -19.9749
 150   2.0000      -0.723589       -19.6899
 151   2.0000      -0.710908       -19.3448
 152   2.0000      -0.701346       -19.0846
 153   2.0000      -0.698260       -19.0006
 154   2.0000      -0.687457       -18.7067
 155   2.0000      -0.684689       -18.6313
 156   2.0000      -0.677276       -18.4296
 157   2.0000      -0.674775       -18.3616
 158   2.0000      -0.672195       -18.2914
 159   2.0000      -0.665684       -18.1142
 160   2.0000      -0.652914       -17.7667
 161   2.0000      -0.651355       -17.7243
 162   2.0000      -0.650413       -17.6986
 163   2.0000      -0.636400       -17.3173
 164   2.0000      -0.633547       -17.2397
 165   2.0000      -0.630671       -17.1614
 166   2.0000      -0.623580       -16.9685
 167   2.0000      -0.621975       -16.9248
 168   2.0000      -0.616806       -16.7841
 169   2.0000      -0.615798       -16.7567
 170   2.0000      -0.611510       -16.6400
 171   2.0000      -0.609556       -16.5869
 172   2.0000      -0.608118       -16.5477
 173   2.0000      -0.606887       -16.5142
 174   2.0000      -0.596205       -16.2236
 175   2.0000      -0.589274       -16.0350
 176   2.0000      -0.588684       -16.0189
 177   2.0000      -0.584763       -15.9122
 178   2.0000      -0.578483       -15.7413
 179   2.0000      -0.573491       -15.6055
 180   2.0000      -0.572197       -15.5703
 181   2.0000      -0.568531       -15.4705
 182   2.0000      -0.554756       -15.0957
 183   2.0000      -0.552079       -15.0228
 184   2.0000      -0.548718       -14.9314
 185   2.0000      -0.546505       -14.8712
 186   2.0000      -0.544333       -14.8120
 187   2.0000      -0.538750       -14.6601
 188   2.0000      -0.537186       -14.6176
 189   2.0000      -0.536307       -14.5937
 190   2.0000      -0.535557       -14.5733
 191   2.0000      -0.534735       -14.5509
 192   2.0000      -0.532726       -14.4962
 193   2.0000      -0.531552       -14.4643
 194   2.0000      -0.528562       -14.3829
 195   2.0000      -0.526006       -14.3133
 196   2.0000      -0.520379       -14.1602
 197   2.0000      -0.518653       -14.1133
 198   2.0000      -0.517566       -14.0837
 199   2.0000      -0.511912       -13.9298
 200   2.0000      -0.508841       -13.8463
 201   2.0000      -0.505408       -13.7529
 202   2.0000      -0.501818       -13.6552
 203   2.0000      -0.500809       -13.6277
 204   2.0000      -0.499423       -13.5900
 205   2.0000      -0.496187       -13.5019
 206   2.0000      -0.494886       -13.4665
 207   2.0000      -0.492990       -13.4149
 208   2.0000      -0.489124       -13.3097
 209   2.0000      -0.487600       -13.2683
 210   2.0000      -0.485263       -13.2047
 211   2.0000      -0.483421       -13.1546
 212   2.0000      -0.480893       -13.0858
 213   2.0000      -0.477997       -13.0070
 214   2.0000      -0.475684       -12.9440
 215   2.0000      -0.471185       -12.8216
 216   2.0000      -0.470804       -12.8112
 217   2.0000      -0.467743       -12.7279
 218   2.0000      -0.464890       -12.6503
 219   2.0000      -0.462528       -12.5860
 220   2.0000      -0.461445       -12.5566
 221   2.0000      -0.460349       -12.5267
 222   2.0000      -0.453652       -12.3445
 223   2.0000      -0.452487       -12.3128
 224   2.0000      -0.449030       -12.2187
 225   2.0000      -0.444048       -12.0832
 226   2.0000      -0.443058       -12.0562
 227   2.0000      -0.442446       -12.0396
 228   2.0000      -0.440264       -11.9802
 229   2.0000      -0.435778       -11.8581
 230   2.0000      -0.435463       -11.8495
 231   2.0000      -0.433736       -11.8025
 232   2.0000      -0.431135       -11.7318
 233   2.0000      -0.429123       -11.6770
 234   2.0000      -0.426536       -11.6066
 235   2.0000      -0.425468       -11.5776
 236   2.0000      -0.422820       -11.5055
 237   2.0000      -0.420191       -11.4340
 238   2.0000      -0.418810       -11.3964
 239   2.0000      -0.418000       -11.3744
 240   2.0000      -0.415019       -11.2932
 241   2.0000      -0.408453       -11.1146
 242   2.0000      -0.406107       -11.0507
 243   2.0000      -0.404247       -11.0001
 244   2.0000      -0.402742       -10.9592
 245   2.0000      -0.399528       -10.8717
 246   2.0000      -0.394035       -10.7222
 247   2.0000      -0.390634       -10.6297
 248   2.0000      -0.388987       -10.5849
 249   2.0000      -0.385608       -10.4929
 250   2.0000      -0.380325       -10.3492
 251   2.0000      -0.377376       -10.2689
 252   2.0000      -0.370189       -10.0734
 253   2.0000      -0.367574       -10.0022
 254   2.0000      -0.358615        -9.7584
 255   2.0000      -0.355859        -9.6834
 256   2.0000      -0.346263        -9.4223
 257   2.0000      -0.339766        -9.2455
 258   2.0000      -0.334868        -9.1122
 259   2.0000      -0.326547        -8.8858
 260   2.0000      -0.324127        -8.8199
 261   2.0000      -0.315741        -8.5917
 262   2.0000      -0.312609        -8.5065
 263   2.0000      -0.308195        -8.3864
 264   2.0000      -0.297632        -8.0990
 265   2.0000      -0.293195        -7.9782
 266   2.0000      -0.287149        -7.8137
 267   2.0000      -0.282409        -7.6847
 268   2.0000      -0.272295        -7.4095
 269   2.0000      -0.238471        -6.4891
 270   2.0000      -0.195026        -5.3069
 271   0.0000      -0.099819        -2.7162
 272   0.0000      -0.081039        -2.2052
 273   0.0000      -0.059119        -1.6087
 274   0.0000      -0.050193        -1.3658
 275   0.0000      -0.032307        -0.8791

MULLIKEN ATOMIC CHARGES
-----------------------
   0 C :    0.306629
   1 C :   -0.348078
   2 C :   -0.184788
   3 N :    0.145259
   4 C :   -0.214509
   5 N :    0.161057
   6 C :    0.016193
   7 C :   -0.024372
   8 C :   -0.098819
   9 C :    0.118982
  10 C :   -0.082537
  11 C :   -0.026084
  12 S :    0.191923
  13 C :   -0.118717
  14 C :    0.036999
  15 Br:    0.019332
  16 C :    0.118446
  17 O :   -0.146217
  18 C :   -0.122648
  19 C :    0.024891
  20 C :   -0.169081
  21 S :    0.139203
  22 C :   -0.095950
  23 C :   -0.116344
  24 C :    0.122536
  25 C :    0.183013
  26 C :    0.005206
  27 C :    0.012251
  28 C :   -0.006782
  29 C :    0.014950
  30 C :   -0.097238
  31 S :    0.121309
  32 C :   -0.067636
  33 C :    0.126677
  34 C :    0.140036
  35 C :   -0.115916
  36 C :    0.230720
  37 F :   -0.180521
  38 C :    0.224962
  39 F :   -0.181419
  40 C :   -0.116213
  41 C :   -0.028303
  42 C :    0.007768
  43 C :   -0.014026
  44 C :   -0.018611
  45 C :    0.030424
  46 C :    0.025560
  47 C :   -0.054781
  48 S :    0.068947
  49 C :   -0.034691
  50 C :    0.024079
  51 C :    0.034143
  52 C :    0.007164
  53 S :    0.099574
  54 C :   -0.083376
  55 C :    0.031386
  56 C :    0.116321
  57 O :   -0.320103
  58 C :    0.213900
  59 C :    0.231224
  60 O :   -0.331450
  61 C :    0.177890
  62 C :   -0.198068
  63 C :    0.071548
  64 C :   -0.002131
  65 N :   -0.284476
  66 S :    0.475795
  67 N :   -0.266882
  68 H :   -0.012094
  69 H :   -0.007705
  70 H :   -0.006557
  71 H :    0.029257
  72 H :    0.022925
  73 H :    0.002987
  74 H :    0.029550
  75 H :    0.046003
  76 H :   -0.009198
  77 H :   -0.027937
  78 H :   -0.014694
  79 H :   -0.016466
  80 H :   -0.015249
  81 H :   -0.013542
  82 H :   -0.018056
  83 H :    0.003356
  84 H :   -0.020257
  85 H :   -0.015619
  86 H :   -0.013488
  87 H :   -0.016670
  88 H :   -0.007577
  89 H :    0.007692
  90 H :    0.031653
  91 H :    0.026826
  92 H :    0.020632
  93 H :    0.031479
  94 H :    0.039721
  95 H :    0.032296
  96 H :   -0.034799
Sum of atomic charges:   -0.0000000

LOEWDIN ATOMIC CHARGES
----------------------
   0 C :    0.074266
   1 C :   -0.147136
   2 C :   -0.018948
   3 N :   -0.058433
   4 C :   -0.026645
   5 N :   -0.056004
   6 C :   -0.025668
   7 C :   -0.056739
   8 C :    0.012996
   9 C :   -0.034357
  10 C :   -0.144835
  11 C :   -0.009665
  12 S :    0.439626
  13 C :   -0.270107
  14 C :   -0.072974
  15 Br:    0.134914
  16 C :    0.067201
  17 O :   -0.139541
  18 C :   -0.114206
  19 C :    0.046547
  20 C :   -0.180235
  21 S :    0.446719
  22 C :   -0.164311
  23 C :   -0.056347
  24 C :   -0.044374
  25 C :   -0.007290
  26 C :   -0.007933
  27 C :   -0.013157
  28 C :   -0.046681
  29 C :   -0.024282
  30 C :   -0.179725
  31 S :    0.461560
  32 C :   -0.157279
  33 C :   -0.049594
  34 C :   -0.038483
  35 C :   -0.040364
  36 C :    0.062236
  37 F :   -0.054866
  38 C :    0.056683
  39 F :   -0.059257
  40 C :   -0.036198
  41 C :   -0.056217
  42 C :   -0.026143
  43 C :   -0.067426
  44 C :   -0.139098
  45 C :   -0.044115
  46 C :   -0.026817
  47 C :   -0.187343
  48 S :    0.370856
  49 C :   -0.173637
  50 C :   -0.041541
  51 C :   -0.020664
  52 C :   -0.145676
  53 S :    0.407687
  54 C :   -0.034571
  55 C :   -0.066991
  56 C :    0.051160
  57 O :   -0.089433
  58 C :    0.075173
  59 C :    0.042998
  60 O :   -0.095285
  61 C :    0.079184
  62 C :   -0.082498
  63 C :   -0.058272
  64 C :   -0.046475
  65 N :   -0.294365
  66 S :    0.612968
  67 N :   -0.293095
  68 H :    0.039865
  69 H :    0.040906
  70 H :    0.037489
  71 H :    0.044153
  72 H :    0.025400
  73 H :    0.031968
  74 H :    0.035307
  75 H :    0.037618
  76 H :    0.028427
  77 H :    0.027569
  78 H :    0.019084
  79 H :    0.031083
  80 H :    0.039088
  81 H :    0.039327
  82 H :    0.031323
  83 H :    0.014820
  84 H :    0.031797
  85 H :    0.032514
  86 H :    0.031951
  87 H :    0.030136
  88 H :    0.034618
  89 H :    0.041336
  90 H :    0.017599
  91 H :    0.017077
  92 H :    0.015383
  93 H :    0.019311
  94 H :    0.030148
  95 H :    0.019853
  96 H :    0.037373

  Mayer bond orders larger than 0.100000
B(  0-C ,  1-C ) :   1.6224 B(  0-C ,  6-C ) :   0.9990 B(  0-C , 18-C ) :   1.0861
B(  1-C ,  2-C ) :   1.1409 B(  1-C ,  4-C ) :   1.1460 B(  2-C ,  3-N ) :   2.9699
B(  4-C ,  5-N ) :   2.9961 B(  6-C ,  7-C ) :   1.2703 B(  6-C , 11-C ) :   1.4099
B(  7-C ,  8-C ) :   1.4161 B(  7-C , 16-C ) :   0.9259 B(  8-C ,  9-C ) :   1.2271
B(  8-C , 68-H ) :   1.0251 B(  9-C , 10-C ) :   1.3103 B(  9-C , 14-C ) :   1.1673
B( 10-C , 11-C ) :   1.3220 B( 10-C , 12-S ) :   1.0888 B( 11-C , 69-H ) :   0.9810
B( 12-S , 13-C ) :   1.0912 B( 13-C , 14-C ) :   1.6134 B( 13-C , 15-Br) :   1.0168
B( 14-C , 70-H ) :   1.0016 B( 16-C , 17-O ) :   2.2047 B( 16-C , 18-C ) :   0.9731
B( 18-C , 19-C ) :   1.5246 B( 19-C , 20-C ) :   1.2546 B( 19-C , 71-H ) :   0.9295
B( 20-C , 21-S ) :   1.1031 B( 20-C , 25-C ) :   1.3438 B( 21-S , 22-C ) :   1.1677
B( 22-C , 23-C ) :   1.5756 B( 22-C , 72-H ) :   0.9639 B( 23-C , 24-C ) :   1.0997
B( 23-C , 25-C ) :   1.2359 B( 24-C , 73-H ) :   0.9429 B( 24-C , 74-H ) :   0.9390
B( 24-C , 75-H ) :   0.9396 B( 25-C , 26-C ) :   1.1797 B( 26-C , 27-C ) :   1.6399
B( 26-C , 76-H ) :   0.9356 B( 27-C , 28-C ) :   1.1747 B( 27-C , 77-H ) :   0.9645
B( 28-C , 29-C ) :   1.5980 B( 28-C , 78-H ) :   0.9657 B( 29-C , 30-C ) :   1.2490
B( 29-C , 79-H ) :   0.9579 B( 30-C , 31-S ) :   1.1053 B( 30-C , 34-C ) :   1.2934
B( 31-S , 32-C ) :   1.1278 B( 32-C , 33-C ) :   1.2726 B( 32-C , 41-C ) :   1.2541
B( 33-C , 34-C ) :   1.2216 B( 33-C , 40-C ) :   1.1810 B( 34-C , 35-C ) :   1.1778
B( 35-C , 36-C ) :   1.4907 B( 35-C , 40-C ) :   0.1146 B( 35-C , 80-H ) :   0.9983
B( 36-C , 37-F ) :   1.0965 B( 36-C , 38-C ) :   1.1744 B( 38-C , 39-F ) :   1.1251
B( 38-C , 40-C ) :   1.4887 B( 40-C , 81-H ) :   0.9992 B( 41-C , 42-C ) :   1.5133
B( 41-C , 82-H ) :   0.9749 B( 42-C , 43-C ) :   1.2390 B( 42-C , 83-H ) :   0.9676
B( 43-C , 44-C ) :   1.4782 B( 43-C , 84-H ) :   0.9855 B( 44-C , 45-C ) :   1.1822
B( 44-C , 48-S ) :   1.0503 B( 45-C , 46-C ) :   1.5449 B( 45-C , 85-H ) :   0.9994
B( 46-C , 47-C ) :   1.2196 B( 46-C , 86-H ) :   0.9948 B( 47-C , 48-S ) :   1.0387
B( 47-C , 49-C ) :   1.4766 B( 49-C , 50-C ) :   1.1866 B( 49-C , 53-S ) :   1.0501
B( 50-C , 51-C ) :   1.5887 B( 50-C , 87-H ) :   0.9939 B( 51-C , 52-C ) :   1.1357
B( 51-C , 88-H ) :   1.0002 B( 52-C , 53-S ) :   1.0324 B( 52-C , 54-C ) :   1.5861
B( 54-C , 55-C ) :   1.1474 B( 54-C , 89-H ) :   0.9518 B( 55-C , 56-C ) :   1.4207
B( 55-C , 62-C ) :   0.1088 B( 55-C , 64-C ) :   1.1670 B( 56-C , 57-O ) :   1.1924
B( 56-C , 59-C ) :   1.1511 B( 57-O , 58-C ) :   0.9111 B( 58-C , 90-H ) :   0.9681
B( 58-C , 91-H ) :   0.9776 B( 58-C , 92-H ) :   0.9753 B( 59-C , 60-O ) :   1.1304
B( 59-C , 62-C ) :   1.3897 B( 60-O , 61-C ) :   0.9564 B( 61-C , 93-H ) :   0.9689
B( 61-C , 94-H ) :   0.9771 B( 61-C , 95-H ) :   0.9687 B( 62-C , 63-C ) :   1.1321
B( 62-C , 96-H ) :   1.0394 B( 63-C , 64-C ) :   1.1623 B( 63-C , 67-N ) :   1.5479
B( 64-C , 65-N ) :   1.5740 B( 65-N , 66-S ) :   1.2344 B( 65-N , 67-N ) :   0.1452
B( 66-S , 67-N ) :   1.2481

-----------------------------------------------------------------------------
         ABSORPTION SPECTRUM VIA TRANSITION ELECTRIC DIPOLE MOMENTS
-----------------------------------------------------------------------------
State   Energy  Wavelength   fosc         T2         TX        TY        TZ
        (cm-1)    (nm)                  (au**2)     (au)      (au)      (au)
-----------------------------------------------------------------------------
   0    8059.5   1240.8   0.831225083  33.95371   5.81124   0.26987  -0.33220
   1   12875.6    776.7   0.279469037   7.14564  -1.59389   1.09949  -1.84290
   2   15973.2    626.0   0.007370716   0.15191   0.32822   0.13689   0.15952
   3   16999.8    588.2   0.231589795   4.48490  -0.21283  -0.80752   1.94615
   4   18583.5    538.1   0.370174818   6.55773   0.84891   1.21621  -2.08756
   5   21501.3    465.1   0.090475262   1.38529   0.41820   0.18843  -1.08393
   6   22385.1    446.7   0.686707093  10.09924   0.71040  -1.22694   2.84415
   7   23381.2    427.7   0.186499913   2.62596   0.81355  -0.12291   1.39606
   8   25178.5    397.2   0.157942365   2.06512  -1.28050  -0.25599  -0.59992
   9   25784.7    387.8   0.016248170   0.20745  -0.24253   0.36454  -0.12545
  10   26669.4    375.0   0.217823269   2.68885  -0.12547   1.22760  -1.07986
  11   27436.7    364.5   0.162893301   1.95455   0.77145  -0.31657   1.12214
  12   27699.6    361.0   0.125522267   1.49184   1.12823  -0.25947   0.38939
  13   27865.7    358.9   0.015871473   0.18751   0.18275  -0.29051  -0.26404
  14   28334.6    352.9   0.121490134   1.41156   0.97817   0.36959  -0.56404
  15   28595.7    349.7   0.089028515   1.02495  -0.45095  -0.09163  -0.90177
  16   28898.7    346.0   0.029147938   0.33205  -0.17346  -0.52851   0.15045
  17   29245.7    341.9   0.110799615   1.24724   0.60658  -0.03343   0.93712
  18   29694.1    336.8   0.062930983   0.69770   0.07011   0.14547  -0.81953
  19   30174.9    331.4   0.066217559   0.72244   0.40271  -0.24634   0.70681
  20   30773.9    325.0   0.045691131   0.48879  -0.30109   0.17113  -0.60733
  21   30834.3    324.3   0.040988305   0.43762   0.36267   0.00639   0.55322
  22   31293.6    319.6   0.360371806   3.79115   0.07095   1.70053  -0.94569
  23   31753.0    314.9   0.134350441   1.39293  -0.98992   0.01669  -0.64243
  24   31969.9    312.8   0.048854317   0.50308  -0.18446   0.51421  -0.45238
  25   32211.9    310.4   0.364934966   3.72970  -0.36772   1.44572  -1.22653
  26   32872.3    304.2   0.074701632   0.74813   0.49318  -0.52701   0.47661
  27   33200.9    301.2   0.092470745   0.91692   0.36074   0.88196  -0.09453
  28   33336.3    300.0   0.069062343   0.68202   0.42263  -0.43979   0.55677
  29   33960.3    294.5   0.031002888   0.30054   0.48417  -0.12169   0.22653
  30   34381.8    290.9   0.133434940   1.27766  -1.02375  -0.39348   0.27345
  31   35363.8    282.8   0.068302674   0.63585  -0.50455  -0.42357  -0.44929
  32   35448.7    282.1   0.109713289   1.01891   0.71691   0.64324  -0.30197
  33   35719.2    280.0   0.020810044   0.19180   0.31285  -0.30224   0.05078
  34   35791.1    279.4   0.076970710   0.70799  -0.40517  -0.71548  -0.17863
  35   36044.3    277.4   0.189539254   1.73116  -0.61859   0.28223  -1.12643
  36   36142.3    276.7   0.039272099   0.35772  -0.28970   0.18025  -0.49123
  37   36386.2    274.8   0.054744164   0.49531  -0.35883  -0.09702  -0.59761
  38   36931.5    270.8   0.043831974   0.39072  -0.34942   0.35363  -0.37891
  39   37156.6    269.1   0.039671590   0.35150   0.51202   0.28571  -0.08774
  40   37598.8    266.0   0.044966374   0.39372   0.27458  -0.25702   0.50226
  41   37639.3    265.7   0.005589770   0.04889   0.18720   0.07518  -0.09053
  42   37857.9    264.1   0.037386934   0.32512   0.03607  -0.44831   0.35048
  43   37977.7    263.3   0.043200006   0.37448   0.30942   0.44332  -0.28672
  44   38612.4    259.0   0.046467492   0.39619   0.44895  -0.11565   0.42573
  45   38680.5    258.5   0.045218411   0.38486   0.40954   0.42515  -0.19074
  46   38966.2    256.6   0.122351493   1.03371  -0.83101  -0.03007  -0.58499
  47   39499.7    253.2   0.013230691   0.11027  -0.10083   0.11762  -0.29372
  48   39622.7    252.4   0.048542022   0.40332  -0.23223  -0.13842  -0.57465
  49   40099.5    249.4   0.058972790   0.48416   0.31411  -0.11112   0.61086
  50   40200.6    248.8   0.040053894   0.32801  -0.37492  -0.15419  -0.40457

FINAL SINGLE POINT ENERGY     -7602.274756958198

DIPOLE MOMENT
-------------
                                X             Y             Z
Electronic contribution:    127.77197     -57.40648      69.05300
Nuclear contribution   :   -131.12806      55.91274     -70.14044
                        -----------------------------------------
Total Dipole Moment    :     -3.35609      -1.49374      -1.08744
                        -----------------------------------------
Magnitude (a.u.)       :      3.83107
Magnitude (Debye)      :      9.73781

Rotational constants in cm-1:     0.001106     0.000327     0.000264
Rotational constants in MHz :    33.144427     9.804137     7.911161

                             ****ORCA TERMINATED NORMALLY****
TOTAL RUN TIME: 0 days 0 hours 11 minutes 16 seconds 573 msec
