                         Program Version 4.2.0 -  RELEASE  -
|  1> # ORCA input file
|  2> # SCF done       -179.156699591247          0.000514425924
|  3> ! CAM-B3LYP def2-SVP def2/J RIJCOSX Grid4 TightSCF
|  4> %maxcore 5000
|  5> %tddft
|  6>     Mode sTDDFT
|  7>     Ethresh 5.0
|  8>     maxcore 5000
|  9> end
| 10>
| 11> %pal
| 12>   nprocs 6
| 13>   end
| 14> * xyz 0 1
| 15>    C      -12.45904        -0.95965         0.68962
| 16>    C      -12.11164        -2.11178         1.35262
| 17>    C      -12.81997        -3.32659         1.25143
| 18>    N      -13.34983        -4.34465         1.21413
| 19>    C      -11.01649        -2.25556         2.22774
| 20>    N      -10.14363        -2.44649         2.95078
| 21>    C      -13.60226        -0.82175        -0.21000
| 22>    C      -13.65353         0.51525        -0.67596
| 23>    C      -14.61601         0.96419        -1.54590
| 24>    C      -15.57702         0.04597        -1.98329
| 25>    C      -15.51862        -1.28766        -1.51514
| 26>    C      -14.54501        -1.73968        -0.63142
| 27>    S      -16.79640        -2.25600        -2.18458
| 28>    C      -17.38287        -0.87506        -3.07294
| 29>    C      -16.66142         0.25445        -2.87866
| 30>   Br      -18.89045        -1.05465        -4.17413
| 31>    C      -12.53522         1.27061        -0.08537
| 32>    O      -12.28656         2.45204        -0.26649
| 33>    C      -11.79450         0.32437         0.74649
| 34>    C      -10.64138         0.60312         1.44845
| 35>    C       -9.91458         1.78546         1.56438
| 36>    S      -10.29256         3.31381         0.82244
| 37>    C       -8.88052         4.07136         1.45832
| 38>    C       -8.14010         3.19308         2.27983
| 39>    C       -8.72178         1.89491         2.33342
| 40>    C       -8.11959         0.89156         3.10835
| 41>    C       -6.99114         1.19338         3.82462
| 42>    F       -6.40282         0.25015         4.57071
| 43>    C       -6.44724         2.49212         3.81356
| 44>    F       -5.36715         2.75882         4.56556
| 45>    C       -7.00820         3.48560         3.05880
| 46>    C       -8.62875         5.41784         1.09552
| 47>    C       -7.42221         6.03518         1.05933
| 48>    C       -7.26285         7.41263         0.69416
| 49>    O       -8.44702         8.08518         0.53052
| 50>    C       -8.42337         9.42057         0.26964
| 51>    C       -9.57430        10.15127         0.18979
| 52>    F      -10.81083         9.67899         0.34148
| 53>    S       -9.31688        11.83227        -0.14259
| 54>    C       -6.03397         7.95406         0.54609
| 55>    S       -5.65704         9.59796         0.11857
| 56>    C       -7.28849        10.23604         0.05560
| 57>    C       -7.58462        11.56908        -0.18270
| 58>    C       -6.64278        12.58165        -0.43235
| 59>    C       -6.87406        13.91856        -0.61517
| 60>    C       -5.87500        14.89595        -0.87012
| 61>    C       -6.34979        16.16342        -0.98824
| 62>    C       -7.75218        16.26661        -0.82870
| 63>    S       -8.45006        14.68248        -0.54316
| 64>    C       -8.52154        17.41053        -0.85519
| 65>    C       -8.08611        18.74157        -1.06542
| 66>    C       -9.08196        19.66292        -1.00151
| 67>    C      -10.36662        19.11751        -0.73351
| 68>    S      -10.25263        17.37174        -0.58641
| 69>    C      -11.52101        19.83597        -0.58785
| 70>    C      -12.80643        19.34340        -0.29889
| 71>    S      -13.23047        17.65059        -0.10445
| 72>    C      -14.88494        17.97316         0.21957
| 73>    C      -15.13329        19.32594         0.18849
| 74>    C      -13.96046        20.08438        -0.10551
| 75>    O      -14.23078        21.40542        -0.12311
| 76>    C      -15.55961        21.49995         0.15653
| 77>    N      -16.12799        22.79601         0.21172
| 78>    O      -17.31690        22.85414         0.46193
| 79>    O      -15.40122        23.74420         0.01013
| 80>    C      -16.16649        20.28924         0.35458
| 81>    H      -14.62670         1.98949        -1.88089
| 82>    H      -14.54504        -2.76656        -0.30669
| 83>    H      -16.88264         1.19596        -3.34731
| 84>    H      -10.21276        -0.22401         1.99597
| 85>    H       -8.51889        -0.10832         3.17167
| 86>    H       -6.59491         4.47850         3.10168
| 87>    H       -9.49214         5.97580         0.75693
| 88>    H       -6.50962         5.49793         1.25965
| 89>    H       -5.15428         7.35216         0.68659
| 90>    H       -5.61220        12.25159        -0.47580
| 91>    H       -4.83860        14.62115        -0.95402
| 92>    H       -5.73492        17.02461        -1.17711
| 93>    H       -7.05454        18.97776        -1.25360
| 94>    H       -8.94446        20.72166        -1.13100
| 95>    H      -11.45746        20.91158        -0.69025
| 96>    H      -15.56037        17.16553         0.41079
| 97>    H      -17.19971        20.13306         0.58557
| 98> *
| 99>
|100>                          ****END OF INPUT****

CARTESIAN COORDINATES (ANGSTROEM)
---------------------------------
  C    -12.459040   -0.959650    0.689620
  C    -12.111640   -2.111780    1.352620
  C    -12.819970   -3.326590    1.251430
  N    -13.349830   -4.344650    1.214130
  C    -11.016490   -2.255560    2.227740
  N    -10.143630   -2.446490    2.950780
  C    -13.602260   -0.821750   -0.210000
  C    -13.653530    0.515250   -0.675960
  C    -14.616010    0.964190   -1.545900
  C    -15.577020    0.045970   -1.983290
  C    -15.518620   -1.287660   -1.515140
  C    -14.545010   -1.739680   -0.631420
  S    -16.796400   -2.256000   -2.184580
  C    -17.382870   -0.875060   -3.072940
  C    -16.661420    0.254450   -2.878660
  Br   -18.890450   -1.054650   -4.174130
  C    -12.535220    1.270610   -0.085370
  O    -12.286560    2.452040   -0.266490
  C    -11.794500    0.324370    0.746490
  C    -10.641380    0.603120    1.448450
  C     -9.914580    1.785460    1.564380
  S    -10.292560    3.313810    0.822440
  C     -8.880520    4.071360    1.458320
  C     -8.140100    3.193080    2.279830
  C     -8.721780    1.894910    2.333420
  C     -8.119590    0.891560    3.108350
  C     -6.991140    1.193380    3.824620
  F     -6.402820    0.250150    4.570710
  C     -6.447240    2.492120    3.813560
  F     -5.367150    2.758820    4.565560
  C     -7.008200    3.485600    3.058800
  C     -8.628750    5.417840    1.095520
  C     -7.422210    6.035180    1.059330
  C     -7.262850    7.412630    0.694160
  O     -8.447020    8.085180    0.530520
  C     -8.423370    9.420570    0.269640
  C     -9.574300   10.151270    0.189790
  F    -10.810830    9.678990    0.341480
  S     -9.316880   11.832270   -0.142590
  C     -6.033970    7.954060    0.546090
  S     -5.657040    9.597960    0.118570
  C     -7.288490   10.236040    0.055600
  C     -7.584620   11.569080   -0.182700
  C     -6.642780   12.581650   -0.432350
  C     -6.874060   13.918560   -0.615170
  C     -5.875000   14.895950   -0.870120
  C     -6.349790   16.163420   -0.988240
  C     -7.752180   16.266610   -0.828700
  S     -8.450060   14.682480   -0.543160
  C     -8.521540   17.410530   -0.855190
  C     -8.086110   18.741570   -1.065420
  C     -9.081960   19.662920   -1.001510
  C    -10.366620   19.117510   -0.733510
  S    -10.252630   17.371740   -0.586410
  C    -11.521010   19.835970   -0.587850
  C    -12.806430   19.343400   -0.298890
  S    -13.230470   17.650590   -0.104450
  C    -14.884940   17.973160    0.219570
  C    -15.133290   19.325940    0.188490
  C    -13.960460   20.084380   -0.105510
  O    -14.230780   21.405420   -0.123110
  C    -15.559610   21.499950    0.156530
  N    -16.127990   22.796010    0.211720
  O    -17.316900   22.854140    0.461930
  O    -15.401220   23.744200    0.010130
  C    -16.166490   20.289240    0.354580
  H    -14.626700    1.989490   -1.880890
  H    -14.545040   -2.766560   -0.306690
  H    -16.882640    1.195960   -3.347310
  H    -10.212760   -0.224010    1.995970
  H     -8.518890   -0.108320    3.171670
  H     -6.594910    4.478500    3.101680
  H     -9.492140    5.975800    0.756930
  H     -6.509620    5.497930    1.259650
  H     -5.154280    7.352160    0.686590
  H     -5.612200   12.251590   -0.475800
  H     -4.838600   14.621150   -0.954020
  H     -5.734920   17.024610   -1.177110
  H     -7.054540   18.977760   -1.253600
  H     -8.944460   20.721660   -1.131000
  H    -11.457460   20.911580   -0.690250
  H    -15.560370   17.165530    0.410790
  H    -17.199710   20.133060    0.585570

 Total Charge           Charge          ....    0
 Multiplicity           Mult            ....    1
 Number of Electrons    NEL             ....  534
 Basis Dimension        Dim             .... 1055

ORBITAL ENERGIES
----------------

  NO   OCC          E(Eh)            E(eV)
   0   2.0000    -482.883614    -13139.9312
   1   2.0000     -88.980371     -2421.2790
   2   2.0000     -88.978621     -2421.2314
   3   2.0000     -88.976895     -2421.1844
   4   2.0000     -88.972830     -2421.0738
   5   2.0000     -88.966418     -2420.8993
   6   2.0000     -88.956500     -2420.6294
   7   2.0000     -88.955904     -2420.6132
   8   2.0000     -62.561323     -1702.3802
   9   2.0000     -56.395269     -1534.5933
  10   2.0000     -56.392562     -1534.5196
  11   2.0000     -56.392526     -1534.5187
  12   2.0000     -24.807184      -675.0378
  13   2.0000     -24.793409      -674.6629
  14   2.0000     -24.792972      -674.6511
  15   2.0000     -19.312734      -525.5262
  16   2.0000     -19.288465      -524.8658
  17   2.0000     -19.246099      -523.7130
  18   2.0000     -19.243954      -523.6546
  19   2.0000     -19.217326      -522.9300
  20   2.0000     -14.657737      -398.8573
  21   2.0000     -14.415220      -392.2581
  22   2.0000     -14.408828      -392.0841
  23   2.0000     -10.389880      -282.7230
  24   2.0000     -10.385543      -282.6050
  25   2.0000     -10.378503      -282.4134
  26   2.0000     -10.375052      -282.3195
  27   2.0000     -10.364903      -282.0433
  28   2.0000     -10.362737      -281.9844
  29   2.0000     -10.357702      -281.8474
  30   2.0000     -10.356287      -281.8089
  31   2.0000     -10.350103      -281.6406
  32   2.0000     -10.337093      -281.2866
  33   2.0000     -10.334812      -281.2245
  34   2.0000     -10.326186      -280.9898
  35   2.0000     -10.324005      -280.9305
  36   2.0000     -10.323225      -280.9092
  37   2.0000     -10.322107      -280.8788
  38   2.0000     -10.321677      -280.8671
  39   2.0000     -10.320647      -280.8391
  40   2.0000     -10.319867      -280.8179
  41   2.0000     -10.319379      -280.8046
  42   2.0000     -10.319317      -280.8029
  43   2.0000     -10.319048      -280.7956
  44   2.0000     -10.318599      -280.7833
  45   2.0000     -10.317124      -280.7432
  46   2.0000     -10.317088      -280.7422
  47   2.0000     -10.316319      -280.7213
  48   2.0000     -10.315399      -280.6963
  49   2.0000     -10.312682      -280.6223
  50   2.0000     -10.309806      -280.5441
  51   2.0000     -10.306020      -280.4411
  52   2.0000     -10.304310      -280.3945
  53   2.0000     -10.304110      -280.3891
  54   2.0000     -10.303740      -280.3790
  55   2.0000     -10.301855      -280.3277
  56   2.0000     -10.301513      -280.3184
  57   2.0000     -10.300337      -280.2864
  58   2.0000     -10.299552      -280.2651
  59   2.0000     -10.298356      -280.2325
  60   2.0000     -10.298344      -280.2322
  61   2.0000     -10.298217      -280.2287
  62   2.0000     -10.296439      -280.1803
  63   2.0000     -10.295821      -280.1635
  64   2.0000     -10.295085      -280.1435
  65   2.0000     -10.294342      -280.1233
  66   2.0000     -10.294219      -280.1199
  67   2.0000     -10.293988      -280.1137
  68   2.0000     -10.289944      -280.0036
  69   2.0000     -10.288846      -279.9737
  70   2.0000      -8.790752      -239.2085
  71   2.0000      -8.074916      -219.7296
  72   2.0000      -8.072471      -219.6631
  73   2.0000      -8.071622      -219.6400
  74   2.0000      -8.068850      -219.5646
  75   2.0000      -8.061680      -219.3695
  76   2.0000      -8.052674      -219.1244
  77   2.0000      -8.052011      -219.1064
  78   2.0000      -6.627035      -180.3308
  79   2.0000      -6.612490      -179.9350
  80   2.0000      -6.612301      -179.9298
  81   2.0000      -6.044241      -164.4722
  82   2.0000      -6.042007      -164.4114
  83   2.0000      -6.040709      -164.3760
  84   2.0000      -6.039827      -164.3520
  85   2.0000      -6.038536      -164.3169
  86   2.0000      -6.038111      -164.3053
  87   2.0000      -6.037361      -164.2849
  88   2.0000      -6.036093      -164.2504
  89   2.0000      -6.034630      -164.2106
  90   2.0000      -6.034262      -164.2006
  91   2.0000      -6.033667      -164.1844
  92   2.0000      -6.031904      -164.1364
  93   2.0000      -6.030065      -164.0864
  94   2.0000      -6.027746      -164.0233
  95   2.0000      -6.022480      -163.8800
  96   2.0000      -6.021833      -163.8624
  97   2.0000      -6.021818      -163.8620
  98   2.0000      -6.018408      -163.7692
  99   2.0000      -6.017727      -163.7507
 100   2.0000      -6.013470      -163.6348
 101   2.0000      -6.012837      -163.6176
 102   2.0000      -2.742913       -74.6385
 103   2.0000      -2.738816       -74.5270
 104   2.0000      -2.738696       -74.5237
 105   2.0000      -2.727119       -74.2087
 106   2.0000      -2.727109       -74.2084
 107   2.0000      -1.329389       -36.1745
 108   2.0000      -1.321943       -35.9719
 109   2.0000      -1.315948       -35.8088
 110   2.0000      -1.300881       -35.3988
 111   2.0000      -1.232767       -33.5453
 112   2.0000      -1.197876       -32.5959
 113   2.0000      -1.145835       -31.1798
 114   2.0000      -1.132263       -30.8105
 115   2.0000      -1.019800       -27.7502
 116   2.0000      -1.015006       -27.6197
 117   2.0000      -1.011391       -27.5213
 118   2.0000      -1.010385       -27.4940
 119   2.0000      -1.005385       -27.3579
 120   2.0000      -0.998352       -27.1665
 121   2.0000      -0.991389       -26.9771
 122   2.0000      -0.985953       -26.8291
 123   2.0000      -0.980837       -26.6899
 124   2.0000      -0.954378       -25.9700
 125   2.0000      -0.948722       -25.8160
 126   2.0000      -0.939851       -25.5746
 127   2.0000      -0.938499       -25.5378
 128   2.0000      -0.925376       -25.1808
 129   2.0000      -0.910533       -24.7769
 130   2.0000      -0.905375       -24.6365
 131   2.0000      -0.903703       -24.5910
 132   2.0000      -0.895052       -24.3556
 133   2.0000      -0.882973       -24.0269
 134   2.0000      -0.882221       -24.0065
 135   2.0000      -0.879804       -23.9407
 136   2.0000      -0.860460       -23.4143
 137   2.0000      -0.857585       -23.3361
 138   2.0000      -0.854040       -23.2396
 139   2.0000      -0.845224       -22.9997
 140   2.0000      -0.844224       -22.9725
 141   2.0000      -0.835444       -22.7336
 142   2.0000      -0.826363       -22.4865
 143   2.0000      -0.820515       -22.3273
 144   2.0000      -0.813073       -22.1248
 145   2.0000      -0.795045       -21.6343
 146   2.0000      -0.790818       -21.5192
 147   2.0000      -0.781641       -21.2695
 148   2.0000      -0.762435       -20.7469
 149   2.0000      -0.756330       -20.5808
 150   2.0000      -0.748345       -20.3635
 151   2.0000      -0.745378       -20.2828
 152   2.0000      -0.731145       -19.8955
 153   2.0000      -0.717221       -19.5166
 154   2.0000      -0.711014       -19.3477
 155   2.0000      -0.709840       -19.3157
 156   2.0000      -0.704086       -19.1592
 157   2.0000      -0.688948       -18.7472
 158   2.0000      -0.686384       -18.6775
 159   2.0000      -0.682919       -18.5832
 160   2.0000      -0.676269       -18.4022
 161   2.0000      -0.669876       -18.2282
 162   2.0000      -0.661005       -17.9869
 163   2.0000      -0.658206       -17.9107
 164   2.0000      -0.652764       -17.7626
 165   2.0000      -0.648751       -17.6534
 166   2.0000      -0.642971       -17.4961
 167   2.0000      -0.642802       -17.4915
 168   2.0000      -0.633979       -17.2515
 169   2.0000      -0.630527       -17.1575
 170   2.0000      -0.629015       -17.1164
 171   2.0000      -0.625343       -17.0165
 172   2.0000      -0.622529       -16.9399
 173   2.0000      -0.617300       -16.7976
 174   2.0000      -0.613743       -16.7008
 175   2.0000      -0.607535       -16.5319
 176   2.0000      -0.604643       -16.4532
 177   2.0000      -0.599532       -16.3141
 178   2.0000      -0.596330       -16.2270
 179   2.0000      -0.593278       -16.1439
 180   2.0000      -0.587624       -15.9901
 181   2.0000      -0.587145       -15.9770
 182   2.0000      -0.584338       -15.9006
 183   2.0000      -0.581251       -15.8166
 184   2.0000      -0.575208       -15.6522
 185   2.0000      -0.571625       -15.5547
 186   2.0000      -0.569618       -15.5001
 187   2.0000      -0.563553       -15.3351
 188   2.0000      -0.556556       -15.1447
 189   2.0000      -0.554574       -15.0907
 190   2.0000      -0.551317       -15.0021
 191   2.0000      -0.547243       -14.8912
 192   2.0000      -0.542327       -14.7575
 193   2.0000      -0.541593       -14.7375
 194   2.0000      -0.540102       -14.6969
 195   2.0000      -0.539243       -14.6735
 196   2.0000      -0.539024       -14.6676
 197   2.0000      -0.530622       -14.4390
 198   2.0000      -0.525971       -14.3124
 199   2.0000      -0.520514       -14.1639
 200   2.0000      -0.518273       -14.1029
 201   2.0000      -0.515600       -14.0302
 202   2.0000      -0.514226       -13.9928
 203   2.0000      -0.511905       -13.9296
 204   2.0000      -0.508768       -13.8443
 205   2.0000      -0.504845       -13.7375
 206   2.0000      -0.504096       -13.7172
 207   2.0000      -0.499757       -13.5991
 208   2.0000      -0.498712       -13.5706
 209   2.0000      -0.498401       -13.5622
 210   2.0000      -0.493846       -13.4382
 211   2.0000      -0.491820       -13.3831
 212   2.0000      -0.491275       -13.3683
 213   2.0000      -0.490490       -13.3469
 214   2.0000      -0.482548       -13.1308
 215   2.0000      -0.479353       -13.0439
 216   2.0000      -0.478548       -13.0220
 217   2.0000      -0.475895       -12.9498
 218   2.0000      -0.471036       -12.8175
 219   2.0000      -0.468537       -12.7495
 220   2.0000      -0.466353       -12.6901
 221   2.0000      -0.460776       -12.5384
 222   2.0000      -0.457857       -12.4589
 223   2.0000      -0.457230       -12.4418
 224   2.0000      -0.456686       -12.4271
 225   2.0000      -0.449595       -12.2341
 226   2.0000      -0.446547       -12.1512
 227   2.0000      -0.445890       -12.1333
 228   2.0000      -0.441622       -12.0171
 229   2.0000      -0.438229       -11.9248
 230   2.0000      -0.437347       -11.9008
 231   2.0000      -0.435682       -11.8555
 232   2.0000      -0.434897       -11.8341
 233   2.0000      -0.428800       -11.6682
 234   2.0000      -0.425819       -11.5871
 235   2.0000      -0.423825       -11.5329
 236   2.0000      -0.422076       -11.4853
 237   2.0000      -0.420403       -11.4397
 238   2.0000      -0.419310       -11.4100
 239   2.0000      -0.416564       -11.3353
 240   2.0000      -0.411260       -11.1910
 241   2.0000      -0.404894       -11.0177
 242   2.0000      -0.403506       -10.9800
 243   2.0000      -0.400931       -10.9099
 244   2.0000      -0.393417       -10.7054
 245   2.0000      -0.391795       -10.6613
 246   2.0000      -0.384697       -10.4681
 247   2.0000      -0.382477       -10.4077
 248   2.0000      -0.380439       -10.3523
 249   2.0000      -0.373779       -10.1710
 250   2.0000      -0.373029       -10.1506
 251   2.0000      -0.364986        -9.9318
 252   2.0000      -0.359648        -9.7865
 253   2.0000      -0.348753        -9.4901
 254   2.0000      -0.342285        -9.3140
 255   2.0000      -0.336813        -9.1651
 256   2.0000      -0.332900        -9.0587
 257   2.0000      -0.331811        -9.0290
 258   2.0000      -0.325739        -8.8638
 259   2.0000      -0.321438        -8.7468
 260   2.0000      -0.312572        -8.5055
 261   2.0000      -0.311952        -8.4886
 262   2.0000      -0.291367        -7.9285
 263   2.0000      -0.279933        -7.6174
 264   2.0000      -0.275940        -7.5087
 265   2.0000      -0.247232        -6.7275
 266   2.0000      -0.218797        -5.9538
 267   0.0000      -0.100961        -2.7473
 268   0.0000      -0.087705        -2.3866
 269   0.0000      -0.063002        -1.7144
 270   0.0000      -0.061731        -1.6798
 271   0.0000      -0.038026        -1.0348

MULLIKEN ATOMIC CHARGES
-----------------------
   0 C :    0.327623
   1 C :   -0.362919
   2 C :   -0.186416
   3 N :    0.145536
   4 C :   -0.183139
   5 N :    0.139160
   6 C :    0.007772
   7 C :   -0.008679
   8 C :   -0.074239
   9 C :    0.116914
  10 C :   -0.093514
  11 C :   -0.019510
  12 S :    0.185907
  13 C :   -0.124341
  14 C :    0.038710
  15 Br:    0.020987
  16 C :    0.155586
  17 O :   -0.192137
  18 C :   -0.103310
  19 C :   -0.027387
  20 C :   -0.088805
  21 S :    0.243380
  22 C :   -0.084617
  23 C :    0.120825
  24 C :    0.124399
  25 C :   -0.115954
  26 C :    0.232241
  27 F :   -0.165021
  28 C :    0.220279
  29 F :   -0.178097
  30 C :   -0.116425
  31 C :    0.039244
  32 C :   -0.052484
  33 C :    0.240224
  34 O :   -0.260764
  35 C :    0.219044
  36 C :    0.057959
  37 F :   -0.154162
  38 S :    0.107012
  39 C :   -0.127070
  40 S :    0.104471
  41 C :   -0.041723
  42 C :   -0.130512
  43 C :   -0.035918
  44 C :   -0.030624
  45 C :    0.030990
  46 C :    0.032976
  47 C :   -0.040757
  48 S :    0.064128
  49 C :   -0.037622
  50 C :    0.028539
  51 C :    0.038760
  52 C :   -0.026649
  53 S :    0.065526
  54 C :   -0.009671
  55 C :   -0.191910
  56 S :    0.144966
  57 C :   -0.128908
  58 C :    0.122029
  59 C :    0.193041
  60 O :   -0.183854
  61 C :    0.232341
  62 N :    0.273008
  63 O :   -0.248684
  64 O :   -0.229882
  65 C :   -0.066414
  66 H :   -0.012373
  67 H :   -0.007586
  68 H :   -0.004630
  69 H :   -0.016575
  70 H :    0.015258
  71 H :   -0.011114
  72 H :    0.021191
  73 H :    0.005263
  74 H :    0.040781
  75 H :   -0.001801
  76 H :   -0.009143
  77 H :   -0.010315
  78 H :   -0.011301
  79 H :   -0.005442
  80 H :    0.007632
  81 H :    0.034691
  82 H :    0.014006
Sum of atomic charges:    0.0000000

LOEWDIN ATOMIC CHARGES
----------------------
   0 C :    0.078625
   1 C :   -0.153601
   2 C :   -0.019256
   3 N :   -0.060197
   4 C :   -0.015988
   5 N :   -0.064707
   6 C :   -0.019724
   7 C :   -0.049516
   8 C :    0.019872
   9 C :   -0.034366
  10 C :   -0.145320
  11 C :   -0.009914
  12 S :    0.432358
  13 C :   -0.272927
  14 C :   -0.070641
  15 Br:    0.134701
  16 C :    0.082510
  17 O :   -0.178506
  18 C :   -0.120494
  19 C :    0.049513
  20 C :   -0.201671
  21 S :    0.567251
  22 C :   -0.146134
  23 C :   -0.055096
  24 C :   -0.014571
  25 C :   -0.038058
  26 C :    0.074100
  27 F :   -0.045030
  28 C :    0.058488
  29 F :   -0.056238
  30 C :   -0.036162
  31 C :   -0.043831
  32 C :   -0.015207
  33 C :    0.029260
  34 O :   -0.050634
  35 C :   -0.034801
  36 C :   -0.100742
  37 F :   -0.047230
  38 S :    0.422766
  39 C :   -0.205491
  40 S :    0.379727
  41 C :   -0.210273
  42 C :   -0.190304
  43 C :   -0.080497
  44 C :   -0.149467
  45 C :   -0.030555
  46 C :   -0.031497
  47 C :   -0.177090
  48 S :    0.363176
  49 C :   -0.173523
  50 C :   -0.035456
  51 C :   -0.025521
  52 C :   -0.152633
  53 S :    0.363610
  54 C :   -0.065173
  55 C :   -0.205674
  56 S :    0.476154
  57 C :   -0.187881
  58 C :   -0.084389
  59 C :    0.021271
  60 O :    0.001814
  61 C :    0.025743
  62 N :    0.271753
  63 O :   -0.209628
  64 O :   -0.191678
  65 C :   -0.008444
  66 H :    0.040106
  67 H :    0.040915
  68 H :    0.038249
  69 H :    0.046473
  70 H :    0.047622
  71 H :    0.039939
  72 H :    0.038387
  73 H :    0.035646
  74 H :    0.037194
  75 H :    0.036414
  76 H :    0.034893
  77 H :    0.033488
  78 H :    0.032882
  79 H :    0.036286
  80 H :    0.047311
  81 H :    0.029762
  82 H :    0.047477

  Mayer bond orders larger than 0.100000
B(  0-C ,  1-C ) :   1.5989 B(  0-C ,  6-C ) :   0.9929 B(  0-C , 18-C ) :   1.1051
B(  1-C ,  2-C ) :   1.1473 B(  1-C ,  4-C ) :   1.1512 B(  2-C ,  3-N ) :   2.9649
B(  4-C ,  5-N ) :   2.9713 B(  6-C ,  7-C ) :   1.2752 B(  6-C , 11-C ) :   1.4210
B(  7-C ,  8-C ) :   1.4278 B(  7-C , 16-C ) :   0.9573 B(  8-C ,  9-C ) :   1.2384
B(  8-C , 66-H ) :   1.0167 B(  9-C , 10-C ) :   1.3133 B(  9-C , 14-C ) :   1.1620
B( 10-C , 11-C ) :   1.3218 B( 10-C , 12-S ) :   1.0859 B( 11-C , 67-H ) :   0.9788
B( 12-S , 13-C ) :   1.0875 B( 13-C , 14-C ) :   1.6188 B( 13-C , 15-Br) :   1.0174
B( 14-C , 68-H ) :   0.9999 B( 16-C , 17-O ) :   2.1138 B( 16-C , 18-C ) :   0.9894
B( 18-C , 19-C ) :   1.4551 B( 19-C , 20-C ) :   1.3447 B( 19-C , 69-H ) :   0.9311
B( 20-C , 21-S ) :   1.0960 B( 20-C , 24-C ) :   1.2188 B( 21-S , 22-C ) :   1.1935
B( 22-C , 23-C ) :   1.2741 B( 22-C , 31-C ) :   1.1284 B( 23-C , 24-C ) :   1.2545
B( 23-C , 30-C ) :   1.1786 B( 24-C , 25-C ) :   1.2066 B( 25-C , 26-C ) :   1.4616
B( 25-C , 30-C ) :   0.1112 B( 25-C , 70-H ) :   0.9885 B( 26-C , 27-F ) :   1.1535
B( 26-C , 28-C ) :   1.1826 B( 28-C , 29-F ) :   1.1274 B( 28-C , 30-C ) :   1.4770
B( 30-C , 71-H ) :   0.9963 B( 31-C , 32-C ) :   1.6550 B( 31-C , 72-H ) :   0.9484
B( 32-C , 33-C ) :   1.1392 B( 32-C , 73-H ) :   0.9722 B( 33-C , 34-O ) :   1.0694
B( 33-C , 39-C ) :   1.6778 B( 34-O , 35-C ) :   1.0579 B( 35-C , 36-C ) :   1.4807
B( 35-C , 41-C ) :   1.2352 B( 36-C , 37-F ) :   1.1526 B( 36-C , 38-S ) :   1.1172
B( 38-S , 42-C ) :   1.0741 B( 39-C , 40-S ) :   1.0297 B( 39-C , 74-H ) :   0.9361
B( 40-S , 41-C ) :   0.9900 B( 41-C , 42-C ) :   1.5326 B( 42-C , 43-C ) :   1.1941
B( 43-C , 44-C ) :   1.5980 B( 43-C , 75-H ) :   0.9609 B( 44-C , 45-C ) :   1.1349
B( 44-C , 48-S ) :   1.0333 B( 45-C , 46-C ) :   1.6012 B( 45-C , 76-H ) :   1.0008
B( 46-C , 47-C ) :   1.1767 B( 46-C , 77-H ) :   0.9923 B( 47-C , 48-S ) :   1.0365
B( 47-C , 49-C ) :   1.5340 B( 49-C , 50-C ) :   1.1750 B( 49-C , 53-S ) :   1.0402
B( 50-C , 51-C ) :   1.6024 B( 50-C , 78-H ) :   0.9928 B( 51-C , 52-C ) :   1.1342
B( 51-C , 79-H ) :   1.0007 B( 52-C , 53-S ) :   1.0295 B( 52-C , 54-C ) :   1.5797
B( 54-C , 55-C ) :   1.1716 B( 54-C , 80-H ) :   0.9731 B( 55-C , 56-S ) :   1.1063
B( 55-C , 57-C ) :   0.1087 B( 55-C , 59-C ) :   1.4430 B( 56-S , 57-C ) :   1.1915
B( 57-C , 58-C ) :   1.4180 B( 57-C , 81-H ) :   0.9744 B( 58-C , 59-C ) :   1.2309
B( 58-C , 65-C ) :   1.0605 B( 59-C , 60-O ) :   1.1236 B( 60-O , 61-C ) :   1.1220
B( 61-C , 62-N ) :   0.9147 B( 61-C , 65-C ) :   1.5811 B( 62-N , 63-O ) :   1.5347
B( 62-N , 64-O ) :   1.5155 B( 63-O , 64-O ) :   0.2803 B( 65-C , 82-H ) :   1.0249

-----------------------------------------------------------------------------
         ABSORPTION SPECTRUM VIA TRANSITION ELECTRIC DIPOLE MOMENTS
-----------------------------------------------------------------------------
State   Energy  Wavelength   fosc         T2         TX        TY        TZ
        (cm-1)    (nm)                  (au**2)     (au)      (au)      (au)
-----------------------------------------------------------------------------
   0   14366.8    696.0   1.595955470  36.57095   0.72441  -6.00375   0.03365
   1   16480.9    606.8   0.638641707  12.75708   3.56846   0.13643   0.06779
   2   17942.2    557.3   0.440490793   8.08234  -2.09565  -1.88041  -0.39327
   3   20401.5    490.2   0.190362654   3.07181   0.52610  -1.65212   0.25596
   4   22589.8    442.7   0.026567844   0.38719   0.22111   0.13907   0.56476
   5   23811.8    420.0   0.001289543   0.01783  -0.11048   0.01576   0.07330
   6   24260.9    412.2   0.066113297   0.89713   0.79279   0.24957   0.45424
   7   25422.2    393.4   0.057201845   0.74075  -0.50550  -0.67482   0.17275
   8   26789.6    373.3   0.074359121   0.91378   0.87080   0.18117   0.35024
   9   27310.7    366.2   0.243172599   2.93128   1.22367  -0.34857   1.14561
  10   27995.9    357.2   0.007917621   0.09311   0.18404   0.10029   0.22175
  11   28675.0    348.7   0.133002034   1.52697  -0.42569  -0.89292   0.74057
  12   29032.4    344.4   0.060183398   0.68245   0.62734   0.47885  -0.24412
  13   29698.3    336.7   0.044620866   0.49463   0.20112   0.32234  -0.59184
  14   29836.7    335.2   0.336991690   3.71830   1.77933   0.73747  -0.09169
  15   29994.3    333.4   0.048884756   0.53655   0.45257   0.57436  -0.04293
  16   30246.0    330.6   0.233355794   2.53996  -1.28367  -0.88415   0.33230
  17   30855.6    324.1   0.073236489   0.78139   0.71543  -0.23039   0.46526
  18   31533.4    317.1   0.012593043   0.13147  -0.18391  -0.02565   0.31144
  19   31745.2    315.0   0.041225911   0.42753   0.40987  -0.50329  -0.07899
  20   32148.7    311.1   0.065864744   0.67447   0.54776  -0.61154   0.02123
  21   32777.4    305.1   0.434659808   4.36566  -1.44736   0.65449  -1.35737
  22   33036.9    302.7   0.319643103   3.18524   1.09896  -0.87394   1.10171
  23   33053.4    302.5   0.059011574   0.58776  -0.51251   0.32669  -0.46729
  24   33618.0    297.5   0.020897538   0.20464  -0.32071  -0.25392   0.19318
  25   33856.7    295.4   0.028912060   0.28113   0.12938  -0.48455  -0.17206
  26   34119.6    293.1   0.028327848   0.27333  -0.22994  -0.46846   0.03170
  27   34791.5    287.4   0.026612574   0.25182   0.05402   0.49890  -0.00116
  28   35448.7    282.1   0.014914368   0.13851  -0.31882   0.14769  -0.12267
  29   36040.8    277.5   0.042827428   0.39120  -0.48960   0.36158   0.14405
  30   36554.6    273.6   0.274807621   2.47492   0.06372   1.46077  -0.58054
  31   37034.2    270.0   0.234305346   2.08284   0.92378  -1.09678  -0.16297
  32   37112.5    269.5   0.009827281   0.08717   0.16376  -0.24312  -0.03539
  33   37419.8    267.2   0.076779712   0.67549   0.27460   0.74538   0.21093
  34   37892.0    263.9   0.061921466   0.53798  -0.53449  -0.38361   0.32427
  35   38282.6    261.2   0.055873367   0.48048  -0.65598  -0.03838  -0.22068
  36   38402.6    260.4   0.044941999   0.38527  -0.04513  -0.55877   0.26648
  37   38701.3    258.4   0.247635142   2.10650   0.53577  -1.34282   0.12765
  38   38861.6    257.3   0.005142447   0.04356  -0.00558   0.16292  -0.13034
  39   38980.8    256.5   0.038062520   0.32146  -0.45556  -0.33480  -0.04276
  40   39528.9    253.0   0.000277422   0.00231   0.01615   0.04332  -0.01315
  41   39638.6    252.3   0.002002153   0.01663  -0.08809   0.04723  -0.08148
  42   39984.6    250.1   0.051370681   0.42296   0.27980   0.58546  -0.04362
  43   40314.0    248.1   0.143547715   1.17224   0.00848   1.07879  -0.09154

FINAL SINGLE POINT ENERGY     -7998.107746263162

DIPOLE MOMENT
-------------
                                X             Y             Z
Electronic contribution:    -80.15701    -119.73312     -32.39213
Nuclear contribution   :     81.73342     122.06827      30.83104
                        -----------------------------------------
Total Dipole Moment    :      1.57641       2.33516      -1.56109
                        -----------------------------------------
Magnitude (a.u.)       :      3.22103
Magnitude (Debye)      :      8.18721

Rotational constants in cm-1:     0.000830     0.000214     0.000177
Rotational constants in MHz :    24.880802     6.415953     5.315187

                             ****ORCA TERMINATED NORMALLY****
TOTAL RUN TIME: 0 days 0 hours 8 minutes 21 seconds 955 msec
