                         Program Version 4.2.0 -  RELEASE  -
|  1> # ORCA input file
|  2> # SCF done       -158.374237531342          0.000844987153
|  3> ! CAM-B3LYP def2-SVP def2/J RIJCOSX Grid4 TightSCF
|  4> %maxcore 5000
|  5> %tddft
|  6>     Mode sTDDFT
|  7>     Ethresh 5.0
|  8>     maxcore 5000
|  9> end
| 10>
| 11> %pal
| 12>   nprocs 6
| 13>   end
| 14> * xyz 0 1
| 15>    C       -2.53256         1.62084        -2.84456
| 16>    C       -1.93715         2.37625        -3.82253
| 17>    C       -0.67527         2.09009        -4.38250
| 18>    N        0.34322         1.90401        -4.87854
| 19>    C       -2.47779         3.55736        -4.37201
| 20>    N       -2.84141         4.53894        -4.84475
| 21>    C       -1.93718         0.46466        -2.18320
| 22>    C       -2.79895         0.04897        -1.13889
| 23>    C       -2.51486        -1.01960        -0.32523
| 24>    C       -1.31927        -1.71116        -0.55086
| 25>    C       -0.46618        -1.29071        -1.59804
| 26>    C       -0.75512        -0.20977        -2.42248
| 27>    S        0.95156        -2.28962        -1.70778
| 28>    C        0.38696        -3.24452        -0.36326
| 29>    C       -0.80121        -2.83811         0.14384
| 30>   Br        1.41931        -4.68682         0.24585
| 31>    C       -3.99759         0.90957        -1.12657
| 32>    O       -4.97975         0.76667        -0.41787
| 33>    C       -3.81054         1.87829        -2.21381
| 34>    C       -4.76491         2.75619        -2.67160
| 35>    C       -5.91939         3.19721        -2.01560
| 36>    S       -7.18185         3.95159        -2.98902
| 37>    C       -8.17863         4.32795        -1.62363
| 38>    C       -7.54018         3.91972        -0.45258
| 39>    C       -6.29189         3.27586        -0.67788
| 40>    S       -5.56357         2.87973         0.82815
| 41>    C       -6.96725         3.58214         1.61274
| 42>    N       -7.88490         4.05252         0.85603
| 43>    C       -9.44131         4.94943        -1.78166
| 44>    C      -10.23406         5.28295        -0.73494
| 45>    C      -11.51674         5.88564        -0.89587
| 46>    C      -12.32406         6.25081         0.11660
| 47>    C      -11.96253         6.08578         1.55994
| 48>    C      -13.68689         6.86090        -0.12012
| 49>    N      -14.03793         7.11311        -1.49015
| 50>    C      -14.42445         6.11989        -2.32978
| 51>    C      -14.50801         6.24482        -3.67133
| 52>    C      -14.96718         5.22067        -4.54900
| 53>    S      -15.10276         5.55213        -6.25049
| 54>    C      -15.66324         3.93875        -6.59117
| 55>    C      -15.73056         3.20407        -5.41936
| 56>    C      -15.34063         3.92360        -4.27848
| 57>    C      -16.17089         1.78230        -5.33484
| 58>    F      -17.42359         1.58813        -5.79426
| 59>    F      -15.38318         0.94238        -6.03762
| 60>    F      -16.16545         1.32346        -4.07545
| 61>    C      -15.96267         3.60960        -7.94274
| 62>    S      -16.46640         2.04585        -8.54359
| 63>    C      -16.58308         2.56937       -10.17114
| 64>    C      -16.25092         3.89755       -10.28075
| 65>    C      -15.90182         4.46915        -9.01799
| 66>    O      -15.58221         5.77444        -9.14793
| 67>    C      -15.72435         6.04169       -10.47566
| 68>    N      -15.45264         7.36206       -10.91003
| 69>    O      -15.59490         7.57977       -12.09859
| 70>    O      -15.10542         8.17392       -10.08053
| 71>    C      -16.12252         4.96227       -11.21579
| 72>    H       -3.19229        -1.31421         0.46084
| 73>    H       -0.07625         0.06778        -3.21136
| 74>    H       -1.29408        -3.31320         0.97229
| 75>    H       -4.64157         3.15399        -3.67162
| 76>    H       -7.03504         3.58444         2.68338
| 77>    H       -9.75677         5.15049        -2.79687
| 78>    H       -9.87529         5.07799         0.26222
| 79>    H      -11.84218         6.03678        -1.91708
| 80>    H      -11.64612         5.06523         1.76659
| 81>    H      -12.80828         6.32310         2.20008
| 82>    H      -11.13661         6.74575         1.82230
| 83>    H      -13.74915         7.80591         0.43094
| 84>    H      -14.43927         6.18641         0.30783
| 85>    H      -13.63259         7.93281        -1.91788
| 86>    H      -14.71624         5.20266        -1.83929
| 87>    H      -14.22290         7.17747        -4.13768
| 88>    H      -15.33511         3.48976        -3.29630
| 89>    H      -16.88408         1.88074       -10.93292
| 90>    H      -16.29351         4.95102       -12.27223
| 91> *
| 92>
| 93>                          ****END OF INPUT****

CARTESIAN COORDINATES (ANGSTROEM)
---------------------------------
  C     -2.532560    1.620840   -2.844560
  C     -1.937150    2.376250   -3.822530
  C     -0.675270    2.090090   -4.382500
  N      0.343220    1.904010   -4.878540
  C     -2.477790    3.557360   -4.372010
  N     -2.841410    4.538940   -4.844750
  C     -1.937180    0.464660   -2.183200
  C     -2.798950    0.048970   -1.138890
  C     -2.514860   -1.019600   -0.325230
  C     -1.319270   -1.711160   -0.550860
  C     -0.466180   -1.290710   -1.598040
  C     -0.755120   -0.209770   -2.422480
  S      0.951560   -2.289620   -1.707780
  C      0.386960   -3.244520   -0.363260
  C     -0.801210   -2.838110    0.143840
  Br     1.419310   -4.686820    0.245850
  C     -3.997590    0.909570   -1.126570
  O     -4.979750    0.766670   -0.417870
  C     -3.810540    1.878290   -2.213810
  C     -4.764910    2.756190   -2.671600
  C     -5.919390    3.197210   -2.015600
  S     -7.181850    3.951590   -2.989020
  C     -8.178630    4.327950   -1.623630
  C     -7.540180    3.919720   -0.452580
  C     -6.291890    3.275860   -0.677880
  S     -5.563570    2.879730    0.828150
  C     -6.967250    3.582140    1.612740
  N     -7.884900    4.052520    0.856030
  C     -9.441310    4.949430   -1.781660
  C    -10.234060    5.282950   -0.734940
  C    -11.516740    5.885640   -0.895870
  C    -12.324060    6.250810    0.116600
  C    -11.962530    6.085780    1.559940
  C    -13.686890    6.860900   -0.120120
  N    -14.037930    7.113110   -1.490150
  C    -14.424450    6.119890   -2.329780
  C    -14.508010    6.244820   -3.671330
  C    -14.967180    5.220670   -4.549000
  S    -15.102760    5.552130   -6.250490
  C    -15.663240    3.938750   -6.591170
  C    -15.730560    3.204070   -5.419360
  C    -15.340630    3.923600   -4.278480
  C    -16.170890    1.782300   -5.334840
  F    -17.423590    1.588130   -5.794260
  F    -15.383180    0.942380   -6.037620
  F    -16.165450    1.323460   -4.075450
  C    -15.962670    3.609600   -7.942740
  S    -16.466400    2.045850   -8.543590
  C    -16.583080    2.569370  -10.171140
  C    -16.250920    3.897550  -10.280750
  C    -15.901820    4.469150   -9.017990
  O    -15.582210    5.774440   -9.147930
  C    -15.724350    6.041690  -10.475660
  N    -15.452640    7.362060  -10.910030
  O    -15.594900    7.579770  -12.098590
  O    -15.105420    8.173920  -10.080530
  C    -16.122520    4.962270  -11.215790
  H     -3.192290   -1.314210    0.460840
  H     -0.076250    0.067780   -3.211360
  H     -1.294080   -3.313200    0.972290
  H     -4.641570    3.153990   -3.671620
  H     -7.035040    3.584440    2.683380
  H     -9.756770    5.150490   -2.796870
  H     -9.875290    5.077990    0.262220
  H    -11.842180    6.036780   -1.917080
  H    -11.646120    5.065230    1.766590
  H    -12.808280    6.323100    2.200080
  H    -11.136610    6.745750    1.822300
  H    -13.749150    7.805910    0.430940
  H    -14.439270    6.186410    0.307830
  H    -13.632590    7.932810   -1.917880
  H    -14.716240    5.202660   -1.839290
  H    -14.222900    7.177470   -4.137680
  H    -15.335110    3.489760   -3.296300
  H    -16.884080    1.880740  -10.932920
  H    -16.293510    4.951020  -12.272230

 Total Charge           Charge          ....    0
 Multiplicity           Mult            ....    1
 Number of Electrons    NEL             ....  462
 Basis Dimension        Dim             ....  931

ORBITAL ENERGIES
----------------

  NO   OCC          E(Eh)            E(eV)
   0   2.0000    -482.883312    -13139.9229
   1   2.0000     -88.976321     -2421.1688
   2   2.0000     -88.974787     -2421.1270
   3   2.0000     -88.972511     -2421.0651
   4   2.0000     -88.972358     -2421.0609
   5   2.0000     -88.956949     -2420.6416
   6   2.0000     -62.561038     -1702.3724
   7   2.0000     -56.394984     -1534.5855
   8   2.0000     -56.392275     -1534.5118
   9   2.0000     -56.392240     -1534.5109
  10   2.0000     -24.795864      -674.7298
  11   2.0000     -24.791228      -674.6036
  12   2.0000     -24.791064      -674.5992
  13   2.0000     -19.308690      -525.4162
  14   2.0000     -19.242414      -523.6127
  15   2.0000     -19.240301      -523.5552
  16   2.0000     -19.212458      -522.7976
  17   2.0000     -14.654199      -398.7610
  18   2.0000     -14.441130      -392.9631
  19   2.0000     -14.424916      -392.5219
  20   2.0000     -14.410288      -392.1239
  21   2.0000     -14.409676      -392.1072
  22   2.0000     -10.513009      -286.0735
  23   2.0000     -10.386131      -282.6210
  24   2.0000     -10.360920      -281.9350
  25   2.0000     -10.355856      -281.7972
  26   2.0000     -10.344672      -281.4928
  27   2.0000     -10.343148      -281.4514
  28   2.0000     -10.336076      -281.2589
  29   2.0000     -10.335511      -281.2436
  30   2.0000     -10.333790      -281.1967
  31   2.0000     -10.327289      -281.0198
  32   2.0000     -10.322171      -280.8806
  33   2.0000     -10.321794      -280.8703
  34   2.0000     -10.321582      -280.8645
  35   2.0000     -10.321397      -280.8595
  36   2.0000     -10.320804      -280.8434
  37   2.0000     -10.319842      -280.8172
  38   2.0000     -10.317354      -280.7495
  39   2.0000     -10.316008      -280.7129
  40   2.0000     -10.313496      -280.6445
  41   2.0000     -10.312943      -280.6294
  42   2.0000     -10.312097      -280.6064
  43   2.0000     -10.310708      -280.5686
  44   2.0000     -10.304439      -280.3980
  45   2.0000     -10.303718      -280.3784
  46   2.0000     -10.303007      -280.3591
  47   2.0000     -10.301522      -280.3187
  48   2.0000     -10.298711      -280.2422
  49   2.0000     -10.296869      -280.1921
  50   2.0000     -10.296560      -280.1836
  51   2.0000     -10.293894      -280.1111
  52   2.0000     -10.292601      -280.0759
  53   2.0000     -10.291213      -280.0381
  54   2.0000     -10.290485      -280.0183
  55   2.0000     -10.290165      -280.0096
  56   2.0000     -10.287937      -279.9490
  57   2.0000     -10.280252      -279.7399
  58   2.0000     -10.276400      -279.6351
  59   2.0000     -10.271468      -279.5008
  60   2.0000     -10.265778      -279.3460
  61   2.0000      -8.790472      -239.2009
  62   2.0000      -8.071748      -219.6434
  63   2.0000      -8.069240      -219.5752
  64   2.0000      -8.068350      -219.5510
  65   2.0000      -8.067454      -219.5266
  66   2.0000      -8.052546      -219.1209
  67   2.0000      -6.626772      -180.3236
  68   2.0000      -6.612199      -179.9271
  69   2.0000      -6.612016      -179.9221
  70   2.0000      -6.041029      -164.3847
  71   2.0000      -6.038666      -164.3205
  72   2.0000      -6.038050      -164.3037
  73   2.0000      -6.036974      -164.2744
  74   2.0000      -6.036871      -164.2716
  75   2.0000      -6.034029      -164.1943
  76   2.0000      -6.033756      -164.1868
  77   2.0000      -6.033739      -164.1864
  78   2.0000      -6.032462      -164.1516
  79   2.0000      -6.031624      -164.1288
  80   2.0000      -6.029571      -164.0730
  81   2.0000      -6.029421      -164.0689
  82   2.0000      -6.021977      -163.8663
  83   2.0000      -6.017618      -163.7477
  84   2.0000      -6.014477      -163.6622
  85   2.0000      -2.742608       -74.6302
  86   2.0000      -2.738568       -74.5202
  87   2.0000      -2.738432       -74.5165
  88   2.0000      -2.726840       -74.2011
  89   2.0000      -2.726832       -74.2009
  90   2.0000      -1.382539       -37.6208
  91   2.0000      -1.325714       -36.0745
  92   2.0000      -1.286220       -34.9998
  93   2.0000      -1.281811       -34.8798
  94   2.0000      -1.228771       -33.4366
  95   2.0000      -1.142088       -31.0778
  96   2.0000      -1.127229       -30.6735
  97   2.0000      -1.079066       -29.3629
  98   2.0000      -1.045392       -28.4466
  99   2.0000      -1.018771       -27.7222
 100   2.0000      -1.008953       -27.4550
 101   2.0000      -1.003320       -27.3017
 102   2.0000      -0.993532       -27.0354
 103   2.0000      -0.988940       -26.9104
 104   2.0000      -0.984372       -26.7861
 105   2.0000      -0.982572       -26.7371
 106   2.0000      -0.940983       -25.6055
 107   2.0000      -0.934613       -25.4321
 108   2.0000      -0.933579       -25.4040
 109   2.0000      -0.918598       -24.9963
 110   2.0000      -0.904557       -24.6142
 111   2.0000      -0.896066       -24.3832
 112   2.0000      -0.895353       -24.3638
 113   2.0000      -0.885793       -24.1037
 114   2.0000      -0.881915       -23.9981
 115   2.0000      -0.877899       -23.8888
 116   2.0000      -0.863635       -23.5007
 117   2.0000      -0.861258       -23.4360
 118   2.0000      -0.842492       -22.9254
 119   2.0000      -0.834608       -22.7108
 120   2.0000      -0.825814       -22.4715
 121   2.0000      -0.817965       -22.2580
 122   2.0000      -0.802142       -21.8274
 123   2.0000      -0.786855       -21.4114
 124   2.0000      -0.786494       -21.4016
 125   2.0000      -0.779889       -21.2219
 126   2.0000      -0.758790       -20.6477
 127   2.0000      -0.755650       -20.5623
 128   2.0000      -0.750951       -20.4344
 129   2.0000      -0.717113       -19.5136
 130   2.0000      -0.713842       -19.4246
 131   2.0000      -0.710000       -19.3201
 132   2.0000      -0.707954       -19.2644
 133   2.0000      -0.702596       -19.1186
 134   2.0000      -0.694843       -18.9076
 135   2.0000      -0.686045       -18.6682
 136   2.0000      -0.680440       -18.5157
 137   2.0000      -0.678707       -18.4686
 138   2.0000      -0.667085       -18.1523
 139   2.0000      -0.664857       -18.0917
 140   2.0000      -0.656200       -17.8561
 141   2.0000      -0.649220       -17.6662
 142   2.0000      -0.648205       -17.6385
 143   2.0000      -0.639252       -17.3949
 144   2.0000      -0.638018       -17.3613
 145   2.0000      -0.633621       -17.2417
 146   2.0000      -0.629901       -17.1405
 147   2.0000      -0.619781       -16.8651
 148   2.0000      -0.618604       -16.8331
 149   2.0000      -0.612005       -16.6535
 150   2.0000      -0.599973       -16.3261
 151   2.0000      -0.594455       -16.1759
 152   2.0000      -0.593287       -16.1442
 153   2.0000      -0.586249       -15.9526
 154   2.0000      -0.584226       -15.8976
 155   2.0000      -0.577376       -15.7112
 156   2.0000      -0.568915       -15.4810
 157   2.0000      -0.566519       -15.4158
 158   2.0000      -0.556760       -15.1502
 159   2.0000      -0.550678       -14.9847
 160   2.0000      -0.548274       -14.9193
 161   2.0000      -0.546004       -14.8575
 162   2.0000      -0.543585       -14.7917
 163   2.0000      -0.543295       -14.7838
 164   2.0000      -0.540834       -14.7168
 165   2.0000      -0.538643       -14.6572
 166   2.0000      -0.538498       -14.6533
 167   2.0000      -0.536374       -14.5955
 168   2.0000      -0.529976       -14.4214
 169   2.0000      -0.528069       -14.3695
 170   2.0000      -0.526497       -14.3267
 171   2.0000      -0.518442       -14.1075
 172   2.0000      -0.514161       -13.9910
 173   2.0000      -0.510583       -13.8937
 174   2.0000      -0.507517       -13.8103
 175   2.0000      -0.506095       -13.7716
 176   2.0000      -0.504990       -13.7415
 177   2.0000      -0.504502       -13.7282
 178   2.0000      -0.495717       -13.4891
 179   2.0000      -0.493903       -13.4398
 180   2.0000      -0.490424       -13.3451
 181   2.0000      -0.489490       -13.3197
 182   2.0000      -0.486991       -13.2517
 183   2.0000      -0.483788       -13.1645
 184   2.0000      -0.481924       -13.1138
 185   2.0000      -0.479525       -13.0485
 186   2.0000      -0.478289       -13.0149
 187   2.0000      -0.473779       -12.8922
 188   2.0000      -0.471032       -12.8174
 189   2.0000      -0.468809       -12.7569
 190   2.0000      -0.459323       -12.4988
 191   2.0000      -0.456987       -12.4353
 192   2.0000      -0.455729       -12.4010
 193   2.0000      -0.453863       -12.3502
 194   2.0000      -0.450000       -12.2451
 195   2.0000      -0.444383       -12.0923
 196   2.0000      -0.444018       -12.0823
 197   2.0000      -0.441554       -12.0153
 198   2.0000      -0.439304       -11.9541
 199   2.0000      -0.437154       -11.8956
 200   2.0000      -0.435267       -11.8442
 201   2.0000      -0.431409       -11.7392
 202   2.0000      -0.427065       -11.6210
 203   2.0000      -0.426682       -11.6106
 204   2.0000      -0.425079       -11.5670
 205   2.0000      -0.421918       -11.4810
 206   2.0000      -0.418543       -11.3891
 207   2.0000      -0.411413       -11.1951
 208   2.0000      -0.407583       -11.0909
 209   2.0000      -0.403734       -10.9862
 210   2.0000      -0.397963       -10.8291
 211   2.0000      -0.388538       -10.5727
 212   2.0000      -0.385663       -10.4944
 213   2.0000      -0.384889       -10.4734
 214   2.0000      -0.378759       -10.3066
 215   2.0000      -0.372864       -10.1462
 216   2.0000      -0.370165       -10.0727
 217   2.0000      -0.366071        -9.9613
 218   2.0000      -0.361521        -9.8375
 219   2.0000      -0.355246        -9.6667
 220   2.0000      -0.345700        -9.4070
 221   2.0000      -0.330204        -8.9853
 222   2.0000      -0.326773        -8.8919
 223   2.0000      -0.323284        -8.7970
 224   2.0000      -0.318062        -8.6549
 225   2.0000      -0.314266        -8.5516
 226   2.0000      -0.310010        -8.4358
 227   2.0000      -0.295106        -8.0302
 228   2.0000      -0.290248        -7.8981
 229   2.0000      -0.256480        -6.9792
 230   2.0000      -0.234893        -6.3918
 231   0.0000      -0.094774        -2.5789
 232   0.0000      -0.064378        -1.7518
 233   0.0000      -0.063954        -1.7403
 234   0.0000      -0.031304        -0.8518
 235   0.0000      -0.025341        -0.6896

MULLIKEN ATOMIC CHARGES
-----------------------
   0 C :    0.307538
   1 C :   -0.349768
   2 C :   -0.186111
   3 N :    0.147657
   4 C :   -0.205727
   5 N :    0.158810
   6 C :    0.014069
   7 C :   -0.010809
   8 C :   -0.076375
   9 C :    0.120308
  10 C :   -0.093171
  11 C :   -0.023644
  12 S :    0.184741
  13 C :   -0.123018
  14 C :    0.036370
  15 Br:    0.020390
  16 C :    0.131461
  17 O :   -0.179134
  18 C :   -0.102539
  19 C :    0.031343
  20 C :   -0.207506
  21 S :    0.175480
  22 C :   -0.109977
  23 C :    0.048008
  24 C :    0.033104
  25 S :    0.173984
  26 C :    0.008651
  27 N :   -0.061349
  28 C :    0.012143
  29 C :    0.032694
  30 C :   -0.000634
  31 C :   -0.217420
  32 C :    0.082738
  33 C :    0.190410
  34 N :   -0.156797
  35 C :    0.063031
  36 C :    0.025946
  37 C :   -0.054523
  38 S :    0.155468
  39 C :   -0.091898
  40 C :   -0.102686
  41 C :   -0.045316
  42 C :    0.521247
  43 F :   -0.170844
  44 F :   -0.171500
  45 F :   -0.155716
  46 C :   -0.178963
  47 S :    0.183395
  48 C :   -0.133569
  49 C :    0.129043
  50 C :    0.164735
  51 O :   -0.194566
  52 C :    0.239468
  53 N :    0.272660
  54 O :   -0.249977
  55 O :   -0.231078
  56 C :   -0.073893
  57 H :   -0.014680
  58 H :   -0.007252
  59 H :   -0.005034
  60 H :    0.019514
  61 H :    0.042690
  62 H :   -0.018971
  63 H :    0.008027
  64 H :   -0.014426
  65 H :    0.047108
  66 H :    0.011419
  67 H :    0.044446
  68 H :    0.029861
  69 H :    0.032061
  70 H :    0.121312
  71 H :    0.005361
  72 H :   -0.030339
  73 H :   -0.023650
  74 H :    0.032415
  75 H :    0.013750
Sum of atomic charges:   -0.0000000

LOEWDIN ATOMIC CHARGES
----------------------
   0 C :    0.076901
   1 C :   -0.145870
   2 C :   -0.018673
   3 N :   -0.057439
   4 C :   -0.024908
   5 N :   -0.055113
   6 C :   -0.021419
   7 C :   -0.048088
   8 C :    0.017343
   9 C :   -0.033830
  10 C :   -0.146152
  11 C :   -0.009974
  12 S :    0.431268
  13 C :   -0.273030
  14 C :   -0.071137
  15 Br:    0.134279
  16 C :    0.068328
  17 O :   -0.173157
  18 C :   -0.113348
  19 C :    0.040658
  20 C :   -0.202331
  21 S :    0.473946
  22 C :   -0.132711
  23 C :   -0.076316
  24 C :   -0.170641
  25 S :    0.466303
  26 C :   -0.104826
  27 N :   -0.093531
  28 C :   -0.056578
  29 C :    0.023828
  30 C :   -0.064029
  31 C :   -0.019654
  32 C :   -0.050505
  33 C :    0.034968
  34 N :   -0.008215
  35 C :    0.052022
  36 C :   -0.143229
  37 C :   -0.149534
  38 S :    0.464674
  39 C :   -0.181983
  40 C :   -0.123551
  41 C :   -0.075794
  42 C :    0.164671
  43 F :   -0.070080
  44 F :   -0.070903
  45 F :   -0.055715
  46 C :   -0.224275
  47 S :    0.503733
  48 C :   -0.188373
  49 C :   -0.084685
  50 C :    0.010238
  51 O :   -0.005568
  52 C :    0.025760
  53 N :    0.271995
  54 O :   -0.211069
  55 O :   -0.192428
  56 C :   -0.006824
  57 H :    0.039144
  58 H :    0.040729
  59 H :    0.038031
  60 H :    0.044352
  61 H :    0.020279
  62 H :    0.030076
  63 H :    0.030197
  64 H :    0.026541
  65 H :    0.043823
  66 H :    0.029332
  67 H :    0.045386
  68 H :    0.036382
  69 H :    0.037409
  70 H :    0.079509
  71 H :    0.028483
  72 H :    0.022016
  73 H :    0.025794
  74 H :    0.029614
  75 H :    0.047478

  Mayer bond orders larger than 0.100000
B(  0-C ,  1-C ) :   1.6269 B(  0-C ,  6-C ) :   1.0011 B(  0-C , 18-C ) :   1.0844
B(  1-C ,  2-C ) :   1.1431 B(  1-C ,  4-C ) :   1.1436 B(  2-C ,  3-N ) :   2.9705
B(  4-C ,  5-N ) :   2.9916 B(  6-C ,  7-C ) :   1.2768 B(  6-C , 11-C ) :   1.4142
B(  7-C ,  8-C ) :   1.4296 B(  7-C , 16-C ) :   0.9366 B(  8-C ,  9-C ) :   1.2385
B(  8-C , 57-H ) :   1.0172 B(  9-C , 10-C ) :   1.3132 B(  9-C , 14-C ) :   1.1629
B( 10-C , 11-C ) :   1.3243 B( 10-C , 12-S ) :   1.0843 B( 11-C , 58-H ) :   0.9812
B( 12-S , 13-C ) :   1.0874 B( 13-C , 14-C ) :   1.6174 B( 13-C , 15-Br) :   1.0167
B( 14-C , 59-H ) :   1.0005 B( 16-C , 17-O ) :   2.1519 B( 16-C , 18-C ) :   0.9927
B( 18-C , 19-C ) :   1.5086 B( 19-C , 20-C ) :   1.2821 B( 19-C , 60-H ) :   0.9271
B( 20-C , 21-S ) :   1.0849 B( 20-C , 24-C ) :   1.4106 B( 21-S , 22-C ) :   1.1703
B( 22-C , 23-C ) :   1.3670 B( 22-C , 28-C ) :   1.1286 B( 23-C , 24-C ) :   1.2799
B( 23-C , 27-N ) :   1.3043 B( 24-C , 25-S ) :   1.1102 B( 25-S , 26-C ) :   1.1113
B( 26-C , 27-N ) :   1.7489 B( 26-C , 61-H ) :   0.9637 B( 28-C , 29-C ) :   1.6532
B( 28-C , 62-H ) :   0.9701 B( 29-C , 30-C ) :   1.1126 B( 29-C , 63-H ) :   0.9523
B( 30-C , 31-C ) :   1.7603 B( 30-C , 64-H ) :   0.9688 B( 31-C , 32-C ) :   1.0789
B( 31-C , 33-C ) :   0.9964 B( 32-C , 65-H ) :   0.9439 B( 32-C , 66-H ) :   0.9558
B( 32-C , 67-H ) :   0.9455 B( 33-C , 34-N ) :   1.0640 B( 33-C , 68-H ) :   0.9357
B( 33-C , 69-H ) :   0.9229 B( 34-N , 35-C ) :   1.1973 B( 34-N , 70-H ) :   0.9413
B( 35-C , 36-C ) :   1.6632 B( 35-C , 71-H ) :   0.9652 B( 36-C , 37-C ) :   1.1292
B( 36-C , 72-H ) :   0.9507 B( 37-C , 38-S ) :   1.1163 B( 37-C , 41-C ) :   1.4979
B( 38-S , 39-C ) :   1.1420 B( 39-C , 40-C ) :   1.5179 B( 39-C , 46-C ) :   1.1387
B( 40-C , 41-C ) :   1.2726 B( 40-C , 42-C ) :   0.9612 B( 41-C , 73-H ) :   0.9982
B( 42-C , 43-F ) :   1.1530 B( 42-C , 44-F ) :   1.1511 B( 42-C , 45-F ) :   1.1706
B( 46-C , 47-S ) :   1.1530 B( 46-C , 48-C ) :   0.1207 B( 46-C , 50-C ) :   1.4802
B( 47-S , 48-C ) :   1.1968 B( 48-C , 49-C ) :   1.4309 B( 48-C , 74-H ) :   0.9746
B( 49-C , 50-C ) :   1.2201 B( 49-C , 56-C ) :   1.0574 B( 50-C , 51-O ) :   1.0985
B( 51-O , 52-C ) :   1.1175 B( 52-C , 53-N ) :   0.9149 B( 52-C , 56-C ) :   1.5833
B( 53-N , 54-O ) :   1.5333 B( 53-N , 55-O ) :   1.5151 B( 54-O , 55-O ) :   0.2795
B( 56-C , 75-H ) :   1.0255

-----------------------------------------------------------------------------
         ABSORPTION SPECTRUM VIA TRANSITION ELECTRIC DIPOLE MOMENTS
-----------------------------------------------------------------------------
State   Energy  Wavelength   fosc         T2         TX        TY        TZ
        (cm-1)    (nm)                  (au**2)     (au)      (au)      (au)
-----------------------------------------------------------------------------
   0   18706.7    534.6   0.327686226   5.76683  -2.19889   0.93888   0.22412
   1   19488.3    513.1   0.999218570  16.87963  -3.67374   1.67337   0.76362
   2   21243.5    470.7   0.185030496   2.86743   0.01918   0.88614   1.44285
   3   25029.7    399.5   0.125607323   1.65209  -1.00883   0.76205  -0.23160
   4   27529.7    363.2   0.426740637   5.10314   1.15314  -1.58774   1.11914
   5   27948.8    357.8   0.062444128   0.73554   0.28955  -0.61222   0.52620
   6   28202.1    354.6   0.015846130   0.18498   0.15623  -0.37256  -0.14753
   7   28586.2    349.8   0.776065121   8.93753  -0.33231  -0.87912  -2.83800
   8   29803.4    335.5   0.019911733   0.21995  -0.45566   0.09674   0.05441
   9   30352.5    329.5   0.019511334   0.21163  -0.12933   0.27681   0.34391
  10   32079.1    311.7   0.073006261   0.74923  -0.30427  -0.53656   0.60724
  11   32600.9    306.7   0.040336258   0.40733  -0.53972   0.10657  -0.32353
  12   32711.9    305.7   0.296570333   2.98468  -0.20395   1.04521  -1.36038
  13   32959.8    303.4   0.024462730   0.24434   0.01715   0.45520  -0.19194
  14   32961.3    303.4   0.172842532   1.72632   0.02246  -1.14328   0.64709
  15   33024.1    302.8   0.012709999   0.12670   0.30463  -0.17690   0.05109
  16   33067.3    302.4   0.028232901   0.28108   0.14447   0.43940   0.25912
  17   33800.6    295.9   0.174922446   1.70371  -0.33154  -1.14836  -0.52448
  18   34293.3    291.6   0.004311835   0.04139  -0.03277  -0.16870  -0.10890
  19   36117.9    276.9   0.065737653   0.59919   0.39679   0.36503  -0.55543
  20   36350.7    275.1   0.015724547   0.14241  -0.24936   0.02693   0.28197
  21   36480.9    274.1   0.435223043   3.92755   0.33605   1.79763  -0.76364
  22   38021.1    263.0   0.192740342   1.66887   1.15017  -0.45206  -0.37633
  23   38942.0    256.8   0.088754901   0.75033  -0.26152  -0.57355   0.59411
  24   39315.5    254.4   0.001575488   0.01319  -0.03625  -0.02879   0.10512
  25   39721.5    251.8   0.024516320   0.20319  -0.02090  -0.25253   0.37281
  26   39823.5    251.1   0.119057675   0.98422  -0.23567  -0.43884   0.85796
  27   40036.1    249.8   0.077083238   0.63385  -0.06881   0.27231  -0.74496

FINAL SINGLE POINT ENERGY     -6933.009404902641

DIPOLE MOMENT
-------------
                                X             Y             Z
Electronic contribution:    107.20853    -102.97770       4.00155
Nuclear contribution   :   -108.87276     102.23578      -0.41472
                        -----------------------------------------
Total Dipole Moment    :     -1.66423      -0.74192       3.58683
                        -----------------------------------------
Magnitude (a.u.)       :      4.02311
Magnitude (Debye)      :     10.22595

Rotational constants in cm-1:     0.001569     0.000295     0.000282
Rotational constants in MHz :    47.025263     8.834629     8.443888

                             ****ORCA TERMINATED NORMALLY****
TOTAL RUN TIME: 0 days 0 hours 7 minutes 31 seconds 704 msec
