                         Program Version 4.2.0 -  RELEASE  -
|  1> # ORCA input file
|  2> # SCF done       -179.119477406693          0.000486939297
|  3> ! CAM-B3LYP def2-SVP def2/J RIJCOSX Grid4 TightSCF
|  4> %maxcore 5000
|  5> %tddft
|  6>     Mode sTDDFT
|  7>     Ethresh 5.0
|  8>     maxcore 5000
|  9> end
| 10>
| 11> %pal
| 12>   nprocs 6
| 13>   end
| 14> * xyz 0 1
| 15>    C       -3.64748         0.68757         7.62435
| 16>    C       -3.94806        -0.65694         7.60352
| 17>    C       -3.25539        -1.63282         8.34586
| 18>    N       -2.73656        -2.47795         8.92654
| 19>    C       -4.97381        -1.26156         6.85156
| 20>    N       -5.78099        -1.84065         6.27259
| 21>    C       -2.57442         1.29407         8.41154
| 22>    C       -2.56843         2.68922         8.16944
| 23>    C       -1.67452         3.54190         8.76743
| 24>    C       -0.73884         2.99195         9.65134
| 25>    C       -0.75253         1.59825         9.88751
| 26>    C       -1.65755         0.73491         9.28001
| 27>    S        0.48473         1.12848        11.01425
| 28>    C        0.99583         2.78990        11.15020
| 29>    C        0.27931         3.65291        10.39218
| 30>   Br        2.42738         3.22812        12.28115
| 31>    C       -3.64724         3.02095         7.21427
| 32>    O       -3.91692         4.12915         6.79187
| 33>    C       -4.30752         1.73976         6.89996
| 34>    C       -5.39491         1.60342         6.05472
| 35>    C       -6.02222         2.64379         5.38526
| 36>    C       -7.12911         2.45329         4.57083
| 37>    C       -7.84904         3.44046         3.87332
| 38>    C       -8.91648         2.95487         3.16298
| 39>    C       -9.07519         1.56476         3.27093
| 40>    S       -7.83999         0.87952         4.29181
| 41>    C      -10.05759         0.76010         2.68869
| 42>    C      -11.13047         1.14847         1.87580
| 43>    C      -11.92584         0.09913         1.48137
| 44>    C      -11.50602        -1.14683         1.96305
| 45>    S      -10.06922        -0.96416         2.93801
| 46>    C      -12.11190        -2.38225         1.73048
| 47>    C      -11.63353        -3.58189         2.19730
| 48>    C      -12.24276        -4.81590         1.97006
| 49>    C      -11.78644        -6.07426         2.38463
| 50>    C      -12.59814        -7.11717         2.00867
| 51>    C      -13.73003        -6.71335         1.28831
| 52>    S      -13.74123        -4.97800         1.08900
| 53>    C      -14.76261        -7.48788         0.76481
| 54>    C      -14.92552        -8.88416         0.79424
| 55>    C      -16.06806        -9.31539         0.17688
| 56>    C      -16.85879        -8.27690        -0.36198
| 57>    S      -16.09763        -6.73126        -0.06114
| 58>    C      -18.05865        -8.38333        -1.03271
| 59>    C      -18.75767        -7.26636        -1.50363
| 60>    O      -18.24731        -6.01862        -1.29193
| 61>    C      -19.95966        -7.12110        -2.18892
| 62>    C      -21.08108        -7.85185        -2.77620
| 63>    O      -21.31658        -9.03116        -2.83845
| 64>    N      -21.89297        -6.84120        -3.29352
| 65>    C      -21.42504        -5.54262        -3.10689
| 66>    O      -21.97946        -4.54408        -3.47988
| 67>    C      -20.16025        -5.73565        -2.38287
| 68>    C      -19.08359        -5.07734        -1.81479
| 69>    C      -18.75490        -3.70439        -1.69368
| 70>    C      -17.61640        -3.29711        -1.07742
| 71>    C      -17.23767        -1.94257        -0.90426
| 72>    S      -15.74216        -1.52049        -0.09723
| 73>    C      -15.98451         0.17025        -0.25209
| 74>    C      -17.16788         0.42810        -0.90044
| 75>    C      -17.86565        -0.76726        -1.26425
| 76>    O      -19.02088        -0.47208        -1.89385
| 77>    C      -19.06904         0.88704        -1.93643
| 78>    N      -20.19691         1.49301        -2.55296
| 79>    O      -20.20385         2.70863        -2.57362
| 80>    O      -21.05409         0.77043        -3.00419
| 81>    C      -17.98998         1.49527        -1.35937
| 82>    H       -1.69560         4.60073         8.56205
| 83>    H       -1.62564        -0.31992         9.49503
| 84>    H        0.45905         4.71185        10.35576
| 85>    H       -5.80214         0.61110         5.90425
| 86>    H       -5.64768         3.65025         5.50408
| 87>    H       -7.56672         4.47720         3.91522
| 88>    H       -9.57768         3.56538         2.57483
| 89>    H      -11.30102         2.17326         1.59997
| 90>    H      -12.79384         0.19537         0.85350
| 91>    H      -13.01783        -2.37556         1.13600
| 92>    H      -10.71971        -3.59006         2.77784
| 93>    H      -10.87558        -6.18859         2.94500
| 94>    H      -12.40236        -8.14861         2.23923
| 95>    H      -14.20844        -9.53632         1.25947
| 96>    H      -16.36548       -10.34548         0.09529
| 97>    H      -18.49641        -9.35289        -1.20811
| 98>    H      -22.76106        -7.03777        -3.77085
| 99>    H      -19.45993        -3.00223        -2.11185
|100>    H      -16.93612        -4.03670        -0.67773
|101>    H      -15.26732         0.86287         0.13706
|102>    H      -17.82623         2.55001        -1.28324
|103> *
|104>
|105>                          ****END OF INPUT****

CARTESIAN COORDINATES (ANGSTROEM)
---------------------------------
  C     -3.647480    0.687570    7.624350
  C     -3.948060   -0.656940    7.603520
  C     -3.255390   -1.632820    8.345860
  N     -2.736560   -2.477950    8.926540
  C     -4.973810   -1.261560    6.851560
  N     -5.780990   -1.840650    6.272590
  C     -2.574420    1.294070    8.411540
  C     -2.568430    2.689220    8.169440
  C     -1.674520    3.541900    8.767430
  C     -0.738840    2.991950    9.651340
  C     -0.752530    1.598250    9.887510
  C     -1.657550    0.734910    9.280010
  S      0.484730    1.128480   11.014250
  C      0.995830    2.789900   11.150200
  C      0.279310    3.652910   10.392180
  Br     2.427380    3.228120   12.281150
  C     -3.647240    3.020950    7.214270
  O     -3.916920    4.129150    6.791870
  C     -4.307520    1.739760    6.899960
  C     -5.394910    1.603420    6.054720
  C     -6.022220    2.643790    5.385260
  C     -7.129110    2.453290    4.570830
  C     -7.849040    3.440460    3.873320
  C     -8.916480    2.954870    3.162980
  C     -9.075190    1.564760    3.270930
  S     -7.839990    0.879520    4.291810
  C    -10.057590    0.760100    2.688690
  C    -11.130470    1.148470    1.875800
  C    -11.925840    0.099130    1.481370
  C    -11.506020   -1.146830    1.963050
  S    -10.069220   -0.964160    2.938010
  C    -12.111900   -2.382250    1.730480
  C    -11.633530   -3.581890    2.197300
  C    -12.242760   -4.815900    1.970060
  C    -11.786440   -6.074260    2.384630
  C    -12.598140   -7.117170    2.008670
  C    -13.730030   -6.713350    1.288310
  S    -13.741230   -4.978000    1.089000
  C    -14.762610   -7.487880    0.764810
  C    -14.925520   -8.884160    0.794240
  C    -16.068060   -9.315390    0.176880
  C    -16.858790   -8.276900   -0.361980
  S    -16.097630   -6.731260   -0.061140
  C    -18.058650   -8.383330   -1.032710
  C    -18.757670   -7.266360   -1.503630
  O    -18.247310   -6.018620   -1.291930
  C    -19.959660   -7.121100   -2.188920
  C    -21.081080   -7.851850   -2.776200
  O    -21.316580   -9.031160   -2.838450
  N    -21.892970   -6.841200   -3.293520
  C    -21.425040   -5.542620   -3.106890
  O    -21.979460   -4.544080   -3.479880
  C    -20.160250   -5.735650   -2.382870
  C    -19.083590   -5.077340   -1.814790
  C    -18.754900   -3.704390   -1.693680
  C    -17.616400   -3.297110   -1.077420
  C    -17.237670   -1.942570   -0.904260
  S    -15.742160   -1.520490   -0.097230
  C    -15.984510    0.170250   -0.252090
  C    -17.167880    0.428100   -0.900440
  C    -17.865650   -0.767260   -1.264250
  O    -19.020880   -0.472080   -1.893850
  C    -19.069040    0.887040   -1.936430
  N    -20.196910    1.493010   -2.552960
  O    -20.203850    2.708630   -2.573620
  O    -21.054090    0.770430   -3.004190
  C    -17.989980    1.495270   -1.359370
  H     -1.695600    4.600730    8.562050
  H     -1.625640   -0.319920    9.495030
  H      0.459050    4.711850   10.355760
  H     -5.802140    0.611100    5.904250
  H     -5.647680    3.650250    5.504080
  H     -7.566720    4.477200    3.915220
  H     -9.577680    3.565380    2.574830
  H    -11.301020    2.173260    1.599970
  H    -12.793840    0.195370    0.853500
  H    -13.017830   -2.375560    1.136000
  H    -10.719710   -3.590060    2.777840
  H    -10.875580   -6.188590    2.945000
  H    -12.402360   -8.148610    2.239230
  H    -14.208440   -9.536320    1.259470
  H    -16.365480  -10.345480    0.095290
  H    -18.496410   -9.352890   -1.208110
  H    -22.761060   -7.037770   -3.770850
  H    -19.459930   -3.002230   -2.111850
  H    -16.936120   -4.036700   -0.677730
  H    -15.267320    0.862870    0.137060
  H    -17.826230    2.550010   -1.283240

 Total Charge           Charge          ....    0
 Multiplicity           Mult            ....    1
 Number of Electrons    NEL             ....  530
 Basis Dimension        Dim             .... 1085

ORBITAL ENERGIES
----------------

  NO   OCC          E(Eh)            E(eV)
   0   2.0000    -482.875489    -13139.7101
   1   2.0000     -88.997223     -2421.7376
   2   2.0000     -88.971650     -2421.0417
   3   2.0000     -88.969452     -2420.9819
   4   2.0000     -88.967835     -2420.9379
   5   2.0000     -88.962670     -2420.7973
   6   2.0000     -88.958799     -2420.6920
   7   2.0000     -62.553193     -1702.1589
   8   2.0000     -56.387130     -1534.3718
   9   2.0000     -56.384440     -1534.2986
  10   2.0000     -56.384403     -1534.2976
  11   2.0000     -19.326489      -525.9005
  12   2.0000     -19.317887      -525.6664
  13   2.0000     -19.255249      -523.9620
  14   2.0000     -19.252209      -523.8792
  15   2.0000     -19.211451      -522.7701
  16   2.0000     -19.211042      -522.7590
  17   2.0000     -19.197001      -522.3770
  18   2.0000     -14.666785      -399.1035
  19   2.0000     -14.454533      -393.3278
  20   2.0000     -14.398280      -391.7971
  21   2.0000     -14.395361      -391.7177
  22   2.0000     -10.402048      -283.0541
  23   2.0000     -10.401112      -283.0287
  24   2.0000     -10.400806      -283.0203
  25   2.0000     -10.369258      -282.1619
  26   2.0000     -10.368987      -282.1545
  27   2.0000     -10.365418      -282.0574
  28   2.0000     -10.347070      -281.5581
  29   2.0000     -10.346254      -281.5359
  30   2.0000     -10.335640      -281.2471
  31   2.0000     -10.334834      -281.2251
  32   2.0000     -10.334667      -281.2206
  33   2.0000     -10.334386      -281.2129
  34   2.0000     -10.333969      -281.2016
  35   2.0000     -10.332935      -281.1734
  36   2.0000     -10.332795      -281.1697
  37   2.0000     -10.326519      -280.9989
  38   2.0000     -10.325386      -280.9680
  39   2.0000     -10.322817      -280.8981
  40   2.0000     -10.321788      -280.8701
  41   2.0000     -10.320415      -280.8328
  42   2.0000     -10.318226      -280.7732
  43   2.0000     -10.316624      -280.7296
  44   2.0000     -10.312289      -280.6117
  45   2.0000     -10.310620      -280.5662
  46   2.0000     -10.309827      -280.5447
  47   2.0000     -10.309128      -280.5256
  48   2.0000     -10.309124      -280.5255
  49   2.0000     -10.308820      -280.5173
  50   2.0000     -10.308089      -280.4974
  51   2.0000     -10.307275      -280.4752
  52   2.0000     -10.304460      -280.3986
  53   2.0000     -10.304044      -280.3873
  54   2.0000     -10.302682      -280.3502
  55   2.0000     -10.302667      -280.3498
  56   2.0000     -10.302496      -280.3452
  57   2.0000     -10.302217      -280.3376
  58   2.0000     -10.300041      -280.2784
  59   2.0000     -10.297145      -280.1996
  60   2.0000     -10.296782      -280.1897
  61   2.0000     -10.292986      -280.0864
  62   2.0000     -10.292626      -280.0766
  63   2.0000     -10.291183      -280.0373
  64   2.0000     -10.290136      -280.0088
  65   2.0000     -10.289010      -279.9782
  66   2.0000     -10.285332      -279.8781
  67   2.0000     -10.284726      -279.8616
  68   2.0000     -10.274951      -279.5956
  69   2.0000     -10.273009      -279.5428
  70   2.0000     -10.271918      -279.5131
  71   2.0000      -8.782608      -238.9869
  72   2.0000      -8.091632      -220.1845
  73   2.0000      -8.067949      -219.5401
  74   2.0000      -8.064881      -219.4566
  75   2.0000      -8.064140      -219.4364
  76   2.0000      -8.058693      -219.2882
  77   2.0000      -8.054813      -219.1826
  78   2.0000      -6.618856      -180.1082
  79   2.0000      -6.604360      -179.7138
  80   2.0000      -6.604190      -179.7091
  81   2.0000      -6.060922      -164.9261
  82   2.0000      -6.056623      -164.8091
  83   2.0000      -6.054145      -164.7417
  84   2.0000      -6.037506      -164.2889
  85   2.0000      -6.034709      -164.2128
  86   2.0000      -6.033668      -164.1844
  87   2.0000      -6.033540      -164.1810
  88   2.0000      -6.030276      -164.0922
  89   2.0000      -6.029609      -164.0740
  90   2.0000      -6.029178      -164.0623
  91   2.0000      -6.028393      -164.0409
  92   2.0000      -6.025990      -163.9755
  93   2.0000      -6.025445      -163.9607
  94   2.0000      -6.024320      -163.9301
  95   2.0000      -6.024114      -163.9245
  96   2.0000      -6.020304      -163.8208
  97   2.0000      -6.019904      -163.8099
  98   2.0000      -6.016158      -163.7080
  99   2.0000      -2.734711       -74.4153
 100   2.0000      -2.730659       -74.3050
 101   2.0000      -2.730565       -74.3024
 102   2.0000      -2.719030       -73.9886
 103   2.0000      -2.719008       -73.9880
 104   2.0000      -1.339087       -36.4384
 105   2.0000      -1.246185       -33.9104
 106   2.0000      -1.234963       -33.6051
 107   2.0000      -1.156027       -31.4571
 108   2.0000      -1.155966       -31.4554
 109   2.0000      -1.135454       -30.8973
 110   2.0000      -1.110362       -30.2145
 111   2.0000      -1.043591       -28.3976
 112   2.0000      -1.020547       -27.7705
 113   2.0000      -1.016234       -27.6531
 114   2.0000      -1.014300       -27.6005
 115   2.0000      -1.006983       -27.4014
 116   2.0000      -0.998898       -27.1814
 117   2.0000      -0.996534       -27.1171
 118   2.0000      -0.989906       -26.9367
 119   2.0000      -0.976214       -26.5641
 120   2.0000      -0.971706       -26.4415
 121   2.0000      -0.952776       -25.9264
 122   2.0000      -0.940421       -25.5902
 123   2.0000      -0.929252       -25.2862
 124   2.0000      -0.927791       -25.2465
 125   2.0000      -0.926228       -25.2040
 126   2.0000      -0.912991       -24.8438
 127   2.0000      -0.903795       -24.5935
 128   2.0000      -0.898995       -24.4629
 129   2.0000      -0.892492       -24.2859
 130   2.0000      -0.882669       -24.0186
 131   2.0000      -0.873065       -23.7573
 132   2.0000      -0.870476       -23.6869
 133   2.0000      -0.863664       -23.5015
 134   2.0000      -0.861606       -23.4455
 135   2.0000      -0.857341       -23.3294
 136   2.0000      -0.843454       -22.9516
 137   2.0000      -0.837147       -22.7799
 138   2.0000      -0.836790       -22.7702
 139   2.0000      -0.823142       -22.3988
 140   2.0000      -0.814492       -22.1635
 141   2.0000      -0.809715       -22.0335
 142   2.0000      -0.801962       -21.8225
 143   2.0000      -0.787408       -21.4265
 144   2.0000      -0.774112       -21.0647
 145   2.0000      -0.768888       -20.9225
 146   2.0000      -0.760477       -20.6936
 147   2.0000      -0.746529       -20.3141
 148   2.0000      -0.740901       -20.1609
 149   2.0000      -0.732361       -19.9285
 150   2.0000      -0.724511       -19.7149
 151   2.0000      -0.714775       -19.4500
 152   2.0000      -0.706065       -19.2130
 153   2.0000      -0.702703       -19.1215
 154   2.0000      -0.695505       -18.9256
 155   2.0000      -0.681364       -18.5409
 156   2.0000      -0.681109       -18.5339
 157   2.0000      -0.673927       -18.3385
 158   2.0000      -0.669207       -18.2101
 159   2.0000      -0.659531       -17.9468
 160   2.0000      -0.655521       -17.8376
 161   2.0000      -0.652331       -17.7508
 162   2.0000      -0.650595       -17.7036
 163   2.0000      -0.646540       -17.5933
 164   2.0000      -0.642137       -17.4734
 165   2.0000      -0.638131       -17.3644
 166   2.0000      -0.637208       -17.3393
 167   2.0000      -0.634143       -17.2559
 168   2.0000      -0.625088       -17.0095
 169   2.0000      -0.617846       -16.8124
 170   2.0000      -0.616036       -16.7632
 171   2.0000      -0.614398       -16.7186
 172   2.0000      -0.607414       -16.5286
 173   2.0000      -0.605745       -16.4832
 174   2.0000      -0.597971       -16.2716
 175   2.0000      -0.594721       -16.1832
 176   2.0000      -0.591576       -16.0976
 177   2.0000      -0.586101       -15.9486
 178   2.0000      -0.584029       -15.8922
 179   2.0000      -0.582458       -15.8495
 180   2.0000      -0.579521       -15.7696
 181   2.0000      -0.574956       -15.6454
 182   2.0000      -0.569848       -15.5064
 183   2.0000      -0.566783       -15.4229
 184   2.0000      -0.558994       -15.2110
 185   2.0000      -0.552517       -15.0348
 186   2.0000      -0.547279       -14.8922
 187   2.0000      -0.546357       -14.8671
 188   2.0000      -0.541064       -14.7231
 189   2.0000      -0.532925       -14.5016
 190   2.0000      -0.529042       -14.3960
 191   2.0000      -0.526907       -14.3379
 192   2.0000      -0.522564       -14.2197
 193   2.0000      -0.522479       -14.2174
 194   2.0000      -0.520421       -14.1614
 195   2.0000      -0.520154       -14.1541
 196   2.0000      -0.516998       -14.0682
 197   2.0000      -0.516438       -14.0530
 198   2.0000      -0.514098       -13.9893
 199   2.0000      -0.513830       -13.9820
 200   2.0000      -0.511576       -13.9207
 201   2.0000      -0.510794       -13.8994
 202   2.0000      -0.507199       -13.8016
 203   2.0000      -0.501238       -13.6394
 204   2.0000      -0.498760       -13.5720
 205   2.0000      -0.494474       -13.4553
 206   2.0000      -0.493054       -13.4167
 207   2.0000      -0.491749       -13.3812
 208   2.0000      -0.489645       -13.3239
 209   2.0000      -0.488288       -13.2870
 210   2.0000      -0.483737       -13.1632
 211   2.0000      -0.483022       -13.1437
 212   2.0000      -0.480450       -13.0737
 213   2.0000      -0.479240       -13.0408
 214   2.0000      -0.478334       -13.0161
 215   2.0000      -0.476521       -12.9668
 216   2.0000      -0.475024       -12.9261
 217   2.0000      -0.473054       -12.8725
 218   2.0000      -0.462448       -12.5839
 219   2.0000      -0.458195       -12.4681
 220   2.0000      -0.456366       -12.4184
 221   2.0000      -0.455700       -12.4002
 222   2.0000      -0.449560       -12.2332
 223   2.0000      -0.446446       -12.1484
 224   2.0000      -0.443934       -12.0800
 225   2.0000      -0.440786       -11.9944
 226   2.0000      -0.437189       -11.8965
 227   2.0000      -0.434057       -11.8113
 228   2.0000      -0.432662       -11.7733
 229   2.0000      -0.430331       -11.7099
 230   2.0000      -0.426970       -11.6185
 231   2.0000      -0.424614       -11.5543
 232   2.0000      -0.416201       -11.3254
 233   2.0000      -0.414976       -11.2921
 234   2.0000      -0.411162       -11.1883
 235   2.0000      -0.409682       -11.1480
 236   2.0000      -0.406304       -11.0561
 237   2.0000      -0.402963       -10.9652
 238   2.0000      -0.400250       -10.8913
 239   2.0000      -0.394931       -10.7466
 240   2.0000      -0.390125       -10.6158
 241   2.0000      -0.389815       -10.6074
 242   2.0000      -0.387467       -10.5435
 243   2.0000      -0.382519       -10.4089
 244   2.0000      -0.377982       -10.2854
 245   2.0000      -0.372236       -10.1291
 246   2.0000      -0.370598       -10.0845
 247   2.0000      -0.365161        -9.9365
 248   2.0000      -0.362732        -9.8704
 249   2.0000      -0.361173        -9.8280
 250   2.0000      -0.357781        -9.7357
 251   2.0000      -0.352382        -9.5888
 252   2.0000      -0.346285        -9.4229
 253   2.0000      -0.345997        -9.4150
 254   2.0000      -0.344630        -9.3779
 255   2.0000      -0.338411        -9.2086
 256   2.0000      -0.334446        -9.1007
 257   2.0000      -0.324324        -8.8253
 258   2.0000      -0.317470        -8.6388
 259   2.0000      -0.302873        -8.2416
 260   2.0000      -0.300907        -8.1881
 261   2.0000      -0.281350        -7.6559
 262   2.0000      -0.276569        -7.5258
 263   2.0000      -0.250961        -6.8290
 264   2.0000      -0.207813        -5.6549
 265   0.0000      -0.133478        -3.6321
 266   0.0000      -0.085844        -2.3359
 267   0.0000      -0.078289        -2.1303
 268   0.0000      -0.056991        -1.5508
 269   0.0000      -0.053194        -1.4475

MULLIKEN ATOMIC CHARGES
-----------------------
   0 C :    0.328295
   1 C :   -0.368321
   2 C :   -0.191161
   3 N :    0.134983
   4 C :   -0.189429
   5 N :    0.124343
   6 C :    0.014221
   7 C :   -0.007703
   8 C :   -0.079443
   9 C :    0.119393
  10 C :   -0.092574
  11 C :   -0.027981
  12 S :    0.177374
  13 C :   -0.122998
  14 C :    0.034542
  15 Br:    0.012195
  16 C :    0.134316
  17 O :   -0.166078
  18 C :   -0.090722
  19 C :   -0.043759
  20 C :   -0.019324
  21 C :    0.001824
  22 C :    0.022212
  23 C :    0.036041
  24 C :   -0.047817
  25 S :    0.110570
  26 C :   -0.030460
  27 C :    0.017256
  28 C :    0.045752
  29 C :   -0.034277
  30 S :    0.120043
  31 C :    0.010494
  32 C :   -0.005252
  33 C :   -0.021776
  34 C :    0.032859
  35 C :    0.026807
  36 C :   -0.042157
  37 S :    0.081823
  38 C :   -0.022342
  39 C :    0.026780
  40 C :    0.029972
  41 C :   -0.002622
  42 S :    0.092322
  43 C :   -0.028802
  44 C :    0.096196
  45 O :   -0.253948
  46 C :   -0.028448
  47 C :    0.159466
  48 O :   -0.144832
  49 N :   -0.168540
  50 C :    0.162425
  51 O :   -0.131150
  52 C :   -0.028371
  53 C :    0.093047
  54 C :   -0.030451
  55 C :    0.083918
  56 C :   -0.191723
  57 S :    0.148693
  58 C :   -0.131598
  59 C :    0.124969
  60 C :    0.191663
  61 O :   -0.184823
  62 C :    0.248625
  63 N :    0.271034
  64 O :   -0.245422
  65 O :   -0.216481
  66 C :   -0.076250
  67 H :   -0.015990
  68 H :   -0.010543
  69 H :   -0.006719
  70 H :    0.013007
  71 H :    0.015511
  72 H :   -0.001998
  73 H :   -0.009128
  74 H :   -0.011434
  75 H :   -0.034826
  76 H :   -0.008460
  77 H :    0.008181
  78 H :    0.001776
  79 H :   -0.003969
  80 H :   -0.005158
  81 H :    0.000927
  82 H :    0.013699
  83 H :    0.139107
  84 H :    0.030962
  85 H :   -0.012672
  86 H :    0.032412
  87 H :    0.017894
Sum of atomic charges:   -0.0000000

LOEWDIN ATOMIC CHARGES
----------------------
   0 C :    0.071361
   1 C :   -0.160525
   2 C :   -0.019368
   3 N :   -0.072751
   4 C :   -0.020204
   5 N :   -0.073548
   6 C :   -0.017056
   7 C :   -0.048415
   8 C :    0.016013
   9 C :   -0.036778
  10 C :   -0.146170
  11 C :   -0.014974
  12 S :    0.426078
  13 C :   -0.275713
  14 C :   -0.071170
  15 Br:    0.128104
  16 C :    0.080730
  17 O :   -0.160359
  18 C :   -0.108614
  19 C :    0.041124
  20 C :   -0.068051
  21 C :   -0.109621
  22 C :   -0.044508
  23 C :   -0.015383
  24 C :   -0.193451
  25 S :    0.419073
  26 C :   -0.153244
  27 C :   -0.043565
  28 C :   -0.027357
  29 C :   -0.158869
  30 S :    0.416165
  31 C :   -0.035652
  32 C :   -0.059674
  33 C :   -0.133341
  34 C :   -0.031931
  35 C :   -0.023346
  36 C :   -0.174340
  37 S :    0.390332
  38 C :   -0.173723
  39 C :   -0.027826
  40 C :   -0.025602
  41 C :   -0.134986
  42 S :    0.412857
  43 C :   -0.061564
  44 C :    0.061633
  45 O :   -0.004703
  46 C :   -0.093326
  47 C :    0.082427
  48 O :   -0.161992
  49 N :   -0.007563
  50 C :    0.083168
  51 O :   -0.151133
  52 C :   -0.091365
  53 C :    0.072447
  54 C :   -0.036232
  55 C :   -0.019834
  56 C :   -0.202607
  57 S :    0.485352
  58 C :   -0.184406
  59 C :   -0.079509
  60 C :    0.027741
  61 O :    0.006866
  62 C :    0.032292
  63 N :    0.270763
  64 O :   -0.206250
  65 O :   -0.179128
  66 C :   -0.009362
  67 H :    0.038370
  68 H :    0.039715
  69 H :    0.037254
  70 H :    0.030264
  71 H :    0.038365
  72 H :    0.037924
  73 H :    0.033558
  74 H :    0.032834
  75 H :    0.028233
  76 H :    0.023018
  77 H :    0.034111
  78 H :    0.039698
  79 H :    0.036220
  80 H :    0.035219
  81 H :    0.038763
  82 H :    0.052744
  83 H :    0.095066
  84 H :    0.049776
  85 H :    0.026972
  86 H :    0.027270
  87 H :    0.049192

  Mayer bond orders larger than 0.100000
B(  0-C ,  1-C ) :   1.5665 B(  0-C ,  6-C ) :   0.9866 B(  0-C , 18-C ) :   1.1295
B(  1-C ,  2-C ) :   1.1524 B(  1-C ,  4-C ) :   1.1579 B(  2-C ,  3-N ) :   2.9605
B(  4-C ,  5-N ) :   2.9524 B(  6-C ,  7-C ) :   1.2779 B(  6-C , 11-C ) :   1.4239
B(  7-C ,  8-C ) :   1.4323 B(  7-C , 16-C ) :   0.9343 B(  8-C ,  9-C ) :   1.2384
B(  8-C , 67-H ) :   1.0158 B(  9-C , 10-C ) :   1.3168 B(  9-C , 14-C ) :   1.1602
B( 10-C , 11-C ) :   1.3194 B( 10-C , 12-S ) :   1.0825 B( 11-C , 68-H ) :   0.9786
B( 12-S , 13-C ) :   1.0851 B( 13-C , 14-C ) :   1.6202 B( 13-C , 15-Br) :   1.0116
B( 14-C , 69-H ) :   1.0005 B( 16-C , 17-O ) :   2.1847 B( 16-C , 18-C ) :   0.9707
B( 18-C , 19-C ) :   1.4493 B( 19-C , 20-C ) :   1.2922 B( 19-C , 70-H ) :   0.9424
B( 20-C , 21-C ) :   1.3735 B( 20-C , 71-H ) :   0.9792 B( 21-C , 22-C ) :   1.2161
B( 21-C , 25-S ) :   1.0886 B( 22-C , 23-C ) :   1.4904 B( 22-C , 72-H ) :   1.0024
B( 23-C , 24-C ) :   1.2653 B( 23-C , 73-H ) :   0.9958 B( 24-C , 25-S ) :   1.0646
B( 24-C , 26-C ) :   1.3758 B( 26-C , 27-C ) :   1.2711 B( 26-C , 30-S ) :   1.0934
B( 27-C , 28-C ) :   1.4841 B( 27-C , 74-H ) :   0.9955 B( 28-C , 29-C ) :   1.2370
B( 28-C , 75-H ) :   0.9981 B( 29-C , 30-S ) :   1.0568 B( 29-C , 31-C ) :   1.4336
B( 31-C , 32-C ) :   1.2997 B( 31-C , 76-H ) :   0.9696 B( 32-C , 33-C ) :   1.4312
B( 32-C , 77-H ) :   0.9731 B( 33-C , 34-C ) :   1.2268 B( 33-C , 37-S ) :   1.0703
B( 34-C , 35-C ) :   1.4973 B( 34-C , 78-H ) :   1.0013 B( 35-C , 36-C ) :   1.2572
B( 35-C , 79-H ) :   0.9961 B( 36-C , 37-S ) :   1.0616 B( 36-C , 38-C ) :   1.4170
B( 38-C , 39-C ) :   1.2312 B( 38-C , 42-S ) :   1.0482 B( 39-C , 40-C ) :   1.5467
B( 39-C , 80-H ) :   0.9969 B( 40-C , 41-C ) :   1.1683 B( 40-C , 81-H ) :   1.0024
B( 41-C , 42-S ) :   1.0629 B( 41-C , 43-C ) :   1.4893 B( 43-C , 44-C ) :   1.2498
B( 43-C , 82-H ) :   0.9676 B( 44-C , 45-O ) :   1.1019 B( 44-C , 46-C ) :   1.3444
B( 45-O , 53-C ) :   1.1260 B( 46-C , 47-C ) :   0.8891 B( 46-C , 52-C ) :   1.2995
B( 47-C , 48-O ) :   2.2676 B( 47-C , 49-N ) :   1.0727 B( 49-N , 50-C ) :   1.0772
B( 49-N , 83-H ) :   0.9138 B( 50-C , 51-O ) :   2.2819 B( 50-C , 52-C ) :   0.8719
B( 52-C , 53-C ) :   1.3774 B( 53-C , 54-C ) :   1.2012 B( 54-C , 55-C ) :   1.6242
B( 54-C , 84-H ) :   0.9563 B( 55-C , 56-C ) :   1.1177 B( 55-C , 85-H ) :   0.9624
B( 56-C , 57-S ) :   1.1296 B( 56-C , 58-C ) :   0.1101 B( 56-C , 60-C ) :   1.4543
B( 57-S , 58-C ) :   1.1907 B( 58-C , 59-C ) :   1.4366 B( 58-C , 86-H ) :   0.9731
B( 59-C , 60-C ) :   1.2315 B( 59-C , 66-C ) :   1.0536 B( 60-C , 61-O ) :   1.1118
B( 61-O , 62-C ) :   1.1176 B( 62-C , 63-N ) :   0.9078 B( 62-C , 66-C ) :   1.5882
B( 63-N , 64-O ) :   1.5349 B( 63-N , 65-O ) :   1.5230 B( 64-O , 65-O ) :   0.2848
B( 66-C , 87-H ) :   1.0256

-----------------------------------------------------------------------------
         ABSORPTION SPECTRUM VIA TRANSITION ELECTRIC DIPOLE MOMENTS
-----------------------------------------------------------------------------
State   Energy  Wavelength   fosc         T2         TX        TY        TZ
        (cm-1)    (nm)                  (au**2)     (au)      (au)      (au)
-----------------------------------------------------------------------------
   0    4907.5   2037.7   0.812433465  54.50069   5.64837   3.43566   3.28524
   1   12427.4    804.7   0.003702666   0.09809   0.22118  -0.20573   0.08272
   2   14455.5    691.8   0.134752780   3.06889   0.80824   1.26022   0.90965
   3   16380.5    610.5   0.021302408   0.42813  -0.17194  -0.61852   0.12649
   4   19008.7    526.1   0.172115332   2.98087   0.03098  -1.69109   0.34662
   5   20505.9    487.7   0.306296293   4.91744  -0.63593   1.99954  -0.71756
   6   21673.1    461.4   0.259826903   3.94674   0.14699   1.97805  -0.11157
   7   22266.1    449.1   0.015927594   0.23549  -0.06634  -0.47660  -0.06281
   8   22888.3    436.9   0.039291488   0.56515  -0.59819   0.16441  -0.42460
   9   23642.9    423.0   0.510943159   7.11455  -0.02441   2.63979  -0.38138
  10   25264.6    395.8   0.021172780   0.27589  -0.30944  -0.36600  -0.21491
  11   25453.4    392.9   0.012908109   0.16695   0.30596  -0.15590   0.22144
  12   25566.8    391.1   0.690632343   8.89297  -2.21780   1.11961  -1.64949
  13   26242.6    381.1   0.047268815   0.59298  -0.62849  -0.05389  -0.44168
  14   27489.1    363.8   0.006482235   0.07763  -0.16493   0.18085  -0.13313
  15   28217.5    354.4   0.075080833   0.87596  -0.60487   0.49444  -0.51539
  16   28455.2    351.4   0.006655427   0.07700  -0.16263  -0.22383  -0.02120
  17   28863.5    346.5   0.010691951   0.12195   0.14777  -0.26780   0.16851
  18   29364.3    340.5   0.207184230   2.32281  -1.12944  -0.73125  -0.71585
  19   30031.9    333.0   0.048610850   0.53288  -0.02413   0.72907   0.02737
  20   30276.7    330.3   0.387916258   4.21798  -1.33799  -1.38299  -0.71772
  21   31055.2    322.0   0.010723352   0.11368   0.15161  -0.28557   0.09561
  22   31329.7    319.2   0.445418350   4.68045  -1.62007  -0.78072  -1.20262
  23   31546.8    317.0   0.045552232   0.47537   0.49598   0.32747   0.34948
  24   32012.6    312.4   0.102515289   1.05425  -0.65920  -0.64336  -0.45364
  25   32302.7    309.6   0.000092562   0.00094   0.02593   0.01646  -0.00018
  26   32376.0    308.9   0.034868705   0.35456   0.47522   0.21365   0.28823
  27   32421.9    308.4   0.007520220   0.07636  -0.21236  -0.11319  -0.13584
  28   32476.6    307.9   0.000325510   0.00330  -0.03663  -0.00691   0.04370
  29   32711.9    305.7   0.055766241   0.56123  -0.34515   0.61826  -0.24466
  30   33074.0    302.4   0.035194246   0.35032   0.37576   0.30723   0.33871
  31   33827.0    295.6   0.004216844   0.04104   0.18302   0.06607   0.05638
  32   34317.2    291.4   0.071825618   0.68904  -0.43534  -0.68352  -0.17977
  33   34400.6    290.7   0.000436439   0.00418  -0.02733  -0.05813   0.00712
  34   34874.9    286.7   0.051506921   0.48622   0.03349  -0.69616  -0.02119
  35   35150.2    284.5   0.017709759   0.16587  -0.34314  -0.01698  -0.21870
  36   35447.6    282.1   0.005744424   0.05335   0.08581   0.20445   0.06472
  37   36042.9    277.4   0.384648196   3.51333   1.01470   1.49399   0.50173
  38   36191.0    276.3   0.026777585   0.24358   0.35163   0.27286   0.21327
  39   36545.5    273.6   0.000060003   0.00054  -0.02200  -0.00639  -0.00396
  40   37036.5    270.0   0.045557869   0.40496  -0.48305  -0.24801  -0.33183
  41   37144.2    269.2   0.004587743   0.04066  -0.10967  -0.16747  -0.02429
  42   37382.0    267.5   0.038836302   0.34202   0.51451  -0.02865   0.27656
  43   37603.4    265.9   0.037413477   0.32755  -0.49829   0.08995  -0.26677
  44   37756.2    264.9   0.043541679   0.37966   0.29318  -0.50755   0.19000
  45   37847.4    264.2   0.000184921   0.00161  -0.02966   0.02049   0.01757
  46   38444.3    260.1   0.249593611   2.13736  -0.62395   1.25892  -0.40394
  47   38701.3    258.4   0.096721558   0.82276   0.76345   0.28345   0.39945
  48   38836.1    257.5   0.189377037   1.60534   1.09270  -0.35992   0.53085
  49   39134.3    255.5   0.177008579   1.48906  -0.87234   0.60345  -0.60327
  50   39437.2    253.6   0.006060274   0.05059   0.06107   0.21125  -0.04725
  51   39935.8    250.4   0.002419694   0.01995  -0.13250   0.01937  -0.04489
  52   40089.9    249.4   0.003607649   0.02963   0.11810  -0.06922   0.10434

FINAL SINGLE POINT ENERGY     -7584.346367142144

DIPOLE MOMENT
-------------
                                X             Y             Z
Electronic contribution:    139.45523      49.06974      99.55274
Nuclear contribution   :   -140.47832     -49.47133    -100.70959
                        -----------------------------------------
Total Dipole Moment    :     -1.02310      -0.40159      -1.15685
                        -----------------------------------------
Magnitude (a.u.)       :      1.59571
Magnitude (Debye)      :      4.05598

Rotational constants in cm-1:     0.001913     0.000179     0.000164
Rotational constants in MHz :    57.336120     5.363151     4.921344

                             ****ORCA TERMINATED NORMALLY****
TOTAL RUN TIME: 0 days 0 hours 9 minutes 36 seconds 516 msec
