                         Program Version 4.2.0 -  RELEASE  -
|  1> # ORCA input file
|  2> # SCF done       -140.637635620676          0.000340462590
|  3> ! CAM-B3LYP def2-SVP def2/J RIJCOSX Grid4 TightSCF
|  4> %maxcore 5000
|  5> %tddft
|  6>     Mode sTDDFT
|  7>     Ethresh 5.0
|  8>     maxcore 5000
|  9> end
| 10>
| 11> %pal
| 12>   nprocs 6
| 13>   end
| 14> * xyz 0 1
| 15>    C       -5.21765        -6.48825        -3.67691
| 16>    C       -4.10437        -5.75460        -3.53800
| 17>    C       -3.94522        -4.34747        -3.76560
| 18>    C       -2.69566        -3.88337        -3.53902
| 19>    C       -1.76878        -4.87504        -3.11568
| 20>    S       -2.55460        -6.43771        -3.01887
| 21>    C       -0.43951        -4.69749        -2.80656
| 22>    C        0.30672        -3.49562        -2.83889
| 23>    C        1.60597        -3.64499        -2.46519
| 24>    C        1.96475        -4.96969        -2.11434
| 25>    S        0.57976        -6.02933        -2.28614
| 26>    C        3.20742        -5.37361        -1.68902
| 27>    C        3.60815        -6.65700        -1.31725
| 28>    S        2.58311        -8.08440        -1.33927
| 29>    C        3.84118        -9.14230        -0.73607
| 30>    C        5.01001        -8.40060        -0.53202
| 31>    C        4.86695        -7.03301        -0.85981
| 32>    S        6.35623        -6.19862        -0.57528
| 33>    C        7.02590        -7.74006        -0.05020
| 34>    N        6.24552        -8.74792        -0.08085
| 35>    C        3.60886       -10.50627        -0.51799
| 36>    C        4.56115       -11.34985        -0.01778
| 37>    C        4.37406       -12.71566         0.22624
| 38>    S        2.88196       -13.58632        -0.10703
| 39>    C        3.50136       -15.11368         0.48035
| 40>    C        4.81924       -14.93932         0.91365
| 41>    C        5.28690       -13.61090         0.76358
| 42>    S        6.91974       -13.49352         1.32423
| 43>    C        6.82760       -15.21058         1.70224
| 44>    N        5.72620       -15.80161         1.44666
| 45>    C        2.71525       -16.27360         0.48102
| 46>    C        3.16254       -17.46965         0.96969
| 47>    C        2.41436       -18.65164         1.00220
| 48>    S        0.77910       -18.80856         0.37309
| 49>    C        0.63777       -20.49615         0.82214
| 50>    C        1.82744       -20.90719         1.43743
| 51>    C        2.79668       -19.87931         1.52442
| 52>    S        4.22608       -20.47721         2.29408
| 53>    C        3.40625       -22.02935         2.42668
| 54>    N        2.22049       -22.09918         1.96005
| 55>    C       -0.52914       -21.21729         0.55409
| 56>    C       -0.69009       -22.53153         0.92558
| 57>    C       -1.80361       -23.34520         0.70271
| 58>    C       -2.97909       -23.08257         0.02781
| 59>    C       -4.03662       -24.01382        -0.11762
| 60>    C       -5.10165       -23.56261        -0.83559
| 61>    C       -4.95055       -22.23909        -1.30754
| 62>    S       -3.40320       -21.59386        -0.79347
| 63>    C       -5.83484       -21.50274        -2.06415
| 64>    C       -7.11243       -21.91121        -2.53453
| 65>    C       -7.76326       -20.97724        -3.26470
| 66>    C       -7.04363       -19.74800        -3.42981
| 67>    S       -5.48933       -19.86797        -2.58909
| 68>    C       -7.42966       -18.65311        -4.10025
| 69>    H       -6.13914        -6.03281        -3.99393
| 70>    H       -5.22705        -7.54404        -3.47806
| 71>    H       -4.77644        -3.74614        -4.08866
| 72>    H       -2.39991        -2.85618        -3.65933
| 73>    H       -0.13356        -2.55997        -3.13315
| 74>    H        2.32452        -2.84507        -2.42552
| 75>    H        3.97455        -4.61146        -1.62160
| 76>    H        8.04675        -7.78806         0.27341
| 77>    H        2.62477       -10.88833        -0.75509
| 78>    H        5.53813       -10.95080         0.22167
| 79>    H        7.67901       -15.70436         2.12774
| 80>    H        1.71246       -16.19844         0.08198
| 81>    H        4.16484       -17.52539         1.37413
| 82>    H        3.91180       -22.85601         2.88546
| 83>    H       -1.31564       -20.68294         0.04250
| 84>    H        0.13518       -22.98689         1.45604
| 85>    H       -1.74408       -24.34597         1.11396
| 86>    H       -3.97414       -24.99647         0.31676
| 87>    H       -5.98285       -24.14377        -1.03939
| 88>    H       -7.50445       -22.88796        -2.31246
| 89>    H       -8.73756       -21.10605        -3.70171
| 90>    H       -8.38260       -18.62252        -4.59835
| 91>    H       -6.80737       -17.77950        -4.16260
| 92> *
| 93>
| 94>                          ****END OF INPUT****

CARTESIAN COORDINATES (ANGSTROEM)
---------------------------------
  C     -5.217650   -6.488250   -3.676910
  C     -4.104370   -5.754600   -3.538000
  C     -3.945220   -4.347470   -3.765600
  C     -2.695660   -3.883370   -3.539020
  C     -1.768780   -4.875040   -3.115680
  S     -2.554600   -6.437710   -3.018870
  C     -0.439510   -4.697490   -2.806560
  C      0.306720   -3.495620   -2.838890
  C      1.605970   -3.644990   -2.465190
  C      1.964750   -4.969690   -2.114340
  S      0.579760   -6.029330   -2.286140
  C      3.207420   -5.373610   -1.689020
  C      3.608150   -6.657000   -1.317250
  S      2.583110   -8.084400   -1.339270
  C      3.841180   -9.142300   -0.736070
  C      5.010010   -8.400600   -0.532020
  C      4.866950   -7.033010   -0.859810
  S      6.356230   -6.198620   -0.575280
  C      7.025900   -7.740060   -0.050200
  N      6.245520   -8.747920   -0.080850
  C      3.608860  -10.506270   -0.517990
  C      4.561150  -11.349850   -0.017780
  C      4.374060  -12.715660    0.226240
  S      2.881960  -13.586320   -0.107030
  C      3.501360  -15.113680    0.480350
  C      4.819240  -14.939320    0.913650
  C      5.286900  -13.610900    0.763580
  S      6.919740  -13.493520    1.324230
  C      6.827600  -15.210580    1.702240
  N      5.726200  -15.801610    1.446660
  C      2.715250  -16.273600    0.481020
  C      3.162540  -17.469650    0.969690
  C      2.414360  -18.651640    1.002200
  S      0.779100  -18.808560    0.373090
  C      0.637770  -20.496150    0.822140
  C      1.827440  -20.907190    1.437430
  C      2.796680  -19.879310    1.524420
  S      4.226080  -20.477210    2.294080
  C      3.406250  -22.029350    2.426680
  N      2.220490  -22.099180    1.960050
  C     -0.529140  -21.217290    0.554090
  C     -0.690090  -22.531530    0.925580
  C     -1.803610  -23.345200    0.702710
  C     -2.979090  -23.082570    0.027810
  C     -4.036620  -24.013820   -0.117620
  C     -5.101650  -23.562610   -0.835590
  C     -4.950550  -22.239090   -1.307540
  S     -3.403200  -21.593860   -0.793470
  C     -5.834840  -21.502740   -2.064150
  C     -7.112430  -21.911210   -2.534530
  C     -7.763260  -20.977240   -3.264700
  C     -7.043630  -19.748000   -3.429810
  S     -5.489330  -19.867970   -2.589090
  C     -7.429660  -18.653110   -4.100250
  H     -6.139140   -6.032810   -3.993930
  H     -5.227050   -7.544040   -3.478060
  H     -4.776440   -3.746140   -4.088660
  H     -2.399910   -2.856180   -3.659330
  H     -0.133560   -2.559970   -3.133150
  H      2.324520   -2.845070   -2.425520
  H      3.974550   -4.611460   -1.621600
  H      8.046750   -7.788060    0.273410
  H      2.624770  -10.888330   -0.755090
  H      5.538130  -10.950800    0.221670
  H      7.679010  -15.704360    2.127740
  H      1.712460  -16.198440    0.081980
  H      4.164840  -17.525390    1.374130
  H      3.911800  -22.856010    2.885460
  H     -1.315640  -20.682940    0.042500
  H      0.135180  -22.986890    1.456040
  H     -1.744080  -24.345970    1.113960
  H     -3.974140  -24.996470    0.316760
  H     -5.982850  -24.143770   -1.039390
  H     -7.504450  -22.887960   -2.312460
  H     -8.737560  -21.106050   -3.701710
  H     -8.382600  -18.622520   -4.598350
  H     -6.807370  -17.779500   -4.162600

 Total Charge           Charge          ....    0
 Multiplicity           Mult            ....    1
 Number of Electrons    NEL             ....  450
 Basis Dimension        Dim             ....  911

ORBITAL ENERGIES
----------------

  NO   OCC          E(Eh)            E(eV)
   0   2.0000     -88.956842     -2420.6387
   1   2.0000     -88.954517     -2420.5755
   2   2.0000     -88.953929     -2420.5595
   3   2.0000     -88.953740     -2420.5543
   4   2.0000     -88.951491     -2420.4931
   5   2.0000     -88.950471     -2420.4654
   6   2.0000     -88.940187     -2420.1855
   7   2.0000     -88.938854     -2420.1493
   8   2.0000     -88.934752     -2420.0376
   9   2.0000     -88.932425     -2419.9743
  10   2.0000     -14.412789      -392.1919
  11   2.0000     -14.411017      -392.1437
  12   2.0000     -14.409980      -392.1155
  13   2.0000     -10.333903      -281.1998
  14   2.0000     -10.331941      -281.1464
  15   2.0000     -10.331055      -281.1223
  16   2.0000     -10.306398      -280.4514
  17   2.0000     -10.303411      -280.3701
  18   2.0000     -10.302880      -280.3556
  19   2.0000     -10.302763      -280.3524
  20   2.0000     -10.302674      -280.3500
  21   2.0000     -10.302062      -280.3334
  22   2.0000     -10.301200      -280.3099
  23   2.0000     -10.300775      -280.2983
  24   2.0000     -10.300435      -280.2891
  25   2.0000     -10.300014      -280.2776
  26   2.0000     -10.299682      -280.2686
  27   2.0000     -10.298672      -280.2411
  28   2.0000     -10.297830      -280.2182
  29   2.0000     -10.297824      -280.2180
  30   2.0000     -10.297469      -280.2084
  31   2.0000     -10.296326      -280.1773
  32   2.0000     -10.296272      -280.1758
  33   2.0000     -10.296201      -280.1739
  34   2.0000     -10.295546      -280.1560
  35   2.0000     -10.295409      -280.1523
  36   2.0000     -10.285710      -279.8884
  37   2.0000     -10.283869      -279.8383
  38   2.0000     -10.281283      -279.7679
  39   2.0000     -10.281174      -279.7650
  40   2.0000     -10.279357      -279.7155
  41   2.0000     -10.279183      -279.7108
  42   2.0000     -10.278691      -279.6974
  43   2.0000     -10.278062      -279.6803
  44   2.0000     -10.276661      -279.6422
  45   2.0000     -10.272853      -279.5385
  46   2.0000     -10.272846      -279.5384
  47   2.0000     -10.271939      -279.5137
  48   2.0000     -10.271231      -279.4944
  49   2.0000     -10.269293      -279.4417
  50   2.0000     -10.267382      -279.3897
  51   2.0000     -10.266963      -279.3783
  52   2.0000     -10.264178      -279.3025
  53   2.0000     -10.261151      -279.2201
  54   2.0000      -8.052976      -219.1326
  55   2.0000      -8.050137      -219.0554
  56   2.0000      -8.049904      -219.0490
  57   2.0000      -8.049091      -219.0269
  58   2.0000      -8.046316      -218.9514
  59   2.0000      -8.045365      -218.9255
  60   2.0000      -8.035882      -218.6675
  61   2.0000      -8.034986      -218.6431
  62   2.0000      -8.031506      -218.5484
  63   2.0000      -8.029109      -218.4832
  64   2.0000      -6.022370      -163.8770
  65   2.0000      -6.019539      -163.8000
  66   2.0000      -6.019301      -163.7935
  67   2.0000      -6.018478      -163.7711
  68   2.0000      -6.018418      -163.7695
  69   2.0000      -6.015654      -163.6943
  70   2.0000      -6.015584      -163.6924
  71   2.0000      -6.015342      -163.6858
  72   2.0000      -6.014703      -163.6684
  73   2.0000      -6.014549      -163.6642
  74   2.0000      -6.014426      -163.6609
  75   2.0000      -6.011726      -163.5874
  76   2.0000      -6.011629      -163.5847
  77   2.0000      -6.011432      -163.5794
  78   2.0000      -6.011021      -163.5682
  79   2.0000      -6.010758      -163.5610
  80   2.0000      -6.008276      -163.4935
  81   2.0000      -6.007298      -163.4669
  82   2.0000      -6.005617      -163.4211
  83   2.0000      -6.004766      -163.3980
  84   2.0000      -6.001529      -163.3099
  85   2.0000      -6.001326      -163.3044
  86   2.0000      -6.000683      -163.2869
  87   2.0000      -5.998955      -163.2399
  88   2.0000      -5.997387      -163.1972
  89   2.0000      -5.996957      -163.1855
  90   2.0000      -5.995837      -163.1550
  91   2.0000      -5.995000      -163.1323
  92   2.0000      -5.992048      -163.0519
  93   2.0000      -5.989640      -162.9864
  94   2.0000      -1.064474       -28.9658
  95   2.0000      -1.062585       -28.9144
  96   2.0000      -1.061932       -28.8966
  97   2.0000      -0.987264       -26.8648
  98   2.0000      -0.987145       -26.8616
  99   2.0000      -0.972202       -26.4550
 100   2.0000      -0.969244       -26.3745
 101   2.0000      -0.965800       -26.2808
 102   2.0000      -0.963882       -26.2286
 103   2.0000      -0.959866       -26.1193
 104   2.0000      -0.914190       -24.8764
 105   2.0000      -0.907587       -24.6967
 106   2.0000      -0.899497       -24.4765
 107   2.0000      -0.885561       -24.0973
 108   2.0000      -0.881963       -23.9994
 109   2.0000      -0.873758       -23.7762
 110   2.0000      -0.868470       -23.6323
 111   2.0000      -0.862455       -23.4686
 112   2.0000      -0.852734       -23.2041
 113   2.0000      -0.840463       -22.8702
 114   2.0000      -0.838728       -22.8230
 115   2.0000      -0.832616       -22.6566
 116   2.0000      -0.820148       -22.3174
 117   2.0000      -0.815967       -22.2036
 118   2.0000      -0.815329       -22.1862
 119   2.0000      -0.814122       -22.1534
 120   2.0000      -0.813134       -22.1265
 121   2.0000      -0.809369       -22.0241
 122   2.0000      -0.797425       -21.6990
 123   2.0000      -0.783856       -21.3298
 124   2.0000      -0.767344       -20.8805
 125   2.0000      -0.747920       -20.3519
 126   2.0000      -0.732589       -19.9348
 127   2.0000      -0.716353       -19.4929
 128   2.0000      -0.703207       -19.1352
 129   2.0000      -0.696904       -18.9637
 130   2.0000      -0.692370       -18.8404
 131   2.0000      -0.688516       -18.7355
 132   2.0000      -0.681611       -18.5476
 133   2.0000      -0.675642       -18.3852
 134   2.0000      -0.672142       -18.2899
 135   2.0000      -0.662848       -18.0370
 136   2.0000      -0.648264       -17.6402
 137   2.0000      -0.637919       -17.3586
 138   2.0000      -0.630809       -17.1652
 139   2.0000      -0.629785       -17.1373
 140   2.0000      -0.622227       -16.9317
 141   2.0000      -0.616218       -16.7681
 142   2.0000      -0.614710       -16.7271
 143   2.0000      -0.612164       -16.6578
 144   2.0000      -0.598446       -16.2845
 145   2.0000      -0.597486       -16.2584
 146   2.0000      -0.594087       -16.1659
 147   2.0000      -0.591488       -16.0952
 148   2.0000      -0.585124       -15.9220
 149   2.0000      -0.579960       -15.7815
 150   2.0000      -0.559824       -15.2336
 151   2.0000      -0.553792       -15.0695
 152   2.0000      -0.551306       -15.0018
 153   2.0000      -0.550137       -14.9700
 154   2.0000      -0.544965       -14.8293
 155   2.0000      -0.540624       -14.7111
 156   2.0000      -0.536095       -14.5879
 157   2.0000      -0.529995       -14.4219
 158   2.0000      -0.524566       -14.2742
 159   2.0000      -0.519861       -14.1461
 160   2.0000      -0.518542       -14.1102
 161   2.0000      -0.518180       -14.1004
 162   2.0000      -0.516199       -14.0465
 163   2.0000      -0.513951       -13.9853
 164   2.0000      -0.513817       -13.9817
 165   2.0000      -0.509286       -13.8584
 166   2.0000      -0.505943       -13.7674
 167   2.0000      -0.503023       -13.6880
 168   2.0000      -0.495446       -13.4818
 169   2.0000      -0.489479       -13.3194
 170   2.0000      -0.488802       -13.3010
 171   2.0000      -0.487810       -13.2740
 172   2.0000      -0.485608       -13.2141
 173   2.0000      -0.483454       -13.1555
 174   2.0000      -0.480573       -13.0771
 175   2.0000      -0.474598       -12.9145
 176   2.0000      -0.473743       -12.8912
 177   2.0000      -0.464416       -12.6374
 178   2.0000      -0.459819       -12.5123
 179   2.0000      -0.457141       -12.4394
 180   2.0000      -0.455787       -12.4026
 181   2.0000      -0.454527       -12.3683
 182   2.0000      -0.450308       -12.2535
 183   2.0000      -0.446778       -12.1574
 184   2.0000      -0.446252       -12.1431
 185   2.0000      -0.441860       -12.0236
 186   2.0000      -0.437145       -11.8953
 187   2.0000      -0.433787       -11.8040
 188   2.0000      -0.430044       -11.7021
 189   2.0000      -0.426627       -11.6091
 190   2.0000      -0.425222       -11.5709
 191   2.0000      -0.424502       -11.5513
 192   2.0000      -0.420437       -11.4407
 193   2.0000      -0.417089       -11.3496
 194   2.0000      -0.417015       -11.3476
 195   2.0000      -0.411449       -11.1961
 196   2.0000      -0.407525       -11.0893
 197   2.0000      -0.404270       -11.0007
 198   2.0000      -0.402338       -10.9482
 199   2.0000      -0.400500       -10.8982
 200   2.0000      -0.393446       -10.7062
 201   2.0000      -0.389918       -10.6102
 202   2.0000      -0.383419       -10.4334
 203   2.0000      -0.382574       -10.4104
 204   2.0000      -0.373287       -10.1576
 205   2.0000      -0.351196        -9.5565
 206   2.0000      -0.348322        -9.4783
 207   2.0000      -0.346608        -9.4317
 208   2.0000      -0.344974        -9.3872
 209   2.0000      -0.343013        -9.3339
 210   2.0000      -0.342596        -9.3225
 211   2.0000      -0.332588        -9.0502
 212   2.0000      -0.331950        -9.0328
 213   2.0000      -0.329264        -8.9597
 214   2.0000      -0.319843        -8.7034
 215   2.0000      -0.316973        -8.6253
 216   2.0000      -0.306765        -8.3475
 217   2.0000      -0.304533        -8.2868
 218   2.0000      -0.304078        -8.2744
 219   2.0000      -0.302982        -8.2446
 220   2.0000      -0.283651        -7.7185
 221   2.0000      -0.259923        -7.0729
 222   2.0000      -0.233834        -6.3629
 223   2.0000      -0.206106        -5.6084
 224   2.0000      -0.186569        -5.0768
 225   0.0000      -0.083975        -2.2851
 226   0.0000      -0.066846        -1.8190
 227   0.0000      -0.040371        -1.0986
 228   0.0000      -0.016922        -0.4605
 229   0.0000      -0.002597        -0.0707

MULLIKEN ATOMIC CHARGES
-----------------------
   0 C :   -0.031207
   1 C :   -0.064285
   2 C :    0.051181
   3 C :    0.027709
   4 C :   -0.069047
   5 S :    0.080122
   6 C :   -0.035672
   7 C :    0.023700
   8 C :    0.032243
   9 C :   -0.035613
  10 S :    0.064152
  11 C :   -0.020506
  12 C :   -0.157759
  13 S :    0.128527
  14 C :   -0.125725
  15 C :    0.078403
  16 C :   -0.015335
  17 S :    0.083120
  18 C :    0.015525
  19 N :   -0.048232
  20 C :   -0.000575
  21 C :   -0.000821
  22 C :   -0.150143
  23 S :    0.130465
  24 C :   -0.132216
  25 C :    0.074192
  26 C :   -0.004813
  27 S :    0.095485
  28 C :    0.014469
  29 N :   -0.052334
  30 C :   -0.001527
  31 C :    0.002993
  32 C :   -0.147472
  33 S :    0.131485
  34 C :   -0.139870
  35 C :    0.075338
  36 C :   -0.006419
  37 S :    0.095471
  38 C :    0.013042
  39 N :   -0.047279
  40 C :    0.013210
  41 C :    0.009400
  42 C :    0.001395
  43 C :   -0.024976
  44 C :    0.036589
  45 C :    0.021923
  46 C :   -0.035941
  47 S :    0.062282
  48 C :   -0.063550
  49 C :    0.030623
  50 C :    0.052167
  51 C :   -0.066659
  52 S :    0.083811
  53 C :   -0.027146
  54 H :    0.017863
  55 H :    0.021641
  56 H :   -0.013457
  57 H :   -0.013189
  58 H :   -0.017970
  59 H :   -0.014841
  60 H :   -0.016563
  61 H :    0.040659
  62 H :   -0.023594
  63 H :   -0.001380
  64 H :    0.040393
  65 H :   -0.024394
  66 H :   -0.000541
  67 H :    0.039757
  68 H :   -0.022902
  69 H :   -0.000946
  70 H :   -0.018707
  71 H :   -0.015302
  72 H :   -0.016902
  73 H :   -0.012548
  74 H :   -0.012820
  75 H :    0.019265
  76 H :    0.022576
Sum of atomic charges:   -0.0000000

LOEWDIN ATOMIC CHARGES
----------------------
   0 C :   -0.079437
   1 C :   -0.139057
   2 C :   -0.033696
   3 C :   -0.026942
   4 C :   -0.178767
   5 S :    0.351382
   6 C :   -0.179827
   7 C :   -0.039964
   8 C :   -0.034170
   9 C :   -0.157560
  10 S :    0.364838
  11 C :   -0.078053
  12 C :   -0.198594
  13 S :    0.441092
  14 C :   -0.168934
  15 C :   -0.072949
  16 C :   -0.203670
  17 S :    0.371363
  18 C :   -0.098222
  19 N :   -0.082283
  20 C :   -0.059320
  21 C :   -0.029667
  22 C :   -0.194019
  23 S :    0.435552
  24 C :   -0.162065
  25 C :   -0.074185
  26 C :   -0.198401
  27 S :    0.379052
  28 C :   -0.098527
  29 N :   -0.084271
  30 C :   -0.060434
  31 C :   -0.026049
  32 C :   -0.194073
  33 S :    0.436813
  34 C :   -0.157374
  35 C :   -0.073052
  36 C :   -0.197420
  37 S :    0.379886
  38 C :   -0.099468
  39 N :   -0.081939
  40 C :   -0.057768
  41 C :   -0.021181
  42 C :   -0.063538
  43 C :   -0.142815
  44 C :   -0.031947
  45 C :   -0.040785
  46 C :   -0.181557
  47 S :    0.386768
  48 C :   -0.174765
  49 C :   -0.026646
  50 C :   -0.031262
  51 C :   -0.139661
  52 S :    0.353984
  53 C :   -0.075519
  54 H :    0.027767
  55 H :    0.025973
  56 H :    0.032606
  57 H :    0.031754
  58 H :    0.030003
  59 H :    0.032364
  60 H :    0.036499
  61 H :    0.019439
  62 H :    0.022441
  63 H :    0.034147
  64 H :    0.019218
  65 H :    0.022301
  66 H :    0.034564
  67 H :    0.018995
  68 H :    0.010450
  69 H :    0.033033
  70 H :    0.034361
  71 H :    0.032724
  72 H :    0.030067
  73 H :    0.032270
  74 H :    0.033054
  75 H :    0.028521
  76 H :    0.026551

  Mayer bond orders larger than 0.100000
B(  0-C ,  1-C ) :   1.8602 B(  0-C , 54-H ) :   0.9505 B(  0-C , 55-H ) :   0.9414
B(  1-C ,  2-C ) :   1.0832 B(  1-C ,  5-S ) :   1.0089 B(  2-C ,  3-C ) :   1.6551
B(  2-C , 56-H ) :   0.9922 B(  3-C ,  4-C ) :   1.1578 B(  3-C , 57-H ) :   0.9919
B(  4-C ,  5-S ) :   1.0441 B(  4-C ,  6-C ) :   1.5474 B(  6-C ,  7-C ) :   1.1781
B(  6-C , 10-S ) :   1.0342 B(  7-C ,  8-C ) :   1.5918 B(  7-C , 58-H ) :   0.9921
B(  8-C ,  9-C ) :   1.1490 B(  8-C , 59-H ) :   1.0004 B(  9-C , 10-S ) :   1.0370
B(  9-C , 11-C ) :   1.5535 B( 11-C , 12-C ) :   1.2269 B( 11-C , 60-H ) :   0.9656
B( 12-C , 13-S ) :   1.0865 B( 12-C , 14-C ) :   0.1014 B( 12-C , 16-C ) :   1.4470
B( 13-S , 14-C ) :   1.1162 B( 14-C , 15-C ) :   1.3582 B( 14-C , 20-C ) :   1.2066
B( 15-C , 16-C ) :   1.2920 B( 15-C , 19-N ) :   1.2873 B( 16-C , 17-S ) :   1.0495
B( 17-S , 18-C ) :   1.0887 B( 17-S , 19-N ) :   0.1074 B( 18-C , 19-N ) :   1.7790
B( 18-C , 61-H ) :   0.9636 B( 20-C , 21-C ) :   1.5846 B( 20-C , 62-H ) :   0.9569
B( 21-C , 22-C ) :   1.2156 B( 21-C , 63-H ) :   0.9552 B( 22-C , 23-S ) :   1.0849
B( 22-C , 24-C ) :   0.1016 B( 22-C , 26-C ) :   1.4587 B( 23-S , 24-C ) :   1.1178
B( 24-C , 25-C ) :   1.3775 B( 24-C , 30-C ) :   1.2043 B( 25-C , 26-C ) :   1.2707
B( 25-C , 29-N ) :   1.2871 B( 26-C , 27-S ) :   1.0485 B( 27-S , 28-C ) :   1.0892
B( 27-S , 29-N ) :   0.1071 B( 28-C , 29-N ) :   1.7766 B( 28-C , 64-H ) :   0.9635
B( 30-C , 31-C ) :   1.5820 B( 30-C , 65-H ) :   0.9579 B( 31-C , 32-C ) :   1.2222
B( 31-C , 66-H ) :   0.9540 B( 32-C , 33-S ) :   1.0835 B( 32-C , 34-C ) :   0.1012
B( 32-C , 36-C ) :   1.4517 B( 33-S , 34-C ) :   1.1234 B( 34-C , 35-C ) :   1.3576
B( 34-C , 40-C ) :   1.2439 B( 35-C , 36-C ) :   1.2757 B( 35-C , 39-N ) :   1.2934
B( 36-C , 37-S ) :   1.0510 B( 37-S , 38-C ) :   1.0889 B( 37-S , 39-N ) :   0.1066
B( 38-C , 39-N ) :   1.7744 B( 38-C , 67-H ) :   0.9638 B( 40-C , 41-C ) :   1.5497
B( 40-C , 68-H ) :   0.9298 B( 41-C , 42-C ) :   1.2476 B( 41-C , 69-H ) :   0.9512
B( 42-C , 43-C ) :   1.5250 B( 42-C , 70-H ) :   0.9625 B( 43-C , 44-C ) :   1.1604
B( 43-C , 47-S ) :   1.0467 B( 44-C , 45-C ) :   1.5844 B( 44-C , 71-H ) :   0.9983
B( 45-C , 46-C ) :   1.1844 B( 45-C , 72-H ) :   0.9920 B( 46-C , 47-S ) :   1.0349
B( 46-C , 48-C ) :   1.5346 B( 48-C , 49-C ) :   1.1606 B( 48-C , 52-S ) :   1.0491
B( 49-C , 50-C ) :   1.6535 B( 49-C , 73-H ) :   0.9917 B( 50-C , 51-C ) :   1.0826
B( 50-C , 74-H ) :   0.9928 B( 51-C , 52-S ) :   1.0084 B( 51-C , 53-C ) :   1.8612
B( 53-C , 75-H ) :   0.9500 B( 53-C , 76-H ) :   0.9414

-----------------------------------------------------------------------------
         ABSORPTION SPECTRUM VIA TRANSITION ELECTRIC DIPOLE MOMENTS
-----------------------------------------------------------------------------
State   Energy  Wavelength   fosc         T2         TX        TY        TZ
        (cm-1)    (nm)                  (au**2)     (au)      (au)      (au)
-----------------------------------------------------------------------------
   0   10214.6    979.0   1.159495163  37.37005   1.95665   5.79026  -0.12045
   1   14998.9    666.7   2.118506032  46.49923  -5.93645   2.01188  -2.68516
   2   15808.4    632.6   0.090175367   1.87791  -1.22877   0.18581  -0.57749
   3   19352.2    516.7   0.031123881   0.52947  -0.52720  -0.49889   0.05136
   4   20431.9    489.4   0.587815061   9.47125   1.35200   2.66549  -0.73383
   5   22017.3    454.2   0.273463034   4.08893   0.76201   1.83209  -0.38951
   6   23211.3    430.8   0.046040645   0.65301  -0.28696   0.65833  -0.37049
   7   25438.3    393.1   0.155122696   2.00753   1.31053   0.26963   0.46621
   8   25954.5    385.3   0.015911171   0.20182   0.30588  -0.26565   0.19414
   9   26061.8    383.7   0.126240999   1.59467   0.96465  -0.46341   0.67036
  10   27503.6    363.6   0.021313749   0.25512   0.15270  -0.39272   0.27852
  11   29482.3    339.2   0.113462327   1.26697   0.40786   1.01440  -0.26759
  12   30314.8    329.9   0.000901381   0.00979  -0.07026  -0.04850  -0.05000
  13   30487.5    328.0   0.020035140   0.21634   0.33277   0.32136  -0.04835
  14   30869.3    323.9   0.202910584   2.16398   0.48647   1.35538  -0.30047
  15   31511.3    317.3   0.008659445   0.09047  -0.23694  -0.18390  -0.02248
  16   32023.0    312.3   0.025037066   0.25739   0.13664   0.47915  -0.09561
  17   32319.6    309.4   0.014533372   0.14804   0.06154   0.37351  -0.06887
  18   32753.2    305.3   0.017996459   0.18089   0.36976   0.19404   0.08073
  19   32850.0    304.4   0.000272321   0.00273  -0.01738  -0.00886  -0.04846
  20   33125.4    301.9   0.024565857   0.24414   0.39393  -0.23980   0.17737
  21   33438.9    299.1   0.020479841   0.20163   0.32025   0.31323   0.03084
  22   33636.8    297.3   0.003035009   0.02970   0.05288  -0.15812   0.04368
  23   34369.9    291.0   0.002515321   0.02409   0.05296  -0.13259   0.06089
  24   34621.7    288.8   0.059097665   0.56195   0.10123  -0.67496   0.31005
  25   34952.0    286.1   0.263971049   2.48634  -0.86931   1.16306  -0.61477
  26   35990.9    277.8   0.049310097   0.45104   0.58148   0.32383   0.08978
  27   36182.8    276.4   0.001135145   0.01033   0.08626   0.05290   0.00947
  28   36279.3    275.6   0.000407690   0.00370   0.02820  -0.05346  -0.00678
  29   36499.6    274.0   0.031934631   0.28804  -0.45632   0.15397  -0.23687
  30   36887.8    271.1   0.011067923   0.09878   0.07017  -0.30340   0.04244
  31   37316.2    268.0   0.020026330   0.17668   0.34109  -0.13183   0.20725
  32   37695.3    265.3   0.000117411   0.00103  -0.02526   0.01657  -0.01063
  33   37889.7    263.9   0.006086186   0.05288  -0.10304  -0.17828   0.10237
  34   38075.6    262.6   0.025742762   0.22258   0.43017   0.17635   0.08021
  35   38619.8    258.9   0.153478927   1.30832   0.71844  -0.71650   0.52801
  36   38783.6    257.8   0.000182662   0.00155  -0.01216  -0.03708   0.00530
  37   38911.7    257.0   0.038803440   0.32830  -0.52450  -0.23062   0.00289
  38   39353.7    254.1   0.000038236   0.00032   0.00079  -0.01711  -0.00515
  39   39395.6    253.8   0.021127173   0.17655   0.01654   0.40959  -0.09226
  40   39632.1    252.3   0.018921080   0.15717   0.29494   0.26404   0.02159
  41   39855.9    250.9   0.046206237   0.38167  -0.50823  -0.34416  -0.07016
  42   39898.2    250.6   0.020108535   0.16592  -0.36568  -0.14543  -0.10511
  43   40145.9    249.1   0.000830498   0.00681   0.01797  -0.07944   0.01327

FINAL SINGLE POINT ENERGY     -5718.795491658945

DIPOLE MOMENT
-------------
                                X             Y             Z
Electronic contribution:     37.95872       9.06141      11.46326
Nuclear contribution   :    -38.47130      -8.52468     -11.69109
                        -----------------------------------------
Total Dipole Moment    :     -0.51258       0.53673      -0.22783
                        -----------------------------------------
Magnitude (a.u.)       :      0.77636
Magnitude (Debye)      :      1.97334

Rotational constants in cm-1:     0.001061     0.000396     0.000290
Rotational constants in MHz :    31.820371    11.871753     8.680779

                             ****ORCA TERMINATED NORMALLY****
TOTAL RUN TIME: 0 days 0 hours 6 minutes 8 seconds 753 msec
