                         Program Version 4.2.0 -  RELEASE  -
|  1> # ORCA input file
|  2> # SCF done       -161.502304915198          0.000284639148
|  3> ! CAM-B3LYP def2-SVP def2/J RIJCOSX Grid4 TightSCF
|  4> %maxcore 5000
|  5> %tddft
|  6>     Mode sTDDFT
|  7>     Ethresh 5.0
|  8>     maxcore 5000
|  9> end
| 10>
| 11> %pal
| 12>   nprocs 6
| 13>   end
| 14> * xyz 0 1
| 15>    C        5.56342         1.60397        -2.52507
| 16>    C        4.91280         0.52653        -2.98215
| 17>    C        4.50925         0.25299        -4.33300
| 18>    C        3.86471        -0.92120        -4.49757
| 19>    C        3.70127        -1.67693        -3.30036
| 20>    S        4.41241        -0.81833        -1.94376
| 21>    C        3.08722        -2.89344        -3.16278
| 22>    C        2.48479        -3.68261        -4.18050
| 23>    C        1.94340        -4.83973        -3.73613
| 24>    C        2.07880        -5.06220        -2.33089
| 25>    S        2.92953        -3.69493        -1.60737
| 26>    C        1.67385        -6.18235        -1.68013
| 27>    C        1.75974        -6.43179        -0.26366
| 28>    C        1.59795        -5.41289         0.63418
| 29>    S        1.63673        -5.88694         2.28033
| 30>    C        1.91055        -7.53126         1.79640
| 31>    C        1.96937        -7.70153         0.40511
| 32>    C        2.35950        -8.96619        -0.10097
| 33>    C        2.51325        -9.12900        -1.58864
| 34>    C        1.17799        -9.51729        -2.23289
| 35>    C        2.61078       -10.03010         0.75888
| 36>    C        3.31925       -11.27555         0.27364
| 37>    C        2.52288       -12.22310        -0.63377
| 38>    C        2.37304        -9.88735         2.15130
| 39>    C        2.48183       -10.83061         3.24359
| 40>    C        2.38647       -10.21528         4.45637
| 41>    S        2.07057        -8.52814         4.38480
| 42>    C        2.09047        -8.60542         2.65083
| 43>    C        2.54048       -12.28155         3.21014
| 44>    C        1.79257       -13.03849         2.39219
| 45>    C        1.80302       -14.46464         2.34423
| 46>    S        2.83979       -15.40368         3.38207
| 47>    C        2.38450       -16.85709         2.58167
| 48>    C        1.50732       -16.65282         1.56630
| 49>    C        0.94608       -17.73476         0.70519
| 50>    C        1.15016       -15.27692         1.43020
| 51>    C        0.25684       -14.79337         0.40227
| 52>    C       -0.69728       -13.86263         0.58327
| 53>    C       -1.47782       -13.27078        -0.46596
| 54>    C       -1.04528       -13.12267        -1.73464
| 55>    C       -1.77754       -12.48454        -2.77869
| 56>    S       -3.48199       -12.16245        -2.66564
| 57>    C       -3.50163       -11.43699        -4.22413
| 58>    C       -2.26814       -11.40814        -4.80299
| 59>    O       -1.92139       -10.82023        -5.97621
| 60>    C       -2.97979       -10.44978        -6.83189
| 61>    C       -1.27570       -12.03186        -3.98534
| 62>    N        0.06901       -12.12512        -4.31726
| 63>    C        0.55652       -12.28454        -5.57945
| 64>    S        2.22069       -11.87925        -5.94492
| 65>    C        2.08959       -12.31649        -7.61024
| 66>    C        0.81521       -12.73327        -7.88319
| 67>    C       -0.04056       -12.72327        -6.73029
| 68>    O       -1.28547       -13.16811        -7.05148
| 69>    C       -1.23225       -13.42611        -8.38152
| 70>    N       -2.43461       -13.82487        -9.00805
| 71>    O       -2.36693       -14.12877       -10.18457
| 72>    O       -3.44960       -13.81476        -8.34087
| 73>    C       -0.00701       -13.20037        -8.94716
| 74>    H        5.84875         2.39709        -3.19351
| 75>    H        5.81991         1.71237        -1.48734
| 76>    H        4.72240         0.95455        -5.12017
| 77>    H        3.49303        -1.28173        -5.44056
| 78>    H        2.47940        -3.36681        -5.20849
| 79>    H        1.44942        -5.56222        -4.36253
| 80>    H        1.20067        -6.93173        -2.29458
| 81>    H        1.39530        -4.38533         0.40596
| 82>    H        2.87339        -8.19293        -2.01790
| 83>    H        3.25529        -9.89154        -1.81719
| 84>    H        1.28230        -9.58153        -3.31467
| 85>    H        0.40361        -8.79006        -1.99993
| 86>    H        0.83308       -10.47391        -1.85029
| 87>    H        3.64969       -11.82913         1.15022
| 88>    H        4.22392       -10.95876        -0.25371
| 89>    H        1.45947       -12.17115        -0.41803
| 90>    H        2.84787       -13.24844        -0.47186
| 91>    H        2.67334       -11.98984        -1.68516
| 92>    H        2.42995       -10.69283         5.41629
| 93>    H        3.14165       -12.75218         3.97846
| 94>    H        1.14453       -12.55242         1.67951
| 95>    H        2.79979       -17.78735         2.91623
| 96>    H        1.28990       -18.70833         1.04440
| 97>    H        1.25885       -17.59686        -0.32992
| 98>    H       -0.14247       -17.71364         0.73276
| 99>    H        0.37529       -15.24976        -0.57277
|100>    H       -0.92205       -13.52774         1.58786
|101>    H       -2.43847       -12.85420        -0.19305
|102>    H       -0.05895       -13.48071        -2.00294
|103>    H       -4.42803       -11.05898        -4.60382
|104>    H       -2.51088       -10.07619        -7.74108
|105>    H       -3.59125        -9.65800        -6.38872
|106>    H       -3.61210       -11.31108        -7.06760
|107>    H        0.73529       -12.10576        -3.56040
|108>    H        2.94287       -12.24250        -8.24968
|109>    H        0.24604       -13.33924        -9.97765
|110> *
|111>
|112>                          ****END OF INPUT****

CARTESIAN COORDINATES (ANGSTROEM)
---------------------------------
  C      5.563420    1.603970   -2.525070
  C      4.912800    0.526530   -2.982150
  C      4.509250    0.252990   -4.333000
  C      3.864710   -0.921200   -4.497570
  C      3.701270   -1.676930   -3.300360
  S      4.412410   -0.818330   -1.943760
  C      3.087220   -2.893440   -3.162780
  C      2.484790   -3.682610   -4.180500
  C      1.943400   -4.839730   -3.736130
  C      2.078800   -5.062200   -2.330890
  S      2.929530   -3.694930   -1.607370
  C      1.673850   -6.182350   -1.680130
  C      1.759740   -6.431790   -0.263660
  C      1.597950   -5.412890    0.634180
  S      1.636730   -5.886940    2.280330
  C      1.910550   -7.531260    1.796400
  C      1.969370   -7.701530    0.405110
  C      2.359500   -8.966190   -0.100970
  C      2.513250   -9.129000   -1.588640
  C      1.177990   -9.517290   -2.232890
  C      2.610780  -10.030100    0.758880
  C      3.319250  -11.275550    0.273640
  C      2.522880  -12.223100   -0.633770
  C      2.373040   -9.887350    2.151300
  C      2.481830  -10.830610    3.243590
  C      2.386470  -10.215280    4.456370
  S      2.070570   -8.528140    4.384800
  C      2.090470   -8.605420    2.650830
  C      2.540480  -12.281550    3.210140
  C      1.792570  -13.038490    2.392190
  C      1.803020  -14.464640    2.344230
  S      2.839790  -15.403680    3.382070
  C      2.384500  -16.857090    2.581670
  C      1.507320  -16.652820    1.566300
  C      0.946080  -17.734760    0.705190
  C      1.150160  -15.276920    1.430200
  C      0.256840  -14.793370    0.402270
  C     -0.697280  -13.862630    0.583270
  C     -1.477820  -13.270780   -0.465960
  C     -1.045280  -13.122670   -1.734640
  C     -1.777540  -12.484540   -2.778690
  S     -3.481990  -12.162450   -2.665640
  C     -3.501630  -11.436990   -4.224130
  C     -2.268140  -11.408140   -4.802990
  O     -1.921390  -10.820230   -5.976210
  C     -2.979790  -10.449780   -6.831890
  C     -1.275700  -12.031860   -3.985340
  N      0.069010  -12.125120   -4.317260
  C      0.556520  -12.284540   -5.579450
  S      2.220690  -11.879250   -5.944920
  C      2.089590  -12.316490   -7.610240
  C      0.815210  -12.733270   -7.883190
  C     -0.040560  -12.723270   -6.730290
  O     -1.285470  -13.168110   -7.051480
  C     -1.232250  -13.426110   -8.381520
  N     -2.434610  -13.824870   -9.008050
  O     -2.366930  -14.128770  -10.184570
  O     -3.449600  -13.814760   -8.340870
  C     -0.007010  -13.200370   -8.947160
  H      5.848750    2.397090   -3.193510
  H      5.819910    1.712370   -1.487340
  H      4.722400    0.954550   -5.120170
  H      3.493030   -1.281730   -5.440560
  H      2.479400   -3.366810   -5.208490
  H      1.449420   -5.562220   -4.362530
  H      1.200670   -6.931730   -2.294580
  H      1.395300   -4.385330    0.405960
  H      2.873390   -8.192930   -2.017900
  H      3.255290   -9.891540   -1.817190
  H      1.282300   -9.581530   -3.314670
  H      0.403610   -8.790060   -1.999930
  H      0.833080  -10.473910   -1.850290
  H      3.649690  -11.829130    1.150220
  H      4.223920  -10.958760   -0.253710
  H      1.459470  -12.171150   -0.418030
  H      2.847870  -13.248440   -0.471860
  H      2.673340  -11.989840   -1.685160
  H      2.429950  -10.692830    5.416290
  H      3.141650  -12.752180    3.978460
  H      1.144530  -12.552420    1.679510
  H      2.799790  -17.787350    2.916230
  H      1.289900  -18.708330    1.044400
  H      1.258850  -17.596860   -0.329920
  H     -0.142470  -17.713640    0.732760
  H      0.375290  -15.249760   -0.572770
  H     -0.922050  -13.527740    1.587860
  H     -2.438470  -12.854200   -0.193050
  H     -0.058950  -13.480710   -2.002940
  H     -4.428030  -11.058980   -4.603820
  H     -2.510880  -10.076190   -7.741080
  H     -3.591250   -9.658000   -6.388720
  H     -3.612100  -11.311080   -7.067600
  H      0.735290  -12.105760   -3.560400
  H      2.942870  -12.242500   -8.249680
  H      0.246040  -13.339240   -9.977650

 Total Charge           Charge          ....    0
 Multiplicity           Mult            ....    1
 Number of Electrons    NEL             ....  470
 Basis Dimension        Dim             .... 1034

ORBITAL ENERGIES
----------------

  NO   OCC          E(Eh)            E(eV)
   0   2.0000     -88.970181     -2421.0017
   1   2.0000     -88.945496     -2420.3300
   2   2.0000     -88.945032     -2420.3174
   3   2.0000     -88.944609     -2420.3059
   4   2.0000     -88.942241     -2420.2414
   5   2.0000     -88.934982     -2420.0439
   6   2.0000     -88.930438     -2419.9202
   7   2.0000     -19.296517      -525.0849
   8   2.0000     -19.244096      -523.6585
   9   2.0000     -19.243860      -523.6521
  10   2.0000     -19.242385      -523.6119
  11   2.0000     -14.654470      -398.7684
  12   2.0000     -14.455163      -393.3450
  13   2.0000     -10.382810      -282.5306
  14   2.0000     -10.347338      -281.5654
  15   2.0000     -10.331154      -281.1250
  16   2.0000     -10.329889      -281.0906
  17   2.0000     -10.317790      -280.7613
  18   2.0000     -10.316296      -280.7207
  19   2.0000     -10.306926      -280.4657
  20   2.0000     -10.301614      -280.3212
  21   2.0000     -10.300947      -280.3030
  22   2.0000     -10.299702      -280.2692
  23   2.0000     -10.299257      -280.2570
  24   2.0000     -10.298259      -280.2299
  25   2.0000     -10.292453      -280.0719
  26   2.0000     -10.292444      -280.0716
  27   2.0000     -10.291377      -280.0426
  28   2.0000     -10.291175      -280.0371
  29   2.0000     -10.290736      -280.0252
  30   2.0000     -10.286323      -279.9051
  31   2.0000     -10.286214      -279.9021
  32   2.0000     -10.283561      -279.8299
  33   2.0000     -10.282898      -279.8119
  34   2.0000     -10.281229      -279.7665
  35   2.0000     -10.280822      -279.7554
  36   2.0000     -10.280321      -279.7418
  37   2.0000     -10.278417      -279.6899
  38   2.0000     -10.277954      -279.6773
  39   2.0000     -10.277490      -279.6647
  40   2.0000     -10.275160      -279.6013
  41   2.0000     -10.273985      -279.5693
  42   2.0000     -10.273063      -279.5443
  43   2.0000     -10.272599      -279.5316
  44   2.0000     -10.271481      -279.5012
  45   2.0000     -10.271296      -279.4962
  46   2.0000     -10.270556      -279.4760
  47   2.0000     -10.270372      -279.4710
  48   2.0000     -10.269443      -279.4457
  49   2.0000     -10.269226      -279.4398
  50   2.0000     -10.269219      -279.4397
  51   2.0000     -10.269036      -279.4347
  52   2.0000     -10.268184      -279.4115
  53   2.0000     -10.263213      -279.2762
  54   2.0000     -10.262514      -279.2572
  55   2.0000     -10.260911      -279.2136
  56   2.0000     -10.257618      -279.1240
  57   2.0000     -10.257340      -279.1164
  58   2.0000     -10.254434      -279.0373
  59   2.0000      -8.065493      -219.4732
  60   2.0000      -8.041291      -218.8146
  61   2.0000      -8.041211      -218.8125
  62   2.0000      -8.040802      -218.8014
  63   2.0000      -8.038156      -218.7294
  64   2.0000      -8.030966      -218.5337
  65   2.0000      -8.027169      -218.4304
  66   2.0000      -6.035122      -164.2240
  67   2.0000      -6.030661      -164.1026
  68   2.0000      -6.027340      -164.0123
  69   2.0000      -6.010762      -163.5611
  70   2.0000      -6.010698      -163.5594
  71   2.0000      -6.010300      -163.5486
  72   2.0000      -6.007483      -163.4719
  73   2.0000      -6.006677      -163.4500
  74   2.0000      -6.006549      -163.4465
  75   2.0000      -6.006097      -163.4342
  76   2.0000      -6.003224      -163.3560
  77   2.0000      -6.002984      -163.3495
  78   2.0000      -6.002793      -163.3443
  79   2.0000      -6.002482      -163.3358
  80   2.0000      -6.000826      -163.2908
  81   2.0000      -6.000352      -163.2779
  82   2.0000      -5.997022      -163.1873
  83   2.0000      -5.996811      -163.1815
  84   2.0000      -5.993128      -163.0813
  85   2.0000      -5.991606      -163.0399
  86   2.0000      -5.987611      -162.9312
  87   2.0000      -1.325770       -36.0760
  88   2.0000      -1.217228       -33.1225
  89   2.0000      -1.148545       -31.2535
  90   2.0000      -1.142001       -31.0754
  91   2.0000      -1.060504       -28.8578
  92   2.0000      -0.995367       -27.0853
  93   2.0000      -0.984833       -26.7987
  94   2.0000      -0.983970       -26.7752
  95   2.0000      -0.976048       -26.5596
  96   2.0000      -0.965967       -26.2853
  97   2.0000      -0.962691       -26.1962
  98   2.0000      -0.958561       -26.0838
  99   2.0000      -0.926549       -25.2127
 100   2.0000      -0.918902       -25.0046
 101   2.0000      -0.907819       -24.7030
 102   2.0000      -0.896145       -24.3853
 103   2.0000      -0.886304       -24.1176
 104   2.0000      -0.882541       -24.0152
 105   2.0000      -0.866972       -23.5915
 106   2.0000      -0.864019       -23.5112
 107   2.0000      -0.857791       -23.3417
 108   2.0000      -0.848373       -23.0854
 109   2.0000      -0.844386       -22.9769
 110   2.0000      -0.837687       -22.7946
 111   2.0000      -0.836646       -22.7663
 112   2.0000      -0.829953       -22.5842
 113   2.0000      -0.819849       -22.3092
 114   2.0000      -0.814608       -22.1666
 115   2.0000      -0.810054       -22.0427
 116   2.0000      -0.805376       -21.9154
 117   2.0000      -0.790305       -21.5053
 118   2.0000      -0.785589       -21.3770
 119   2.0000      -0.779275       -21.2051
 120   2.0000      -0.767189       -20.8763
 121   2.0000      -0.761690       -20.7266
 122   2.0000      -0.759053       -20.6549
 123   2.0000      -0.743719       -20.2376
 124   2.0000      -0.720741       -19.6124
 125   2.0000      -0.717433       -19.5224
 126   2.0000      -0.713356       -19.4114
 127   2.0000      -0.700137       -19.0517
 128   2.0000      -0.698811       -19.0156
 129   2.0000      -0.692241       -18.8368
 130   2.0000      -0.691943       -18.8287
 131   2.0000      -0.679926       -18.5017
 132   2.0000      -0.671137       -18.2626
 133   2.0000      -0.668122       -18.1805
 134   2.0000      -0.655856       -17.8467
 135   2.0000      -0.641979       -17.4691
 136   2.0000      -0.639605       -17.4045
 137   2.0000      -0.639137       -17.3918
 138   2.0000      -0.633987       -17.2517
 139   2.0000      -0.630747       -17.1635
 140   2.0000      -0.627955       -17.0875
 141   2.0000      -0.622046       -16.9267
 142   2.0000      -0.621373       -16.9084
 143   2.0000      -0.616454       -16.7746
 144   2.0000      -0.612683       -16.6720
 145   2.0000      -0.609696       -16.5907
 146   2.0000      -0.602503       -16.3949
 147   2.0000      -0.600655       -16.3447
 148   2.0000      -0.592065       -16.1109
 149   2.0000      -0.584839       -15.9143
 150   2.0000      -0.583003       -15.8643
 151   2.0000      -0.577570       -15.7165
 152   2.0000      -0.568817       -15.4783
 153   2.0000      -0.565921       -15.3995
 154   2.0000      -0.561542       -15.2803
 155   2.0000      -0.554468       -15.0879
 156   2.0000      -0.549479       -14.9521
 157   2.0000      -0.547937       -14.9101
 158   2.0000      -0.543744       -14.7960
 159   2.0000      -0.541596       -14.7376
 160   2.0000      -0.536100       -14.5880
 161   2.0000      -0.528066       -14.3694
 162   2.0000      -0.526506       -14.3270
 163   2.0000      -0.522648       -14.2220
 164   2.0000      -0.515964       -14.0401
 165   2.0000      -0.514802       -14.0085
 166   2.0000      -0.510032       -13.8787
 167   2.0000      -0.508066       -13.8252
 168   2.0000      -0.504642       -13.7320
 169   2.0000      -0.504107       -13.7174
 170   2.0000      -0.502443       -13.6722
 171   2.0000      -0.498628       -13.5684
 172   2.0000      -0.494608       -13.4590
 173   2.0000      -0.490853       -13.3568
 174   2.0000      -0.488685       -13.2978
 175   2.0000      -0.487852       -13.2751
 176   2.0000      -0.485436       -13.2094
 177   2.0000      -0.482742       -13.1361
 178   2.0000      -0.480021       -13.0620
 179   2.0000      -0.478212       -13.0128
 180   2.0000      -0.476534       -12.9672
 181   2.0000      -0.474124       -12.9016
 182   2.0000      -0.469095       -12.7647
 183   2.0000      -0.465700       -12.6723
 184   2.0000      -0.463102       -12.6017
 185   2.0000      -0.458519       -12.4769
 186   2.0000      -0.458057       -12.4644
 187   2.0000      -0.453885       -12.3508
 188   2.0000      -0.452816       -12.3218
 189   2.0000      -0.450456       -12.2575
 190   2.0000      -0.449644       -12.2354
 191   2.0000      -0.447962       -12.1897
 192   2.0000      -0.446056       -12.1378
 193   2.0000      -0.439902       -11.9703
 194   2.0000      -0.435913       -11.8618
 195   2.0000      -0.434277       -11.8173
 196   2.0000      -0.432453       -11.7677
 197   2.0000      -0.430790       -11.7224
 198   2.0000      -0.429875       -11.6975
 199   2.0000      -0.425509       -11.5787
 200   2.0000      -0.423090       -11.5129
 201   2.0000      -0.420382       -11.4392
 202   2.0000      -0.418008       -11.3746
 203   2.0000      -0.417072       -11.3491
 204   2.0000      -0.412661       -11.2291
 205   2.0000      -0.409671       -11.1477
 206   2.0000      -0.408010       -11.1025
 207   2.0000      -0.406277       -11.0554
 208   2.0000      -0.403912       -10.9910
 209   2.0000      -0.397614       -10.8196
 210   2.0000      -0.390054       -10.6139
 211   2.0000      -0.389159       -10.5896
 212   2.0000      -0.384388       -10.4597
 213   2.0000      -0.381657       -10.3854
 214   2.0000      -0.381130       -10.3711
 215   2.0000      -0.380030       -10.3411
 216   2.0000      -0.371227       -10.1016
 217   2.0000      -0.369974       -10.0675
 218   2.0000      -0.368573       -10.0294
 219   2.0000      -0.367036        -9.9876
 220   2.0000      -0.344803        -9.3826
 221   2.0000      -0.341154        -9.2833
 222   2.0000      -0.331014        -9.0073
 223   2.0000      -0.325419        -8.8551
 224   2.0000      -0.318242        -8.6598
 225   2.0000      -0.316160        -8.6031
 226   2.0000      -0.303699        -8.2641
 227   2.0000      -0.302650        -8.2355
 228   2.0000      -0.292390        -7.9563
 229   2.0000      -0.279585        -7.6079
 230   2.0000      -0.264643        -7.2013
 231   2.0000      -0.262102        -7.1322
 232   2.0000      -0.245956        -6.6928
 233   2.0000      -0.233313        -6.3488
 234   2.0000      -0.214892        -5.8475
 235   0.0000      -0.062088        -1.6895
 236   0.0000      -0.051779        -1.4090
 237   0.0000      -0.037961        -1.0330
 238   0.0000      -0.007301        -0.1987
 239   0.0000       0.002194         0.0597

MULLIKEN ATOMIC CHARGES
-----------------------
   0 C :   -0.031453
   1 C :   -0.064817
   2 C :    0.051220
   3 C :    0.029940
   4 C :   -0.073207
   5 S :    0.074012
   6 C :   -0.053441
   7 C :    0.031615
   8 C :    0.029176
   9 C :   -0.035455
  10 S :    0.075333
  11 C :   -0.046919
  12 C :    0.061165
  13 C :   -0.125802
  14 S :    0.131361
  15 C :   -0.139901
  16 C :    0.120263
  17 C :   -0.126729
  18 C :    0.037161
  19 C :    0.026259
  20 C :   -0.117109
  21 C :    0.038008
  22 C :   -0.009613
  23 C :    0.091433
  24 C :    0.055313
  25 C :   -0.104241
  26 S :    0.121553
  27 C :   -0.148030
  28 C :   -0.057854
  29 C :    0.033768
  30 C :   -0.139923
  31 S :    0.092248
  32 C :   -0.124826
  33 C :   -0.074126
  34 C :    0.119713
  35 C :    0.106742
  36 C :   -0.061104
  37 C :    0.006766
  38 C :   -0.017424
  39 C :   -0.008663
  40 C :   -0.145732
  41 S :    0.114857
  42 C :   -0.205433
  43 C :    0.226090
  44 O :   -0.321078
  45 C :    0.173502
  46 C :    0.108985
  47 N :   -0.036378
  48 C :   -0.194515
  49 S :    0.107368
  50 C :   -0.163677
  51 C :    0.126196
  52 C :    0.238080
  53 O :   -0.198727
  54 C :    0.235794
  55 N :    0.268384
  56 O :   -0.246809
  57 O :   -0.230843
  58 C :   -0.078641
  59 H :    0.017016
  60 H :    0.019596
  61 H :   -0.014167
  62 H :   -0.014975
  63 H :   -0.017700
  64 H :   -0.013410
  65 H :   -0.015992
  66 H :    0.031113
  67 H :    0.015742
  68 H :   -0.012041
  69 H :    0.012644
  70 H :    0.024667
  71 H :   -0.005686
  72 H :    0.013886
  73 H :    0.019182
  74 H :    0.045203
  75 H :    0.020421
  76 H :   -0.003673
  77 H :    0.014604
  78 H :   -0.002678
  79 H :   -0.013425
  80 H :    0.010018
  81 H :    0.006766
  82 H :    0.023254
  83 H :    0.031195
  84 H :   -0.001412
  85 H :    0.008700
  86 H :   -0.004784
  87 H :   -0.017994
  88 H :    0.017243
  89 H :    0.031441
  90 H :    0.020562
  91 H :    0.034883
  92 H :    0.137947
  93 H :    0.023092
  94 H :    0.008929
Sum of atomic charges:   -0.0000000

LOEWDIN ATOMIC CHARGES
----------------------
   0 C :   -0.082451
   1 C :   -0.138792
   2 C :   -0.034532
   3 C :   -0.026423
   4 C :   -0.181104
   5 S :    0.344736
   6 C :   -0.180979
   7 C :   -0.035702
   8 C :   -0.032290
   9 C :   -0.144233
  10 S :    0.364328
  11 C :   -0.056167
  12 C :   -0.067988
  13 C :   -0.174713
  14 S :    0.418636
  15 C :   -0.178076
  16 C :   -0.041263
  17 C :   -0.019304
  18 C :   -0.030034
  19 C :   -0.054584
  20 C :   -0.025180
  21 C :   -0.030223
  22 C :   -0.059861
  23 C :   -0.043234
  24 C :   -0.061577
  25 C :   -0.170043
  26 S :    0.409880
  27 C :   -0.178419
  28 C :   -0.032093
  29 C :   -0.036459
  30 C :   -0.165349
  31 S :    0.418426
  32 C :   -0.192508
  33 C :   -0.060218
  34 C :   -0.044239
  35 C :   -0.064977
  36 C :   -0.019993
  37 C :   -0.029736
  38 C :   -0.037225
  39 C :   -0.040140
  40 C :   -0.201540
  41 S :    0.429089
  42 C :   -0.233590
  43 C :    0.002718
  44 O :   -0.100835
  45 C :    0.076018
  46 C :   -0.026376
  47 N :    0.011268
  48 C :   -0.146190
  49 S :    0.435506
  50 C :   -0.217395
  51 C :   -0.071621
  52 C :   -0.022184
  53 O :   -0.003808
  54 C :    0.024075
  55 N :    0.273210
  56 O :   -0.209086
  57 O :   -0.197621
  58 C :   -0.013678
  59 H :    0.027443
  60 H :    0.025392
  61 H :    0.032319
  62 H :    0.031008
  63 H :    0.030083
  64 H :    0.032144
  65 H :    0.033249
  66 H :    0.015515
  67 H :    0.029858
  68 H :    0.023970
  69 H :    0.019584
  70 H :    0.025498
  71 H :    0.019724
  72 H :    0.031209
  73 H :    0.030522
  74 H :    0.022374
  75 H :    0.029361
  76 H :    0.012234
  77 H :    0.022505
  78 H :    0.022760
  79 H :    0.033718
  80 H :    0.019647
  81 H :    0.031718
  82 H :    0.033569
  83 H :    0.036793
  84 H :    0.025384
  85 H :    0.032279
  86 H :    0.023658
  87 H :    0.023365
  88 H :    0.022967
  89 H :    0.026094
  90 H :    0.013608
  91 H :    0.017329
  92 H :    0.079337
  93 H :    0.024805
  94 H :    0.045117

  Mayer bond orders larger than 0.100000
B(  0-C ,  1-C ) :   1.8707 B(  0-C , 59-H ) :   0.9498 B(  0-C , 60-H ) :   0.9410
B(  1-C ,  2-C ) :   1.0763 B(  1-C ,  5-S ) :   1.0075 B(  2-C ,  3-C ) :   1.6701
B(  2-C , 61-H ) :   0.9925 B(  3-C ,  4-C ) :   1.1452 B(  3-C , 62-H ) :   0.9912
B(  4-C ,  5-S ) :   1.0370 B(  4-C ,  6-C ) :   1.5861 B(  6-C ,  7-C ) :   1.1478
B(  6-C , 10-S ) :   1.0276 B(  7-C ,  8-C ) :   1.6377 B(  7-C , 63-H ) :   0.9929
B(  8-C ,  9-C ) :   1.1042 B(  8-C , 64-H ) :   0.9966 B(  9-C , 10-S ) :   1.0173
B(  9-C , 11-C ) :   1.6996 B( 11-C , 12-C ) :   1.0168 B( 11-C , 65-H ) :   0.9515
B( 12-C , 13-C ) :   1.5954 B( 12-C , 16-C ) :   1.1504 B( 13-C , 14-S ) :   1.1205
B( 13-C , 66-H ) :   0.9529 B( 14-S , 15-C ) :   1.0783 B( 15-C , 16-C ) :   1.3770
B( 15-C , 27-C ) :   1.3745 B( 16-C , 17-C ) :   1.2607 B( 17-C , 18-C ) :   1.0700
B( 17-C , 20-C ) :   1.4975 B( 18-C , 19-C ) :   1.1051 B( 18-C , 67-H ) :   0.9156
B( 18-C , 68-H ) :   0.9091 B( 19-C , 69-H ) :   0.9631 B( 19-C , 70-H ) :   0.9505
B( 19-C , 71-H ) :   0.9497 B( 20-C , 21-C ) :   1.0607 B( 20-C , 23-C ) :   1.2780
B( 21-C , 22-C ) :   1.0831 B( 21-C , 72-H ) :   0.9229 B( 21-C , 73-H ) :   0.9295
B( 22-C , 74-H ) :   0.9634 B( 22-C , 75-H ) :   0.9562 B( 22-C , 76-H ) :   0.9594
B( 23-C , 24-C ) :   1.1353 B( 23-C , 27-C ) :   1.3762 B( 24-C , 25-C ) :   1.6078
B( 24-C , 28-C ) :   1.0391 B( 25-C , 26-S ) :   1.1123 B( 25-C , 77-H ) :   0.9694
B( 26-S , 27-C ) :   1.0791 B( 28-C , 29-C ) :   1.7544 B( 28-C , 78-H ) :   0.9609
B( 29-C , 30-C ) :   1.1563 B( 29-C , 79-H ) :   0.9536 B( 30-C , 31-S ) :   1.1279
B( 30-C , 35-C ) :   1.4776 B( 31-S , 32-C ) :   1.1290 B( 32-C , 33-C ) :   1.6049
B( 32-C , 80-H ) :   0.9669 B( 33-C , 34-C ) :   1.0976 B( 33-C , 35-C ) :   1.2258
B( 34-C , 81-H ) :   0.9517 B( 34-C , 82-H ) :   0.9426 B( 34-C , 83-H ) :   0.9453
B( 35-C , 36-C ) :   1.0613 B( 36-C , 37-C ) :   1.7648 B( 36-C , 84-H ) :   0.9496
B( 37-C , 38-C ) :   1.0929 B( 37-C , 85-H ) :   0.9682 B( 38-C , 39-C ) :   1.7168
B( 38-C , 86-H ) :   0.9728 B( 39-C , 40-C ) :   1.1471 B( 39-C , 87-H ) :   0.9543
B( 40-C , 41-S ) :   1.1110 B( 40-C , 46-C ) :   1.4868 B( 41-S , 42-C ) :   1.1116
B( 42-C , 43-C ) :   1.5050 B( 42-C , 88-H ) :   0.9760 B( 43-C , 44-O ) :   1.1449
B( 43-C , 46-C ) :   1.2428 B( 44-O , 45-C ) :   0.9495 B( 45-C , 89-H ) :   0.9804
B( 45-C , 90-H ) :   0.9681 B( 45-C , 91-H ) :   0.9636 B( 46-C , 47-N ) :   1.1008
B( 47-N , 48-C ) :   1.1479 B( 47-N , 92-H ) :   0.8900 B( 48-C , 49-S ) :   1.1477
B( 48-C , 50-C ) :   0.1071 B( 48-C , 52-C ) :   1.4650 B( 49-S , 50-C ) :   1.1311
B( 50-C , 51-C ) :   1.4576 B( 50-C , 93-H ) :   0.9801 B( 51-C , 52-C ) :   1.2176
B( 51-C , 58-C ) :   1.0589 B( 52-C , 53-O ) :   1.0580 B( 53-O , 54-C ) :   1.1366
B( 54-C , 55-N ) :   0.9157 B( 54-C , 58-C ) :   1.5763 B( 55-N , 56-O ) :   1.5324
B( 55-N , 57-O ) :   1.5154 B( 56-O , 57-O ) :   0.2743 B( 58-C , 94-H ) :   1.0259

-----------------------------------------------------------------------------
         ABSORPTION SPECTRUM VIA TRANSITION ELECTRIC DIPOLE MOMENTS
-----------------------------------------------------------------------------
State   Energy  Wavelength   fosc         T2         TX        TY        TZ
        (cm-1)    (nm)                  (au**2)     (au)      (au)      (au)
-----------------------------------------------------------------------------
   0   20353.4    491.3   0.074943193   1.21219  -0.59720   0.12024   0.91710
   1   21345.5    468.5   1.296499124  19.99595   1.77446   3.83542  -1.46178
   2   24685.3    405.1   0.000050686   0.00068   0.02056   0.00754   0.01401
   3   25399.3    393.7   0.620075757   8.03710  -0.88493  -0.09447  -2.69167
   4   26186.3    381.9   0.042818906   0.53832  -0.29760  -0.05328   0.66852
   5   28325.0    353.0   0.023527114   0.27345   0.13129   0.44739  -0.23676
   6   28531.0    350.5   0.140778890   1.62441  -0.60427  -0.96475   0.57317
   7   28909.0    345.9   0.001166553   0.01328   0.05357  -0.01978   0.10012
   8   29733.4    336.3   0.019238961   0.21302  -0.16142   0.20676  -0.37975
   9   30502.1    327.8   0.026894298   0.29027   0.46499   0.18513   0.19945
  10   30867.3    324.0   0.028698290   0.30608   0.24169   0.15535   0.47279
  11   31822.1    314.2   0.226633354   2.34461   1.29259  -0.54122   0.61718
  12   32340.7    309.2   0.284269436   2.89372  -0.52406  -1.31941  -0.93714
  13   32646.6    306.3   0.050202832   0.50625  -0.59440  -0.10983  -0.37533
  14   33118.3    301.9   0.032444898   0.32252  -0.36658   0.20624  -0.38158
  15   33407.0    299.3   0.202403270   1.99460   0.42985  -1.19859   0.61092
  16   33716.0    296.6   0.187190489   1.82777   0.02920  -1.34175   0.16318
  17   34550.7    289.4   0.078353489   0.74658  -0.08776   0.77211  -0.37779
  18   35005.2    285.7   0.017871740   0.16808   0.07245   0.05126  -0.40025
  19   35182.7    284.2   0.004062648   0.03802  -0.06272  -0.18424  -0.01175
  20   35348.1    282.9   0.034214531   0.31865   0.02049   0.26759   0.49662
  21   35676.5    280.3   0.079184305   0.73069   0.15999  -0.35309   0.76185
  22   35907.4    278.5   0.125321509   1.14899  -0.48101  -0.22516  -0.93109
  23   36084.9    277.1   0.390012484   3.55819   1.23645   0.69656   1.24265
  24   36205.0    276.2   0.111196353   1.01111   0.95044   0.22440   0.23963
  25   36559.0    273.5   0.060499986   0.54480  -0.42741   0.52883   0.28715
  26   37053.3    269.9   0.304748954   2.70764   0.02103   1.64203  -0.10453
  27   37390.6    267.4   0.007567353   0.06663  -0.12539   0.13536  -0.18051
  28   37717.7    265.1   0.067974562   0.59330  -0.17629   0.29934  -0.68748
  29   38017.2    263.0   0.002403933   0.02082  -0.08953   0.10345  -0.04582
  30   38202.4    261.8   0.014957275   0.12890   0.16035  -0.27608   0.16421
  31   38334.7    260.9   0.032455264   0.27872  -0.16342   0.48397   0.13338
  32   38624.0    258.9   0.096440044   0.82201   0.01782  -0.47503   0.77203
  33   39383.6    253.9   0.055807424   0.46650  -0.09001   0.26494  -0.62306
  34   40115.0    249.3   0.094050954   0.77185   0.36905   0.60195  -0.52278
  35   40213.9    248.7   0.017529995   0.14351  -0.37362   0.05814  -0.02324

FINAL SINGLE POINT ENERGY     -4968.459865858208

DIPOLE MOMENT
-------------
                                X             Y             Z
Electronic contribution:     -5.05893      16.09266       3.18928
Nuclear contribution   :      6.02632     -15.91344      -3.86607
                        -----------------------------------------
Total Dipole Moment    :      0.96739       0.17923      -0.67679
                        -----------------------------------------
Magnitude (a.u.)       :      1.19416
Magnitude (Debye)      :      3.03532

Rotational constants in cm-1:     0.001046     0.000698     0.000463
Rotational constants in MHz :    31.372501    20.925527    13.880410

                             ****ORCA TERMINATED NORMALLY****
TOTAL RUN TIME: 0 days 0 hours 8 minutes 5 seconds 962 msec
