                         Program Version 4.2.0 -  RELEASE  -
|  1> # ORCA input file
|  2> # SCF done       -184.618061429034          0.000403565710
|  3> ! CAM-B3LYP def2-SVP def2/J RIJCOSX Grid4 TightSCF
|  4> %maxcore 5000
|  5> %tddft
|  6>     Mode sTDDFT
|  7>     Ethresh 5.0
|  8>     maxcore 5000
|  9> end
| 10>
| 11> %pal
| 12>   nprocs 6
| 13>   end
| 14> * xyz 0 1
| 15>    C        1.91037         0.18442         5.85981
| 16>    C        0.96823         0.85533         6.58893
| 17>    F        0.48244         0.30033         7.71242
| 18>    C        0.48089         2.11441         6.21076
| 19>    C        0.96328         2.69598         5.07168
| 20>    C        1.93606         2.04887         4.28180
| 21>    C        2.41733         0.76756         4.68215
| 22>    C        3.38594         0.09465         3.90213
| 23>    C        3.85718         0.68548         2.76028
| 24>    C        3.38529         1.97429         2.37500
| 25>    C        2.44643         2.64352         3.10702
| 26>    C        4.07680         2.40139         1.14651
| 27>    O        3.90342         3.40587         0.49808
| 28>    C        5.10652         1.34793         0.89245
| 29>    C        4.81495         0.22087         1.76130
| 30>    C        5.17698        -1.08253         1.55627
| 31>    C        5.91831        -1.53211         0.44373
| 32>    N        6.47660        -1.96155        -0.46232
| 33>    C        4.78061        -2.14641         2.39425
| 34>    N        4.49490        -3.04198         3.05207
| 35>    C        6.13186         1.61565         0.05169
| 36>    C        7.37655         0.91588        -0.08318
| 37>    C        8.06852         0.85376        -1.30544
| 38>    N        9.21156         0.23246        -1.44475
| 39>    C        9.71657        -0.37626        -0.36728
| 40>    N        9.17530        -0.32954         0.85511
| 41>    C        8.04430         0.31192         0.99546
| 42>    C       10.94122        -1.09913        -0.51010
| 43>    C       11.71641        -1.23953        -1.64386
| 44>    C       12.85859        -1.99645        -1.38816
| 45>    C       12.93054        -2.43236        -0.04861
| 46>    S       11.60553        -1.91108         0.88693
| 47>    C       14.13161        -3.16987         0.11712
| 48>    C       14.81896        -3.19394        -1.10721
| 49>    C       14.03730        -2.46385        -2.09629
| 50>    C       14.35852        -2.25997        -3.40575
| 51>    C       15.54739        -2.76819        -3.97083
| 52>    N       16.51460        -3.17965        -4.42928
| 53>    C       13.53295        -1.52536        -4.28385
| 54>    N       12.87618        -0.92809        -5.00894
| 55>    C       16.03558        -3.87078        -1.03507
| 56>    C       16.27611        -4.36465         0.23479
| 57>    S       14.97443        -3.99241         1.35436
| 58>    C       17.42437        -5.06525         0.68352
| 59>    C       17.65294        -5.59683         1.93955
| 60>    C       18.91748        -6.17597         2.03842
| 61>    C       19.65636        -6.08266         0.84610
| 62>    S       18.79074        -5.29567        -0.39860
| 63>    C       20.93167        -6.66120         1.05761
| 64>    C       21.00251        -7.12013         2.38609
| 65>    C       19.72786        -6.85557         3.03731
| 66>    C       19.35991        -7.20039         4.30362
| 67>    C       20.22164        -7.91042         5.16790
| 68>    N       20.91664        -8.50287         5.86034
| 69>    C       18.08272        -6.89283         4.81911
| 70>    N       17.04359        -6.64183         5.23332
| 71>    C       22.24128        -7.66528         2.71305
| 72>    C       23.12348        -7.63615         1.64351
| 73>    S       22.38252        -6.93025         0.20589
| 74>    C       24.46891        -8.05855         1.53704
| 75>    C       25.31488        -8.43515         2.53169
| 76>    C       26.68569        -8.85284         2.35917
| 77>    C       27.35572        -9.11035         3.57270
| 78>    C       26.51834        -8.89808         4.72630
| 79>    C       26.83258        -9.01387         6.05560
| 80>    C       28.08743        -9.39464         6.56284
| 81>    N       29.08729        -9.69894         7.03914
| 82>    C       25.87643        -8.72683         7.05342
| 83>    N       25.10719        -8.48107         7.86769
| 84>    S       24.90783        -8.41917         4.24493
| 85>    C       28.68801        -9.51769         3.56533
| 86>    C       29.33944        -9.66864         2.35726
| 87>    C       28.67942        -9.41820         1.15909
| 88>    C       27.35990        -9.01213         1.15150
| 89>    H        2.25977        -0.78497         6.17915
| 90>    H       -0.26257         2.59565         6.82612
| 91>    H        0.60358         3.66500         4.76017
| 92>    H        3.73942        -0.86908         4.23310
| 93>    H        2.09807         3.61601         2.79299
| 94>    H        6.01727         2.51117        -0.55195
| 95>    H        7.66039         1.30850        -2.19872
| 96>    H        7.66324         0.39249         2.00685
| 97>    H       11.44036        -0.79875        -2.58400
| 98>    H       16.72274        -4.00303        -1.85150
| 99>    H       16.92720        -5.55084         2.73157
|100>    H       22.48461        -8.07684         3.67452
|101>    H       24.87163        -8.04671         0.53276
|102>    H       29.20509        -9.71526         4.48965
|103>    H       30.37057        -9.98560         2.34554
|104>    H       29.20371        -9.54333         0.22397
|105>    H       26.85840        -8.82381         0.21529
|106> *
|107>
|108>                          ****END OF INPUT****

CARTESIAN COORDINATES (ANGSTROEM)
---------------------------------
  C      1.910370    0.184420    5.859810
  C      0.968230    0.855330    6.588930
  F      0.482440    0.300330    7.712420
  C      0.480890    2.114410    6.210760
  C      0.963280    2.695980    5.071680
  C      1.936060    2.048870    4.281800
  C      2.417330    0.767560    4.682150
  C      3.385940    0.094650    3.902130
  C      3.857180    0.685480    2.760280
  C      3.385290    1.974290    2.375000
  C      2.446430    2.643520    3.107020
  C      4.076800    2.401390    1.146510
  O      3.903420    3.405870    0.498080
  C      5.106520    1.347930    0.892450
  C      4.814950    0.220870    1.761300
  C      5.176980   -1.082530    1.556270
  C      5.918310   -1.532110    0.443730
  N      6.476600   -1.961550   -0.462320
  C      4.780610   -2.146410    2.394250
  N      4.494900   -3.041980    3.052070
  C      6.131860    1.615650    0.051690
  C      7.376550    0.915880   -0.083180
  C      8.068520    0.853760   -1.305440
  N      9.211560    0.232460   -1.444750
  C      9.716570   -0.376260   -0.367280
  N      9.175300   -0.329540    0.855110
  C      8.044300    0.311920    0.995460
  C     10.941220   -1.099130   -0.510100
  C     11.716410   -1.239530   -1.643860
  C     12.858590   -1.996450   -1.388160
  C     12.930540   -2.432360   -0.048610
  S     11.605530   -1.911080    0.886930
  C     14.131610   -3.169870    0.117120
  C     14.818960   -3.193940   -1.107210
  C     14.037300   -2.463850   -2.096290
  C     14.358520   -2.259970   -3.405750
  C     15.547390   -2.768190   -3.970830
  N     16.514600   -3.179650   -4.429280
  C     13.532950   -1.525360   -4.283850
  N     12.876180   -0.928090   -5.008940
  C     16.035580   -3.870780   -1.035070
  C     16.276110   -4.364650    0.234790
  S     14.974430   -3.992410    1.354360
  C     17.424370   -5.065250    0.683520
  C     17.652940   -5.596830    1.939550
  C     18.917480   -6.175970    2.038420
  C     19.656360   -6.082660    0.846100
  S     18.790740   -5.295670   -0.398600
  C     20.931670   -6.661200    1.057610
  C     21.002510   -7.120130    2.386090
  C     19.727860   -6.855570    3.037310
  C     19.359910   -7.200390    4.303620
  C     20.221640   -7.910420    5.167900
  N     20.916640   -8.502870    5.860340
  C     18.082720   -6.892830    4.819110
  N     17.043590   -6.641830    5.233320
  C     22.241280   -7.665280    2.713050
  C     23.123480   -7.636150    1.643510
  S     22.382520   -6.930250    0.205890
  C     24.468910   -8.058550    1.537040
  C     25.314880   -8.435150    2.531690
  C     26.685690   -8.852840    2.359170
  C     27.355720   -9.110350    3.572700
  C     26.518340   -8.898080    4.726300
  C     26.832580   -9.013870    6.055600
  C     28.087430   -9.394640    6.562840
  N     29.087290   -9.698940    7.039140
  C     25.876430   -8.726830    7.053420
  N     25.107190   -8.481070    7.867690
  S     24.907830   -8.419170    4.244930
  C     28.688010   -9.517690    3.565330
  C     29.339440   -9.668640    2.357260
  C     28.679420   -9.418200    1.159090
  C     27.359900   -9.012130    1.151500
  H      2.259770   -0.784970    6.179150
  H     -0.262570    2.595650    6.826120
  H      0.603580    3.665000    4.760170
  H      3.739420   -0.869080    4.233100
  H      2.098070    3.616010    2.792990
  H      6.017270    2.511170   -0.551950
  H      7.660390    1.308500   -2.198720
  H      7.663240    0.392490    2.006850
  H     11.440360   -0.798750   -2.584000
  H     16.722740   -4.003030   -1.851500
  H     16.927200   -5.550840    2.731570
  H     22.484610   -8.076840    3.674520
  H     24.871630   -8.046710    0.532760
  H     29.205090   -9.715260    4.489650
  H     30.370570   -9.985600    2.345540
  H     29.203710   -9.543330    0.223970
  H     26.858400   -8.823810    0.215290

 Total Charge           Charge          ....    0
 Multiplicity           Mult            ....    1
 Number of Electrons    NEL             ....  526
 Basis Dimension        Dim             .... 1141

ORBITAL ENERGIES
----------------

  NO   OCC          E(Eh)            E(eV)
   0   2.0000     -88.998900     -2421.7832
   1   2.0000     -88.997669     -2421.7497
   2   2.0000     -88.997113     -2421.7346
   3   2.0000     -88.990733     -2421.5609
   4   2.0000     -88.977923     -2421.2124
   5   2.0000     -24.793187      -674.6569
   6   2.0000     -19.225833      -523.1615
   7   2.0000     -14.435944      -392.8220
   8   2.0000     -14.433795      -392.7635
   9   2.0000     -14.433151      -392.7460
  10   2.0000     -14.430654      -392.6781
  11   2.0000     -14.429471      -392.6459
  12   2.0000     -14.426951      -392.5773
  13   2.0000     -14.426683      -392.5700
  14   2.0000     -14.426632      -392.5686
  15   2.0000     -14.413663      -392.2157
  16   2.0000     -14.408471      -392.0744
  17   2.0000     -10.377818      -282.3948
  18   2.0000     -10.377058      -282.3741
  19   2.0000     -10.371432      -282.2210
  20   2.0000     -10.368034      -282.1286
  21   2.0000     -10.367174      -282.1052
  22   2.0000     -10.361072      -281.9391
  23   2.0000     -10.357610      -281.8449
  24   2.0000     -10.357179      -281.8332
  25   2.0000     -10.354668      -281.7648
  26   2.0000     -10.354666      -281.7648
  27   2.0000     -10.343674      -281.4657
  28   2.0000     -10.342690      -281.4389
  29   2.0000     -10.342054      -281.4216
  30   2.0000     -10.341161      -281.3973
  31   2.0000     -10.339563      -281.3538
  32   2.0000     -10.338450      -281.3235
  33   2.0000     -10.337253      -281.2910
  34   2.0000     -10.336797      -281.2785
  35   2.0000     -10.336584      -281.2727
  36   2.0000     -10.335895      -281.2540
  37   2.0000     -10.334314      -281.2110
  38   2.0000     -10.334169      -281.2070
  39   2.0000     -10.333615      -281.1920
  40   2.0000     -10.332452      -281.1603
  41   2.0000     -10.330528      -281.1080
  42   2.0000     -10.330336      -281.1027
  43   2.0000     -10.328548      -281.0541
  44   2.0000     -10.328285      -281.0469
  45   2.0000     -10.318033      -280.7680
  46   2.0000     -10.317092      -280.7423
  47   2.0000     -10.316966      -280.7389
  48   2.0000     -10.315630      -280.7026
  49   2.0000     -10.315585      -280.7013
  50   2.0000     -10.314928      -280.6835
  51   2.0000     -10.312601      -280.6201
  52   2.0000     -10.312380      -280.6141
  53   2.0000     -10.311636      -280.5939
  54   2.0000     -10.311231      -280.5829
  55   2.0000     -10.310778      -280.5705
  56   2.0000     -10.310636      -280.5667
  57   2.0000     -10.310356      -280.5591
  58   2.0000     -10.310214      -280.5552
  59   2.0000     -10.310063      -280.5511
  60   2.0000     -10.310018      -280.5499
  61   2.0000     -10.309415      -280.5334
  62   2.0000     -10.308828      -280.5175
  63   2.0000     -10.308737      -280.5150
  64   2.0000     -10.305996      -280.4404
  65   2.0000     -10.304253      -280.3930
  66   2.0000     -10.303817      -280.3811
  67   2.0000     -10.302694      -280.3506
  68   2.0000     -10.300938      -280.3028
  69   2.0000     -10.300401      -280.2882
  70   2.0000     -10.300177      -280.2821
  71   2.0000     -10.299037      -280.2511
  72   2.0000     -10.297226      -280.2018
  73   2.0000     -10.293976      -280.1133
  74   2.0000      -8.093271      -220.2291
  75   2.0000      -8.092480      -220.2076
  76   2.0000      -8.091513      -220.1812
  77   2.0000      -8.084793      -219.9984
  78   2.0000      -8.073076      -219.6796
  79   2.0000      -6.062574      -164.9710
  80   2.0000      -6.061649      -164.9459
  81   2.0000      -6.060810      -164.9230
  82   2.0000      -6.058413      -164.8578
  83   2.0000      -6.057584      -164.8352
  84   2.0000      -6.056631      -164.8093
  85   2.0000      -6.055525      -164.7792
  86   2.0000      -6.054865      -164.7613
  87   2.0000      -6.053958      -164.7366
  88   2.0000      -6.053791      -164.7320
  89   2.0000      -6.049673      -164.6200
  90   2.0000      -6.047447      -164.5594
  91   2.0000      -6.042893      -164.4355
  92   2.0000      -6.038600      -164.3187
  93   2.0000      -6.034100      -164.1962
  94   2.0000      -1.308545       -35.6073
  95   2.0000      -1.141527       -31.0625
  96   2.0000      -1.104284       -30.0491
  97   2.0000      -1.052967       -28.6527
  98   2.0000      -1.047577       -28.5060
  99   2.0000      -1.030404       -28.0387
 100   2.0000      -1.027809       -27.9681
 101   2.0000      -1.026651       -27.9366
 102   2.0000      -1.024404       -27.8754
 103   2.0000      -1.012781       -27.5592
 104   2.0000      -1.011110       -27.5137
 105   2.0000      -1.010837       -27.5063
 106   2.0000      -1.009170       -27.4609
 107   2.0000      -1.005193       -27.3527
 108   2.0000      -1.002543       -27.2806
 109   2.0000      -0.998697       -27.1759
 110   2.0000      -0.996006       -27.1027
 111   2.0000      -0.988762       -26.9056
 112   2.0000      -0.986925       -26.8556
 113   2.0000      -0.969119       -26.3711
 114   2.0000      -0.959700       -26.1148
 115   2.0000      -0.954960       -25.9858
 116   2.0000      -0.945444       -25.7268
 117   2.0000      -0.936086       -25.4722
 118   2.0000      -0.931344       -25.3432
 119   2.0000      -0.921186       -25.0667
 120   2.0000      -0.910386       -24.7729
 121   2.0000      -0.902301       -24.5529
 122   2.0000      -0.895010       -24.3545
 123   2.0000      -0.882636       -24.0177
 124   2.0000      -0.875800       -23.8317
 125   2.0000      -0.875498       -23.8235
 126   2.0000      -0.867908       -23.6170
 127   2.0000      -0.864499       -23.5242
 128   2.0000      -0.859042       -23.3757
 129   2.0000      -0.856016       -23.2934
 130   2.0000      -0.852101       -23.1869
 131   2.0000      -0.844212       -22.9722
 132   2.0000      -0.832803       -22.6617
 133   2.0000      -0.814789       -22.1715
 134   2.0000      -0.794659       -21.6238
 135   2.0000      -0.786111       -21.3912
 136   2.0000      -0.783337       -21.3157
 137   2.0000      -0.774612       -21.0783
 138   2.0000      -0.768346       -20.9078
 139   2.0000      -0.764950       -20.8154
 140   2.0000      -0.752628       -20.4801
 141   2.0000      -0.734005       -19.9733
 142   2.0000      -0.731196       -19.8968
 143   2.0000      -0.724735       -19.7211
 144   2.0000      -0.718574       -19.5534
 145   2.0000      -0.711896       -19.3717
 146   2.0000      -0.706260       -19.2183
 147   2.0000      -0.704963       -19.1830
 148   2.0000      -0.697458       -18.9788
 149   2.0000      -0.693596       -18.8737
 150   2.0000      -0.691665       -18.8212
 151   2.0000      -0.689667       -18.7668
 152   2.0000      -0.681539       -18.5456
 153   2.0000      -0.672511       -18.2999
 154   2.0000      -0.661492       -18.0001
 155   2.0000      -0.653840       -17.7919
 156   2.0000      -0.646035       -17.5795
 157   2.0000      -0.641782       -17.4638
 158   2.0000      -0.639889       -17.4123
 159   2.0000      -0.638779       -17.3821
 160   2.0000      -0.636283       -17.3142
 161   2.0000      -0.634672       -17.2703
 162   2.0000      -0.626145       -17.0383
 163   2.0000      -0.621218       -16.9042
 164   2.0000      -0.616909       -16.7870
 165   2.0000      -0.614498       -16.7213
 166   2.0000      -0.606786       -16.5115
 167   2.0000      -0.600622       -16.3438
 168   2.0000      -0.589720       -16.0471
 169   2.0000      -0.583433       -15.8760
 170   2.0000      -0.576474       -15.6866
 171   2.0000      -0.574975       -15.6459
 172   2.0000      -0.572344       -15.5743
 173   2.0000      -0.566229       -15.4079
 174   2.0000      -0.565553       -15.3895
 175   2.0000      -0.558078       -15.1861
 176   2.0000      -0.556988       -15.1564
 177   2.0000      -0.555474       -15.1152
 178   2.0000      -0.552522       -15.0349
 179   2.0000      -0.547599       -14.9009
 180   2.0000      -0.545561       -14.8455
 181   2.0000      -0.543700       -14.7948
 182   2.0000      -0.540464       -14.7068
 183   2.0000      -0.537671       -14.6308
 184   2.0000      -0.533861       -14.5271
 185   2.0000      -0.532902       -14.5010
 186   2.0000      -0.532349       -14.4859
 187   2.0000      -0.529043       -14.3960
 188   2.0000      -0.523670       -14.2498
 189   2.0000      -0.519993       -14.1497
 190   2.0000      -0.518394       -14.1062
 191   2.0000      -0.514448       -13.9988
 192   2.0000      -0.513257       -13.9664
 193   2.0000      -0.510227       -13.8840
 194   2.0000      -0.508480       -13.8364
 195   2.0000      -0.506990       -13.7959
 196   2.0000      -0.504736       -13.7346
 197   2.0000      -0.499648       -13.5961
 198   2.0000      -0.498113       -13.5544
 199   2.0000      -0.496605       -13.5133
 200   2.0000      -0.496036       -13.4978
 201   2.0000      -0.491961       -13.3869
 202   2.0000      -0.491178       -13.3656
 203   2.0000      -0.488209       -13.2848
 204   2.0000      -0.485386       -13.2080
 205   2.0000      -0.478714       -13.0265
 206   2.0000      -0.477292       -12.9878
 207   2.0000      -0.475903       -12.9500
 208   2.0000      -0.466581       -12.6963
 209   2.0000      -0.465522       -12.6675
 210   2.0000      -0.464097       -12.6287
 211   2.0000      -0.462925       -12.5968
 212   2.0000      -0.460725       -12.5370
 213   2.0000      -0.460642       -12.5347
 214   2.0000      -0.458835       -12.4855
 215   2.0000      -0.458741       -12.4830
 216   2.0000      -0.455371       -12.3913
 217   2.0000      -0.454314       -12.3625
 218   2.0000      -0.451321       -12.2811
 219   2.0000      -0.449473       -12.2308
 220   2.0000      -0.447736       -12.1835
 221   2.0000      -0.447128       -12.1670
 222   2.0000      -0.445564       -12.1244
 223   2.0000      -0.444382       -12.0922
 224   2.0000      -0.444212       -12.0876
 225   2.0000      -0.442925       -12.0526
 226   2.0000      -0.441913       -12.0251
 227   2.0000      -0.441845       -12.0232
 228   2.0000      -0.440568       -11.9885
 229   2.0000      -0.439989       -11.9727
 230   2.0000      -0.438281       -11.9262
 231   2.0000      -0.437417       -11.9027
 232   2.0000      -0.434628       -11.8268
 233   2.0000      -0.430291       -11.7088
 234   2.0000      -0.429103       -11.6765
 235   2.0000      -0.427934       -11.6447
 236   2.0000      -0.425539       -11.5795
 237   2.0000      -0.421499       -11.4696
 238   2.0000      -0.417273       -11.3546
 239   2.0000      -0.415304       -11.3010
 240   2.0000      -0.411321       -11.1926
 241   2.0000      -0.408483       -11.1154
 242   2.0000      -0.406607       -11.0643
 243   2.0000      -0.405580       -11.0364
 244   2.0000      -0.399832       -10.8800
 245   2.0000      -0.394220       -10.7273
 246   2.0000      -0.390484       -10.6256
 247   2.0000      -0.382826       -10.4172
 248   2.0000      -0.366344        -9.9687
 249   2.0000      -0.358717        -9.7612
 250   2.0000      -0.351933        -9.5766
 251   2.0000      -0.348387        -9.4801
 252   2.0000      -0.344472        -9.3736
 253   2.0000      -0.343841        -9.3564
 254   2.0000      -0.336350        -9.1525
 255   2.0000      -0.330698        -8.9987
 256   2.0000      -0.327331        -8.9071
 257   2.0000      -0.324168        -8.8211
 258   2.0000      -0.321536        -8.7494
 259   2.0000      -0.309877        -8.4322
 260   2.0000      -0.304760        -8.2930
 261   2.0000      -0.277734        -7.5575
 262   2.0000      -0.247627        -6.7383
 263   0.0000      -0.115484        -3.1425
 264   0.0000      -0.108071        -2.9408
 265   0.0000      -0.101565        -2.7637
 266   0.0000      -0.084279        -2.2933
 267   0.0000      -0.066541        -1.8107

MULLIKEN ATOMIC CHARGES
-----------------------
   0 C :   -0.093570
   1 C :    0.304651
   2 F :   -0.186482
   3 C :   -0.031258
   4 C :   -0.005174
   5 C :    0.097950
   6 C :    0.097992
   7 C :   -0.078973
   8 C :    0.037468
   9 C :    0.005896
  10 C :   -0.071505
  11 C :    0.139758
  12 O :   -0.134820
  13 C :   -0.119671
  14 C :    0.264918
  15 C :   -0.327432
  16 C :   -0.194333
  17 N :    0.176880
  18 C :   -0.177645
  19 N :    0.160587
  20 C :    0.049616
  21 C :   -0.043074
  22 C :    0.073298
  23 N :   -0.039706
  24 C :   -0.055678
  25 N :   -0.067677
  26 C :    0.061702
  27 C :   -0.041057
  28 C :   -0.030918
  29 C :    0.005379
  30 C :   -0.092043
  31 S :    0.247818
  32 C :   -0.104262
  33 C :    0.023012
  34 C :    0.301441
  35 C :   -0.297045
  36 C :   -0.189000
  37 N :    0.171485
  38 C :   -0.193299
  39 N :    0.184788
  40 C :   -0.070375
  41 C :   -0.048097
  42 S :    0.201900
  43 C :   -0.049174
  44 C :   -0.069354
  45 C :    0.020551
  46 C :   -0.102308
  47 S :    0.197450
  48 C :   -0.092838
  49 C :   -0.007032
  50 C :    0.302443
  51 C :   -0.290210
  52 C :   -0.187145
  53 N :    0.186076
  54 C :   -0.185915
  55 N :    0.176281
  56 C :   -0.034133
  57 C :   -0.106462
  58 S :    0.187763
  59 C :    0.012906
  60 C :   -0.037018
  61 C :    0.149735
  62 C :    0.040188
  63 C :    0.087937
  64 C :   -0.283768
  65 C :   -0.173543
  66 N :    0.155653
  67 C :   -0.209185
  68 N :    0.162161
  69 S :    0.117412
  70 C :   -0.023617
  71 C :    0.032239
  72 C :    0.049959
  73 C :   -0.056213
  74 H :   -0.000207
  75 H :    0.008039
  76 H :   -0.006560
  77 H :   -0.002670
  78 H :   -0.008549
  79 H :    0.033006
  80 H :    0.014451
  81 H :    0.020704
  82 H :    0.021989
  83 H :    0.012291
  84 H :    0.013645
  85 H :    0.029819
  86 H :   -0.010968
  87 H :    0.007699
  88 H :    0.001353
  89 H :   -0.000874
  90 H :   -0.017452
Sum of atomic charges:   -0.0000000

LOEWDIN ATOMIC CHARGES
----------------------
   0 C :   -0.040655
   1 C :    0.095192
   2 F :   -0.061393
   3 C :   -0.033481
   4 C :    0.006325
   5 C :   -0.017376
   6 C :    0.004201
   7 C :    0.014458
   8 C :   -0.019604
   9 C :   -0.061754
  10 C :    0.038510
  11 C :    0.084095
  12 O :   -0.136329
  13 C :   -0.080955
  14 C :    0.065896
  15 C :   -0.129753
  16 C :   -0.018958
  17 N :   -0.039647
  18 C :   -0.019015
  19 N :   -0.042372
  20 C :    0.072829
  21 C :   -0.095458
  22 C :    0.079002
  23 N :   -0.071732
  24 C :    0.029630
  25 N :   -0.092647
  26 C :    0.069405
  27 C :   -0.190474
  28 C :    0.008493
  29 C :   -0.076351
  30 C :   -0.170810
  31 S :    0.521374
  32 C :   -0.181891
  33 C :   -0.061527
  34 C :    0.080807
  35 C :   -0.100460
  36 C :   -0.015158
  37 N :   -0.035855
  38 C :   -0.019233
  39 N :   -0.025465
  40 C :   -0.038974
  41 C :   -0.178206
  42 S :    0.488841
  43 C :   -0.175869
  44 C :   -0.038269
  45 C :   -0.062616
  46 C :   -0.183311
  47 S :    0.485997
  48 C :   -0.176387
  49 C :   -0.067409
  50 C :    0.078533
  51 C :   -0.093985
  52 C :   -0.020701
  53 N :   -0.016975
  54 C :   -0.015560
  55 N :   -0.029134
  56 C :   -0.030270
  57 C :   -0.170884
  58 S :    0.477685
  59 C :   -0.054249
  60 C :   -0.146216
  61 C :   -0.015743
  62 C :   -0.049839
  63 C :   -0.064179
  64 C :   -0.163197
  65 C :   -0.022518
  66 N :   -0.051221
  67 C :   -0.040726
  68 N :   -0.033700
  69 S :    0.443226
  70 C :    0.011317
  71 C :   -0.012859
  72 C :    0.003470
  73 C :   -0.013596
  74 H :    0.044097
  75 H :    0.043578
  76 H :    0.036879
  77 H :    0.039967
  78 H :    0.041137
  79 H :    0.050174
  80 H :    0.031861
  81 H :    0.028746
  82 H :    0.047751
  83 H :    0.035567
  84 H :    0.036580
  85 H :    0.029762
  86 H :    0.035353
  87 H :    0.041930
  88 H :    0.036564
  89 H :    0.035481
  90 H :    0.030232

  Mayer bond orders larger than 0.100000
B(  0-C ,  1-C ) :   1.4422 B(  0-C ,  6-C ) :   1.2023 B(  0-C , 74-H ) :   1.0061
B(  1-C ,  2-F ) :   1.0930 B(  1-C ,  3-C ) :   1.2525 B(  3-C ,  4-C ) :   1.4639
B(  3-C , 75-H ) :   0.9931 B(  4-C ,  5-C ) :   1.2319 B(  4-C , 76-H ) :   0.9971
B(  5-C ,  6-C ) :   1.2524 B(  5-C , 10-C ) :   1.1979 B(  6-C ,  7-C ) :   1.2093
B(  7-C ,  8-C ) :   1.4563 B(  7-C , 77-H ) :   0.9943 B(  8-C ,  9-C ) :   1.2167
B(  8-C , 14-C ) :   1.0011 B(  9-C , 10-C ) :   1.4672 B(  9-C , 11-C ) :   0.9224
B( 10-C , 78-H ) :   1.0145 B( 11-C , 12-O ) :   2.2797 B( 11-C , 13-C ) :   0.9259
B( 13-C , 14-C ) :   1.0088 B( 13-C , 20-C ) :   1.7432 B( 14-C , 15-C ) :   1.6737
B( 15-C , 16-C ) :   1.1575 B( 15-C , 18-C ) :   1.1310 B( 16-C , 17-N ) :   3.0036
B( 18-C , 19-N ) :   2.9871 B( 20-C , 21-C ) :   1.0271 B( 20-C , 79-H ) :   0.9429
B( 21-C , 22-C ) :   1.2935 B( 21-C , 26-C ) :   1.3014 B( 22-C , 23-N ) :   1.5854
B( 22-C , 80-H ) :   0.9908 B( 23-N , 24-C ) :   1.5697 B( 24-C , 25-N ) :   1.5514
B( 24-C , 27-C ) :   1.0448 B( 25-N , 26-C ) :   1.5963 B( 26-C , 81-H ) :   0.9839
B( 27-C , 28-C ) :   1.4712 B( 27-C , 31-S ) :   1.1028 B( 28-C , 29-C ) :   1.2728
B( 28-C , 82-H ) :   1.0051 B( 29-C , 30-C ) :   1.4177 B( 29-C , 34-C ) :   0.9969
B( 30-C , 31-S ) :   1.1445 B( 30-C , 32-C ) :   1.1921 B( 32-C , 33-C ) :   1.4514
B( 32-C , 42-S ) :   1.1189 B( 33-C , 34-C ) :   0.9908 B( 33-C , 40-C ) :   1.3041
B( 34-C , 35-C ) :   1.7171 B( 35-C , 36-C ) :   1.1341 B( 35-C , 38-C ) :   1.1328
B( 36-C , 37-N ) :   2.9901 B( 38-C , 39-N ) :   3.0030 B( 40-C , 41-C ) :   1.4540
B( 40-C , 83-H ) :   0.9860 B( 41-C , 42-S ) :   1.1135 B( 41-C , 43-C ) :   1.1676
B( 43-C , 44-C ) :   1.4567 B( 43-C , 47-S ) :   1.1116 B( 44-C , 45-C ) :   1.3024
B( 44-C , 84-H ) :   0.9876 B( 45-C , 46-C ) :   1.4456 B( 45-C , 50-C ) :   0.9914
B( 46-C , 47-S ) :   1.1162 B( 46-C , 48-C ) :   1.1930 B( 48-C , 49-C ) :   1.4319
B( 48-C , 58-S ) :   1.1314 B( 49-C , 50-C ) :   0.9969 B( 49-C , 56-C ) :   1.3282
B( 50-C , 51-C ) :   1.7207 B( 51-C , 52-C ) :   1.1300 B( 51-C , 54-C ) :   1.1335
B( 52-C , 53-N ) :   2.9867 B( 54-C , 55-N ) :   2.9913 B( 56-C , 57-C ) :   1.4375
B( 56-C , 85-H ) :   0.9712 B( 57-C , 58-S ) :   1.0964 B( 57-C , 59-C ) :   1.1386
B( 59-C , 60-C ) :   1.7114 B( 59-C , 86-H ) :   0.9414 B( 60-C , 61-C ) :   1.0601
B( 60-C , 69-S ) :   0.9986 B( 61-C , 62-C ) :   1.3232 B( 61-C , 73-C ) :   1.3495
B( 62-C , 63-C ) :   1.0790 B( 62-C , 70-C ) :   1.3406 B( 63-C , 64-C ) :   1.6341
B( 63-C , 69-S ) :   1.1012 B( 64-C , 65-C ) :   1.1668 B( 64-C , 67-C ) :   1.1313
B( 65-C , 66-N ) :   2.9697 B( 67-C , 68-N ) :   3.0341 B( 70-C , 71-C ) :   1.4140
B( 70-C , 87-H ) :   0.9821 B( 71-C , 72-C ) :   1.3464 B( 71-C , 88-H ) :   0.9870
B( 72-C , 73-C ) :   1.4120 B( 72-C , 89-H ) :   0.9872 B( 73-C , 90-H ) :   0.9911

-----------------------------------------------------------------------------
         ABSORPTION SPECTRUM VIA TRANSITION ELECTRIC DIPOLE MOMENTS
-----------------------------------------------------------------------------
State   Energy  Wavelength   fosc         T2         TX        TY        TZ
        (cm-1)    (nm)                  (au**2)     (au)      (au)      (au)
-----------------------------------------------------------------------------
   0   11702.4    854.5   0.352074905   9.90459   2.77074  -1.31792   0.70050
   1   13304.1    751.6   0.145678307   3.60484   1.67434  -0.87732   0.17810
   2   19588.6    510.5   1.350384480  22.69497  -4.47849   1.61986  -0.11886
   3   21057.0    474.9   0.217808543   3.40530  -1.32332   0.74992  -1.04486
   4   21457.4    466.0   0.498059828   7.64153  -1.93600   0.88602  -1.76306
   5   23558.8    424.5   0.035955578   0.50245   0.68092   0.00427   0.19690
   6   26598.6    376.0   0.035263423   0.43646   0.60942   0.25505   0.00290
   7   27111.4    368.8   0.498396943   6.05199   2.01656  -1.36974   0.33059
   8   27443.5    364.4   0.109674481   1.31565  -0.32441  -0.71918   0.83258
   9   27808.2    359.6   0.042475687   0.50286  -0.57710   0.36381   0.19354
  10   28374.5    352.4   0.196828372   2.28368   1.12930  -0.94794  -0.33131
  11   29125.0    343.3   0.109211554   1.23446  -0.75116   0.66565   0.47659
  12   29757.6    336.0   0.010528224   0.11648   0.30268   0.15668  -0.01757
  13   29904.0    334.4   0.040235375   0.44295   0.66455  -0.02225  -0.02871
  14   30186.0    331.3   0.226814359   2.47366  -1.43403   0.64517   0.03143
  15   30531.8    327.5   0.156390742   1.68630   0.06617   0.22756   1.27677
  16   31274.6    319.7   0.196379929   2.06719  -0.48072  -0.04389   1.35432
  17   31520.8    317.3   0.479640861   5.00950  -0.42599  -0.47313   2.14574
  18   32038.5    312.1   0.631995226   6.49407  -1.30721   0.14769   2.18254
  19   32425.8    308.4   0.154937235   1.57304   0.11302  -0.89900   0.86722
  20   32817.9    304.7   0.061058457   0.61251   0.67774  -0.22289   0.32170
  21   33220.0    301.0   0.078233630   0.77530   0.62254  -0.19050   0.59283
  22   33467.5    298.8   0.207849077   2.04456   0.81902  -0.99469   0.61998
  23   33674.4    297.0   0.209349666   2.04667   0.98082  -0.74176  -0.73106
  24   33822.6    295.7   0.051636434   0.50260   0.50047  -0.05168  -0.49946
  25   34114.1    293.1   0.305996399   2.95296  -1.49914   0.65794   0.52217
  26   34267.6    291.8   0.056692083   0.54465   0.61424  -0.25529  -0.31967
  27   34517.6    289.7   0.145063555   1.38354  -0.07390  -0.10572   1.16915
  28   34744.4    287.8   0.378123180   3.58281   1.15607  -0.61987  -1.36458
  29   35145.3    284.5   0.470875892   4.41078   0.86544  -0.05654  -1.91274
  30   35401.0    282.5   0.017636910   0.16401   0.21424  -0.10154  -0.32834
  31   35546.9    281.3   0.062153136   0.57562   0.43701  -0.12176  -0.60812
  32   35777.2    279.5   0.027041446   0.24883   0.27918  -0.29704   0.28749
  33   35938.8    278.3   0.019398249   0.17769   0.30049  -0.00483  -0.29559
  34   36043.9    277.4   0.016331333   0.14916   0.16536  -0.19711   0.28804
  35   36463.5    274.2   0.023804249   0.21492  -0.41863   0.13746   0.14413
  36   36801.2    271.7   0.020924506   0.18718  -0.03990  -0.01465   0.43055
  37   37460.2    266.9   0.233875234   2.05537   0.69775  -0.57966  -1.11018
  38   37738.1    265.0   0.068772939   0.59995   0.05237   0.37439  -0.67605
  39   37978.6    263.3   0.123475564   1.07033   0.56026  -0.00882  -0.86969
  40   38290.4    261.2   0.037012912   0.31823  -0.40198   0.28649   0.27306
  41   38410.7    260.3   0.009189225   0.07876   0.15057  -0.00912  -0.23665
  42   38616.6    259.0   0.017002615   0.14495  -0.23346   0.01775   0.30022
  43   38749.4    258.1   0.043267475   0.36760   0.45914  -0.39236  -0.05323
  44   38800.2    257.7   0.037939767   0.32191   0.33864   0.10694  -0.44249
  45   39067.0    256.0   0.014724595   0.12408  -0.00319   0.34825   0.05286
  46   39715.9    251.8   0.080247555   0.66519   0.03887   0.73141  -0.35878
  47   39819.5    251.1   0.041530333   0.34336   0.10787   0.37020  -0.44122
  48   40050.9    249.7   0.004143016   0.03405  -0.02421   0.16818   0.07200

FINAL SINGLE POINT ENERGY     -4891.385201160048

DIPOLE MOMENT
-------------
                                X             Y             Z
Electronic contribution:     -1.90299      -5.13681       1.44563
Nuclear contribution   :      0.90821       7.26077      -3.28562
                        -----------------------------------------
Total Dipole Moment    :     -0.99478       2.12395      -1.83999
                        -----------------------------------------
Magnitude (a.u.)       :      2.98100
Magnitude (Debye)      :      7.57709

Rotational constants in cm-1:     0.001710     0.000180     0.000165
Rotational constants in MHz :    51.270302     5.394153     4.950492

                             ****ORCA TERMINATED NORMALLY****
TOTAL RUN TIME: 0 days 0 hours 8 minutes 43 seconds 867 msec
