                         Program Version 4.2.0 -  RELEASE  -
|  1> # ORCA input file
|  2> # SCF done       -167.068445952047          0.000911417773
|  3> ! CAM-B3LYP def2-SVP def2/J RIJCOSX Grid4 TightSCF
|  4> %maxcore 5000
|  5> %tddft
|  6>     Mode sTDDFT
|  7>     Ethresh 5.0
|  8>     maxcore 5000
|  9> end
| 10>
| 11> %pal
| 12>   nprocs 6
| 13>   end
| 14> * xyz 0 1
| 15>    C      -11.02363        -0.46234         5.15788
| 16>    C      -11.89774        -1.24077         5.90050
| 17>    C      -11.69156        -2.60598         6.05106
| 18>    C      -10.59991        -3.23181         5.46932
| 19>    C       -9.71648        -2.46490         4.72648
| 20>    C       -9.93013        -1.07521         4.56415
| 21>    C       -8.87341        -0.52667         3.72897
| 22>    C       -8.63171         0.79150         3.47159
| 23>    C       -9.40965         1.85213         3.98685
| 24>    N      -10.00202         2.75478         4.37430
| 25>    C       -7.55119         1.27606         2.70038
| 26>    N       -6.69302         1.73787         2.09523
| 27>    C       -8.11488        -1.67237         3.21928
| 28>    C       -8.48704        -2.82915         4.04389
| 29>    C       -7.71382        -3.92102         4.30844
| 30>    C       -6.39732        -4.09311         3.82796
| 31>    N       -5.30475        -4.24632         3.51148
| 32>    C       -8.10391        -4.97716         5.16010
| 33>    N       -8.37168        -5.86211         5.83871
| 34>    C       -7.37066        -1.67560         2.09162
| 35>    C       -6.91813        -2.87352         1.42703
| 36>    N       -7.71622        -3.92941         1.40591
| 37>    N       -7.35177        -5.07691         0.92576
| 38>    C       -6.16551        -5.29049         0.39456
| 39>    C       -5.25849        -4.21273         0.24496
| 40>    C       -5.65935        -2.94386         0.78163
| 41>    N       -4.71660        -2.01593         0.64188
| 42>    S       -3.45671        -2.68715        -0.09220
| 43>    N       -4.03127        -4.16990        -0.26524
| 44>    C       -5.83328        -6.65357         0.01018
| 45>    N       -5.11934        -6.85728        -1.07690
| 46>    N       -4.78703        -8.04336        -1.48918
| 47>    C       -5.13607        -9.14280        -0.85498
| 48>    C       -5.89973        -9.06335         0.33639
| 49>    C       -6.26653        -7.75376         0.79169
| 50>    N       -6.93115        -7.79189         1.94420
| 51>    S       -7.07636        -9.32321         2.39453
| 52>    N       -6.30801       -10.01658         1.17072
| 53>    C       -4.72664       -10.43168        -1.39110
| 54>    N       -5.57550       -11.43358        -1.28798
| 55>    N       -5.28039       -12.64918        -1.62720
| 56>    C       -4.08823       -12.99780        -2.08518
| 57>    C       -3.12717       -11.99186        -2.35041
| 58>    C       -3.45674       -10.64500        -1.98128
| 59>    N       -2.44931        -9.80765        -2.20963
| 60>    S       -1.22820       -10.63367        -2.83040
| 61>    N       -1.89459       -12.09389        -2.84001
| 62>    C       -3.81839       -14.39545        -2.31978
| 63>    C       -4.29246       -15.39615        -1.54550
| 64>    C       -4.34095       -16.81033        -1.92684
| 65>    C       -3.55493       -17.43323        -2.85232
| 66>    C       -2.50373       -16.81222        -3.56386
| 67>    N       -1.63144       -16.37494        -4.16693
| 68>    C       -3.66162       -18.80166        -3.18643
| 69>    N       -3.70065       -19.90422        -3.50106
| 70>    C       -5.39064       -17.41467        -1.12180
| 71>    C       -5.82793       -16.47860        -0.15440
| 72>    C       -6.84200       -16.80321         0.73258
| 73>    C       -7.41255       -18.06409         0.65220
| 74>    C       -6.97843       -18.98711        -0.29046
| 75>    C       -5.96701       -18.67468        -1.18542
| 76>    C       -5.03104       -15.27088        -0.28239
| 77>    C       -4.82709       -14.33530         0.68879
| 78>    C       -5.53063       -14.30047         1.91218
| 79>    N       -6.07480       -14.22325         2.91892
| 80>    C       -3.83458       -13.33302         0.62536
| 81>    N       -3.00332       -12.54183         0.64460
| 82>    H      -11.20217         0.59440         5.04417
| 83>    H      -12.75420        -0.77616         6.36450
| 84>    H      -12.39182        -3.19037         6.62792
| 85>    H      -10.45353        -4.29352         5.58365
| 86>    H       -7.11649        -0.74817         1.59853
| 87>    H       -3.23847       -14.61331        -3.20527
| 88>    H       -7.19210       -16.09023         1.46116
| 89>    H       -8.20729       -18.33016         1.33207
| 90>    H       -7.43724       -19.96304        -0.33228
| 91>    H       -5.64694       -19.39960        -1.91590
| 92> *
| 93>
| 94>                          ****END OF INPUT****

CARTESIAN COORDINATES (ANGSTROEM)
---------------------------------
  C    -11.023630   -0.462340    5.157880
  C    -11.897740   -1.240770    5.900500
  C    -11.691560   -2.605980    6.051060
  C    -10.599910   -3.231810    5.469320
  C     -9.716480   -2.464900    4.726480
  C     -9.930130   -1.075210    4.564150
  C     -8.873410   -0.526670    3.728970
  C     -8.631710    0.791500    3.471590
  C     -9.409650    1.852130    3.986850
  N    -10.002020    2.754780    4.374300
  C     -7.551190    1.276060    2.700380
  N     -6.693020    1.737870    2.095230
  C     -8.114880   -1.672370    3.219280
  C     -8.487040   -2.829150    4.043890
  C     -7.713820   -3.921020    4.308440
  C     -6.397320   -4.093110    3.827960
  N     -5.304750   -4.246320    3.511480
  C     -8.103910   -4.977160    5.160100
  N     -8.371680   -5.862110    5.838710
  C     -7.370660   -1.675600    2.091620
  C     -6.918130   -2.873520    1.427030
  N     -7.716220   -3.929410    1.405910
  N     -7.351770   -5.076910    0.925760
  C     -6.165510   -5.290490    0.394560
  C     -5.258490   -4.212730    0.244960
  C     -5.659350   -2.943860    0.781630
  N     -4.716600   -2.015930    0.641880
  S     -3.456710   -2.687150   -0.092200
  N     -4.031270   -4.169900   -0.265240
  C     -5.833280   -6.653570    0.010180
  N     -5.119340   -6.857280   -1.076900
  N     -4.787030   -8.043360   -1.489180
  C     -5.136070   -9.142800   -0.854980
  C     -5.899730   -9.063350    0.336390
  C     -6.266530   -7.753760    0.791690
  N     -6.931150   -7.791890    1.944200
  S     -7.076360   -9.323210    2.394530
  N     -6.308010  -10.016580    1.170720
  C     -4.726640  -10.431680   -1.391100
  N     -5.575500  -11.433580   -1.287980
  N     -5.280390  -12.649180   -1.627200
  C     -4.088230  -12.997800   -2.085180
  C     -3.127170  -11.991860   -2.350410
  C     -3.456740  -10.645000   -1.981280
  N     -2.449310   -9.807650   -2.209630
  S     -1.228200  -10.633670   -2.830400
  N     -1.894590  -12.093890   -2.840010
  C     -3.818390  -14.395450   -2.319780
  C     -4.292460  -15.396150   -1.545500
  C     -4.340950  -16.810330   -1.926840
  C     -3.554930  -17.433230   -2.852320
  C     -2.503730  -16.812220   -3.563860
  N     -1.631440  -16.374940   -4.166930
  C     -3.661620  -18.801660   -3.186430
  N     -3.700650  -19.904220   -3.501060
  C     -5.390640  -17.414670   -1.121800
  C     -5.827930  -16.478600   -0.154400
  C     -6.842000  -16.803210    0.732580
  C     -7.412550  -18.064090    0.652200
  C     -6.978430  -18.987110   -0.290460
  C     -5.967010  -18.674680   -1.185420
  C     -5.031040  -15.270880   -0.282390
  C     -4.827090  -14.335300    0.688790
  C     -5.530630  -14.300470    1.912180
  N     -6.074800  -14.223250    2.918920
  C     -3.834580  -13.333020    0.625360
  N     -3.003320  -12.541830    0.644600
  H    -11.202170    0.594400    5.044170
  H    -12.754200   -0.776160    6.364500
  H    -12.391820   -3.190370    6.627920
  H    -10.453530   -4.293520    5.583650
  H     -7.116490   -0.748170    1.598530
  H     -3.238470  -14.613310   -3.205270
  H     -7.192100  -16.090230    1.461160
  H     -8.207290  -18.330160    1.332070
  H     -7.437240  -19.963040   -0.332280
  H     -5.646940  -19.399600   -1.915900

 Total Charge           Charge          ....    0
 Multiplicity           Mult            ....    1
 Number of Electrons    NEL             ....  462
 Basis Dimension        Dim             .... 1000

ORBITAL ENERGIES
----------------

  NO   OCC          E(Eh)            E(eV)
   0   2.0000     -89.050654     -2423.1915
   1   2.0000     -89.050652     -2423.1914
   2   2.0000     -89.044486     -2423.0236
   3   2.0000     -14.462610      -393.5476
   4   2.0000     -14.462523      -393.5453
   5   2.0000     -14.460674      -393.4950
   6   2.0000     -14.460592      -393.4927
   7   2.0000     -14.460406      -393.4877
   8   2.0000     -14.460376      -393.4868
   9   2.0000     -14.457537      -393.4096
  10   2.0000     -14.457389      -393.4055
  11   2.0000     -14.455515      -393.3546
  12   2.0000     -14.455444      -393.3526
  13   2.0000     -14.452853      -393.2821
  14   2.0000     -14.452811      -393.2810
  15   2.0000     -14.430994      -392.6873
  16   2.0000     -14.430992      -392.6873
  17   2.0000     -14.430883      -392.6843
  18   2.0000     -14.430855      -392.6835
  19   2.0000     -14.430706      -392.6795
  20   2.0000     -14.430595      -392.6764
  21   2.0000     -14.427578      -392.5944
  22   2.0000     -14.427569      -392.5941
  23   2.0000     -10.364197      -282.0241
  24   2.0000     -10.364173      -282.0235
  25   2.0000     -10.360164      -281.9144
  26   2.0000     -10.360035      -281.9109
  27   2.0000     -10.359545      -281.8976
  28   2.0000     -10.359472      -281.8956
  29   2.0000     -10.355961      -281.8000
  30   2.0000     -10.355935      -281.7993
  31   2.0000     -10.353834      -281.7421
  32   2.0000     -10.353823      -281.7418
  33   2.0000     -10.350492      -281.6512
  34   2.0000     -10.350392      -281.6485
  35   2.0000     -10.348967      -281.6097
  36   2.0000     -10.348883      -281.6074
  37   2.0000     -10.348166      -281.5879
  38   2.0000     -10.348052      -281.5848
  39   2.0000     -10.346369      -281.5390
  40   2.0000     -10.346258      -281.5360
  41   2.0000     -10.343513      -281.4613
  42   2.0000     -10.343219      -281.4533
  43   2.0000     -10.338484      -281.3245
  44   2.0000     -10.338407      -281.3223
  45   2.0000     -10.333200      -281.1807
  46   2.0000     -10.333098      -281.1779
  47   2.0000     -10.333046      -281.1765
  48   2.0000     -10.332910      -281.1728
  49   2.0000     -10.332416      -281.1593
  50   2.0000     -10.332381      -281.1584
  51   2.0000     -10.331852      -281.1440
  52   2.0000     -10.331834      -281.1435
  53   2.0000     -10.329294      -281.0744
  54   2.0000     -10.329279      -281.0740
  55   2.0000     -10.323296      -280.9112
  56   2.0000     -10.323285      -280.9109
  57   2.0000     -10.322689      -280.8947
  58   2.0000     -10.322664      -280.8940
  59   2.0000     -10.310013      -280.5497
  60   2.0000     -10.309964      -280.5484
  61   2.0000     -10.309158      -280.5264
  62   2.0000     -10.309135      -280.5258
  63   2.0000     -10.308643      -280.5124
  64   2.0000     -10.308619      -280.5118
  65   2.0000     -10.307842      -280.4906
  66   2.0000     -10.307827      -280.4902
  67   2.0000      -8.142292      -221.5630
  68   2.0000      -8.142242      -221.5617
  69   2.0000      -8.136107      -221.3947
  70   2.0000      -6.113240      -166.3497
  71   2.0000      -6.113206      -166.3488
  72   2.0000      -6.107055      -166.1814
  73   2.0000      -6.105379      -166.1358
  74   2.0000      -6.105353      -166.1351
  75   2.0000      -6.105259      -166.1326
  76   2.0000      -6.105200      -166.1309
  77   2.0000      -6.099196      -165.9676
  78   2.0000      -6.099089      -165.9647
  79   2.0000      -1.158251       -31.5176
  80   2.0000      -1.156944       -31.4821
  81   2.0000      -1.149741       -31.2860
  82   2.0000      -1.135793       -30.9065
  83   2.0000      -1.135395       -30.8957
  84   2.0000      -1.128476       -30.7074
  85   2.0000      -1.046667       -28.4813
  86   2.0000      -1.046586       -28.4791
  87   2.0000      -1.027116       -27.9492
  88   2.0000      -1.027045       -27.9473
  89   2.0000      -1.016885       -27.6709
  90   2.0000      -1.016853       -27.6700
  91   2.0000      -1.013699       -27.5842
  92   2.0000      -1.009088       -27.4587
  93   2.0000      -1.008696       -27.4480
  94   2.0000      -1.008293       -27.4371
  95   2.0000      -1.006949       -27.4005
  96   2.0000      -1.005266       -27.3547
  97   2.0000      -0.997253       -27.1366
  98   2.0000      -0.973758       -26.4973
  99   2.0000      -0.973364       -26.4866
 100   2.0000      -0.963648       -26.2222
 101   2.0000      -0.958136       -26.0722
 102   2.0000      -0.950464       -25.8634
 103   2.0000      -0.949441       -25.8356
 104   2.0000      -0.944460       -25.7001
 105   2.0000      -0.935492       -25.4560
 106   2.0000      -0.914688       -24.8899
 107   2.0000      -0.911258       -24.7966
 108   2.0000      -0.904725       -24.6188
 109   2.0000      -0.904662       -24.6171
 110   2.0000      -0.884842       -24.0778
 111   2.0000      -0.882471       -24.0133
 112   2.0000      -0.875226       -23.8161
 113   2.0000      -0.875141       -23.8138
 114   2.0000      -0.830582       -22.6013
 115   2.0000      -0.821412       -22.3518
 116   2.0000      -0.802213       -21.8293
 117   2.0000      -0.800926       -21.7943
 118   2.0000      -0.800535       -21.7837
 119   2.0000      -0.786312       -21.3966
 120   2.0000      -0.780080       -21.2270
 121   2.0000      -0.761644       -20.7254
 122   2.0000      -0.759873       -20.6772
 123   2.0000      -0.750274       -20.4160
 124   2.0000      -0.739189       -20.1144
 125   2.0000      -0.728990       -19.8368
 126   2.0000      -0.725166       -19.7328
 127   2.0000      -0.724535       -19.7156
 128   2.0000      -0.723638       -19.6912
 129   2.0000      -0.718251       -19.5446
 130   2.0000      -0.706183       -19.2162
 131   2.0000      -0.694309       -18.8931
 132   2.0000      -0.691752       -18.8235
 133   2.0000      -0.677623       -18.4390
 134   2.0000      -0.676929       -18.4202
 135   2.0000      -0.675336       -18.3768
 136   2.0000      -0.674404       -18.3515
 137   2.0000      -0.661316       -17.9953
 138   2.0000      -0.660614       -17.9762
 139   2.0000      -0.643445       -17.5090
 140   2.0000      -0.641922       -17.4676
 141   2.0000      -0.633976       -17.2514
 142   2.0000      -0.623268       -16.9600
 143   2.0000      -0.616888       -16.7864
 144   2.0000      -0.613384       -16.6910
 145   2.0000      -0.597950       -16.2710
 146   2.0000      -0.597903       -16.2698
 147   2.0000      -0.595323       -16.1996
 148   2.0000      -0.594793       -16.1851
 149   2.0000      -0.590293       -16.0627
 150   2.0000      -0.590120       -16.0580
 151   2.0000      -0.581929       -15.8351
 152   2.0000      -0.576694       -15.6926
 153   2.0000      -0.575840       -15.6694
 154   2.0000      -0.572014       -15.5653
 155   2.0000      -0.567783       -15.4502
 156   2.0000      -0.554860       -15.0985
 157   2.0000      -0.554788       -15.0966
 158   2.0000      -0.548554       -14.9269
 159   2.0000      -0.548530       -14.9263
 160   2.0000      -0.546792       -14.8790
 161   2.0000      -0.546697       -14.8764
 162   2.0000      -0.530146       -14.4260
 163   2.0000      -0.529691       -14.4136
 164   2.0000      -0.523109       -14.2345
 165   2.0000      -0.522679       -14.2228
 166   2.0000      -0.517176       -14.0731
 167   2.0000      -0.516969       -14.0674
 168   2.0000      -0.515524       -14.0281
 169   2.0000      -0.510566       -13.8932
 170   2.0000      -0.507981       -13.8229
 171   2.0000      -0.499148       -13.5825
 172   2.0000      -0.498972       -13.5777
 173   2.0000      -0.493444       -13.4273
 174   2.0000      -0.489291       -13.3143
 175   2.0000      -0.488330       -13.2881
 176   2.0000      -0.477047       -12.9811
 177   2.0000      -0.474319       -12.9069
 178   2.0000      -0.468290       -12.7428
 179   2.0000      -0.468184       -12.7399
 180   2.0000      -0.466355       -12.6902
 181   2.0000      -0.464145       -12.6300
 182   2.0000      -0.462581       -12.5875
 183   2.0000      -0.461696       -12.5634
 184   2.0000      -0.461652       -12.5622
 185   2.0000      -0.458688       -12.4815
 186   2.0000      -0.456583       -12.4242
 187   2.0000      -0.455540       -12.3959
 188   2.0000      -0.455248       -12.3879
 189   2.0000      -0.455213       -12.3870
 190   2.0000      -0.451438       -12.2843
 191   2.0000      -0.447250       -12.1703
 192   2.0000      -0.443115       -12.0578
 193   2.0000      -0.443008       -12.0549
 194   2.0000      -0.440460       -11.9855
 195   2.0000      -0.439677       -11.9642
 196   2.0000      -0.439549       -11.9607
 197   2.0000      -0.439308       -11.9542
 198   2.0000      -0.438661       -11.9366
 199   2.0000      -0.437374       -11.9016
 200   2.0000      -0.436996       -11.8913
 201   2.0000      -0.431605       -11.7446
 202   2.0000      -0.428595       -11.6627
 203   2.0000      -0.425327       -11.5737
 204   2.0000      -0.424995       -11.5647
 205   2.0000      -0.423601       -11.5268
 206   2.0000      -0.422442       -11.4952
 207   2.0000      -0.420377       -11.4391
 208   2.0000      -0.419612       -11.4182
 209   2.0000      -0.408608       -11.1188
 210   2.0000      -0.395444       -10.7606
 211   2.0000      -0.395293       -10.7565
 212   2.0000      -0.392808       -10.6889
 213   2.0000      -0.391780       -10.6609
 214   2.0000      -0.384837       -10.4719
 215   2.0000      -0.379887       -10.3372
 216   2.0000      -0.379199       -10.3185
 217   2.0000      -0.378949       -10.3117
 218   2.0000      -0.376972       -10.2579
 219   2.0000      -0.376464       -10.2441
 220   2.0000      -0.369961       -10.0671
 221   2.0000      -0.357504        -9.7282
 222   2.0000      -0.343183        -9.3385
 223   2.0000      -0.343029        -9.3343
 224   2.0000      -0.341970        -9.3055
 225   2.0000      -0.327719        -8.9177
 226   2.0000      -0.322104        -8.7649
 227   2.0000      -0.321864        -8.7584
 228   2.0000      -0.308427        -8.3927
 229   2.0000      -0.306264        -8.3339
 230   2.0000      -0.299063        -8.1379
 231   0.0000      -0.124333        -3.3833
 232   0.0000      -0.113361        -3.0847
 233   0.0000      -0.094622        -2.5748
 234   0.0000      -0.094589        -2.5739
 235   0.0000      -0.085695        -2.3319

MULLIKEN ATOMIC CHARGES
-----------------------
   0 C :   -0.031308
   1 C :    0.047390
   2 C :    0.050388
   3 C :   -0.027737
   4 C :    0.011872
   5 C :    0.015367
   6 C :    0.274650
   7 C :   -0.324348
   8 C :   -0.189702
   9 N :    0.169620
  10 C :   -0.189918
  11 N :    0.177548
  12 C :   -0.043352
  13 C :    0.264838
  14 C :   -0.298280
  15 C :   -0.153514
  16 N :    0.150256
  17 C :   -0.187773
  18 N :    0.164721
  19 C :    0.029729
  20 C :   -0.135258
  21 N :   -0.048969
  22 N :   -0.021849
  23 C :   -0.080614
  24 C :    0.093528
  25 C :    0.084040
  26 N :   -0.242501
  27 S :    0.559931
  28 N :   -0.211156
  29 C :   -0.077861
  30 N :   -0.025127
  31 N :   -0.023855
  32 C :   -0.078209
  33 C :    0.056710
  34 C :    0.055076
  35 N :   -0.223089
  36 S :    0.558745
  37 N :   -0.223610
  38 C :   -0.082993
  39 N :   -0.022523
  40 N :   -0.050215
  41 C :   -0.131666
  42 C :    0.087753
  43 C :    0.092396
  44 N :   -0.209113
  45 S :    0.560947
  46 N :   -0.247022
  47 C :    0.029924
  48 C :   -0.045380
  49 C :    0.271767
  50 C :   -0.322557
  51 C :   -0.190181
  52 N :    0.178461
  53 C :   -0.190130
  54 N :    0.169781
  55 C :    0.015190
  56 C :    0.010559
  57 C :   -0.027841
  58 C :    0.049563
  59 C :    0.049263
  60 C :   -0.029990
  61 C :    0.268088
  62 C :   -0.300084
  63 C :   -0.189966
  64 N :    0.167677
  65 C :   -0.152181
  66 N :    0.150834
  67 H :    0.009209
  68 H :    0.007767
  69 H :    0.009550
  70 H :    0.013341
  71 H :    0.043180
  72 H :    0.043376
  73 H :    0.012034
  74 H :    0.008988
  75 H :    0.007330
  76 H :    0.008486
Sum of atomic charges:   -0.0000000

LOEWDIN ATOMIC CHARGES
----------------------
   0 C :    0.006685
   1 C :    0.005342
   2 C :    0.009446
   3 C :    0.006279
   4 C :   -0.004854
   5 C :   -0.012958
   6 C :    0.076197
   7 C :   -0.118362
   8 C :   -0.018596
   9 N :   -0.035565
  10 C :   -0.024531
  11 N :   -0.029138
  12 C :   -0.008634
  13 C :    0.080466
  14 C :   -0.108506
  15 C :   -0.010838
  16 N :   -0.050721
  17 C :   -0.014856
  18 N :   -0.039878
  19 C :    0.055034
  20 C :   -0.015170
  21 N :   -0.040513
  22 N :   -0.028183
  23 C :    0.006771
  24 C :   -0.046422
  25 C :   -0.054489
  26 N :   -0.268982
  27 S :    0.701882
  28 N :   -0.245347
  29 C :   -0.003756
  30 N :   -0.026569
  31 N :   -0.026679
  32 C :   -0.003732
  33 C :   -0.053158
  34 C :   -0.053268
  35 N :   -0.257508
  36 S :    0.701278
  37 N :   -0.257543
  38 C :    0.006809
  39 N :   -0.028209
  40 N :   -0.040535
  41 C :   -0.014901
  42 C :   -0.054152
  43 C :   -0.046553
  44 N :   -0.245268
  45 S :    0.702072
  46 N :   -0.269396
  47 C :    0.054952
  48 C :   -0.008670
  49 C :    0.076160
  50 C :   -0.118333
  51 C :   -0.024647
  52 N :   -0.029011
  53 C :   -0.018633
  54 N :   -0.035525
  55 C :   -0.012862
  56 C :   -0.004837
  57 C :    0.006359
  58 C :    0.009481
  59 C :    0.005438
  60 C :    0.006737
  61 C :    0.080682
  62 C :   -0.108800
  63 C :   -0.014845
  64 N :   -0.039925
  65 C :   -0.010911
  66 N :   -0.050798
  67 H :    0.042461
  68 H :    0.039257
  69 H :    0.039617
  70 H :    0.043379
  71 H :    0.054199
  72 H :    0.054186
  73 H :    0.043237
  74 H :    0.039533
  75 H :    0.039223
  76 H :    0.042405

  Mayer bond orders larger than 0.100000
B(  0-C ,  1-C ) :   1.3789 B(  0-C ,  5-C ) :   1.3751 B(  0-C , 67-H ) :   0.9851
B(  1-C ,  2-C ) :   1.3686 B(  1-C , 68-H ) :   0.9861 B(  2-C ,  3-C ) :   1.3722
B(  2-C , 69-H ) :   0.9868 B(  3-C ,  4-C ) :   1.3770 B(  3-C , 70-H ) :   0.9865
B(  4-C ,  5-C ) :   1.3010 B(  4-C , 13-C ) :   1.0210 B(  5-C ,  6-C ) :   1.0151
B(  6-C ,  7-C ) :   1.6770 B(  6-C , 12-C ) :   1.0115 B(  7-C ,  8-C ) :   1.1406
B(  7-C , 10-C ) :   1.1313 B(  8-C ,  9-N ) :   2.9850 B( 10-C , 11-N ) :   2.9960
B( 12-C , 13-C ) :   0.9749 B( 12-C , 19-C ) :   1.7498 B( 13-C , 14-C ) :   1.6965
B( 14-C , 15-C ) :   1.1538 B( 14-C , 17-C ) :   1.1428 B( 15-C , 16-N ) :   2.9536
B( 17-C , 18-N ) :   2.9949 B( 19-C , 20-C ) :   1.0607 B( 19-C , 71-H ) :   0.9352
B( 20-C , 21-N ) :   1.6349 B( 20-C , 23-C ) :   0.1220 B( 20-C , 25-C ) :   1.1173
B( 21-N , 22-N ) :   1.2191 B( 22-N , 23-C ) :   1.7154 B( 23-C , 24-C ) :   1.1326
B( 23-C , 29-C ) :   1.0249 B( 24-C , 25-C ) :   1.2030 B( 24-C , 28-N ) :   1.5515
B( 25-C , 26-N ) :   1.5575 B( 26-N , 27-S ) :   1.2852 B( 26-N , 28-N ) :   0.1475
B( 27-S , 28-N ) :   1.3067 B( 29-C , 30-N ) :   1.7307 B( 29-C , 32-C ) :   0.1148
B( 29-C , 34-C ) :   1.1389 B( 30-N , 31-N ) :   1.2040 B( 31-N , 32-C ) :   1.7302
B( 32-C , 33-C ) :   1.1388 B( 32-C , 38-C ) :   1.0245 B( 33-C , 34-C ) :   1.2065
B( 33-C , 37-N ) :   1.5351 B( 34-C , 35-N ) :   1.5363 B( 35-N , 36-S ) :   1.2985
B( 35-N , 37-N ) :   0.1480 B( 36-S , 37-N ) :   1.2988 B( 38-C , 39-N ) :   1.7152
B( 38-C , 41-C ) :   0.1218 B( 38-C , 43-C ) :   1.1328 B( 39-N , 40-N ) :   1.2194
B( 40-N , 41-C ) :   1.6325 B( 41-C , 42-C ) :   1.1171 B( 41-C , 47-C ) :   1.0619
B( 42-C , 43-C ) :   1.2030 B( 42-C , 46-N ) :   1.5541 B( 43-C , 44-N ) :   1.5539
B( 44-N , 45-S ) :   1.3069 B( 44-N , 46-N ) :   0.1475 B( 45-S , 46-N ) :   1.2853
B( 47-C , 48-C ) :   1.7507 B( 47-C , 72-H ) :   0.9350 B( 48-C , 49-C ) :   1.0120
B( 48-C , 61-C ) :   0.9743 B( 49-C , 50-C ) :   1.6794 B( 49-C , 55-C ) :   1.0141
B( 50-C , 51-C ) :   1.1302 B( 50-C , 53-C ) :   1.1392 B( 51-C , 52-N ) :   2.9976
B( 53-C , 54-N ) :   2.9855 B( 55-C , 56-C ) :   1.3018 B( 55-C , 60-C ) :   1.3746
B( 56-C , 57-C ) :   1.3766 B( 56-C , 61-C ) :   1.0216 B( 57-C , 58-C ) :   1.3719
B( 57-C , 73-H ) :   0.9871 B( 58-C , 59-C ) :   1.3687 B( 58-C , 74-H ) :   0.9875
B( 59-C , 60-C ) :   1.3773 B( 59-C , 75-H ) :   0.9862 B( 60-C , 76-H ) :   0.9852
B( 61-C , 62-C ) :   1.6984 B( 62-C , 63-C ) :   1.1448 B( 62-C , 65-C ) :   1.1509
B( 63-C , 64-N ) :   2.9960 B( 65-C , 66-N ) :   2.9562

-----------------------------------------------------------------------------
         ABSORPTION SPECTRUM VIA TRANSITION ELECTRIC DIPOLE MOMENTS
-----------------------------------------------------------------------------
State   Energy  Wavelength   fosc         T2         TX        TY        TZ
        (cm-1)    (nm)                  (au**2)     (au)      (au)      (au)
-----------------------------------------------------------------------------
   0   16678.5    599.6   0.067607954   1.33449  -0.29512   1.05553   0.36505
   1   16973.5    589.2   0.003895959   0.07556   0.07436  -0.06792   0.25578
   2   17678.2    565.7   0.033652184   0.62669   0.20180  -0.72300  -0.25148
   3   23136.8    432.2   0.513757006   7.31020   0.68890  -2.47212  -0.85103
   4   23524.5    425.1   0.019585159   0.27408   0.12828  -0.09762   0.49810
   5   24486.9    408.4   0.015311871   0.20586  -0.37719  -0.03228  -0.25009
   6   25428.1    393.3   0.116577567   1.50931  -0.31192   1.12350   0.38700
   7   25844.3    386.9   0.006038659   0.07692   0.12296   0.10653  -0.22462
   8   26658.2    375.1   0.035517774   0.43862  -0.16458   0.60813   0.20424
   9   27325.7    366.0   0.109966001   1.32484   0.12538   0.38766  -1.07649
  10   27360.6    365.5   0.000435426   0.00524  -0.01033   0.06544  -0.02916
  11   27830.9    359.3   0.640366946   7.57489  -0.69738   2.51756   0.86629
  12   28209.6    354.5   0.029719427   0.34683  -0.47390  -0.20581   0.28265
  13   29264.8    341.7   0.000012720   0.00014   0.00580  -0.00550  -0.00890
  14   29572.7    338.1   0.058482979   0.65105   0.56386   0.32005  -0.48030
  15   30207.0    331.0   0.021199655   0.23105  -0.12770   0.43766   0.15229
  16   30349.6    329.5   0.002281577   0.02475  -0.14875  -0.00261  -0.05114
  17   30672.1    326.0   0.084795290   0.91013  -0.72204  -0.39234   0.48463
  18   31248.0    320.0   0.046868678   0.49378  -0.18037   0.63936   0.22907
  19   31547.9    317.0   0.284157428   2.96527  -0.43907   1.57129   0.55094
  20   31687.3    315.6   0.164353526   1.70754   0.33011  -1.19121  -0.42378
  21   31751.4    314.9   0.029063293   0.30134   0.27575  -0.12407   0.45816
  22   32470.5    308.0   0.001216238   0.01233  -0.04181  -0.04533   0.09235
  23   32767.2    305.2   0.019455607   0.19547  -0.11046   0.40382   0.14211
  24   33166.5    301.5   0.065160867   0.64679  -0.20477   0.73311   0.25964
  25   33602.1    297.6   0.023017534   0.22551   0.05436   0.15388  -0.44596
  26   33682.5    296.9   0.095985345   0.93816  -0.16975   0.22856  -0.92580
  27   33845.0    295.5   0.552024023   5.36957  -0.59874   2.12046   0.71745
  28   34004.4    294.1   0.022327661   0.21616  -0.12449   0.41605   0.16605
  29   34107.5    293.2   0.134097083   1.29433  -0.38350  -0.47090   0.96203
  30   34613.1    288.9   0.012401902   0.11796  -0.32610  -0.07558  -0.07685
  31   34680.8    288.3   0.053583644   0.50865  -0.17859   0.65603   0.21536
  32   34722.6    288.0   0.022578158   0.21407   0.26059   0.17349  -0.34068
  33   34820.0    287.2   0.000073384   0.00069  -0.01748   0.01047   0.01669
  34   34968.7    286.0   0.011008268   0.10364   0.20678   0.13890  -0.20392
  35   35283.1    283.4   0.018333905   0.17107   0.12624  -0.36832  -0.13955
  36   35301.3    283.3   0.003099103   0.02890  -0.12640  -0.11270   0.01498
  37   35563.3    281.2   0.022747145   0.21057  -0.12254   0.41790   0.14464
  38   35928.1    278.3   0.044626209   0.40891   0.60405   0.11611   0.17480
  39   36398.5    274.7   0.067192664   0.60773   0.18721  -0.71531  -0.24701
  40   36733.1    272.2   1.066308728   9.55655   2.43704   1.18921  -1.48431
  41   37004.3    270.2   0.000830060   0.00738  -0.05610  -0.03130   0.05708
  42   37136.5    269.3   0.001533590   0.01360  -0.01947   0.11155   0.02780
  43   37178.9    269.0   0.009807780   0.08685   0.19241   0.11975  -0.18838
  44   37381.6    267.5   0.000979229   0.00862   0.01756  -0.08786  -0.02441
  45   37479.4    266.8   0.010441488   0.09172   0.28413   0.09662  -0.04061
  46   37780.8    264.7   0.047936892   0.41771  -0.16147   0.58503   0.22222
  47   37869.7    264.1   0.071749504   0.62374  -0.01765  -0.27674   0.73949
  48   38022.7    263.0   0.000575627   0.00498  -0.00145   0.06142   0.03477
  49   38232.6    261.6   0.317912665   2.73747   1.47884   0.57122  -0.47351
  50   38755.1    258.0   0.073070126   0.62071  -0.63645  -0.21108   0.41362
  51   38760.6    258.0   0.020877782   0.17732   0.06530   0.41576   0.01438
  52   38880.1    257.2   0.000240455   0.00204   0.02001  -0.03925  -0.00977
  53   39350.5    254.1   0.033232387   0.27803   0.50700   0.14485   0.00034
  54   39620.5    252.4   0.001734960   0.01442   0.03637  -0.10720  -0.04002
  55   39728.1    251.7   0.002958823   0.02452   0.04125  -0.14073  -0.05488
  56   39975.3    250.2   0.031819377   0.26204  -0.17491  -0.19598   0.43937
  57   40151.5    249.1   0.010101613   0.08283   0.03725  -0.24147  -0.15209
  58   40160.5    249.0   0.009395341   0.07702  -0.14503   0.12021  -0.20380

FINAL SINGLE POINT ENERGY     -3968.055438992803

DIPOLE MOMENT
-------------
                                X             Y             Z
Electronic contribution:     22.92049      11.05397     -13.53225
Nuclear contribution   :    -24.88794     -11.75844      13.98597
                        -----------------------------------------
Total Dipole Moment    :     -1.96744      -0.70448       0.45372
                        -----------------------------------------
Magnitude (a.u.)       :      2.13845
Magnitude (Debye)      :      5.43551

Rotational constants in cm-1:     0.002621     0.000408     0.000363
Rotational constants in MHz :    78.578387    12.239240    10.875051

                             ****ORCA TERMINATED NORMALLY****
TOTAL RUN TIME: 0 days 0 hours 7 minutes 24 seconds 561 msec
