                         Program Version 4.2.0 -  RELEASE  -
|  1> # ORCA input file
|  2> # SCF done       -173.993282978270          0.000614779689
|  3> ! CAM-B3LYP def2-SVP def2/J RIJCOSX Grid4 TightSCF
|  4> %maxcore 5000
|  5> %tddft
|  6>     Mode sTDDFT
|  7>     Ethresh 5.0
|  8>     maxcore 5000
|  9> end
| 10>
| 11> %pal
| 12>   nprocs 6
| 13>   end
| 14> * xyz 0 1
| 15>    C        5.23491         8.59433        11.24646
| 16>    C        5.68970         7.65579        10.37500
| 17>    C        5.33248         7.96597         9.04684
| 18>    C        4.59888         9.16212         8.95626
| 19>    S        4.35624         9.88750        10.48499
| 20>    C        4.28509         9.40252         7.59864
| 21>    C        4.82116         8.35600         6.82582
| 22>    C        5.49831         7.41891         7.72338
| 23>    C        6.15183         6.27037         7.37166
| 24>    C        6.26501         5.82359         6.04031
| 25>    N        6.38273         5.43145         4.96809
| 26>    C        6.77425         5.43887         8.32390
| 27>    N        7.28570         4.74719         9.08374
| 28>    C        4.57765         8.48925         5.46762
| 29>    C        3.85083         9.64394         5.17189
| 30>    S        3.47292        10.55941         6.63457
| 31>    C        3.41215        10.16083         3.94555
| 32>    C        3.59598         9.64108         2.68511
| 33>    C        3.14432        10.24457         1.48531
| 34>    C        3.46057         9.55548         0.35233
| 35>    C        4.17489         8.36397         0.59223
| 36>    S        4.43103         8.14636         2.30993
| 37>    C        4.65788         7.44125        -0.31808
| 38>    C        4.58933         7.47489        -1.72871
| 39>    C        5.19606         6.41475        -2.32993
| 40>    C        5.77235         5.48118        -1.42905
| 41>    S        5.50311         6.00822         0.22120
| 42>    C        6.45880         4.34516        -1.77336
| 43>    C        7.03265         3.40122        -0.90052
| 44>    C        7.79065         2.30976        -1.27951
| 45>    C        8.24380         1.53700        -0.19617
| 46>    C        7.80449         2.05300         1.03830
| 47>    S        6.85237         3.49025         0.84523
| 48>    C        8.09738         1.48573         2.27070
| 49>    O        7.54141         2.13892         3.31946
| 50>    C        7.97690         1.96941         4.64615
| 51>    C        8.88687         0.32062         2.24925
| 52>    C        9.36381        -0.19081         0.99687
| 53>    C        9.06214         0.38142        -0.22540
| 54>    O        9.43853         0.00089        -1.47519
| 55>    C       10.26962        -1.11594        -1.67482
| 56>    S       10.33690        -1.63069         1.26484
| 57>    C       10.07755        -1.56523         2.99161
| 58>    C        9.30344        -0.49045         3.33123
| 59>    C       10.59711        -2.52601         3.90594
| 60>    C       11.50074        -3.56588         3.72646
| 61>    C       12.20737        -3.89675         2.44925
| 62>    C       13.40995        -2.97602         2.23386
| 63>    C       11.74271        -4.26795         4.91060
| 64>    C       11.03906        -3.81074         6.00838
| 65>    S       10.04954        -2.45292         5.55957
| 66>    C       11.00979        -4.27299         7.34605
| 67>    C       11.76828        -5.28725         7.83849
| 68>    C       11.67491        -5.71048         9.18754
| 69>    C       10.83711        -5.26610        10.20136
| 70>    C       11.12263        -6.02294        11.38539
| 71>    C       12.18161        -6.95936        11.07333
| 72>    O       12.76028        -7.79565        11.73226
| 73>    N       12.46445        -6.71091         9.71665
| 74>    C       13.48058        -7.44736         9.01750
| 75>    C       10.28475        -5.58733        12.37229
| 76>    N        9.49146        -4.60090        11.87297
| 77>    C        9.78073        -4.34217        10.51419
| 78>    O        9.19492        -3.49687         9.86015
| 79>    C        8.47826        -3.88378        12.59523
| 80>    H        5.35585         8.62040        12.31079
| 81>    H        6.25147         6.78867        10.67118
| 82>    H        4.90648         7.79288         4.71937
| 83>    H        2.86631        11.09470         3.99610
| 84>    H        2.60283        11.17415         1.49915
| 85>    H        3.19860         9.87157        -0.64144
| 86>    H        4.10569         8.27691        -2.25717
| 87>    H        5.25178         6.26903        -3.39448
| 88>    H        6.58549         4.15031        -2.83087
| 89>    H        8.02145         2.07591        -2.30255
| 90>    H        7.58466         2.83469         5.18136
| 91>    H        9.06744         1.96439         4.71921
| 92>    H        7.56431         1.05962         5.09309
| 93>    H        9.79611        -2.04115        -1.33573
| 94>    H       11.23680        -0.99739        -1.17910
| 95>    H       10.42390        -1.16788        -2.75216
| 96>    H        9.04359        -0.31299         4.35709
| 97>    H       11.52389        -3.80833         1.60343
| 98>    H       12.55114        -4.93178         2.49824
| 99>    H       13.08980        -1.93944         2.16701
|100>    H       13.92441        -3.23911         1.31316
|101>    H       14.10885        -3.06733         3.06243
|102>    H       12.41734        -5.10437         4.95769
|103>    H       10.32191        -3.76733         8.01107
|104>    H       12.47260        -5.80103         7.20090
|105>    H       13.91469        -8.14209         9.73726
|106>    H       14.26262        -6.78228         8.64446
|107>    H       13.05569        -8.01368         8.18553
|108>    H       10.19231        -5.90686        13.39373
|109>    H        7.71055        -4.56435        12.96884
|110>    H        8.02711        -3.17753        11.89790
|111>    H        8.91092        -3.33557        13.43465
|112> *
|113>
|114>                          ****END OF INPUT****

CARTESIAN COORDINATES (ANGSTROEM)
---------------------------------
  C      5.234910    8.594330   11.246460
  C      5.689700    7.655790   10.375000
  C      5.332480    7.965970    9.046840
  C      4.598880    9.162120    8.956260
  S      4.356240    9.887500   10.484990
  C      4.285090    9.402520    7.598640
  C      4.821160    8.356000    6.825820
  C      5.498310    7.418910    7.723380
  C      6.151830    6.270370    7.371660
  C      6.265010    5.823590    6.040310
  N      6.382730    5.431450    4.968090
  C      6.774250    5.438870    8.323900
  N      7.285700    4.747190    9.083740
  C      4.577650    8.489250    5.467620
  C      3.850830    9.643940    5.171890
  S      3.472920   10.559410    6.634570
  C      3.412150   10.160830    3.945550
  C      3.595980    9.641080    2.685110
  C      3.144320   10.244570    1.485310
  C      3.460570    9.555480    0.352330
  C      4.174890    8.363970    0.592230
  S      4.431030    8.146360    2.309930
  C      4.657880    7.441250   -0.318080
  C      4.589330    7.474890   -1.728710
  C      5.196060    6.414750   -2.329930
  C      5.772350    5.481180   -1.429050
  S      5.503110    6.008220    0.221200
  C      6.458800    4.345160   -1.773360
  C      7.032650    3.401220   -0.900520
  C      7.790650    2.309760   -1.279510
  C      8.243800    1.537000   -0.196170
  C      7.804490    2.053000    1.038300
  S      6.852370    3.490250    0.845230
  C      8.097380    1.485730    2.270700
  O      7.541410    2.138920    3.319460
  C      7.976900    1.969410    4.646150
  C      8.886870    0.320620    2.249250
  C      9.363810   -0.190810    0.996870
  C      9.062140    0.381420   -0.225400
  O      9.438530    0.000890   -1.475190
  C     10.269620   -1.115940   -1.674820
  S     10.336900   -1.630690    1.264840
  C     10.077550   -1.565230    2.991610
  C      9.303440   -0.490450    3.331230
  C     10.597110   -2.526010    3.905940
  C     11.500740   -3.565880    3.726460
  C     12.207370   -3.896750    2.449250
  C     13.409950   -2.976020    2.233860
  C     11.742710   -4.267950    4.910600
  C     11.039060   -3.810740    6.008380
  S     10.049540   -2.452920    5.559570
  C     11.009790   -4.272990    7.346050
  C     11.768280   -5.287250    7.838490
  C     11.674910   -5.710480    9.187540
  C     10.837110   -5.266100   10.201360
  C     11.122630   -6.022940   11.385390
  C     12.181610   -6.959360   11.073330
  O     12.760280   -7.795650   11.732260
  N     12.464450   -6.710910    9.716650
  C     13.480580   -7.447360    9.017500
  C     10.284750   -5.587330   12.372290
  N      9.491460   -4.600900   11.872970
  C      9.780730   -4.342170   10.514190
  O      9.194920   -3.496870    9.860150
  C      8.478260   -3.883780   12.595230
  H      5.355850    8.620400   12.310790
  H      6.251470    6.788670   10.671180
  H      4.906480    7.792880    4.719370
  H      2.866310   11.094700    3.996100
  H      2.602830   11.174150    1.499150
  H      3.198600    9.871570   -0.641440
  H      4.105690    8.276910   -2.257170
  H      5.251780    6.269030   -3.394480
  H      6.585490    4.150310   -2.830870
  H      8.021450    2.075910   -2.302550
  H      7.584660    2.834690    5.181360
  H      9.067440    1.964390    4.719210
  H      7.564310    1.059620    5.093090
  H      9.796110   -2.041150   -1.335730
  H     11.236800   -0.997390   -1.179100
  H     10.423900   -1.167880   -2.752160
  H      9.043590   -0.312990    4.357090
  H     11.523890   -3.808330    1.603430
  H     12.551140   -4.931780    2.498240
  H     13.089800   -1.939440    2.167010
  H     13.924410   -3.239110    1.313160
  H     14.108850   -3.067330    3.062430
  H     12.417340   -5.104370    4.957690
  H     10.321910   -3.767330    8.011070
  H     12.472600   -5.801030    7.200900
  H     13.914690   -8.142090    9.737260
  H     14.262620   -6.782280    8.644460
  H     13.055690   -8.013680    8.185530
  H     10.192310   -5.906860   13.393730
  H      7.710550   -4.564350   12.968840
  H      8.027110   -3.177530   11.897900
  H      8.910920   -3.335570   13.434650

 Total Charge           Charge          ....    0
 Multiplicity           Mult            ....    1
 Number of Electrons    NEL             ....  504
 Basis Dimension        Dim             .... 1098

ORBITAL ENERGIES
----------------

  NO   OCC          E(Eh)            E(eV)
   0   2.0000     -88.976006     -2421.1602
   1   2.0000     -88.972420     -2421.0626
   2   2.0000     -88.951688     -2420.4985
   3   2.0000     -88.946719     -2420.3633
   4   2.0000     -88.942409     -2420.2460
   5   2.0000     -88.939267     -2420.1605
   6   2.0000     -88.934357     -2420.0269
   7   2.0000     -19.242246      -523.6081
   8   2.0000     -19.234873      -523.4075
   9   2.0000     -19.175363      -521.7882
  10   2.0000     -19.174839      -521.7739
  11   2.0000     -14.442649      -393.0045
  12   2.0000     -14.441876      -392.9834
  13   2.0000     -14.420056      -392.3897
  14   2.0000     -14.419977      -392.3875
  15   2.0000     -10.361755      -281.9577
  16   2.0000     -10.357428      -281.8400
  17   2.0000     -10.351422      -281.6765
  18   2.0000     -10.339683      -281.3571
  19   2.0000     -10.330146      -281.0976
  20   2.0000     -10.329463      -281.0790
  21   2.0000     -10.326366      -280.9947
  22   2.0000     -10.320862      -280.8449
  23   2.0000     -10.320602      -280.8378
  24   2.0000     -10.319619      -280.8111
  25   2.0000     -10.319542      -280.8090
  26   2.0000     -10.314947      -280.6840
  27   2.0000     -10.312247      -280.6105
  28   2.0000     -10.310754      -280.5699
  29   2.0000     -10.310098      -280.5520
  30   2.0000     -10.307458      -280.4802
  31   2.0000     -10.306523      -280.4547
  32   2.0000     -10.305284      -280.4210
  33   2.0000     -10.303782      -280.3802
  34   2.0000     -10.303708      -280.3781
  35   2.0000     -10.301905      -280.3291
  36   2.0000     -10.299698      -280.2690
  37   2.0000     -10.298054      -280.2243
  38   2.0000     -10.297470      -280.2084
  39   2.0000     -10.296569      -280.1839
  40   2.0000     -10.295894      -280.1655
  41   2.0000     -10.292307      -280.0679
  42   2.0000     -10.289427      -279.9895
  43   2.0000     -10.287826      -279.9460
  44   2.0000     -10.286809      -279.9183
  45   2.0000     -10.285350      -279.8786
  46   2.0000     -10.283850      -279.8378
  47   2.0000     -10.283618      -279.8315
  48   2.0000     -10.283308      -279.8231
  49   2.0000     -10.282624      -279.8044
  50   2.0000     -10.282198      -279.7928
  51   2.0000     -10.282100      -279.7902
  52   2.0000     -10.281072      -279.7622
  53   2.0000     -10.281019      -279.7607
  54   2.0000     -10.279924      -279.7309
  55   2.0000     -10.279004      -279.7059
  56   2.0000     -10.277935      -279.6768
  57   2.0000     -10.274107      -279.5727
  58   2.0000     -10.271795      -279.5097
  59   2.0000     -10.270480      -279.4740
  60   2.0000     -10.268067      -279.4083
  61   2.0000     -10.263516      -279.2845
  62   2.0000     -10.254829      -279.0481
  63   2.0000     -10.247418      -278.8464
  64   2.0000     -10.244022      -278.7540
  65   2.0000      -8.071006      -219.6232
  66   2.0000      -8.067119      -219.5175
  67   2.0000      -8.047196      -218.9753
  68   2.0000      -8.041169      -218.8113
  69   2.0000      -8.038151      -218.7292
  70   2.0000      -8.035423      -218.6550
  71   2.0000      -8.029291      -218.4881
  72   2.0000      -6.040296      -164.3648
  73   2.0000      -6.036375      -164.2581
  74   2.0000      -6.035881      -164.2447
  75   2.0000      -6.033528      -164.1806
  76   2.0000      -6.032339      -164.1483
  77   2.0000      -6.029368      -164.0674
  78   2.0000      -6.016436      -163.7156
  79   2.0000      -6.012382      -163.6052
  80   2.0000      -6.011178      -163.5725
  81   2.0000      -6.009292      -163.5211
  82   2.0000      -6.007915      -163.4837
  83   2.0000      -6.006776      -163.4527
  84   2.0000      -6.005239      -163.4108
  85   2.0000      -6.003787      -163.3713
  86   2.0000      -6.002176      -163.3275
  87   2.0000      -6.001011      -163.2958
  88   2.0000      -5.999155      -163.2453
  89   2.0000      -5.998939      -163.2394
  90   2.0000      -5.996255      -163.1664
  91   2.0000      -5.994737      -163.1251
  92   2.0000      -5.990662      -163.0142
  93   2.0000      -1.146059       -31.1859
  94   2.0000      -1.139289       -31.0016
  95   2.0000      -1.118493       -30.4357
  96   2.0000      -1.111237       -30.2383
  97   2.0000      -1.048858       -28.5409
  98   2.0000      -1.039955       -28.2986
  99   2.0000      -1.029242       -28.0071
 100   2.0000      -1.010636       -27.5008
 101   2.0000      -0.997196       -27.1351
 102   2.0000      -0.993551       -27.0359
 103   2.0000      -0.992158       -26.9980
 104   2.0000      -0.981242       -26.7009
 105   2.0000      -0.978650       -26.6304
 106   2.0000      -0.969457       -26.3803
 107   2.0000      -0.960903       -26.1475
 108   2.0000      -0.943699       -25.6794
 109   2.0000      -0.912217       -24.8227
 110   2.0000      -0.906985       -24.6803
 111   2.0000      -0.902447       -24.5568
 112   2.0000      -0.897038       -24.4096
 113   2.0000      -0.879101       -23.9215
 114   2.0000      -0.876271       -23.8445
 115   2.0000      -0.865248       -23.5446
 116   2.0000      -0.861247       -23.4357
 117   2.0000      -0.850769       -23.1506
 118   2.0000      -0.843370       -22.9493
 119   2.0000      -0.841072       -22.8867
 120   2.0000      -0.838630       -22.8203
 121   2.0000      -0.832781       -22.6611
 122   2.0000      -0.827268       -22.5111
 123   2.0000      -0.818240       -22.2654
 124   2.0000      -0.810568       -22.0567
 125   2.0000      -0.807867       -21.9832
 126   2.0000      -0.800750       -21.7895
 127   2.0000      -0.794512       -21.6198
 128   2.0000      -0.786481       -21.4012
 129   2.0000      -0.781212       -21.2579
 130   2.0000      -0.765764       -20.8375
 131   2.0000      -0.763629       -20.7794
 132   2.0000      -0.754135       -20.5211
 133   2.0000      -0.750010       -20.4088
 134   2.0000      -0.736245       -20.0343
 135   2.0000      -0.730856       -19.8876
 136   2.0000      -0.710431       -19.3318
 137   2.0000      -0.702314       -19.1109
 138   2.0000      -0.691501       -18.8167
 139   2.0000      -0.690340       -18.7851
 140   2.0000      -0.677275       -18.4296
 141   2.0000      -0.672764       -18.3068
 142   2.0000      -0.669321       -18.2132
 143   2.0000      -0.662842       -18.0368
 144   2.0000      -0.659173       -17.9370
 145   2.0000      -0.658991       -17.9321
 146   2.0000      -0.650206       -17.6930
 147   2.0000      -0.645898       -17.5758
 148   2.0000      -0.631420       -17.1818
 149   2.0000      -0.622368       -16.9355
 150   2.0000      -0.620039       -16.8721
 151   2.0000      -0.617325       -16.7983
 152   2.0000      -0.615107       -16.7379
 153   2.0000      -0.612320       -16.6621
 154   2.0000      -0.602037       -16.3823
 155   2.0000      -0.600264       -16.3340
 156   2.0000      -0.595206       -16.1964
 157   2.0000      -0.590905       -16.0793
 158   2.0000      -0.583568       -15.8797
 159   2.0000      -0.579122       -15.7587
 160   2.0000      -0.578020       -15.7287
 161   2.0000      -0.575082       -15.6488
 162   2.0000      -0.564725       -15.3670
 163   2.0000      -0.559614       -15.2279
 164   2.0000      -0.558608       -15.2005
 165   2.0000      -0.553960       -15.0740
 166   2.0000      -0.552353       -15.0303
 167   2.0000      -0.548276       -14.9193
 168   2.0000      -0.543643       -14.7933
 169   2.0000      -0.542500       -14.7622
 170   2.0000      -0.541269       -14.7287
 171   2.0000      -0.540007       -14.6943
 172   2.0000      -0.532318       -14.4851
 173   2.0000      -0.528833       -14.3903
 174   2.0000      -0.524544       -14.2736
 175   2.0000      -0.520233       -14.1563
 176   2.0000      -0.516713       -14.0605
 177   2.0000      -0.514359       -13.9964
 178   2.0000      -0.507582       -13.8120
 179   2.0000      -0.505887       -13.7659
 180   2.0000      -0.504171       -13.7192
 181   2.0000      -0.498182       -13.5562
 182   2.0000      -0.496241       -13.5034
 183   2.0000      -0.495151       -13.4738
 184   2.0000      -0.492880       -13.4119
 185   2.0000      -0.491850       -13.3839
 186   2.0000      -0.490458       -13.3460
 187   2.0000      -0.489311       -13.3148
 188   2.0000      -0.488943       -13.3048
 189   2.0000      -0.483808       -13.1651
 190   2.0000      -0.483037       -13.1441
 191   2.0000      -0.481667       -13.1068
 192   2.0000      -0.478280       -13.0147
 193   2.0000      -0.475328       -12.9343
 194   2.0000      -0.472933       -12.8692
 195   2.0000      -0.471295       -12.8246
 196   2.0000      -0.465940       -12.6789
 197   2.0000      -0.461690       -12.5632
 198   2.0000      -0.461004       -12.5446
 199   2.0000      -0.459441       -12.5020
 200   2.0000      -0.458751       -12.4833
 201   2.0000      -0.456987       -12.4353
 202   2.0000      -0.455162       -12.3856
 203   2.0000      -0.453479       -12.3398
 204   2.0000      -0.452150       -12.3036
 205   2.0000      -0.451193       -12.2776
 206   2.0000      -0.449984       -12.2447
 207   2.0000      -0.447493       -12.1769
 208   2.0000      -0.446426       -12.1479
 209   2.0000      -0.444632       -12.0990
 210   2.0000      -0.439489       -11.9591
 211   2.0000      -0.436632       -11.8814
 212   2.0000      -0.433098       -11.7852
 213   2.0000      -0.430021       -11.7015
 214   2.0000      -0.428085       -11.6488
 215   2.0000      -0.427426       -11.6308
 216   2.0000      -0.426948       -11.6178
 217   2.0000      -0.426496       -11.6056
 218   2.0000      -0.424046       -11.5389
 219   2.0000      -0.422640       -11.5006
 220   2.0000      -0.417763       -11.3679
 221   2.0000      -0.415195       -11.2980
 222   2.0000      -0.413664       -11.2564
 223   2.0000      -0.410150       -11.1608
 224   2.0000      -0.407938       -11.1005
 225   2.0000      -0.404838       -11.0162
 226   2.0000      -0.401802       -10.9336
 227   2.0000      -0.393194       -10.6993
 228   2.0000      -0.392441       -10.6789
 229   2.0000      -0.388772       -10.5790
 230   2.0000      -0.385884       -10.5004
 231   2.0000      -0.373119       -10.1531
 232   2.0000      -0.370731       -10.0881
 233   2.0000      -0.364395        -9.9157
 234   2.0000      -0.342742        -9.3265
 235   2.0000      -0.335516        -9.1298
 236   2.0000      -0.333870        -9.0851
 237   2.0000      -0.333091        -9.0639
 238   2.0000      -0.331340        -9.0162
 239   2.0000      -0.327501        -8.9117
 240   2.0000      -0.321333        -8.7439
 241   2.0000      -0.317668        -8.6442
 242   2.0000      -0.314937        -8.5699
 243   2.0000      -0.310148        -8.4396
 244   2.0000      -0.307198        -8.3593
 245   2.0000      -0.301553        -8.2057
 246   2.0000      -0.295314        -8.0359
 247   2.0000      -0.269817        -7.3421
 248   2.0000      -0.259027        -7.0485
 249   2.0000      -0.235563        -6.4100
 250   2.0000      -0.223855        -6.0914
 251   2.0000      -0.197838        -5.3834
 252   0.0000      -0.094571        -2.5734
 253   0.0000      -0.075076        -2.0429
 254   0.0000      -0.063139        -1.7181
 255   0.0000      -0.018956        -0.5158
 256   0.0000      -0.002243        -0.0610

MULLIKEN ATOMIC CHARGES
-----------------------
   0 C :   -0.087955
   1 C :    0.041836
   2 C :   -0.047130
   3 C :   -0.111377
   4 S :    0.169963
   5 C :   -0.109113
   6 C :   -0.002470
   7 C :    0.313675
   8 C :   -0.310795
   9 C :   -0.168067
  10 N :    0.162865
  11 C :   -0.204628
  12 N :    0.172656
  13 C :   -0.045278
  14 C :   -0.090881
  15 S :    0.166400
  16 C :    0.021145
  17 C :   -0.026120
  18 C :    0.028824
  19 C :    0.030181
  20 C :   -0.042592
  21 S :    0.062867
  22 C :   -0.024365
  23 C :    0.025713
  24 C :    0.037936
  25 C :   -0.034104
  26 S :    0.082071
  27 C :   -0.000463
  28 C :   -0.023651
  29 C :   -0.068977
  30 C :    0.087995
  31 C :   -0.108665
  32 S :    0.129091
  33 C :    0.127209
  34 O :   -0.304574
  35 C :    0.183643
  36 C :    0.075033
  37 C :   -0.124218
  38 C :    0.107133
  39 O :   -0.310680
  40 C :    0.174237
  41 S :    0.045225
  42 C :   -0.001446
  43 C :   -0.109767
  44 C :   -0.092281
  45 C :   -0.048521
  46 C :    0.061320
  47 C :    0.027514
  48 C :   -0.033781
  49 C :   -0.060532
  50 S :    0.137622
  51 C :    0.087047
  52 C :   -0.044703
  53 C :    0.167775
  54 C :   -0.119704
  55 C :   -0.004167
  56 C :    0.162697
  57 O :   -0.188333
  58 N :   -0.284650
  59 C :    0.120831
  60 C :    0.039931
  61 N :   -0.265634
  62 C :    0.174885
  63 O :   -0.220411
  64 C :    0.121101
  65 H :    0.032111
  66 H :    0.008928
  67 H :    0.022802
  68 H :   -0.022813
  69 H :   -0.016156
  70 H :   -0.015402
  71 H :   -0.015502
  72 H :   -0.011410
  73 H :   -0.011940
  74 H :   -0.023429
  75 H :    0.039092
  76 H :    0.026791
  77 H :    0.032115
  78 H :    0.033733
  79 H :    0.032964
  80 H :    0.035665
  81 H :   -0.021896
  82 H :    0.021242
  83 H :   -0.002497
  84 H :    0.020526
  85 H :    0.013289
  86 H :    0.009528
  87 H :   -0.027569
  88 H :    0.009069
  89 H :   -0.038309
  90 H :    0.057648
  91 H :    0.029891
  92 H :    0.030293
  93 H :    0.009079
  94 H :    0.028503
  95 H :    0.057551
  96 H :    0.029714
Sum of atomic charges:   -0.0000000

LOEWDIN ATOMIC CHARGES
----------------------
   0 C :   -0.184601
   1 C :   -0.034146
   2 C :   -0.087205
   3 C :   -0.173513
   4 S :    0.465582
   5 C :   -0.199075
   6 C :   -0.063055
   7 C :    0.086784
   8 C :   -0.110117
   9 C :   -0.017213
  10 N :   -0.033252
  11 C :   -0.017150
  12 N :   -0.040924
  13 C :   -0.046742
  14 C :   -0.156673
  15 S :    0.458791
  16 C :   -0.094010
  17 C :   -0.140895
  18 C :   -0.039510
  19 C :   -0.032659
  20 C :   -0.186627
  21 S :    0.393959
  22 C :   -0.169462
  23 C :   -0.040326
  24 C :   -0.025259
  25 C :   -0.157267
  26 S :    0.384367
  27 C :   -0.057545
  28 C :   -0.161601
  29 C :   -0.041676
  30 C :   -0.061688
  31 C :   -0.173091
  32 S :    0.422455
  33 C :    0.025603
  34 O :   -0.099980
  35 C :    0.080306
  36 C :   -0.072186
  37 C :   -0.187236
  38 C :    0.025467
  39 O :   -0.104559
  40 C :    0.063599
  41 S :    0.408667
  42 C :   -0.177692
  43 C :   -0.060945
  44 C :   -0.175549
  45 C :   -0.051945
  46 C :   -0.036852
  47 C :   -0.051183
  48 C :   -0.042367
  49 C :   -0.177235
  50 S :    0.457854
  51 C :    0.022952
  52 C :   -0.062334
  53 C :    0.087649
  54 C :   -0.139523
  55 C :   -0.125995
  56 C :    0.081738
  57 O :   -0.194701
  58 N :   -0.018395
  59 C :    0.026306
  60 C :    0.080345
  61 N :   -0.007251
  62 C :    0.073548
  63 O :   -0.214406
  64 C :    0.029453
  65 H :    0.025394
  66 H :    0.041362
  67 H :    0.025155
  68 H :    0.031045
  69 H :    0.031727
  70 H :    0.031500
  71 H :    0.031046
  72 H :    0.033445
  73 H :    0.039474
  74 H :    0.029764
  75 H :    0.030873
  76 H :    0.017438
  77 H :    0.015255
  78 H :    0.011536
  79 H :    0.011412
  80 H :    0.029579
  81 H :    0.020708
  82 H :    0.016557
  83 H :    0.029200
  84 H :    0.019265
  85 H :    0.023271
  86 H :    0.023779
  87 H :    0.026260
  88 H :    0.037494
  89 H :    0.025590
  90 H :    0.041223
  91 H :    0.024500
  92 H :    0.024183
  93 H :    0.030677
  94 H :    0.025475
  95 H :    0.040367
  96 H :    0.025638

  Mayer bond orders larger than 0.100000
B(  0-C ,  1-C ) :   1.5601 B(  0-C ,  4-S ) :   1.1330 B(  0-C , 65-H ) :   0.9643
B(  1-C ,  2-C ) :   1.2668 B(  1-C , 66-H ) :   0.9947 B(  2-C ,  3-C ) :   1.4389
B(  2-C ,  7-C ) :   1.0339 B(  3-C ,  4-S ) :   1.1374 B(  3-C ,  5-C ) :   1.2054
B(  5-C ,  6-C ) :   1.4431 B(  5-C , 15-S ) :   1.1044 B(  6-C ,  7-C ) :   0.9862
B(  6-C , 13-C ) :   1.3404 B(  7-C ,  8-C ) :   1.6897 B(  8-C ,  9-C ) :   1.1498
B(  8-C , 11-C ) :   1.1328 B(  9-C , 10-N ) :   2.9302 B( 11-C , 12-N ) :   3.0069
B( 13-C , 14-C ) :   1.4049 B( 13-C , 67-H ) :   0.9711 B( 14-C , 15-S ) :   1.0993
B( 14-C , 16-C ) :   1.1804 B( 16-C , 17-C ) :   1.5820 B( 16-C , 68-H ) :   0.9489
B( 17-C , 18-C ) :   1.1545 B( 17-C , 21-S ) :   1.0503 B( 18-C , 19-C ) :   1.5775
B( 18-C , 69-H ) :   0.9992 B( 19-C , 20-C ) :   1.1977 B( 19-C , 70-H ) :   0.9932
B( 20-C , 21-S ) :   1.0371 B( 20-C , 22-C ) :   1.4973 B( 22-C , 23-C ) :   1.1851
B( 22-C , 26-S ) :   1.0558 B( 23-C , 24-C ) :   1.5916 B( 23-C , 71-H ) :   0.9930
B( 24-C , 25-C ) :   1.1415 B( 24-C , 72-H ) :   1.0000 B( 25-C , 26-S ) :   1.0313
B( 25-C , 27-C ) :   1.5636 B( 27-C , 28-C ) :   1.1764 B( 27-C , 73-H ) :   0.9742
B( 28-C , 29-C ) :   1.4630 B( 28-C , 32-S ) :   1.0524 B( 29-C , 30-C ) :   1.1989
B( 29-C , 74-H ) :   1.0157 B( 30-C , 31-C ) :   1.3522 B( 30-C , 38-C ) :   1.2494
B( 31-C , 32-S ) :   1.0524 B( 31-C , 33-C ) :   1.3917 B( 33-C , 34-O ) :   1.2733
B( 33-C , 36-C ) :   1.2265 B( 34-O , 35-C ) :   0.9429 B( 35-C , 75-H ) :   0.9699
B( 35-C , 76-H ) :   0.9670 B( 35-C , 77-H ) :   0.9678 B( 36-C , 37-C ) :   1.2479
B( 36-C , 43-C ) :   1.1687 B( 37-C , 38-C ) :   1.4083 B( 37-C , 41-S ) :   0.9930
B( 38-C , 39-O ) :   1.2242 B( 39-O , 40-C ) :   0.9494 B( 40-C , 78-H ) :   0.9670
B( 40-C , 79-H ) :   0.9664 B( 40-C , 80-H ) :   0.9754 B( 41-S , 42-C ) :   1.0502
B( 42-C , 43-C ) :   1.5612 B( 42-C , 44-C ) :   1.1342 B( 43-C , 81-H ) :   0.9878
B( 44-C , 45-C ) :   1.4823 B( 44-C , 50-S ) :   1.1388 B( 45-C , 46-C ) :   1.0713
B( 45-C , 48-C ) :   1.2967 B( 46-C , 47-C ) :   1.0963 B( 46-C , 82-H ) :   0.9162
B( 46-C , 83-H ) :   0.9176 B( 47-C , 84-H ) :   0.9692 B( 47-C , 85-H ) :   0.9679
B( 47-C , 86-H ) :   0.9663 B( 48-C , 49-C ) :   1.4521 B( 48-C , 87-H ) :   0.9949
B( 49-C , 50-S ) :   1.1183 B( 49-C , 51-C ) :   1.1350 B( 51-C , 52-C ) :   1.6074
B( 51-C , 88-H ) :   0.9382 B( 52-C , 53-C ) :   1.1746 B( 52-C , 89-H ) :   0.9645
B( 53-C , 54-C ) :   1.3643 B( 53-C , 58-N ) :   1.1502 B( 54-C , 55-C ) :   1.2053
B( 54-C , 62-C ) :   1.0220 B( 55-C , 56-C ) :   0.9533 B( 55-C , 60-C ) :   1.4740
B( 56-C , 57-O ) :   2.1792 B( 56-C , 58-N ) :   1.0208 B( 58-N , 59-C ) :   0.9718
B( 59-C , 90-H ) :   0.9505 B( 59-C , 91-H ) :   0.9725 B( 59-C , 92-H ) :   0.9722
B( 60-C , 61-N ) :   1.1874 B( 60-C , 93-H ) :   0.9895 B( 61-N , 62-C ) :   1.0586
B( 61-N , 64-C ) :   0.9631 B( 62-C , 63-O ) :   2.0117 B( 63-O , 88-H ) :   0.1152
B( 64-C , 94-H ) :   0.9762 B( 64-C , 95-H ) :   0.9577 B( 64-C , 96-H ) :   0.9763

-----------------------------------------------------------------------------
         ABSORPTION SPECTRUM VIA TRANSITION ELECTRIC DIPOLE MOMENTS
-----------------------------------------------------------------------------
State   Energy  Wavelength   fosc         T2         TX        TY        TZ
        (cm-1)    (nm)                  (au**2)     (au)      (au)      (au)
-----------------------------------------------------------------------------
   0    7753.5   1289.7   0.129027530   5.47851   0.44272  -1.18553  -1.96902
   1   13475.5    742.1   1.041344716  25.44047   2.20852  -4.39347  -1.12263
   2   15999.6    625.0   0.044091357   0.90724  -0.06255  -0.11682  -0.94323
   3   18009.1    555.3   1.003885680  18.35129   0.06877  -0.76409   4.21459
   4   19304.0    518.0   0.035135604   0.59920  -0.10078  -0.10005  -0.76095
   5   20344.9    491.5   0.072164520   1.16773  -0.12098   0.48686  -0.95711
   6   20818.7    480.3   0.141956587   2.24480   0.83657  -0.26892  -1.21352
   7   22344.6    447.5   0.031465230   0.46359   0.53676  -0.41648   0.04500
   8   23910.1    418.2   0.038209096   0.52609  -0.05370  -0.05761  -0.72103
   9   24441.8    409.1   0.086337418   1.16290  -0.15655   0.28182  -1.02906
  10   26168.3    382.1   0.844652222  10.62622   1.46719  -1.98891   2.12551
  11   27143.9    368.4   0.239558034   2.90545  -0.21888   0.66330  -1.55486
  12   27562.1    362.8   0.674494731   8.05640   1.34236  -1.90009   1.62608
  13   27615.7    362.1   0.021650566   0.25810   0.23979  -0.01400  -0.44767
  14   29161.6    342.9   0.016668996   0.18818  -0.16121   0.25216  -0.31401
  15   29933.4    334.1   0.061755268   0.67919   0.37649  -0.58320   0.44421
  16   30329.6    329.7   0.008611671   0.09348  -0.14854   0.26036   0.06018
  17   30941.9    323.2   0.000997175   0.01061  -0.02650  -0.09370   0.03358
  18   31164.9    320.9   0.100257456   1.05907  -0.58150   0.84890  -0.01731
  19   31466.0    317.8   0.618794793   6.47411   1.11665  -2.03046  -1.05092
  20   32211.5    310.4   0.005744122   0.05871   0.17094  -0.17003   0.02403
  21   32277.7    309.8   0.017464381   0.17813   0.22785  -0.29290  -0.20104
  22   32446.4    308.2   0.083857686   0.85085   0.43211  -0.71844  -0.38466
  23   32695.9    305.8   0.058534658   0.58938   0.33246  -0.16515   0.67199
  24   32980.5    303.2   0.096401357   0.96228  -0.15377   0.08381  -0.96520
  25   33609.9    297.5   0.094470256   0.92534  -0.42500   0.59416  -0.62585
  26   34280.6    291.7   0.193950219   1.86259   0.32194  -0.37205   1.27300
  27   34528.0    289.6   0.135093058   1.28806  -0.60177   0.95076  -0.14829
  28   35440.6    282.2   0.048029020   0.44615   0.33000  -0.53089  -0.23538
  29   35791.8    279.4   0.026267444   0.24161  -0.20543   0.19225  -0.40304
  30   36215.7    276.1   0.030838380   0.28033  -0.03232  -0.08849  -0.52101
  31   36428.1    274.5   0.110818718   1.00150  -0.35330   0.56439  -0.74709
  32   36762.8    272.0   0.001710668   0.01532   0.02452  -0.11216   0.04623
  33   36912.0    270.9   0.048991283   0.43695   0.25933  -0.19568  -0.57568
  34   37084.4    269.7   0.052560564   0.46660   0.28642  -0.53334  -0.31641
  35   37345.1    267.8   0.000211092   0.00186   0.00095  -0.00447   0.04289
  36   37502.3    266.7   0.111912099   0.98242   0.59483  -0.69886   0.37441
  37   37886.1    263.9   0.035221457   0.30606  -0.12632   0.17658   0.50884
  38   37942.0    263.6   0.002969287   0.02576   0.09283  -0.08529  -0.09936
  39   38222.2    261.6   0.001108524   0.00955   0.03077  -0.00459   0.09263
  40   38413.9    260.3   0.013487001   0.11559   0.18972  -0.27135   0.07722
  41   39091.8    255.8   0.000622592   0.00524  -0.06783   0.01621  -0.01949
  42   39221.7    255.0   0.004340378   0.03643  -0.03276   0.13806  -0.12766
  43   39330.7    254.3   0.050794873   0.42517   0.41774  -0.46848  -0.17660
  44   39723.1    251.7   0.011574230   0.09592   0.08836  -0.14812  -0.25725
  45   40140.4    249.1   0.001767738   0.01450  -0.11561  -0.02906   0.01700

FINAL SINGLE POINT ENERGY     -5227.802938610891

DIPOLE MOMENT
-------------
                                X             Y             Z
Electronic contribution:    -40.70813      65.41736       6.64927
Nuclear contribution   :     40.17616     -63.73921      -8.15548
                        -----------------------------------------
Total Dipole Moment    :     -0.53197       1.67816      -1.50621
                        -----------------------------------------
Magnitude (a.u.)       :      2.31687
Magnitude (Debye)      :      5.88901

Rotational constants in cm-1:     0.000996     0.000400     0.000290
Rotational constants in MHz :    29.869280    11.994412     8.680580

                             ****ORCA TERMINATED NORMALLY****
TOTAL RUN TIME: 0 days 0 hours 8 minutes 49 seconds 574 msec
