                         Program Version 4.2.0 -  RELEASE  -
|  1> # ORCA input file
|  2> # SCF done       -150.016115404360          0.000637011662
|  3> ! CAM-B3LYP def2-SVP def2/J RIJCOSX Grid4 TightSCF
|  4> %maxcore 5000
|  5> %tddft
|  6>     Mode sTDDFT
|  7>     Ethresh 5.0
|  8>     maxcore 5000
|  9> end
| 10>
| 11> %pal
| 12>   nprocs 6
| 13>   end
| 14> * xyz 0 1
| 15>    C       -0.99348         1.09753         3.64103
| 16>    N       -0.03038         1.32751         4.48165
| 17>    O       -0.45825         1.01011         5.70603
| 18>    C       -1.73140         0.56497         5.64487
| 19>    C       -2.39768         0.15657         6.86836
| 20>    O       -1.91235         0.17950         7.96952
| 21>    C       -2.14845         0.59576         4.31257
| 22>    C       -3.38006         0.23872         3.69113
| 23>    C       -3.64096         0.29371         2.33692
| 24>    C       -4.93693        -0.12025         2.02523
| 25>    C       -5.67679        -0.49483         3.16705
| 26>    S       -4.77146        -0.33874         4.60711
| 27>    C       -6.96352        -0.89671         2.76229
| 28>    C       -7.05290        -0.76958         1.35818
| 29>    C       -5.76695        -0.29287         0.85291
| 30>    C       -5.39416        -0.09997        -0.44724
| 31>    C       -6.23906        -0.31334        -1.55151
| 32>    N       -6.88242        -0.48357        -2.48730
| 33>    C       -4.07704         0.28543        -0.78387
| 34>    N       -2.99531         0.56008        -1.04577
| 35>    C       -8.28419        -1.14282         0.85064
| 36>    C       -9.16381        -1.57744         1.84974
| 37>    S       -8.41126        -1.49687         3.44597
| 38>    C      -10.47554        -2.06041         1.76995
| 39>    C      -11.26956        -2.15630         0.64683
| 40>    C      -12.58270        -2.68291         0.59022
| 41>    C      -13.15318        -2.65103        -0.65220
| 42>    C      -12.32244        -2.08576        -1.63588
| 43>    S      -10.78912        -1.61566        -0.94243
| 44>    C      -12.51757        -1.83912        -2.98816
| 45>    C      -13.57814        -2.13012        -3.86659
| 46>    C      -13.35986        -1.70269        -5.14814
| 47>    C      -12.12359        -1.04169        -5.34405
| 48>    S      -11.24747        -0.99523        -3.82961
| 49>    C      -11.58864        -0.56505        -6.52309
| 50>    C      -10.35873         0.10506        -6.61252
| 51>    C       -9.63337         0.71090        -5.58495
| 52>    C       -8.39255         1.15211        -5.99878
| 53>    C       -8.14104         0.92189        -7.36638
| 54>    S       -9.47585         0.17493        -8.14227
| 55>    C       -6.83147         1.36342        -7.64770
| 56>    C       -6.24564         1.85640        -6.45819
| 57>    C       -7.20752         1.73692        -5.38351
| 58>    C       -7.06505         2.04440        -4.06276
| 59>    C       -5.86163         2.49455        -3.47952
| 60>    N       -4.91165         2.83701        -2.93656
| 61>    C       -8.12726         1.92728        -3.13852
| 62>    N       -8.97993         1.88582        -2.37198
| 63>    C       -4.94354         2.32074        -6.64363
| 64>    C       -4.52608         2.17985        -7.95086
| 65>    S       -5.76940         1.46176        -8.97792
| 66>    C       -3.27470         2.51235        -8.54098
| 67>    C       -2.15030         3.16565        -8.02853
| 68>    O       -1.20836         3.21714        -9.00188
| 69>    N       -1.66986         2.63422       -10.11448
| 70>    C       -2.87535         2.21386        -9.87698
| 71>    C       -1.80880         3.79286        -6.76838
| 72>    O       -2.52491         3.88426        -5.80133
| 73>    H       -0.85653         1.28826         2.59666
| 74>    H       -3.43334        -0.19388         6.69637
| 75>    H       -2.91801         0.62043         1.61285
| 76>    H       -8.53693        -1.11030        -0.19218
| 77>    H      -10.91742        -2.39585         2.69959
| 78>    H      -13.06811        -3.06998         1.46880
| 79>    H      -14.14326        -3.00658        -0.87544
| 80>    H      -14.46121        -2.65299        -3.54479
| 81>    H      -14.05486        -1.84219        -5.95751
| 82>    H      -12.11791        -0.78034        -7.44116
| 83>    H      -10.01709         0.86788        -4.59619
| 84>    H       -4.31927         2.74552        -5.87741
| 85>    H       -3.43959         1.71064       -10.63633
| 86>    H       -0.78715         4.21129        -6.78224
| 87> *
| 88>
| 89>                          ****END OF INPUT****

CARTESIAN COORDINATES (ANGSTROEM)
---------------------------------
  C     -0.993480    1.097530    3.641030
  N     -0.030380    1.327510    4.481650
  O     -0.458250    1.010110    5.706030
  C     -1.731400    0.564970    5.644870
  C     -2.397680    0.156570    6.868360
  O     -1.912350    0.179500    7.969520
  C     -2.148450    0.595760    4.312570
  C     -3.380060    0.238720    3.691130
  C     -3.640960    0.293710    2.336920
  C     -4.936930   -0.120250    2.025230
  C     -5.676790   -0.494830    3.167050
  S     -4.771460   -0.338740    4.607110
  C     -6.963520   -0.896710    2.762290
  C     -7.052900   -0.769580    1.358180
  C     -5.766950   -0.292870    0.852910
  C     -5.394160   -0.099970   -0.447240
  C     -6.239060   -0.313340   -1.551510
  N     -6.882420   -0.483570   -2.487300
  C     -4.077040    0.285430   -0.783870
  N     -2.995310    0.560080   -1.045770
  C     -8.284190   -1.142820    0.850640
  C     -9.163810   -1.577440    1.849740
  S     -8.411260   -1.496870    3.445970
  C    -10.475540   -2.060410    1.769950
  C    -11.269560   -2.156300    0.646830
  C    -12.582700   -2.682910    0.590220
  C    -13.153180   -2.651030   -0.652200
  C    -12.322440   -2.085760   -1.635880
  S    -10.789120   -1.615660   -0.942430
  C    -12.517570   -1.839120   -2.988160
  C    -13.578140   -2.130120   -3.866590
  C    -13.359860   -1.702690   -5.148140
  C    -12.123590   -1.041690   -5.344050
  S    -11.247470   -0.995230   -3.829610
  C    -11.588640   -0.565050   -6.523090
  C    -10.358730    0.105060   -6.612520
  C     -9.633370    0.710900   -5.584950
  C     -8.392550    1.152110   -5.998780
  C     -8.141040    0.921890   -7.366380
  S     -9.475850    0.174930   -8.142270
  C     -6.831470    1.363420   -7.647700
  C     -6.245640    1.856400   -6.458190
  C     -7.207520    1.736920   -5.383510
  C     -7.065050    2.044400   -4.062760
  C     -5.861630    2.494550   -3.479520
  N     -4.911650    2.837010   -2.936560
  C     -8.127260    1.927280   -3.138520
  N     -8.979930    1.885820   -2.371980
  C     -4.943540    2.320740   -6.643630
  C     -4.526080    2.179850   -7.950860
  S     -5.769400    1.461760   -8.977920
  C     -3.274700    2.512350   -8.540980
  C     -2.150300    3.165650   -8.028530
  O     -1.208360    3.217140   -9.001880
  N     -1.669860    2.634220  -10.114480
  C     -2.875350    2.213860   -9.876980
  C     -1.808800    3.792860   -6.768380
  O     -2.524910    3.884260   -5.801330
  H     -0.856530    1.288260    2.596660
  H     -3.433340   -0.193880    6.696370
  H     -2.918010    0.620430    1.612850
  H     -8.536930   -1.110300   -0.192180
  H    -10.917420   -2.395850    2.699590
  H    -13.068110   -3.069980    1.468800
  H    -14.143260   -3.006580   -0.875440
  H    -14.461210   -2.652990   -3.544790
  H    -14.054860   -1.842190   -5.957510
  H    -12.117910   -0.780340   -7.441160
  H    -10.017090    0.867880   -4.596190
  H     -4.319270    2.745520   -5.877410
  H     -3.439590    1.710640  -10.636330
  H     -0.787150    4.211290   -6.782240

 Total Charge           Charge          ....    0
 Multiplicity           Mult            ....    1
 Number of Electrons    NEL             ....  436
 Basis Dimension        Dim             ....  906

ORBITAL ENERGIES
----------------

  NO   OCC          E(Eh)            E(eV)
   0   2.0000     -88.992764     -2421.6162
   1   2.0000     -88.987015     -2421.4598
   2   2.0000     -88.984941     -2421.4033
   3   2.0000     -88.982919     -2421.3483
   4   2.0000     -88.954142     -2420.5653
   5   2.0000     -88.951541     -2420.4945
   6   2.0000     -19.325628      -525.8771
   7   2.0000     -19.317602      -525.6587
   8   2.0000     -19.227130      -523.1968
   9   2.0000     -19.220103      -523.0056
  10   2.0000     -14.476932      -393.9373
  11   2.0000     -14.470216      -393.7546
  12   2.0000     -14.433060      -392.7435
  13   2.0000     -14.425224      -392.5303
  14   2.0000     -14.421686      -392.4340
  15   2.0000     -14.419411      -392.3721
  16   2.0000     -10.373135      -282.2673
  17   2.0000     -10.369844      -282.1778
  18   2.0000     -10.363680      -282.0101
  19   2.0000     -10.356634      -281.8183
  20   2.0000     -10.351031      -281.6659
  21   2.0000     -10.348160      -281.5878
  22   2.0000     -10.345289      -281.5096
  23   2.0000     -10.341347      -281.4024
  24   2.0000     -10.335799      -281.2514
  25   2.0000     -10.333994      -281.2023
  26   2.0000     -10.332221      -281.1540
  27   2.0000     -10.328581      -281.0550
  28   2.0000     -10.326115      -280.9879
  29   2.0000     -10.325195      -280.9628
  30   2.0000     -10.324896      -280.9547
  31   2.0000     -10.324096      -280.9329
  32   2.0000     -10.322413      -280.8871
  33   2.0000     -10.321793      -280.8703
  34   2.0000     -10.321595      -280.8649
  35   2.0000     -10.321104      -280.8515
  36   2.0000     -10.320847      -280.8445
  37   2.0000     -10.319615      -280.8110
  38   2.0000     -10.319123      -280.7976
  39   2.0000     -10.318895      -280.7914
  40   2.0000     -10.318624      -280.7840
  41   2.0000     -10.318542      -280.7818
  42   2.0000     -10.317822      -280.7622
  43   2.0000     -10.316077      -280.7147
  44   2.0000     -10.304404      -280.3971
  45   2.0000     -10.303955      -280.3849
  46   2.0000     -10.301167      -280.3090
  47   2.0000     -10.298578      -280.2386
  48   2.0000     -10.297866      -280.2192
  49   2.0000     -10.297727      -280.2154
  50   2.0000     -10.297582      -280.2114
  51   2.0000     -10.297434      -280.2074
  52   2.0000     -10.296978      -280.1950
  53   2.0000     -10.296110      -280.1714
  54   2.0000     -10.295822      -280.1636
  55   2.0000     -10.294800      -280.1357
  56   2.0000     -10.292913      -280.0844
  57   2.0000     -10.291078      -280.0345
  58   2.0000      -8.086971      -220.0577
  59   2.0000      -8.081626      -219.9122
  60   2.0000      -8.079613      -219.8575
  61   2.0000      -8.077477      -219.7993
  62   2.0000      -8.050044      -219.0528
  63   2.0000      -8.047879      -218.9939
  64   2.0000      -6.056321      -164.8009
  65   2.0000      -6.052093      -164.6858
  66   2.0000      -6.050920      -164.6539
  67   2.0000      -6.049228      -164.6079
  68   2.0000      -6.048887      -164.5986
  69   2.0000      -6.046796      -164.5417
  70   2.0000      -6.046753      -164.5405
  71   2.0000      -6.044791      -164.4871
  72   2.0000      -6.043944      -164.4641
  73   2.0000      -6.042708      -164.4305
  74   2.0000      -6.041864      -164.4075
  75   2.0000      -6.039653      -164.3473
  76   2.0000      -6.019780      -163.8065
  77   2.0000      -6.017635      -163.7482
  78   2.0000      -6.015574      -163.6921
  79   2.0000      -6.013318      -163.6307
  80   2.0000      -6.011131      -163.5712
  81   2.0000      -6.008847      -163.5090
  82   2.0000      -1.266932       -34.4750
  83   2.0000      -1.262013       -34.3411
  84   2.0000      -1.139331       -31.0028
  85   2.0000      -1.133242       -30.8371
  86   2.0000      -1.043122       -28.3848
  87   2.0000      -1.037778       -28.2394
  88   2.0000      -1.022736       -27.8301
  89   2.0000      -1.012913       -27.5628
  90   2.0000      -1.007946       -27.4276
  91   2.0000      -1.005548       -27.3624
  92   2.0000      -0.998287       -27.1648
  93   2.0000      -0.997198       -27.1351
  94   2.0000      -0.993592       -27.0370
  95   2.0000      -0.982385       -26.7320
  96   2.0000      -0.973376       -26.4869
  97   2.0000      -0.965993       -26.2860
  98   2.0000      -0.957666       -26.0594
  99   2.0000      -0.952889       -25.9294
 100   2.0000      -0.928079       -25.2543
 101   2.0000      -0.924890       -25.1675
 102   2.0000      -0.910552       -24.7774
 103   2.0000      -0.903545       -24.5867
 104   2.0000      -0.888340       -24.1729
 105   2.0000      -0.875884       -23.8340
 106   2.0000      -0.867015       -23.5927
 107   2.0000      -0.859291       -23.3825
 108   2.0000      -0.855548       -23.2807
 109   2.0000      -0.853392       -23.2220
 110   2.0000      -0.849193       -23.1077
 111   2.0000      -0.828667       -22.5492
 112   2.0000      -0.823868       -22.4186
 113   2.0000      -0.805112       -21.9082
 114   2.0000      -0.793057       -21.5802
 115   2.0000      -0.780985       -21.2517
 116   2.0000      -0.774965       -21.0879
 117   2.0000      -0.768056       -20.8999
 118   2.0000      -0.756302       -20.5800
 119   2.0000      -0.748295       -20.3621
 120   2.0000      -0.732819       -19.9410
 121   2.0000      -0.720094       -19.5948
 122   2.0000      -0.710975       -19.3466
 123   2.0000      -0.701373       -19.0853
 124   2.0000      -0.699098       -19.0234
 125   2.0000      -0.687088       -18.6966
 126   2.0000      -0.685630       -18.6569
 127   2.0000      -0.682202       -18.5637
 128   2.0000      -0.672404       -18.2971
 129   2.0000      -0.667269       -18.1573
 130   2.0000      -0.654338       -17.8054
 131   2.0000      -0.647382       -17.6162
 132   2.0000      -0.637301       -17.3418
 133   2.0000      -0.633477       -17.2378
 134   2.0000      -0.630568       -17.1586
 135   2.0000      -0.629025       -17.1166
 136   2.0000      -0.623230       -16.9590
 137   2.0000      -0.620299       -16.8792
 138   2.0000      -0.612317       -16.6620
 139   2.0000      -0.604265       -16.4429
 140   2.0000      -0.602141       -16.3851
 141   2.0000      -0.596305       -16.2263
 142   2.0000      -0.590906       -16.0794
 143   2.0000      -0.588365       -16.0102
 144   2.0000      -0.583136       -15.8679
 145   2.0000      -0.574171       -15.6240
 146   2.0000      -0.568518       -15.4702
 147   2.0000      -0.562924       -15.3179
 148   2.0000      -0.551245       -15.0001
 149   2.0000      -0.546206       -14.8630
 150   2.0000      -0.543846       -14.7988
 151   2.0000      -0.541185       -14.7264
 152   2.0000      -0.539460       -14.6795
 153   2.0000      -0.534051       -14.5323
 154   2.0000      -0.532643       -14.4940
 155   2.0000      -0.525020       -14.2865
 156   2.0000      -0.519053       -14.1241
 157   2.0000      -0.512347       -13.9417
 158   2.0000      -0.511260       -13.9121
 159   2.0000      -0.509792       -13.8721
 160   2.0000      -0.508536       -13.8380
 161   2.0000      -0.503477       -13.7003
 162   2.0000      -0.501703       -13.6520
 163   2.0000      -0.499510       -13.5924
 164   2.0000      -0.495990       -13.4966
 165   2.0000      -0.495279       -13.4772
 166   2.0000      -0.494391       -13.4531
 167   2.0000      -0.491780       -13.3820
 168   2.0000      -0.488287       -13.2870
 169   2.0000      -0.486460       -13.2372
 170   2.0000      -0.484924       -13.1954
 171   2.0000      -0.481201       -13.0941
 172   2.0000      -0.480484       -13.0746
 173   2.0000      -0.479484       -13.0474
 174   2.0000      -0.471197       -12.8219
 175   2.0000      -0.468365       -12.7449
 176   2.0000      -0.465013       -12.6536
 177   2.0000      -0.461723       -12.5641
 178   2.0000      -0.459803       -12.5119
 179   2.0000      -0.455799       -12.4029
 180   2.0000      -0.452864       -12.3231
 181   2.0000      -0.450189       -12.2503
 182   2.0000      -0.448658       -12.2086
 183   2.0000      -0.445488       -12.1224
 184   2.0000      -0.444007       -12.0820
 185   2.0000      -0.439905       -11.9704
 186   2.0000      -0.439016       -11.9462
 187   2.0000      -0.437151       -11.8955
 188   2.0000      -0.435316       -11.8455
 189   2.0000      -0.433062       -11.7842
 190   2.0000      -0.431890       -11.7523
 191   2.0000      -0.428649       -11.6641
 192   2.0000      -0.424993       -11.5646
 193   2.0000      -0.423364       -11.5203
 194   2.0000      -0.420303       -11.4370
 195   2.0000      -0.415308       -11.3011
 196   2.0000      -0.400720       -10.9041
 197   2.0000      -0.399047       -10.8586
 198   2.0000      -0.397772       -10.8239
 199   2.0000      -0.393437       -10.7060
 200   2.0000      -0.390578       -10.6282
 201   2.0000      -0.383178       -10.4268
 202   2.0000      -0.379502       -10.3268
 203   2.0000      -0.370300       -10.0764
 204   2.0000      -0.360891        -9.8203
 205   2.0000      -0.350340        -9.5332
 206   2.0000      -0.347850        -9.4655
 207   2.0000      -0.347565        -9.4577
 208   2.0000      -0.343026        -9.3342
 209   2.0000      -0.340848        -9.2749
 210   2.0000      -0.337714        -9.1897
 211   2.0000      -0.329911        -8.9773
 212   2.0000      -0.322953        -8.7880
 213   2.0000      -0.316543        -8.6136
 214   2.0000      -0.310802        -8.4573
 215   2.0000      -0.282366        -7.6836
 216   2.0000      -0.257165        -6.9978
 217   2.0000      -0.213273        -5.8035
 218   0.0000      -0.111581        -3.0363
 219   0.0000      -0.102905        -2.8002
 220   0.0000      -0.080920        -2.2020
 221   0.0000      -0.056374        -1.5340
 222   0.0000      -0.051277        -1.3953

MULLIKEN ATOMIC CHARGES
-----------------------
   0 C :    0.000332
   1 N :    0.046860
   2 O :   -0.150737
   3 C :    0.035054
   4 C :    0.129935
   5 O :   -0.154406
   6 C :    0.013815
   7 C :   -0.046841
   8 C :   -0.053306
   9 C :    0.008786
  10 C :   -0.078386
  11 S :    0.158688
  12 C :   -0.103272
  13 C :    0.007237
  14 C :    0.317382
  15 C :   -0.308512
  16 C :   -0.139367
  17 N :    0.145231
  18 C :   -0.190441
  19 N :    0.180854
  20 C :   -0.042825
  21 C :   -0.092052
  22 S :    0.179018
  23 C :    0.034809
  24 C :   -0.029323
  25 C :    0.033577
  26 C :    0.033079
  27 C :   -0.025103
  28 S :    0.060467
  29 C :   -0.036919
  30 C :    0.036869
  31 C :    0.035997
  32 C :   -0.034411
  33 S :    0.068524
  34 C :    0.033823
  35 C :   -0.094935
  36 C :   -0.037310
  37 C :   -0.002401
  38 C :   -0.099259
  39 S :    0.179056
  40 C :   -0.095696
  41 C :    0.001470
  42 C :    0.327714
  43 C :   -0.297414
  44 C :   -0.206806
  45 N :    0.199182
  46 C :   -0.196554
  47 N :    0.170850
  48 C :   -0.044456
  49 C :   -0.063359
  50 S :    0.161568
  51 C :    0.010939
  52 C :    0.053799
  53 O :   -0.168500
  54 N :    0.045557
  55 C :   -0.013716
  56 C :    0.162409
  57 O :   -0.156970
  58 H :    0.030223
  59 H :   -0.006309
  60 H :    0.007826
  61 H :    0.032034
  62 H :   -0.016093
  63 H :   -0.010522
  64 H :   -0.011011
  65 H :   -0.010931
  66 H :   -0.008531
  67 H :   -0.012303
  68 H :    0.037257
  69 H :    0.022854
  70 H :    0.025505
  71 H :    0.010398
Sum of atomic charges:   -0.0000000

LOEWDIN ATOMIC CHARGES
----------------------
   0 C :   -0.020423
   1 N :    0.003136
   2 O :    0.049202
   3 C :   -0.031683
   4 C :    0.076339
   5 O :   -0.110155
   6 C :   -0.073469
   7 C :   -0.175112
   8 C :   -0.014834
   9 C :   -0.076869
  10 C :   -0.163733
  11 S :    0.474431
  12 C :   -0.198309
  13 C :   -0.055532
  14 C :    0.082986
  15 C :   -0.096874
  16 C :   -0.003151
  17 N :   -0.034282
  18 C :   -0.015231
  19 N :   -0.025818
  20 C :   -0.039806
  21 C :   -0.154510
  22 S :    0.466517
  23 C :   -0.082384
  24 C :   -0.143516
  25 C :   -0.030813
  26 C :   -0.033065
  27 C :   -0.176018
  28 S :    0.410083
  29 C :   -0.176110
  30 C :   -0.032972
  31 C :   -0.029610
  32 C :   -0.141973
  33 S :    0.418550
  34 C :   -0.074958
  35 C :   -0.161994
  36 C :   -0.044787
  37 C :   -0.052526
  38 C :   -0.193419
  39 S :    0.458117
  40 C :   -0.166517
  41 C :   -0.074366
  42 C :    0.078138
  43 C :   -0.089762
  44 C :   -0.023148
  45 N :   -0.021697
  46 C :   -0.015829
  47 N :   -0.041462
  48 C :   -0.006481
  49 C :   -0.175014
  50 S :    0.462970
  51 C :   -0.063260
  52 C :   -0.027357
  53 O :    0.033766
  54 N :   -0.000435
  55 C :   -0.034006
  56 C :    0.098981
  57 O :   -0.114359
  58 H :    0.037182
  59 H :   -0.012112
  60 H :    0.041295
  61 H :    0.026136
  62 H :    0.033576
  63 H :    0.033850
  64 H :    0.033981
  65 H :    0.033521
  66 H :    0.034409
  67 H :    0.034196
  68 H :    0.025468
  69 H :    0.040495
  70 H :    0.030287
  71 H :    0.012128

  Mayer bond orders larger than 0.100000
B(  0-C ,  1-N ) :   1.7362 B(  0-C ,  6-C ) :   1.2041 B(  0-C , 58-H ) :   0.9876
B(  1-N ,  2-O ) :   1.0552 B(  2-O ,  3-C ) :   1.1375 B(  3-C ,  4-C ) :   0.9936
B(  3-C ,  6-C ) :   1.4117 B(  4-C ,  5-O ) :   2.1952 B(  4-C , 59-H ) :   0.9611
B(  6-C ,  7-C ) :   1.0885 B(  7-C ,  8-C ) :   1.4905 B(  7-C , 11-S ) :   1.0852
B(  8-C ,  9-C ) :   1.2738 B(  8-C , 60-H ) :   0.9914 B(  9-C , 10-C ) :   1.4209
B(  9-C , 14-C ) :   1.0114 B( 10-C , 11-S ) :   1.1266 B( 10-C , 12-C ) :   1.2104
B( 12-C , 13-C ) :   1.4162 B( 12-C , 22-S ) :   1.1040 B( 13-C , 14-C ) :   0.9839
B( 13-C , 20-C ) :   1.3622 B( 14-C , 15-C ) :   1.6956 B( 15-C , 16-C ) :   1.1635
B( 15-C , 18-C ) :   1.1379 B( 16-C , 17-N ) :   2.8820 B( 18-C , 19-N ) :   2.9756
B( 20-C , 21-C ) :   1.3819 B( 20-C , 61-H ) :   0.9676 B( 21-C , 22-S ) :   1.0990
B( 21-C , 23-C ) :   1.1951 B( 23-C , 24-C ) :   1.5635 B( 23-C , 62-H ) :   0.9514
B( 24-C , 25-C ) :   1.1634 B( 24-C , 28-S ) :   1.0574 B( 25-C , 26-C ) :   1.5683
B( 25-C , 63-H ) :   0.9984 B( 26-C , 27-C ) :   1.2100 B( 26-C , 64-H ) :   0.9946
B( 27-C , 28-S ) :   1.0534 B( 27-C , 29-C ) :   1.4639 B( 29-C , 30-C ) :   1.2044
B( 29-C , 33-S ) :   1.0582 B( 30-C , 31-C ) :   1.5714 B( 30-C , 65-H ) :   0.9948
B( 31-C , 32-C ) :   1.1640 B( 31-C , 66-H ) :   0.9968 B( 32-C , 33-S ) :   1.0483
B( 32-C , 34-C ) :   1.5645 B( 34-C , 35-C ) :   1.1793 B( 34-C , 67-H ) :   0.9609
B( 35-C , 36-C ) :   1.3929 B( 35-C , 39-S ) :   1.0916 B( 36-C , 37-C ) :   1.3594
B( 36-C , 68-H ) :   0.9520 B( 37-C , 38-C ) :   1.4209 B( 37-C , 42-C ) :   0.9973
B( 38-C , 39-S ) :   1.1017 B( 38-C , 40-C ) :   1.2176 B( 40-C , 41-C ) :   1.4143
B( 40-C , 50-S ) :   1.1305 B( 41-C , 42-C ) :   0.9999 B( 41-C , 48-C ) :   1.2667
B( 42-C , 43-C ) :   1.7102 B( 43-C , 44-C ) :   1.1497 B( 43-C , 46-C ) :   1.1298
B( 44-C , 45-N ) :   2.9846 B( 46-C , 47-N ) :   2.9787 B( 48-C , 49-C ) :   1.4868
B( 48-C , 69-H ) :   0.9749 B( 49-C , 50-S ) :   1.0790 B( 49-C , 51-C ) :   1.1156
B( 51-C , 52-C ) :   1.4554 B( 51-C , 55-C ) :   1.1943 B( 52-C , 53-O ) :   1.1111
B( 52-C , 56-C ) :   1.0243 B( 53-O , 54-N ) :   1.0517 B( 54-N , 55-C ) :   1.7332
B( 55-C , 70-H ) :   0.9832 B( 56-C , 57-O ) :   2.1210 B( 56-C , 71-H ) :   0.9464

-----------------------------------------------------------------------------
         ABSORPTION SPECTRUM VIA TRANSITION ELECTRIC DIPOLE MOMENTS
-----------------------------------------------------------------------------
State   Energy  Wavelength   fosc         T2         TX        TY        TZ
        (cm-1)    (nm)                  (au**2)     (au)      (au)      (au)
-----------------------------------------------------------------------------
   0    7226.7   1383.8   0.179863246   8.19370   1.25275  -0.19770   2.56617
   1    8459.1   1182.2   0.137108524   5.33601  -1.16380  -0.91771   1.77183
   2   13892.6    719.8   0.556569194  13.18898  -0.49945   0.78634  -3.51016
   3   16393.4    610.0   0.119916386   2.40817  -1.44690  -0.52720  -0.19161
   4   17480.5    572.1   0.031029908   0.58439   0.70245   0.22787   0.19755
   5   21772.5    459.3   0.313048683   4.73346  -2.02950  -0.71163  -0.32893
   6   22458.7    445.3   0.806872839  11.82759  -3.17140  -1.16037  -0.65066
   7   22855.2    437.5   0.392593271   5.65502   2.21908   0.84594  -0.12288
   8   23914.8    418.2   0.146846724   2.02150  -1.16774  -0.52536  -0.61797
   9   24924.4    401.2   0.064385201   0.85043  -0.85798  -0.27309  -0.19930
  10   27235.2    367.2   0.310405243   3.75210   1.76905   0.78044  -0.11616
  11   28646.5    349.1   0.031558270   0.36268  -0.45967  -0.25471   0.29411
  12   28994.7    344.9   0.033924748   0.38519  -0.49410  -0.16673   0.33654
  13   29625.1    337.6   0.293195253   3.25816   0.28219  -0.10290  -1.77987
  14   30114.8    332.1   0.150712106   1.64757  -0.74254  -0.48617   0.92728
  15   30209.0    331.0   0.378376352   4.12347  -0.14277   0.09550   2.02335
  16   30686.7    325.9   0.249038422   2.67173  -0.64708  -0.42315  -1.44012
  17   31020.8    322.4   0.244098686   2.59052  -0.40352  -0.27413   1.53380
  18   31804.1    314.4   0.037631559   0.38953   0.60982  -0.00683   0.13268
  19   32019.5    312.3   0.053730927   0.55244  -0.23971  -0.03193  -0.70282
  20   32182.3    310.7   0.003358104   0.03435  -0.14965  -0.00274  -0.10932
  21   32248.1    310.1   0.014258485   0.14556  -0.04771  -0.12747   0.35642
  22   32692.9    305.9   0.110039495   1.10808  -0.15727  -0.06184  -1.03900
  23   32926.6    303.7   0.191636984   1.91605   0.53489   0.42491  -1.20391
  24   32978.2    303.2   0.447906649   4.47132  -1.85069  -0.63589  -0.80119
  25   33246.5    300.8   0.042748078   0.42330   0.43076   0.11010   0.47500
  26   33456.3    298.9   0.013380261   0.13166  -0.31548  -0.17343   0.04533
  27   34509.3    289.8   0.024051712   0.22945   0.36564   0.30460   0.05450
  28   34859.2    286.9   0.093638695   0.88433   0.15041   0.25572   0.89236
  29   35131.9    284.6   0.046698184   0.43760  -0.41515  -0.07211   0.50995
  30   35449.0    282.1   0.062371342   0.57924   0.21658   0.23580   0.69045
  31   35855.8    278.9   0.146145371   1.34184   0.25995   0.03374  -1.12833
  32   36644.5    272.9   0.000728846   0.00655   0.06645   0.04497  -0.01046
  33   36841.7    271.4   0.010460937   0.09348   0.11031  -0.04657   0.28132
  34   36982.5    270.4   0.025081143   0.22327   0.06565  -0.09350   0.45849
  35   37105.8    269.5   0.118066737   1.04752   0.85921   0.26734   0.48765
  36   37275.6    268.3   0.002870459   0.02535  -0.00979  -0.05534   0.14898
  37   37379.3    267.5   0.043462322   0.38279   0.41889   0.32879  -0.31499
  38   37782.8    264.7   0.125075343   1.08982  -1.01519  -0.24318  -0.00884
  39   38074.6    262.6   0.003122313   0.02700  -0.10551  -0.03012  -0.12230
  40   38187.8    261.9   0.016905257   0.14574   0.10096  -0.04542  -0.36535
  41   38337.3    260.8   0.015499427   0.13310   0.26090   0.04415  -0.25116
  42   38710.6    258.3   0.026494053   0.22532   0.13461   0.01201  -0.45503
  43   38899.9    257.1   0.037974803   0.32138  -0.05161  -0.04200   0.56299
  44   38968.1    256.6   0.004551075   0.03845   0.03473   0.01048  -0.19270
  45   39330.0    254.3   0.003825912   0.03202  -0.10323   0.13082  -0.06523
  46   39489.0    253.2   0.014663151   0.12224  -0.31454  -0.15267  -0.00018
  47   39724.9    251.7   0.008268335   0.06852   0.08906   0.11270   0.21883
  48   39762.4    251.5   0.001372009   0.01136  -0.06591  -0.08006  -0.02461

FINAL SINGLE POINT ENERGY     -4623.630644259759

DIPOLE MOMENT
-------------
                                X             Y             Z
Electronic contribution:     12.71351       5.21203      -0.42010
Nuclear contribution   :    -17.18851      -7.25158      -1.60151
                        -----------------------------------------
Total Dipole Moment    :     -4.47501      -2.03954      -2.02161
                        -----------------------------------------
Magnitude (a.u.)       :      5.31717
Magnitude (Debye)      :     13.51518

Rotational constants in cm-1:     0.001268     0.000770     0.000488
Rotational constants in MHz :    38.023856    23.087531    14.640812

                             ****ORCA TERMINATED NORMALLY****
TOTAL RUN TIME: 0 days 0 hours 8 minutes 42 seconds 839 msec
