                         Program Version 4.2.0 -  RELEASE  -
|  1> # ORCA input file
|  2> # SCF done       -200.839086028882          0.000908717514
|  3> ! CAM-B3LYP def2-SVP def2/J RIJCOSX Grid4 TightSCF
|  4> %maxcore 5000
|  5> %tddft
|  6>     Mode sTDDFT
|  7>     Ethresh 5.0
|  8>     maxcore 5000
|  9> end
| 10>
| 11> %pal
| 12>   nprocs 6
| 13>   end
| 14> * xyz 0 1
| 15>    C       -4.35442        -1.11722        -2.82768
| 16>    C       -4.07230        -2.09231        -1.90853
| 17>    C       -3.68179        -3.40654        -2.24320
| 18>    N       -3.35583        -4.48628        -2.45527
| 19>    C       -4.16980        -1.93481        -0.50906
| 20>    N       -4.25463        -1.89428         0.63499
| 21>    C       -4.37145        -1.28020        -4.27360
| 22>    C       -4.83944        -0.07871        -4.86521
| 23>    C       -4.97726         0.06976        -6.22490
| 24>    C       -4.64680        -1.01740        -7.03887
| 25>    C       -4.17608        -2.21154        -6.43923
| 26>    C       -4.03025        -2.36101        -5.06561
| 27>    S       -3.82184        -3.41768        -7.63459
| 28>    C       -4.29975        -2.33972        -8.89921
| 29>    C       -4.70566        -1.12943        -8.45630
| 30>    C       -5.10685         0.91993        -3.81787
| 31>    O       -5.40238         2.08262        -3.98533
| 32>    C       -4.79624         0.23534        -2.52791
| 33>    C       -4.76891         0.84739        -1.31787
| 34>    C       -5.39200         2.10188        -1.01990
| 35>    C       -4.79414         3.00400        -0.11533
| 36>    C       -5.38747         4.28016         0.18698
| 37>    N       -4.76336         5.12301         1.02154
| 38>    C       -3.61901         4.77872         1.55344
| 39>    C       -3.03050         3.50296         1.25394
| 40>    N       -3.61716         2.66469         0.44044
| 41>    C       -1.79189         3.14688         1.84772
| 42>    N       -0.78656         2.90480         2.33921
| 43>    C       -2.97227         5.68171         2.43418
| 44>    N       -2.43034         6.39815         3.14433
| 45>    C       -6.61496         4.68753        -0.38335
| 46>    C       -7.24756         3.75843        -1.23004
| 47>    C       -6.64652         2.47650        -1.53279
| 48>    N       -7.44727         1.72729        -2.29442
| 49>    S       -8.76851         2.56378        -2.63138
| 50>    N       -8.43711         3.89324        -1.81763
| 51>    C       -7.18393         5.96217        -0.10178
| 52>    S       -6.49512         7.08680         1.06362
| 53>    C       -7.84729         8.12322         0.65968
| 54>    N       -8.63173         7.59754        -0.24686
| 55>    N       -8.27085         6.42091        -0.65695
| 56>    C       -8.08686         9.40441         1.26279
| 57>    C       -9.17327        10.17034         0.81125
| 58>    C       -9.41726        11.38584         1.39832
| 59>    C       -8.60015        11.85316         2.44464
| 60>    C       -7.52197        11.09893         2.89190
| 61>    C       -7.27043         9.88078         2.29599
| 62>    C       -9.08771        13.14876         2.86069
| 63>    C      -10.19963        13.48830         2.06565
| 64>    C      -10.53653        12.36365         1.11438
| 65>    C      -10.54420        12.82048        -0.35199
| 66>    C       -9.21671        13.44004        -0.77393
| 67>    C      -11.85916        11.65819         1.50120
| 68>    C      -13.10494        12.53435         1.50489
| 69>    C      -10.80367        14.71324         2.20367
| 70>    C      -10.34790        15.60751         3.18580
| 71>    C       -9.26646        15.23235         3.99860
| 72>    C       -8.62275        14.02468         3.83290
| 73>    C      -10.93674        16.90513         3.38738
| 74>    C      -11.91510        17.47348         2.64624
| 75>    C      -12.51099        18.73741         2.90731
| 76>    C      -12.06096        19.81442         3.60650
| 77>    C      -10.77148        20.21043         4.13486
| 78>    C       -9.53916        19.89435         3.62329
| 79>    C       -8.32423        20.39648         4.13195
| 80>    N       -7.30636        20.76129         4.51765
| 81>    C       -9.34346        19.08240         2.48899
| 82>    N       -9.13147        18.44284         1.55990
| 83>    C      -11.01672        21.21612         5.16410
| 84>    C      -12.37835        21.60967         5.10266
| 85>    C      -13.06322        20.82052         4.06451
| 86>    O      -14.20821        20.91975         3.68586
| 87>    C      -12.90690        22.56836         5.93301
| 88>    C      -12.05795        23.15558         6.87593
| 89>    C      -10.70439        22.74511         6.93922
| 90>    C      -10.16565        21.78321         6.09247
| 91>    S       -9.84907        23.59222         8.18911
| 92>    C      -11.27859        24.47341         8.60430
| 93>    C      -12.35104        24.15315         7.84824
| 94>    H       -5.33371         0.99710        -6.64587
| 95>    H       -3.66051        -3.28670        -4.65712
| 96>    H       -4.24574        -2.68420        -9.91366
| 97>    H       -5.03701        -0.33350        -9.09824
| 98>    H       -4.22077         0.40288        -0.49680
| 99>    H       -9.78277         9.78037         0.01183
|100>    H       -6.89109        11.45711         3.69088
|101>    H       -6.43776         9.27778         2.62847
|102>    H      -11.33917        13.55311        -0.49544
|103>    H      -10.76186        11.95807        -0.98508
|104>    H       -8.99166        14.31755        -0.17167
|105>    H       -9.26135        13.74298        -1.81722
|106>    H       -8.40425        12.72595        -0.65844
|107>    H      -11.73167        11.22992         2.49903
|108>    H      -12.00558        10.83061         0.80425
|109>    H      -13.03880        13.30177         2.27155
|110>    H      -13.97485        11.91792         1.72074
|111>    H      -13.26124        13.00776         0.53941
|112>    H      -11.62007        14.99419         1.55928
|113>    H       -8.91807        15.92231         4.75389
|114>    H       -7.77269        13.76708         4.44623
|115>    H      -10.56286        17.44693         4.24788
|116>    H      -12.35725        16.92125         1.82913
|117>    H      -13.53095        18.85250         2.54837
|118>    H      -13.94465        22.85410         5.85820
|119>    H       -9.13040        21.49774         6.18217
|120>    H      -11.22575        25.18764         9.40288
|121>    H      -13.32327        24.59721         7.96281
|122> *
|123>
|124>                          ****END OF INPUT****

CARTESIAN COORDINATES (ANGSTROEM)
---------------------------------
  C     -4.354420   -1.117220   -2.827680
  C     -4.072300   -2.092310   -1.908530
  C     -3.681790   -3.406540   -2.243200
  N     -3.355830   -4.486280   -2.455270
  C     -4.169800   -1.934810   -0.509060
  N     -4.254630   -1.894280    0.634990
  C     -4.371450   -1.280200   -4.273600
  C     -4.839440   -0.078710   -4.865210
  C     -4.977260    0.069760   -6.224900
  C     -4.646800   -1.017400   -7.038870
  C     -4.176080   -2.211540   -6.439230
  C     -4.030250   -2.361010   -5.065610
  S     -3.821840   -3.417680   -7.634590
  C     -4.299750   -2.339720   -8.899210
  C     -4.705660   -1.129430   -8.456300
  C     -5.106850    0.919930   -3.817870
  O     -5.402380    2.082620   -3.985330
  C     -4.796240    0.235340   -2.527910
  C     -4.768910    0.847390   -1.317870
  C     -5.392000    2.101880   -1.019900
  C     -4.794140    3.004000   -0.115330
  C     -5.387470    4.280160    0.186980
  N     -4.763360    5.123010    1.021540
  C     -3.619010    4.778720    1.553440
  C     -3.030500    3.502960    1.253940
  N     -3.617160    2.664690    0.440440
  C     -1.791890    3.146880    1.847720
  N     -0.786560    2.904800    2.339210
  C     -2.972270    5.681710    2.434180
  N     -2.430340    6.398150    3.144330
  C     -6.614960    4.687530   -0.383350
  C     -7.247560    3.758430   -1.230040
  C     -6.646520    2.476500   -1.532790
  N     -7.447270    1.727290   -2.294420
  S     -8.768510    2.563780   -2.631380
  N     -8.437110    3.893240   -1.817630
  C     -7.183930    5.962170   -0.101780
  S     -6.495120    7.086800    1.063620
  C     -7.847290    8.123220    0.659680
  N     -8.631730    7.597540   -0.246860
  N     -8.270850    6.420910   -0.656950
  C     -8.086860    9.404410    1.262790
  C     -9.173270   10.170340    0.811250
  C     -9.417260   11.385840    1.398320
  C     -8.600150   11.853160    2.444640
  C     -7.521970   11.098930    2.891900
  C     -7.270430    9.880780    2.295990
  C     -9.087710   13.148760    2.860690
  C    -10.199630   13.488300    2.065650
  C    -10.536530   12.363650    1.114380
  C    -10.544200   12.820480   -0.351990
  C     -9.216710   13.440040   -0.773930
  C    -11.859160   11.658190    1.501200
  C    -13.104940   12.534350    1.504890
  C    -10.803670   14.713240    2.203670
  C    -10.347900   15.607510    3.185800
  C     -9.266460   15.232350    3.998600
  C     -8.622750   14.024680    3.832900
  C    -10.936740   16.905130    3.387380
  C    -11.915100   17.473480    2.646240
  C    -12.510990   18.737410    2.907310
  C    -12.060960   19.814420    3.606500
  C    -10.771480   20.210430    4.134860
  C     -9.539160   19.894350    3.623290
  C     -8.324230   20.396480    4.131950
  N     -7.306360   20.761290    4.517650
  C     -9.343460   19.082400    2.488990
  N     -9.131470   18.442840    1.559900
  C    -11.016720   21.216120    5.164100
  C    -12.378350   21.609670    5.102660
  C    -13.063220   20.820520    4.064510
  O    -14.208210   20.919750    3.685860
  C    -12.906900   22.568360    5.933010
  C    -12.057950   23.155580    6.875930
  C    -10.704390   22.745110    6.939220
  C    -10.165650   21.783210    6.092470
  S     -9.849070   23.592220    8.189110
  C    -11.278590   24.473410    8.604300
  C    -12.351040   24.153150    7.848240
  H     -5.333710    0.997100   -6.645870
  H     -3.660510   -3.286700   -4.657120
  H     -4.245740   -2.684200   -9.913660
  H     -5.037010   -0.333500   -9.098240
  H     -4.220770    0.402880   -0.496800
  H     -9.782770    9.780370    0.011830
  H     -6.891090   11.457110    3.690880
  H     -6.437760    9.277780    2.628470
  H    -11.339170   13.553110   -0.495440
  H    -10.761860   11.958070   -0.985080
  H     -8.991660   14.317550   -0.171670
  H     -9.261350   13.742980   -1.817220
  H     -8.404250   12.725950   -0.658440
  H    -11.731670   11.229920    2.499030
  H    -12.005580   10.830610    0.804250
  H    -13.038800   13.301770    2.271550
  H    -13.974850   11.917920    1.720740
  H    -13.261240   13.007760    0.539410
  H    -11.620070   14.994190    1.559280
  H     -8.918070   15.922310    4.753890
  H     -7.772690   13.767080    4.446230
  H    -10.562860   17.446930    4.247880
  H    -12.357250   16.921250    1.829130
  H    -13.530950   18.852500    2.548370
  H    -13.944650   22.854100    5.858200
  H     -9.130400   21.497740    6.182170
  H    -11.225750   25.187640    9.402880
  H    -13.323270   24.597210    7.962810

 Total Charge           Charge          ....    0
 Multiplicity           Mult            ....    1
 Number of Electrons    NEL             ....  558
 Basis Dimension        Dim             .... 1262

ORBITAL ENERGIES
----------------

  NO   OCC          E(Eh)            E(eV)
   0   2.0000     -89.052178     -2423.2330
   1   2.0000     -88.976302     -2421.1683
   2   2.0000     -88.971780     -2421.0452
   3   2.0000     -88.965530     -2420.8752
   4   2.0000     -19.222538      -523.0719
   5   2.0000     -19.210774      -522.7517
   6   2.0000     -14.480291      -394.0287
   7   2.0000     -14.475965      -393.9110
   8   2.0000     -14.454550      -393.3283
   9   2.0000     -14.454382      -393.3237
  10   2.0000     -14.443780      -393.0352
  11   2.0000     -14.440815      -392.9546
  12   2.0000     -14.438411      -392.8891
  13   2.0000     -14.435703      -392.8154
  14   2.0000     -14.421293      -392.4233
  15   2.0000     -14.420457      -392.4006
  16   2.0000     -14.413688      -392.2164
  17   2.0000     -14.412660      -392.1884
  18   2.0000     -10.397012      -282.9171
  19   2.0000     -10.396420      -282.9010
  20   2.0000     -10.373803      -282.2855
  21   2.0000     -10.363986      -282.0184
  22   2.0000     -10.363725      -282.0113
  23   2.0000     -10.361601      -281.9535
  24   2.0000     -10.351257      -281.6720
  25   2.0000     -10.350517      -281.6519
  26   2.0000     -10.350497      -281.6513
  27   2.0000     -10.347993      -281.5832
  28   2.0000     -10.346814      -281.5511
  29   2.0000     -10.341146      -281.3969
  30   2.0000     -10.340907      -281.3904
  31   2.0000     -10.340266      -281.3730
  32   2.0000     -10.339671      -281.3568
  33   2.0000     -10.333927      -281.2004
  34   2.0000     -10.330871      -281.1173
  35   2.0000     -10.327107      -281.0149
  36   2.0000     -10.326443      -280.9968
  37   2.0000     -10.323871      -280.9268
  38   2.0000     -10.323320      -280.9118
  39   2.0000     -10.322571      -280.8914
  40   2.0000     -10.319624      -280.8112
  41   2.0000     -10.319506      -280.8080
  42   2.0000     -10.316622      -280.7296
  43   2.0000     -10.313562      -280.6463
  44   2.0000     -10.313120      -280.6342
  45   2.0000     -10.312717      -280.6233
  46   2.0000     -10.311071      -280.5785
  47   2.0000     -10.310707      -280.5686
  48   2.0000     -10.309130      -280.5257
  49   2.0000     -10.307886      -280.4918
  50   2.0000     -10.305300      -280.4215
  51   2.0000     -10.304998      -280.4133
  52   2.0000     -10.302157      -280.3359
  53   2.0000     -10.300373      -280.2874
  54   2.0000     -10.300275      -280.2847
  55   2.0000     -10.297683      -280.2142
  56   2.0000     -10.296757      -280.1890
  57   2.0000     -10.294205      -280.1196
  58   2.0000     -10.294136      -280.1177
  59   2.0000     -10.292357      -280.0693
  60   2.0000     -10.288853      -279.9739
  61   2.0000     -10.288476      -279.9637
  62   2.0000     -10.288107      -279.9536
  63   2.0000     -10.285833      -279.8917
  64   2.0000     -10.285278      -279.8766
  65   2.0000     -10.284692      -279.8607
  66   2.0000     -10.283854      -279.8379
  67   2.0000     -10.283155      -279.8189
  68   2.0000     -10.282625      -279.8045
  69   2.0000     -10.281760      -279.7809
  70   2.0000     -10.280394      -279.7438
  71   2.0000     -10.280298      -279.7411
  72   2.0000     -10.278719      -279.6982
  73   2.0000     -10.278368      -279.6886
  74   2.0000     -10.277392      -279.6620
  75   2.0000     -10.268214      -279.4123
  76   2.0000     -10.265653      -279.3426
  77   2.0000     -10.256120      -279.0832
  78   2.0000     -10.246824      -278.8303
  79   2.0000      -8.143328      -221.5912
  80   2.0000      -8.070780      -219.6171
  81   2.0000      -8.068133      -219.5451
  82   2.0000      -8.061855      -219.3742
  83   2.0000      -6.114125      -166.3738
  84   2.0000      -6.106789      -166.1742
  85   2.0000      -6.106250      -166.1595
  86   2.0000      -6.039739      -164.3496
  87   2.0000      -6.037650      -164.2928
  88   2.0000      -6.035855      -164.2440
  89   2.0000      -6.033324      -164.1751
  90   2.0000      -6.033219      -164.1722
  91   2.0000      -6.031358      -164.1216
  92   2.0000      -6.029778      -164.0786
  93   2.0000      -6.027082      -164.0052
  94   2.0000      -6.023498      -163.9077
  95   2.0000      -1.150536       -31.3077
  96   2.0000      -1.145545       -31.1719
  97   2.0000      -1.137039       -30.9404
  98   2.0000      -1.136328       -30.9210
  99   2.0000      -1.125976       -30.6394
 100   2.0000      -1.063771       -28.9467
 101   2.0000      -1.026157       -27.9232
 102   2.0000      -1.024551       -27.8794
 103   2.0000      -1.018060       -27.7028
 104   2.0000      -1.013912       -27.5900
 105   2.0000      -1.013688       -27.5838
 106   2.0000      -1.006460       -27.3872
 107   2.0000      -1.002442       -27.2778
 108   2.0000      -0.999205       -27.1897
 109   2.0000      -0.997439       -27.1417
 110   2.0000      -0.995009       -27.0756
 111   2.0000      -0.991834       -26.9892
 112   2.0000      -0.989001       -26.9121
 113   2.0000      -0.982569       -26.7371
 114   2.0000      -0.962392       -26.1880
 115   2.0000      -0.943125       -25.6637
 116   2.0000      -0.939024       -25.5521
 117   2.0000      -0.931873       -25.3575
 118   2.0000      -0.928623       -25.2691
 119   2.0000      -0.920489       -25.0478
 120   2.0000      -0.911224       -24.7957
 121   2.0000      -0.908673       -24.7262
 122   2.0000      -0.906726       -24.6733
 123   2.0000      -0.891032       -24.2462
 124   2.0000      -0.888664       -24.1818
 125   2.0000      -0.886742       -24.1295
 126   2.0000      -0.880054       -23.9475
 127   2.0000      -0.873048       -23.7568
 128   2.0000      -0.856310       -23.3014
 129   2.0000      -0.845395       -23.0044
 130   2.0000      -0.843907       -22.9639
 131   2.0000      -0.842431       -22.9237
 132   2.0000      -0.838462       -22.8157
 133   2.0000      -0.837058       -22.7775
 134   2.0000      -0.828765       -22.5518
 135   2.0000      -0.821648       -22.3582
 136   2.0000      -0.814204       -22.1556
 137   2.0000      -0.807857       -21.9829
 138   2.0000      -0.793474       -21.5915
 139   2.0000      -0.778243       -21.1771
 140   2.0000      -0.771610       -20.9966
 141   2.0000      -0.763842       -20.7852
 142   2.0000      -0.757019       -20.5995
 143   2.0000      -0.755327       -20.5535
 144   2.0000      -0.744470       -20.2580
 145   2.0000      -0.739761       -20.1299
 146   2.0000      -0.725073       -19.7302
 147   2.0000      -0.719137       -19.5687
 148   2.0000      -0.716157       -19.4876
 149   2.0000      -0.705132       -19.1876
 150   2.0000      -0.700715       -19.0674
 151   2.0000      -0.695422       -18.9234
 152   2.0000      -0.694210       -18.8904
 153   2.0000      -0.689832       -18.7713
 154   2.0000      -0.686260       -18.6741
 155   2.0000      -0.684699       -18.6316
 156   2.0000      -0.678777       -18.4705
 157   2.0000      -0.673501       -18.3269
 158   2.0000      -0.667702       -18.1691
 159   2.0000      -0.666512       -18.1367
 160   2.0000      -0.664569       -18.0838
 161   2.0000      -0.659954       -17.9583
 162   2.0000      -0.648256       -17.6399
 163   2.0000      -0.645616       -17.5681
 164   2.0000      -0.639535       -17.4026
 165   2.0000      -0.634177       -17.2568
 166   2.0000      -0.625607       -17.0236
 167   2.0000      -0.624854       -17.0031
 168   2.0000      -0.617909       -16.8142
 169   2.0000      -0.610967       -16.6253
 170   2.0000      -0.601495       -16.3675
 171   2.0000      -0.600799       -16.3486
 172   2.0000      -0.599689       -16.3184
 173   2.0000      -0.595690       -16.2096
 174   2.0000      -0.594410       -16.1747
 175   2.0000      -0.588120       -16.0036
 176   2.0000      -0.580378       -15.7929
 177   2.0000      -0.575961       -15.6727
 178   2.0000      -0.569062       -15.4850
 179   2.0000      -0.566526       -15.4159
 180   2.0000      -0.557773       -15.1778
 181   2.0000      -0.552922       -15.0458
 182   2.0000      -0.551409       -15.0046
 183   2.0000      -0.548002       -14.9119
 184   2.0000      -0.545176       -14.8350
 185   2.0000      -0.543870       -14.7995
 186   2.0000      -0.543547       -14.7907
 187   2.0000      -0.539900       -14.6914
 188   2.0000      -0.538797       -14.6614
 189   2.0000      -0.538432       -14.6515
 190   2.0000      -0.535380       -14.5684
 191   2.0000      -0.532406       -14.4875
 192   2.0000      -0.529894       -14.4191
 193   2.0000      -0.527742       -14.3606
 194   2.0000      -0.526756       -14.3338
 195   2.0000      -0.525243       -14.2926
 196   2.0000      -0.524053       -14.2602
 197   2.0000      -0.521202       -14.1826
 198   2.0000      -0.515470       -14.0267
 199   2.0000      -0.512099       -13.9349
 200   2.0000      -0.508630       -13.8405
 201   2.0000      -0.506316       -13.7776
 202   2.0000      -0.503663       -13.7054
 203   2.0000      -0.503275       -13.6948
 204   2.0000      -0.499987       -13.6053
 205   2.0000      -0.498212       -13.5570
 206   2.0000      -0.496603       -13.5132
 207   2.0000      -0.495161       -13.4740
 208   2.0000      -0.492557       -13.4032
 209   2.0000      -0.490266       -13.3408
 210   2.0000      -0.489268       -13.3137
 211   2.0000      -0.487889       -13.2761
 212   2.0000      -0.485860       -13.2209
 213   2.0000      -0.483754       -13.1636
 214   2.0000      -0.479744       -13.0545
 215   2.0000      -0.476957       -12.9787
 216   2.0000      -0.469534       -12.7767
 217   2.0000      -0.465568       -12.6687
 218   2.0000      -0.465074       -12.6553
 219   2.0000      -0.462815       -12.5938
 220   2.0000      -0.461705       -12.5636
 221   2.0000      -0.459486       -12.5033
 222   2.0000      -0.458533       -12.4773
 223   2.0000      -0.453784       -12.3481
 224   2.0000      -0.453330       -12.3357
 225   2.0000      -0.452930       -12.3248
 226   2.0000      -0.451799       -12.2941
 227   2.0000      -0.450131       -12.2487
 228   2.0000      -0.449428       -12.2296
 229   2.0000      -0.448049       -12.1920
 230   2.0000      -0.447461       -12.1760
 231   2.0000      -0.445889       -12.1333
 232   2.0000      -0.441720       -12.0198
 233   2.0000      -0.441247       -12.0069
 234   2.0000      -0.438349       -11.9281
 235   2.0000      -0.437984       -11.9182
 236   2.0000      -0.437172       -11.8961
 237   2.0000      -0.432594       -11.7715
 238   2.0000      -0.431983       -11.7549
 239   2.0000      -0.431628       -11.7452
 240   2.0000      -0.430936       -11.7264
 241   2.0000      -0.430684       -11.7195
 242   2.0000      -0.428141       -11.6503
 243   2.0000      -0.427105       -11.6221
 244   2.0000      -0.426877       -11.6159
 245   2.0000      -0.424470       -11.5504
 246   2.0000      -0.423497       -11.5239
 247   2.0000      -0.419822       -11.4239
 248   2.0000      -0.416287       -11.3277
 249   2.0000      -0.415431       -11.3044
 250   2.0000      -0.414668       -11.2837
 251   2.0000      -0.405113       -11.0237
 252   2.0000      -0.404011       -10.9937
 253   2.0000      -0.400490       -10.8979
 254   2.0000      -0.395933       -10.7739
 255   2.0000      -0.392287       -10.6747
 256   2.0000      -0.390225       -10.6186
 257   2.0000      -0.385197       -10.4817
 258   2.0000      -0.381544       -10.3823
 259   2.0000      -0.380910       -10.3651
 260   2.0000      -0.378977       -10.3125
 261   2.0000      -0.373714       -10.1693
 262   2.0000      -0.368161       -10.0182
 263   2.0000      -0.367003        -9.9867
 264   2.0000      -0.358929        -9.7669
 265   2.0000      -0.353901        -9.6301
 266   2.0000      -0.346770        -9.4361
 267   2.0000      -0.340405        -9.2629
 268   2.0000      -0.332084        -9.0365
 269   2.0000      -0.330051        -8.9811
 270   2.0000      -0.323141        -8.7931
 271   2.0000      -0.318865        -8.6768
 272   2.0000      -0.318027        -8.6540
 273   2.0000      -0.313662        -8.5352
 274   2.0000      -0.311442        -8.4748
 275   2.0000      -0.300382        -8.1738
 276   2.0000      -0.294280        -8.0078
 277   2.0000      -0.285885        -7.7793
 278   2.0000      -0.262107        -7.1323
 279   0.0000      -0.139384        -3.7928
 280   0.0000      -0.089413        -2.4331
 281   0.0000      -0.088478        -2.4076
 282   0.0000      -0.065849        -1.7918
 283   0.0000      -0.060654        -1.6505

MULLIKEN ATOMIC CHARGES
-----------------------
   0 C :    0.296203
   1 C :   -0.331310
   2 C :   -0.183957
   3 N :    0.159217
   4 C :   -0.198162
   5 N :    0.165960
   6 C :    0.019588
   7 C :   -0.021789
   8 C :   -0.065604
   9 C :    0.114208
  10 C :   -0.093133
  11 C :   -0.022912
  12 S :    0.146223
  13 C :   -0.048087
  14 C :    0.024976
  15 C :    0.157165
  16 O :   -0.149178
  17 C :   -0.049092
  18 C :   -0.081105
  19 C :    0.071725
  20 C :   -0.050058
  21 C :   -0.041045
  22 N :    0.023904
  23 C :   -0.110284
  24 C :   -0.135017
  25 N :    0.068686
  26 C :   -0.205332
  27 N :    0.248679
  28 C :   -0.222956
  29 N :    0.250173
  30 C :    0.208708
  31 C :   -0.001759
  32 C :    0.027403
  33 N :   -0.275052
  34 S :    0.570554
  35 N :   -0.229660
  36 C :   -0.245781
  37 S :    0.118671
  38 C :   -0.051871
  39 N :   -0.058484
  40 N :    0.002119
  41 C :    0.106700
  42 C :   -0.101599
  43 C :    0.034832
  44 C :    0.105758
  45 C :   -0.044180
  46 C :   -0.020687
  47 C :    0.105320
  48 C :    0.017186
  49 C :   -0.129871
  50 C :    0.049896
  51 C :    0.020081
  52 C :    0.073143
  53 C :    0.030206
  54 C :   -0.071618
  55 C :    0.113623
  56 C :   -0.007444
  57 C :   -0.047970
  58 C :    0.024170
  59 C :    0.021204
  60 C :    0.044264
  61 C :   -0.119867
  62 C :    0.266160
  63 C :   -0.343714
  64 C :   -0.179263
  65 N :    0.156326
  66 C :   -0.206259
  67 N :    0.175605
  68 C :   -0.003210
  69 C :    0.007309
  70 C :    0.129650
  71 O :   -0.148273
  72 C :   -0.067118
  73 C :    0.106118
  74 C :   -0.092961
  75 C :   -0.024011
  76 S :    0.138799
  77 C :   -0.051565
  78 C :    0.027699
  79 H :   -0.012235
  80 H :   -0.004581
  81 H :    0.041232
  82 H :   -0.005082
  83 H :    0.048401
  84 H :   -0.008466
  85 H :   -0.026663
  86 H :   -0.008471
  87 H :    0.007613
  88 H :    0.004834
  89 H :    0.030436
  90 H :    0.013218
  91 H :    0.020533
  92 H :    0.004774
  93 H :    0.004892
  94 H :    0.020473
  95 H :    0.015536
  96 H :    0.003637
  97 H :   -0.037441
  98 H :   -0.021486
  99 H :   -0.028536
 100 H :   -0.000466
 101 H :   -0.001824
 102 H :    0.026272
 103 H :   -0.011070
 104 H :   -0.004894
 105 H :    0.039527
 106 H :   -0.007134
Sum of atomic charges:   -0.0000000

LOEWDIN ATOMIC CHARGES
----------------------
   0 C :    0.072990
   1 C :   -0.127325
   2 C :   -0.017638
   3 N :   -0.045394
   4 C :   -0.022786
   5 N :   -0.041858
   6 C :   -0.022105
   7 C :   -0.052045
   8 C :    0.024087
   9 C :   -0.033342
  10 C :   -0.144094
  11 C :   -0.007483
  12 S :    0.433606
  13 C :   -0.146781
  14 C :   -0.057613
  15 C :    0.085178
  16 O :   -0.142772
  17 C :   -0.060233
  18 C :    0.071839
  19 C :   -0.024654
  20 C :    0.007097
  21 C :   -0.014488
  22 N :   -0.012004
  23 C :   -0.021549
  24 C :   -0.017951
  25 N :    0.006000
  26 C :   -0.036037
  27 N :    0.007514
  28 C :   -0.038079
  29 N :    0.002987
  30 C :   -0.015869
  31 C :   -0.036974
  32 C :   -0.027230
  33 N :   -0.278501
  34 S :    0.712050
  35 N :   -0.251623
  36 C :   -0.163394
  37 S :    0.435907
  38 C :   -0.131081
  39 N :   -0.084577
  40 N :   -0.037380
  41 C :   -0.056195
  42 C :    0.009091
  43 C :    0.007921
  44 C :   -0.006029
  45 C :   -0.014208
  46 C :   -0.013177
  47 C :   -0.005912
  48 C :    0.007853
  49 C :   -0.035134
  50 C :   -0.014856
  51 C :   -0.056416
  52 C :   -0.008800
  53 C :   -0.059164
  54 C :   -0.001317
  55 C :   -0.028066
  56 C :   -0.002633
  57 C :   -0.015504
  58 C :    0.048104
  59 C :   -0.046037
  60 C :    0.068012
  61 C :   -0.095075
  62 C :    0.066699
  63 C :   -0.145023
  64 C :   -0.021291
  65 N :   -0.054899
  66 C :   -0.018352
  67 N :   -0.041844
  68 C :   -0.020153
  69 C :   -0.055045
  70 C :    0.083736
  71 O :   -0.145802
  72 C :    0.023603
  73 C :   -0.036357
  74 C :   -0.145207
  75 C :   -0.012508
  76 S :    0.427809
  77 C :   -0.150385
  78 C :   -0.057516
  79 H :    0.040312
  80 H :    0.041285
  81 H :    0.030486
  82 H :    0.035995
  83 H :    0.050067
  84 H :    0.033615
  85 H :    0.030738
  86 H :    0.024584
  87 H :    0.019979
  88 H :    0.023125
  89 H :    0.028378
  90 H :    0.026183
  91 H :    0.024763
  92 H :    0.026356
  93 H :    0.023480
  94 H :    0.023617
  95 H :    0.029162
  96 H :    0.020112
  97 H :    0.025396
  98 H :    0.029476
  99 H :    0.029910
 100 H :    0.032546
 101 H :    0.032238
 102 H :    0.046687
 103 H :    0.040635
 104 H :    0.040016
 105 H :    0.029321
 106 H :    0.035221

  Mayer bond orders larger than 0.100000
B(  0-C ,  1-C ) :   1.6579 B(  0-C ,  6-C ) :   1.0125 B(  0-C , 17-C ) :   1.0461
B(  1-C ,  2-C ) :   1.1378 B(  1-C ,  4-C ) :   1.1416 B(  2-C ,  3-N ) :   2.9742
B(  4-C ,  5-N ) :   2.9841 B(  6-C ,  7-C ) :   1.2640 B(  6-C , 11-C ) :   1.4075
B(  7-C ,  8-C ) :   1.4224 B(  7-C , 15-C ) :   0.9549 B(  8-C ,  9-C ) :   1.2499
B(  8-C , 79-H ) :   1.0163 B(  9-C , 10-C ) :   1.2957 B(  9-C , 14-C ) :   1.1723
B( 10-C , 11-C ) :   1.3282 B( 10-C , 12-S ) :   1.1012 B( 11-C , 80-H ) :   0.9817
B( 12-S , 13-C ) :   1.1270 B( 13-C , 14-C ) :   1.6275 B( 13-C , 81-H ) :   0.9689
B( 14-C , 82-H ) :   0.9993 B( 15-C , 16-O ) :   2.2247 B( 15-C , 17-C ) :   0.9268
B( 17-C , 18-C ) :   1.6624 B( 18-C , 19-C ) :   1.1230 B( 18-C , 83-H ) :   0.9270
B( 19-C , 20-C ) :   1.2754 B( 19-C , 30-C ) :   0.1355 B( 19-C , 32-C ) :   1.2276
B( 20-C , 21-C ) :   1.1251 B( 20-C , 25-N ) :   1.4469 B( 21-C , 22-N ) :   1.4131
B( 21-C , 30-C ) :   1.2687 B( 22-N , 23-C ) :   1.7197 B( 23-C , 24-C ) :   1.2005
B( 23-C , 28-C ) :   1.1566 B( 24-C , 25-N ) :   1.7534 B( 24-C , 26-C ) :   1.1548
B( 26-C , 27-N ) :   3.0471 B( 28-C , 29-N ) :   3.0457 B( 30-C , 31-C ) :   1.2131
B( 30-C , 36-C ) :   1.1079 B( 31-C , 32-C ) :   1.0969 B( 31-C , 35-N ) :   1.5188
B( 32-C , 33-N ) :   1.4944 B( 33-N , 34-S ) :   1.2982 B( 33-N , 35-N ) :   0.1549
B( 34-S , 35-N ) :   1.3201 B( 36-C , 37-S ) :   1.0984 B( 36-C , 40-N ) :   1.7040
B( 37-S , 38-C ) :   1.0955 B( 37-S , 40-N ) :   0.1004 B( 38-C , 39-N ) :   1.6587
B( 38-C , 41-C ) :   1.0495 B( 39-N , 40-N ) :   1.2316 B( 41-C , 42-C ) :   1.3253
B( 41-C , 46-C ) :   1.3237 B( 42-C , 43-C ) :   1.3547 B( 42-C , 84-H ) :   1.0144
B( 43-C , 44-C ) :   1.3669 B( 43-C , 49-C ) :   0.9227 B( 44-C , 45-C ) :   1.3335
B( 44-C , 47-C ) :   0.9995 B( 45-C , 46-C ) :   1.4024 B( 45-C , 85-H ) :   0.9930
B( 46-C , 86-H ) :   0.9835 B( 47-C , 48-C ) :   1.3669 B( 47-C , 57-C ) :   1.3375
B( 48-C , 49-C ) :   0.9192 B( 48-C , 54-C ) :   1.4220 B( 49-C , 50-C ) :   1.0310
B( 49-C , 52-C ) :   1.0123 B( 50-C , 51-C ) :   1.1035 B( 50-C , 87-H ) :   0.9383
B( 50-C , 88-H ) :   0.9397 B( 51-C , 89-H ) :   0.9644 B( 51-C , 90-H ) :   0.9643
B( 51-C , 91-H ) :   0.9641 B( 52-C , 53-C ) :   1.1179 B( 52-C , 92-H ) :   0.9392
B( 52-C , 93-H ) :   0.9376 B( 53-C , 94-H ) :   0.9596 B( 53-C , 95-H ) :   0.9590
B( 53-C , 96-H ) :   0.9625 B( 54-C , 55-C ) :   1.2908 B( 54-C , 97-H ) :   0.9916
B( 55-C , 56-C ) :   1.3253 B( 55-C , 58-C ) :   1.1030 B( 56-C , 57-C ) :   1.3799
B( 56-C , 98-H ) :   0.9946 B( 57-C , 99-H ) :   0.9925 B( 58-C , 59-C ) :   1.6491
B( 58-C ,100-H ) :   0.9718 B( 59-C , 60-C ) :   1.1490 B( 59-C ,101-H ) :   0.9532
B( 60-C , 61-C ) :   1.6709 B( 60-C ,102-H ) :   0.9253 B( 61-C , 62-C ) :   1.0340
B( 61-C , 70-C ) :   0.9436 B( 62-C , 63-C ) :   1.6442 B( 62-C , 68-C ) :   1.0123
B( 63-C , 64-C ) :   1.1255 B( 63-C , 66-C ) :   1.1747 B( 64-C , 65-N ) :   2.9919
B( 66-C , 67-N ) :   2.9942 B( 68-C , 69-C ) :   1.2684 B( 68-C , 75-C ) :   1.4176
B( 69-C , 70-C ) :   0.9225 B( 69-C , 72-C ) :   1.4278 B( 70-C , 71-O ) :   2.2571
B( 72-C , 73-C ) :   1.2524 B( 72-C ,103-H ) :   1.0154 B( 73-C , 74-C ) :   1.3037
B( 73-C , 78-C ) :   1.1716 B( 74-C , 75-C ) :   1.3209 B( 74-C , 76-S ) :   1.0966
B( 75-C ,104-H ) :   0.9854 B( 76-S , 77-C ) :   1.1253 B( 77-C , 78-C ) :   1.6314
B( 77-C ,105-H ) :   0.9685 B( 78-C ,106-H ) :   0.9990

-----------------------------------------------------------------------------
         ABSORPTION SPECTRUM VIA TRANSITION ELECTRIC DIPOLE MOMENTS
-----------------------------------------------------------------------------
State   Energy  Wavelength   fosc         T2         TX        TY        TZ
        (cm-1)    (nm)                  (au**2)     (au)      (au)      (au)
-----------------------------------------------------------------------------
   0   13307.8    751.4   0.858999759  21.25017   1.56010  -4.09446  -1.43235
   1   17661.3    566.2   0.001231159   0.02295  -0.01122   0.14977  -0.01978
   2   18679.4    535.3   0.011260921   0.19847  -0.02960   0.44164   0.05040
   3   21429.0    466.7   0.108568614   1.66793   0.00973   1.27605  -0.19885
   4   21545.7    464.1   0.693223697  10.59227   0.36367  -3.08025  -0.98595
   5   22522.1    444.0   0.010294063   0.15047   0.15775   0.17614   0.30751
   6   24070.9    415.4   0.129922392   1.77691   0.29280  -1.03610  -0.78592
   7   24772.1    403.7   0.190618932   2.53326   0.23253  -1.45574  -0.60000
   8   25539.6    391.5   0.029566762   0.38112  -0.18786  -0.16649  -0.56402
   9   26384.5    379.0   0.004318591   0.05389  -0.17777  -0.10595  -0.10515
  10   27254.8    366.9   0.082268375   0.99372  -0.38012  -0.39176  -0.83412
  11   27412.7    364.8   0.050315939   0.60427  -0.09455   0.70484  -0.31388
  12   27586.4    362.5   0.224320592   2.67700  -0.12957   1.38094   0.86789
  13   28109.5    355.8   0.011042570   0.12933  -0.20024   0.28740   0.08144
  14   28533.6    350.5   0.074977479   0.86507  -0.62303   0.68988  -0.03117
  15   28889.3    346.1   0.540410976   6.15833  -1.33703   1.91495   0.83885
  16   29458.8    339.5   0.016413326   0.18342  -0.39192   0.14651  -0.09143
  17   29669.9    337.0   0.314058934   3.48475  -1.12372   1.10069   1.00522
  18   29854.6    335.0   0.059917557   0.66072   0.71885  -0.15037  -0.34838
  19   29998.4    333.4   0.358294648   3.93204   0.61761  -0.01153   1.88427
  20   30731.5    325.4   0.113126097   1.21187  -0.98338  -0.01442  -0.49459
  21   30907.0    323.6   0.037850310   0.40317  -0.34673   0.38682   0.36513
  22   31066.4    321.9   0.078229809   0.82900   0.05212  -0.66458  -0.62018
  23   31148.6    321.0   0.039506727   0.41755  -0.09614  -0.40412  -0.49497
  24   32058.6    311.9   0.031820911   0.32677   0.32156   0.34345   0.32466
  25   32169.5    310.9   0.097143594   0.99413   0.48926   0.71769   0.48956
  26   32397.8    308.7   0.041090429   0.41754  -0.09667  -0.28768   0.57047
  27   32466.3    308.0   0.101589806   1.03013   0.55490  -0.19471   0.82723
  28   32692.9    305.9   0.145488957   1.46505   1.06782  -0.16521   0.54544
  29   33074.0    302.4   0.005975157   0.05948   0.10634  -0.21258   0.05457
  30   33427.4    299.2   0.416243165   4.09940  -0.50432   1.43139   1.34022
  31   33489.7    298.6   0.074732481   0.73464   0.28707   0.18819   0.78538
  32   33547.8    298.1   0.022112377   0.21699   0.22231   0.20247   0.35578
  33   33906.9    294.9   0.003868181   0.03756   0.02990   0.13507   0.13571
  34   33979.6    294.3   0.029413842   0.28498  -0.12806  -0.47291  -0.21197
  35   34372.4    290.9   0.314804609   3.01513   0.24295   1.17892   1.25150
  36   34558.2    289.4   0.216499885   2.06244   0.02177  -1.30754  -0.59355
  37   34840.0    287.0   0.239413693   2.26228   1.05706   0.34647  -1.01236
  38   35161.9    284.4   0.446920520   4.18441   0.60569  -0.46534   1.89763
  39   35314.7    283.2   0.004913937   0.04581  -0.07104  -0.10146   0.17455
  40   35588.4    281.0   0.193073346   1.78603  -1.05392   0.32167  -0.75619
  41   36564.8    273.5   0.003031806   0.02730  -0.12110   0.10462   0.04105
  42   36824.2    271.6   0.086885544   0.77677   0.57687   0.47353   0.46878
  43   37078.0    269.7   0.011651315   0.10345   0.24764  -0.20388  -0.02361
  44   37653.8    265.6   0.020231041   0.17688   0.04165  -0.16402  -0.38502
  45   38143.0    262.2   0.042454725   0.36643   0.29153  -0.51860  -0.11176
  46   38472.0    259.9   0.060072725   0.51405  -0.59191  -0.17852  -0.36308
  47   38524.6    259.6   0.104837787   0.89589   0.89620  -0.03234   0.30279
  48   38556.8    259.4   0.031113758   0.26566   0.01373   0.38560   0.34174
  49   38949.0    256.7   0.081627884   0.68995   0.71536   0.07550   0.41534
  50   39042.8    256.1   0.032283380   0.27222   0.38144   0.07314   0.34839
  51   39588.2    252.6   0.028811383   0.23959  -0.29261  -0.37552  -0.11384
  52   39656.8    252.2   0.180537913   1.49874   0.34910  -1.05550  -0.51264
  53   39823.8    251.1   0.041783132   0.34541   0.06292  -0.58131  -0.05938
  54   39940.5    250.4   0.011995779   0.09888  -0.11720   0.03787  -0.28932
  55   40145.9    249.1   0.078605620   0.64460   0.36455  -0.71247   0.06396
  56   40315.6    248.0   0.061304336   0.50060   0.36857   0.42463   0.42947

FINAL SINGLE POINT ENERGY     -4736.964862775711

DIPOLE MOMENT
-------------
                                X             Y             Z
Electronic contribution:     51.20264     -83.84069     -10.56983
Nuclear contribution   :    -54.02100      84.67778       9.15142
                        -----------------------------------------
Total Dipole Moment    :     -2.81836       0.83709      -1.41841
                        -----------------------------------------
Magnitude (a.u.)       :      3.26432
Magnitude (Debye)      :      8.29723

Rotational constants in cm-1:     0.002345     0.000159     0.000153
Rotational constants in MHz :    70.308699     4.756517     4.591961

                             ****ORCA TERMINATED NORMALLY****
TOTAL RUN TIME: 0 days 0 hours 10 minutes 44 seconds 921 msec
