                         Program Version 4.2.0 -  RELEASE  -
|  1> # ORCA input file
|  2> # SCF done       -181.518560435444          0.000567549131
|  3> ! CAM-B3LYP def2-SVP def2/J RIJCOSX Grid4 TightSCF
|  4> %maxcore 5000
|  5> %tddft
|  6>     Mode sTDDFT
|  7>     Ethresh 5.0
|  8>     maxcore 5000
|  9> end
| 10>
| 11> %pal
| 12>   nprocs 6
| 13>   end
| 14> * xyz 0 1
| 15>    C       -7.48654        14.74755       -12.91516
| 16>    C       -7.32087        16.10568       -13.00291
| 17>    C       -7.24018        16.81844       -14.21641
| 18>    N       -7.16904        17.44950       -15.17268
| 19>    C       -7.21460        16.96360       -11.88930
| 20>    N       -7.12854        17.69850       -11.01152
| 21>    C       -7.60764        13.82737       -14.04362
| 22>    C       -7.77292        12.50827       -13.54649
| 23>    C       -7.91749        11.41962       -14.37234
| 24>    C       -7.89898        11.63990       -15.75369
| 25>    C       -7.73340        12.95842       -16.23976
| 26>    C       -7.58639        14.06027       -15.40441
| 27>    S       -7.74158        13.00589       -17.97528
| 28>    C       -7.96445        11.27744       -18.02591
| 29>    C       -8.02948        10.69284       -16.80556
| 30>   Br       -8.09337        10.40796       -19.68257
| 31>    C       -7.76231        12.55222       -12.07940
| 32>    O       -7.89443        11.60624       -11.30315
| 33>    C       -7.57836        13.95466       -11.71172
| 34>    C       -7.52400        14.36089       -10.39782
| 35>    N       -7.62667        13.47118        -9.40798
| 36>    C       -7.56806        13.72709        -8.07189
| 37>    S       -7.14705        15.31597        -7.49740
| 38>    C       -7.20375        14.72015        -5.87435
| 39>    N       -6.92900        15.61846        -4.83188
| 40>    O       -6.96755        15.18937        -3.69490
| 41>    O       -6.67026        16.76470        -5.14997
| 42>    C       -7.52783        13.39415        -5.78922
| 43>    C       -7.76221        12.79644        -7.04627
| 44>    C       -8.12943        11.40771        -7.14249
| 45>    C       -8.73760        10.78155        -8.16751
| 46>    N       -9.02717         9.44644        -8.20456
| 47>    C       -9.02089         8.57207        -7.11292
| 48>    C       -9.52204         8.83789        -5.87481
| 49>    S       -9.34853         7.50835        -4.80886
| 50>    C       -8.60017         6.56405        -6.03607
| 51>    C       -8.47914         7.24157        -7.21581
| 52>    N       -7.88834         6.85520        -8.40321
| 53>    C       -7.43120         5.63402        -8.82169
| 54>    C       -7.63345         4.43063        -8.25133
| 55>    C       -7.09456         3.21243        -8.78028
| 56>    C       -6.73627         2.92464       -10.06350
| 57>    C       -6.38031         1.52639       -10.14003
| 58>    C       -5.93889         0.88854       -11.30441
| 59>    N       -5.58644         0.37737       -12.27113
| 60>    C       -6.55524         0.94250        -8.90960
| 61>    C       -6.96068         1.96389        -7.99373
| 62>    C       -7.01334         1.86403        -6.62206
| 63>    C       -7.11164         0.63281        -5.79970
| 64>    C       -6.83242         0.98525        -4.50529
| 65>    C       -6.59729         2.39969        -4.45295
| 66>    C       -6.75065         2.93237        -5.71469
| 67>    C       -6.26623         3.11843        -3.29792
| 68>    N       -6.00374         3.71652        -2.35306
| 69>    C       -7.55369        -0.65777        -6.19745
| 70>    C       -8.28854        -0.96024        -7.29607
| 71>    C       -8.68815        -2.27751        -7.66512
| 72>    C       -9.48844        -2.57223        -8.81315
| 73>    C       -9.67185        -3.94498        -8.89975
| 74>    C      -10.36460        -4.74024        -9.83081
| 75>    C      -10.35593        -6.09987        -9.63755
| 76>    C      -10.94168        -7.17056       -10.37559
| 77>    C      -10.62980        -8.37102        -9.75324
| 78>    C       -9.83824        -8.07731        -8.60532
| 79>    C       -9.66004        -6.69913        -8.51679
| 80>    C       -8.96831        -5.90938        -7.58789
| 81>    C       -8.97464        -4.54463        -7.77960
| 82>    C       -8.37951        -3.48781        -7.04294
| 83>    C      -11.04681        -9.67469       -10.21122
| 84>    C      -10.75212       -10.83182        -9.62487
| 85>    H       -8.04121        10.42696       -13.96859
| 86>    H       -7.46306        15.04481       -15.82330
| 87>    H       -8.16393         9.63752       -16.65355
| 88>    H       -7.40726        15.40022       -10.12061
| 89>    H       -7.70415        12.49313        -9.72404
| 90>    H       -7.60495        12.87799        -4.84929
| 91>    H       -7.90498        10.83418        -6.25520
| 92>    H       -9.03571        11.29585        -9.06811
| 93>    H       -9.43506         9.09417        -9.05742
| 94>    H       -9.99198         9.73919        -5.53751
| 95>    H       -8.26548         5.58487        -5.77142
| 96>    H       -7.66729         7.63503        -9.00665
| 97>    H       -6.83767         5.69677        -9.72370
| 98>    H       -8.24177         4.33909        -7.36798
| 99>    H       -6.73959         3.58573       -10.90948
|100>    H       -6.30833        -0.06847        -8.65034
|101>    H       -6.82741         0.33658        -3.64931
|102>    H       -6.52775         3.94485        -5.99170
|103>    H       -7.32834        -1.44732        -5.49142
|104>    H       -8.61900        -0.16548        -7.95178
|105>    H       -9.87305        -1.83473        -9.49518
|106>    H      -10.88020        -4.28690       -10.66577
|107>    H      -11.52770        -7.05702       -11.26957
|108>    H       -9.44204        -8.80301        -7.91893
|109>    H       -8.44931        -6.36203        -6.75457
|110>    H       -7.78921        -3.61888        -6.15530
|111>    H      -11.64888        -9.66939       -11.11139
|112>    H      -10.15766       -10.88832        -8.72919
|113>    H      -11.09905       -11.76891       -10.02407
|114> *
|115>
|116>                          ****END OF INPUT****

CARTESIAN COORDINATES (ANGSTROEM)
---------------------------------
  C     -7.486540   14.747550  -12.915160
  C     -7.320870   16.105680  -13.002910
  C     -7.240180   16.818440  -14.216410
  N     -7.169040   17.449500  -15.172680
  C     -7.214600   16.963600  -11.889300
  N     -7.128540   17.698500  -11.011520
  C     -7.607640   13.827370  -14.043620
  C     -7.772920   12.508270  -13.546490
  C     -7.917490   11.419620  -14.372340
  C     -7.898980   11.639900  -15.753690
  C     -7.733400   12.958420  -16.239760
  C     -7.586390   14.060270  -15.404410
  S     -7.741580   13.005890  -17.975280
  C     -7.964450   11.277440  -18.025910
  C     -8.029480   10.692840  -16.805560
  Br    -8.093370   10.407960  -19.682570
  C     -7.762310   12.552220  -12.079400
  O     -7.894430   11.606240  -11.303150
  C     -7.578360   13.954660  -11.711720
  C     -7.524000   14.360890  -10.397820
  N     -7.626670   13.471180   -9.407980
  C     -7.568060   13.727090   -8.071890
  S     -7.147050   15.315970   -7.497400
  C     -7.203750   14.720150   -5.874350
  N     -6.929000   15.618460   -4.831880
  O     -6.967550   15.189370   -3.694900
  O     -6.670260   16.764700   -5.149970
  C     -7.527830   13.394150   -5.789220
  C     -7.762210   12.796440   -7.046270
  C     -8.129430   11.407710   -7.142490
  C     -8.737600   10.781550   -8.167510
  N     -9.027170    9.446440   -8.204560
  C     -9.020890    8.572070   -7.112920
  C     -9.522040    8.837890   -5.874810
  S     -9.348530    7.508350   -4.808860
  C     -8.600170    6.564050   -6.036070
  C     -8.479140    7.241570   -7.215810
  N     -7.888340    6.855200   -8.403210
  C     -7.431200    5.634020   -8.821690
  C     -7.633450    4.430630   -8.251330
  C     -7.094560    3.212430   -8.780280
  C     -6.736270    2.924640  -10.063500
  C     -6.380310    1.526390  -10.140030
  C     -5.938890    0.888540  -11.304410
  N     -5.586440    0.377370  -12.271130
  C     -6.555240    0.942500   -8.909600
  C     -6.960680    1.963890   -7.993730
  C     -7.013340    1.864030   -6.622060
  C     -7.111640    0.632810   -5.799700
  C     -6.832420    0.985250   -4.505290
  C     -6.597290    2.399690   -4.452950
  C     -6.750650    2.932370   -5.714690
  C     -6.266230    3.118430   -3.297920
  N     -6.003740    3.716520   -2.353060
  C     -7.553690   -0.657770   -6.197450
  C     -8.288540   -0.960240   -7.296070
  C     -8.688150   -2.277510   -7.665120
  C     -9.488440   -2.572230   -8.813150
  C     -9.671850   -3.944980   -8.899750
  C    -10.364600   -4.740240   -9.830810
  C    -10.355930   -6.099870   -9.637550
  C    -10.941680   -7.170560  -10.375590
  C    -10.629800   -8.371020   -9.753240
  C     -9.838240   -8.077310   -8.605320
  C     -9.660040   -6.699130   -8.516790
  C     -8.968310   -5.909380   -7.587890
  C     -8.974640   -4.544630   -7.779600
  C     -8.379510   -3.487810   -7.042940
  C    -11.046810   -9.674690  -10.211220
  C    -10.752120  -10.831820   -9.624870
  H     -8.041210   10.426960  -13.968590
  H     -7.463060   15.044810  -15.823300
  H     -8.163930    9.637520  -16.653550
  H     -7.407260   15.400220  -10.120610
  H     -7.704150   12.493130   -9.724040
  H     -7.604950   12.877990   -4.849290
  H     -7.904980   10.834180   -6.255200
  H     -9.035710   11.295850   -9.068110
  H     -9.435060    9.094170   -9.057420
  H     -9.991980    9.739190   -5.537510
  H     -8.265480    5.584870   -5.771420
  H     -7.667290    7.635030   -9.006650
  H     -6.837670    5.696770   -9.723700
  H     -8.241770    4.339090   -7.367980
  H     -6.739590    3.585730  -10.909480
  H     -6.308330   -0.068470   -8.650340
  H     -6.827410    0.336580   -3.649310
  H     -6.527750    3.944850   -5.991700
  H     -7.328340   -1.447320   -5.491420
  H     -8.619000   -0.165480   -7.951780
  H     -9.873050   -1.834730   -9.495180
  H    -10.880200   -4.286900  -10.665770
  H    -11.527700   -7.057020  -11.269570
  H     -9.442040   -8.803010   -7.918930
  H     -8.449310   -6.362030   -6.754570
  H     -7.789210   -3.618880   -6.155300
  H    -11.648880   -9.669390  -11.111390
  H    -10.157660  -10.888320   -8.729190
  H    -11.099050  -11.768910  -10.024070

 Total Charge           Charge          ....    0
 Multiplicity           Mult            ....    1
 Number of Electrons    NEL             ....  522
 Basis Dimension        Dim             .... 1155

ORBITAL ENERGIES
----------------

  NO   OCC          E(Eh)            E(eV)
   0   2.0000    -482.892575    -13140.1750
   1   2.0000     -88.987914     -2421.4842
   2   2.0000     -88.984494     -2421.3912
   3   2.0000     -88.964009     -2420.8338
   4   2.0000     -62.570309     -1702.6247
   5   2.0000     -56.404271     -1534.8382
   6   2.0000     -56.401533     -1534.7637
   7   2.0000     -56.401502     -1534.7629
   8   2.0000     -19.240256      -523.5540
   9   2.0000     -19.238896      -523.5170
  10   2.0000     -19.237999      -523.4926
  11   2.0000     -14.650258      -398.6538
  12   2.0000     -14.502006      -394.6196
  13   2.0000     -14.467091      -393.6696
  14   2.0000     -14.463287      -393.5660
  15   2.0000     -14.423860      -392.4932
  16   2.0000     -14.419797      -392.3826
  17   2.0000     -14.408929      -392.0869
  18   2.0000     -14.406466      -392.0199
  19   2.0000     -10.386945      -282.6431
  20   2.0000     -10.374573      -282.3065
  21   2.0000     -10.367176      -282.1052
  22   2.0000     -10.367096      -282.1030
  23   2.0000     -10.351635      -281.6823
  24   2.0000     -10.347464      -281.5688
  25   2.0000     -10.346645      -281.5465
  26   2.0000     -10.334681      -281.2210
  27   2.0000     -10.334528      -281.2168
  28   2.0000     -10.331738      -281.1409
  29   2.0000     -10.331504      -281.1345
  30   2.0000     -10.327268      -281.0192
  31   2.0000     -10.326125      -280.9881
  32   2.0000     -10.322998      -280.9031
  33   2.0000     -10.318149      -280.7711
  34   2.0000     -10.317659      -280.7578
  35   2.0000     -10.317398      -280.7507
  36   2.0000     -10.317152      -280.7440
  37   2.0000     -10.317048      -280.7412
  38   2.0000     -10.314853      -280.6814
  39   2.0000     -10.313835      -280.6537
  40   2.0000     -10.313498      -280.6445
  41   2.0000     -10.309608      -280.5387
  42   2.0000     -10.309398      -280.5330
  43   2.0000     -10.308710      -280.5143
  44   2.0000     -10.307336      -280.4769
  45   2.0000     -10.305865      -280.4368
  46   2.0000     -10.305470      -280.4261
  47   2.0000     -10.305339      -280.4225
  48   2.0000     -10.305177      -280.4181
  49   2.0000     -10.303946      -280.3846
  50   2.0000     -10.303677      -280.3773
  51   2.0000     -10.297845      -280.2186
  52   2.0000     -10.293751      -280.1072
  53   2.0000     -10.292304      -280.0678
  54   2.0000     -10.292091      -280.0620
  55   2.0000     -10.288614      -279.9674
  56   2.0000     -10.288392      -279.9614
  57   2.0000     -10.286011      -279.8966
  58   2.0000     -10.284972      -279.8683
  59   2.0000     -10.283125      -279.8181
  60   2.0000     -10.281951      -279.7861
  61   2.0000     -10.281631      -279.7774
  62   2.0000     -10.281324      -279.7691
  63   2.0000     -10.280346      -279.7424
  64   2.0000     -10.278711      -279.6979
  65   2.0000     -10.274699      -279.5888
  66   2.0000     -10.273786      -279.5639
  67   2.0000     -10.272384      -279.5258
  68   2.0000     -10.272245      -279.5220
  69   2.0000     -10.270167      -279.4655
  70   2.0000     -10.270144      -279.4648
  71   2.0000     -10.268626      -279.4235
  72   2.0000     -10.268146      -279.4105
  73   2.0000     -10.260790      -279.2103
  74   2.0000      -8.799759      -239.4536
  75   2.0000      -8.083114      -219.9527
  76   2.0000      -8.080420      -219.8794
  77   2.0000      -8.059949      -219.3224
  78   2.0000      -6.636127      -180.5782
  79   2.0000      -6.621461      -180.1791
  80   2.0000      -6.621254      -180.1735
  81   2.0000      -6.052761      -164.7040
  82   2.0000      -6.050096      -164.6315
  83   2.0000      -6.048399      -164.5853
  84   2.0000      -6.045803      -164.5147
  85   2.0000      -6.044600      -164.4819
  86   2.0000      -6.041701      -164.4030
  87   2.0000      -6.029369      -164.0675
  88   2.0000      -6.024986      -163.9482
  89   2.0000      -6.022011      -163.8672
  90   2.0000      -2.751945       -74.8842
  91   2.0000      -2.747884       -74.7737
  92   2.0000      -2.747732       -74.7696
  93   2.0000      -2.736073       -74.4523
  94   2.0000      -2.736054       -74.4518
  95   2.0000      -1.320406       -35.9301
  96   2.0000      -1.153021       -31.3753
  97   2.0000      -1.139565       -31.0092
  98   2.0000      -1.107279       -30.1306
  99   2.0000      -1.078331       -29.3429
 100   2.0000      -1.049036       -28.5457
 101   2.0000      -1.032162       -28.0866
 102   2.0000      -1.021032       -27.7837
 103   2.0000      -1.009879       -27.4802
 104   2.0000      -1.007546       -27.4167
 105   2.0000      -1.001379       -27.2489
 106   2.0000      -0.997915       -27.1546
 107   2.0000      -0.996351       -27.1121
 108   2.0000      -0.992473       -27.0066
 109   2.0000      -0.984888       -26.8002
 110   2.0000      -0.979462       -26.6525
 111   2.0000      -0.971554       -26.4373
 112   2.0000      -0.966682       -26.3048
 113   2.0000      -0.950610       -25.8674
 114   2.0000      -0.919880       -25.0312
 115   2.0000      -0.917365       -24.9628
 116   2.0000      -0.910227       -24.7685
 117   2.0000      -0.900232       -24.4966
 118   2.0000      -0.895466       -24.3669
 119   2.0000      -0.891358       -24.2551
 120   2.0000      -0.885964       -24.1083
 121   2.0000      -0.881055       -23.9747
 122   2.0000      -0.870069       -23.6758
 123   2.0000      -0.869295       -23.6547
 124   2.0000      -0.856914       -23.3178
 125   2.0000      -0.853641       -23.2287
 126   2.0000      -0.850509       -23.1435
 127   2.0000      -0.839025       -22.8310
 128   2.0000      -0.833472       -22.6799
 129   2.0000      -0.823044       -22.3962
 130   2.0000      -0.819548       -22.3010
 131   2.0000      -0.803124       -21.8541
 132   2.0000      -0.800465       -21.7818
 133   2.0000      -0.797690       -21.7062
 134   2.0000      -0.791449       -21.5364
 135   2.0000      -0.771678       -20.9984
 136   2.0000      -0.771308       -20.9884
 137   2.0000      -0.758108       -20.6292
 138   2.0000      -0.754550       -20.5324
 139   2.0000      -0.735165       -20.0049
 140   2.0000      -0.731282       -19.8992
 141   2.0000      -0.729662       -19.8551
 142   2.0000      -0.727855       -19.8059
 143   2.0000      -0.715386       -19.4666
 144   2.0000      -0.708563       -19.2810
 145   2.0000      -0.698705       -19.0127
 146   2.0000      -0.688320       -18.7301
 147   2.0000      -0.687503       -18.7079
 148   2.0000      -0.684884       -18.6366
 149   2.0000      -0.680484       -18.5169
 150   2.0000      -0.673706       -18.3325
 151   2.0000      -0.670769       -18.2525
 152   2.0000      -0.663537       -18.0557
 153   2.0000      -0.654583       -17.8121
 154   2.0000      -0.649108       -17.6631
 155   2.0000      -0.645893       -17.5757
 156   2.0000      -0.638503       -17.3745
 157   2.0000      -0.633843       -17.2478
 158   2.0000      -0.631659       -17.1883
 159   2.0000      -0.629090       -17.1184
 160   2.0000      -0.627456       -17.0739
 161   2.0000      -0.624542       -16.9947
 162   2.0000      -0.623519       -16.9668
 163   2.0000      -0.614808       -16.7298
 164   2.0000      -0.610731       -16.6188
 165   2.0000      -0.605642       -16.4804
 166   2.0000      -0.600206       -16.3324
 167   2.0000      -0.599422       -16.3111
 168   2.0000      -0.597753       -16.2657
 169   2.0000      -0.588189       -16.0054
 170   2.0000      -0.585663       -15.9367
 171   2.0000      -0.584982       -15.9182
 172   2.0000      -0.580311       -15.7911
 173   2.0000      -0.571064       -15.5394
 174   2.0000      -0.566740       -15.4218
 175   2.0000      -0.562936       -15.3183
 176   2.0000      -0.556441       -15.1415
 177   2.0000      -0.556180       -15.1344
 178   2.0000      -0.553357       -15.0576
 179   2.0000      -0.546630       -14.8746
 180   2.0000      -0.539585       -14.6829
 181   2.0000      -0.539153       -14.6711
 182   2.0000      -0.534257       -14.5379
 183   2.0000      -0.530837       -14.4448
 184   2.0000      -0.529755       -14.4154
 185   2.0000      -0.527263       -14.3476
 186   2.0000      -0.525636       -14.3033
 187   2.0000      -0.522134       -14.2080
 188   2.0000      -0.520164       -14.1544
 189   2.0000      -0.516575       -14.0567
 190   2.0000      -0.515209       -14.0195
 191   2.0000      -0.508952       -13.8493
 192   2.0000      -0.508680       -13.8419
 193   2.0000      -0.507645       -13.8137
 194   2.0000      -0.505731       -13.7616
 195   2.0000      -0.503948       -13.7131
 196   2.0000      -0.503769       -13.7082
 197   2.0000      -0.499972       -13.6049
 198   2.0000      -0.495537       -13.4842
 199   2.0000      -0.494422       -13.4539
 200   2.0000      -0.493305       -13.4235
 201   2.0000      -0.489194       -13.3116
 202   2.0000      -0.486053       -13.2262
 203   2.0000      -0.485357       -13.2072
 204   2.0000      -0.483204       -13.1487
 205   2.0000      -0.476789       -12.9741
 206   2.0000      -0.475982       -12.9521
 207   2.0000      -0.474454       -12.9106
 208   2.0000      -0.469172       -12.7668
 209   2.0000      -0.468386       -12.7454
 210   2.0000      -0.464638       -12.6434
 211   2.0000      -0.461500       -12.5580
 212   2.0000      -0.460740       -12.5374
 213   2.0000      -0.457829       -12.4582
 214   2.0000      -0.455895       -12.4055
 215   2.0000      -0.455489       -12.3945
 216   2.0000      -0.452211       -12.3053
 217   2.0000      -0.449860       -12.2413
 218   2.0000      -0.448191       -12.1959
 219   2.0000      -0.447758       -12.1841
 220   2.0000      -0.443157       -12.0589
 221   2.0000      -0.442339       -12.0367
 222   2.0000      -0.438155       -11.9228
 223   2.0000      -0.436975       -11.8907
 224   2.0000      -0.435525       -11.8512
 225   2.0000      -0.434374       -11.8199
 226   2.0000      -0.433824       -11.8049
 227   2.0000      -0.433770       -11.8035
 228   2.0000      -0.431370       -11.7382
 229   2.0000      -0.424337       -11.5468
 230   2.0000      -0.419808       -11.4235
 231   2.0000      -0.418070       -11.3763
 232   2.0000      -0.416575       -11.3356
 233   2.0000      -0.410595       -11.1729
 234   2.0000      -0.407667       -11.0932
 235   2.0000      -0.404270       -11.0007
 236   2.0000      -0.399000       -10.8573
 237   2.0000      -0.397713       -10.8223
 238   2.0000      -0.385894       -10.5007
 239   2.0000      -0.382954       -10.4207
 240   2.0000      -0.382036       -10.3957
 241   2.0000      -0.378780       -10.3071
 242   2.0000      -0.374000       -10.1771
 243   2.0000      -0.371549       -10.1104
 244   2.0000      -0.371085       -10.0977
 245   2.0000      -0.367962       -10.0127
 246   2.0000      -0.363283        -9.8854
 247   2.0000      -0.359423        -9.7804
 248   2.0000      -0.343862        -9.3570
 249   2.0000      -0.330260        -8.9868
 250   2.0000      -0.329160        -8.9569
 251   2.0000      -0.326986        -8.8978
 252   2.0000      -0.319274        -8.6879
 253   2.0000      -0.307406        -8.3649
 254   2.0000      -0.304191        -8.2775
 255   2.0000      -0.297462        -8.0944
 256   2.0000      -0.282447        -7.6858
 257   2.0000      -0.272400        -7.4124
 258   2.0000      -0.262906        -7.1540
 259   2.0000      -0.251866        -6.8536
 260   2.0000      -0.234955        -6.3935
 261   0.0000      -0.117999        -3.2109
 262   0.0000      -0.102865        -2.7991
 263   0.0000      -0.092075        -2.5055
 264   0.0000      -0.075888        -2.0650
 265   0.0000      -0.041852        -1.1389

MULLIKEN ATOMIC CHARGES
-----------------------
   0 C :    0.326822
   1 C :   -0.341975
   2 C :   -0.185998
   3 N :    0.150823
   4 C :   -0.196979
   5 N :    0.148729
   6 C :    0.005539
   7 C :   -0.003229
   8 C :   -0.067939
   9 C :    0.114634
  10 C :   -0.092106
  11 C :   -0.016333
  12 S :    0.194689
  13 C :   -0.125142
  14 C :    0.037817
  15 Br:    0.029472
  16 C :    0.163166
  17 O :   -0.236069
  18 C :   -0.129079
  19 C :    0.023351
  20 N :    0.000721
  21 C :   -0.148197
  22 S :    0.166990
  23 C :    0.017701
  24 N :    0.273205
  25 O :   -0.246911
  26 O :   -0.254992
  27 C :   -0.008645
  28 C :    0.150727
  29 C :   -0.089402
  30 C :    0.058397
  31 N :   -0.110839
  32 C :    0.096375
  33 C :   -0.156392
  34 S :    0.137405
  35 C :   -0.230417
  36 C :    0.154714
  37 N :   -0.035656
  38 C :    0.055308
  39 C :   -0.069196
  40 C :    0.086928
  41 C :   -0.052022
  42 C :   -0.107368
  43 C :   -0.131674
  44 N :    0.133153
  45 C :   -0.046352
  46 C :    0.044243
  47 C :    0.044859
  48 C :    0.105340
  49 C :   -0.032531
  50 C :   -0.097160
  51 C :   -0.062506
  52 C :   -0.130762
  53 N :    0.135291
  54 C :   -0.019875
  55 C :    0.003618
  56 C :    0.049835
  57 C :   -0.023203
  58 C :    0.051082
  59 C :    0.004706
  60 C :    0.053359
  61 C :   -0.019855
  62 C :    0.056767
  63 C :   -0.011412
  64 C :    0.037913
  65 C :    0.008761
  66 C :    0.048388
  67 C :   -0.024647
  68 C :    0.011639
  69 C :   -0.024596
  70 H :   -0.018848
  71 H :   -0.003904
  72 H :   -0.003627
  73 H :    0.049514
  74 H :    0.168650
  75 H :    0.010865
  76 H :    0.006103
  77 H :    0.002776
  78 H :    0.138223
  79 H :    0.023169
  80 H :    0.011576
  81 H :    0.118896
  82 H :    0.007024
  83 H :    0.005068
  84 H :   -0.024047
  85 H :    0.010609
  86 H :   -0.016934
  87 H :    0.010020
  88 H :   -0.018891
  89 H :   -0.002760
  90 H :   -0.021227
  91 H :   -0.022508
  92 H :   -0.025179
  93 H :   -0.021137
  94 H :   -0.021481
  95 H :   -0.024978
  96 H :   -0.018574
  97 H :    0.007590
  98 H :    0.021005
Sum of atomic charges:   -0.0000000

LOEWDIN ATOMIC CHARGES
----------------------
   0 C :    0.078299
   1 C :   -0.148003
   2 C :   -0.019974
   3 N :   -0.052991
   4 C :   -0.021810
   5 N :   -0.050403
   6 C :   -0.017837
   7 C :   -0.052446
   8 C :    0.020887
   9 C :   -0.034485
  10 C :   -0.143951
  11 C :   -0.006420
  12 S :    0.439999
  13 C :   -0.270934
  14 C :   -0.071175
  15 Br:    0.140911
  16 C :    0.095253
  17 O :   -0.196798
  18 C :   -0.150540
  19 C :    0.110974
  20 N :    0.084619
  21 C :   -0.130498
  22 S :    0.467572
  23 C :   -0.200800
  24 N :    0.273030
  25 O :   -0.212435
  26 O :   -0.221681
  27 C :   -0.003879
  28 C :   -0.068949
  29 C :   -0.114987
  30 C :    0.035752
  31 N :    0.005234
  32 C :   -0.044599
  33 C :   -0.199009
  34 S :    0.457752
  35 C :   -0.229587
  36 C :   -0.022803
  37 N :    0.026429
  38 C :    0.045131
  39 C :   -0.105521
  40 C :   -0.016601
  41 C :   -0.030591
  42 C :   -0.055287
  43 C :   -0.030491
  44 N :   -0.053187
  45 C :   -0.018066
  46 C :    0.040478
  47 C :    0.035772
  48 C :   -0.016527
  49 C :   -0.022725
  50 C :   -0.049040
  51 C :   -0.027755
  52 C :   -0.030232
  53 N :   -0.047476
  54 C :   -0.028801
  55 C :   -0.005323
  56 C :   -0.072064
  57 C :    0.041052
  58 C :   -0.070743
  59 C :    0.078348
  60 C :   -0.065540
  61 C :    0.025701
  62 C :   -0.063644
  63 C :    0.055908
  64 C :   -0.068710
  65 C :    0.083933
  66 C :   -0.063725
  67 C :    0.025383
  68 C :   -0.021537
  69 C :   -0.053760
  70 H :    0.038043
  71 H :    0.042499
  72 H :    0.038532
  73 H :    0.036200
  74 H :    0.084202
  75 H :    0.045919
  76 H :    0.032594
  77 H :    0.021740
  78 H :    0.084614
  79 H :    0.027169
  80 H :    0.019230
  81 H :    0.080691
  82 H :    0.029615
  83 H :    0.027466
  84 H :    0.024204
  85 H :    0.035706
  86 H :    0.029833
  87 H :    0.030450
  88 H :    0.031682
  89 H :    0.030810
  90 H :    0.026334
  91 H :    0.036012
  92 H :    0.025189
  93 H :    0.026204
  94 H :    0.036066
  95 H :    0.023063
  96 H :    0.029436
  97 H :    0.017652
  98 H :    0.024769

  Mayer bond orders larger than 0.100000
B(  0-C ,  1-C ) :   1.6264 B(  0-C ,  6-C ) :   1.0006 B(  0-C , 18-C ) :   1.1065
B(  1-C ,  2-C ) :   1.1431 B(  1-C ,  4-C ) :   1.1463 B(  2-C ,  3-N ) :   2.9677
B(  4-C ,  5-N ) :   2.9548 B(  6-C ,  7-C ) :   1.2733 B(  6-C , 11-C ) :   1.4285
B(  7-C ,  8-C ) :   1.4182 B(  7-C , 16-C ) :   0.9828 B(  8-C ,  9-C ) :   1.2462
B(  8-C , 70-H ) :   1.0174 B(  9-C , 10-C ) :   1.3107 B(  9-C , 14-C ) :   1.1617
B( 10-C , 11-C ) :   1.3168 B( 10-C , 12-S ) :   1.0909 B( 11-C , 71-H ) :   0.9800
B( 12-S , 13-C ) :   1.0897 B( 13-C , 14-C ) :   1.6170 B( 13-C , 15-Br) :   1.0217
B( 14-C , 72-H ) :   1.0003 B( 16-C , 17-O ) :   2.0220 B( 16-C , 18-C ) :   1.0146
B( 17-O , 74-H ) :   0.1298 B( 18-C , 19-C ) :   1.4268 B( 19-C , 20-N ) :   1.3626
B( 19-C , 73-H ) :   0.9297 B( 20-N , 21-C ) :   1.1597 B( 20-N , 74-H ) :   0.8362
B( 21-C , 22-S ) :   1.1240 B( 21-C , 28-C ) :   1.4010 B( 22-S , 23-C ) :   1.0923
B( 23-C , 24-N ) :   0.9606 B( 23-C , 27-C ) :   1.4907 B( 24-N , 25-O ) :   1.5385
B( 24-N , 26-O ) :   1.5188 B( 25-O , 26-O ) :   0.2634 B( 27-C , 28-C ) :   1.2095
B( 27-C , 75-H ) :   1.0084 B( 28-C , 29-C ) :   1.1048 B( 29-C , 30-C ) :   1.6836
B( 29-C , 76-H ) :   0.9537 B( 30-C , 31-N ) :   1.1731 B( 30-C , 77-H ) :   0.9574
B( 31-N , 32-C ) :   1.0235 B( 31-N , 78-H ) :   0.9267 B( 32-C , 33-C ) :   1.5492
B( 32-C , 36-C ) :   1.2705 B( 33-C , 34-S ) :   1.1758 B( 33-C , 79-H ) :   0.9782
B( 34-S , 35-C ) :   1.1495 B( 35-C , 36-C ) :   1.4980 B( 35-C , 80-H ) :   0.9750
B( 36-C , 37-N ) :   1.1303 B( 37-N , 38-C ) :   1.1739 B( 37-N , 81-H ) :   0.9048
B( 38-C , 39-C ) :   1.6907 B( 38-C , 82-H ) :   0.9623 B( 39-C , 40-C ) :   1.0887
B( 39-C , 83-H ) :   0.9534 B( 40-C , 41-C ) :   1.6092 B( 40-C , 46-C ) :   1.0518
B( 41-C , 42-C ) :   1.1012 B( 41-C , 84-H ) :   1.0140 B( 42-C , 43-C ) :   1.0623
B( 42-C , 45-C ) :   1.6061 B( 43-C , 44-N ) :   3.0375 B( 45-C , 46-C ) :   1.1035
B( 45-C , 85-H ) :   1.0158 B( 46-C , 47-C ) :   1.4649 B( 47-C , 48-C ) :   1.0272
B( 47-C , 51-C ) :   1.1336 B( 48-C , 49-C ) :   1.5451 B( 48-C , 54-C ) :   1.1343
B( 49-C , 50-C ) :   1.1249 B( 49-C , 86-H ) :   1.0234 B( 50-C , 51-C ) :   1.5723
B( 50-C , 52-C ) :   1.0579 B( 51-C , 87-H ) :   1.0027 B( 52-C , 53-N ) :   3.0383
B( 54-C , 55-C ) :   1.6311 B( 54-C , 88-H ) :   0.9640 B( 55-C , 56-C ) :   1.1087
B( 55-C , 89-H ) :   0.9711 B( 56-C , 57-C ) :   1.1663 B( 56-C , 67-C ) :   1.4428
B( 57-C , 58-C ) :   1.3889 B( 57-C , 90-H ) :   1.0149 B( 58-C , 59-C ) :   1.1477
B( 58-C , 66-C ) :   1.1440 B( 59-C , 60-C ) :   1.4314 B( 59-C , 91-H ) :   1.0048
B( 60-C , 61-C ) :   1.1082 B( 60-C , 64-C ) :   1.1382 B( 61-C , 62-C ) :   1.4670
B( 61-C , 92-H ) :   1.0161 B( 62-C , 63-C ) :   1.1868 B( 62-C , 68-C ) :   1.0805
B( 63-C , 64-C ) :   1.3803 B( 63-C , 93-H ) :   1.0075 B( 64-C , 65-C ) :   1.1721
B( 65-C , 66-C ) :   1.3893 B( 65-C , 94-H ) :   1.0034 B( 66-C , 67-C ) :   1.1437
B( 67-C , 95-H ) :   1.0081 B( 68-C , 69-C ) :   1.9376 B( 68-C , 96-H ) :   0.9666
B( 69-C , 97-H ) :   0.9530 B( 69-C , 98-H ) :   0.9496

-----------------------------------------------------------------------------
         ABSORPTION SPECTRUM VIA TRANSITION ELECTRIC DIPOLE MOMENTS
-----------------------------------------------------------------------------
State   Energy  Wavelength   fosc         T2         TX        TY        TZ
        (cm-1)    (nm)                  (au**2)     (au)      (au)      (au)
-----------------------------------------------------------------------------
   0    7323.9   1365.4   0.024187234   1.08723  -0.28395  -0.99961  -0.08593
   1    8689.2   1150.9   0.170978695   6.47797  -0.46159  -2.49593   0.18769
   2   11008.5    908.4   0.018743907   0.56054   0.70321   0.16863   0.19393
   3   19255.8    519.3   0.013876601   0.23725   0.13865   0.30675   0.35203
   4   19909.0    502.3   0.109217135   1.80599  -0.00648  -0.83321   1.05438
   5   20203.5    495.0   0.475089894   7.74149   0.19299   0.79404  -2.65965
   6   20522.8    487.3   0.050759975   0.81425  -0.25438  -0.49351  -0.71133
   7   20796.7    480.8   0.008623103   0.13650  -0.06390  -0.36373  -0.01087
   8   22566.7    443.1   0.356288417   5.19767   0.72290   1.94286   0.94889
   9   22757.2    439.4   0.035620462   0.51529  -0.05101  -0.39731  -0.59568
  10   23230.5    430.5   0.065586029   0.92946  -0.36365   0.74962   0.48506
  11   23456.9    426.3   0.120142966   1.68618   0.12496   1.28506  -0.13847
  12   24148.7    414.1   0.042376911   0.57771   0.00127   0.06515   0.75728
  13   25960.2    385.2   0.029030555   0.36815   0.04415   0.18837   0.57508
  14   27005.5    370.3   0.004100494   0.04999   0.02736   0.21207   0.06530
  15   27424.0    364.6   0.636835979   7.64490  -0.97084  -2.47329   0.76499
  16   27890.2    358.5   0.011933578   0.14086  -0.11285  -0.31240   0.17473
  17   28524.9    350.6   0.119518322   1.37939   0.06599  -0.11738   1.16673
  18   28722.2    348.2   0.017989976   0.20620  -0.06702   0.37817  -0.24227
  19   28963.1    345.3   0.000245787   0.00279  -0.00525  -0.05187   0.00869
  20   29369.8    340.5   0.509497235   5.71106   0.74551   1.88085   1.27188
  21   29722.1    336.4   0.688084062   7.62145  -0.30817  -1.67957  -2.16922
  22   30207.4    331.0   0.025391078   0.27672  -0.20881  -0.46839   0.11717
  23   30252.6    330.6   0.018259093   0.19870   0.06340  -0.21080  -0.38761
  24   30649.4    326.3   0.881849293   9.47213   0.74712   1.57161   2.53850
  25   31794.0    314.5   0.433547920   4.48919  -0.28378  -1.30285  -1.64659
  26   32001.3    312.5   0.427255270   4.39537   0.39405   1.83332   0.93757
  27   32509.5    307.6   0.003672247   0.03719   0.06914  -0.13604   0.11790
  28   33143.3    301.7   0.002547917   0.02531  -0.09121  -0.12554  -0.03504
  29   33231.2    300.9   0.194648724   1.92833   0.08957  -1.37988  -0.12741
  30   33491.9    298.6   0.003309149   0.03253  -0.05539  -0.11577  -0.12671
  31   33548.6    298.1   0.014039280   0.13777   0.01159   0.23968   0.28317
  32   33890.0    295.1   0.000005625   0.00005   0.00119  -0.00726   0.00074
  33   34031.8    293.8   0.231622629   2.24064   0.10658   1.37902   0.57235
  34   34249.9    292.0   0.001021085   0.00981  -0.00277   0.06892  -0.07111
  35   34339.6    291.2   0.350248210   3.35781  -0.20153  -1.76147  -0.46305
  36   34672.2    288.4   0.006201223   0.05888   0.08548   0.17378   0.14620
  37   34839.6    287.0   0.038756481   0.36622  -0.06270  -0.49312  -0.34514
  38   35125.5    284.7   0.000377180   0.00354   0.00183   0.05744  -0.01524
  39   35241.5    283.8   0.005076287   0.04742   0.03601   0.08927   0.19533
  40   36204.7    276.2   0.000057614   0.00052  -0.01140  -0.01305   0.01495
  41   36581.8    273.4   0.000460504   0.00414  -0.01758  -0.03667   0.04991
  42   36606.2    273.2   0.017692973   0.15912   0.14467   0.37113   0.02133
  43   36803.3    271.7   0.009305792   0.08324  -0.07004  -0.23064   0.15856
  44   37088.1    269.6   0.001444366   0.01282   0.04133   0.09755  -0.03997
  45   37122.8    269.4   0.175301550   1.55461  -0.47795  -1.01401   0.54585
  46   37516.8    266.5   0.324277547   2.84555   0.17851  -1.26090  -1.10626
  47   37740.1    265.0   0.003612688   0.03151   0.02389   0.15918  -0.07487
  48   37824.5    264.4   0.380368829   3.31061   0.37540   1.77997  -0.03716
  49   38109.4    262.4   0.000119186   0.00103  -0.00515  -0.02660  -0.01719
  50   38205.4    261.7   0.153807789   1.32535  -0.09685   0.03103  -1.14674
  51   38298.5    261.1   0.000229596   0.00197   0.00973   0.00107   0.04333
  52   38480.1    259.9   0.332059922   2.84090  -0.01348  -1.58680  -0.56813
  53   39218.5    255.0   0.047705121   0.40045  -0.20886   0.06974   0.59327
  54   39403.8    253.8   0.031384062   0.26221  -0.01220  -0.19394   0.47376
  55   39684.3    252.0   0.186834420   1.54994   0.09387  -0.53555  -1.11996
  56   39873.3    250.8   0.022556214   0.18623  -0.06058   0.37900   0.19729
  57   40107.0    249.3   0.042441270   0.34837  -0.05730   0.47448  -0.34635
  58   40274.0    248.3   0.200887334   1.64211  -0.21266  -1.26366   0.00773

FINAL SINGLE POINT ENERGY     -6541.310981832136

DIPOLE MOMENT
-------------
                                X             Y             Z
Electronic contribution:     11.30296     138.87625    -124.66572
Nuclear contribution   :    -13.61818    -142.98623     122.68197
                        -----------------------------------------
Total Dipole Moment    :     -2.31522      -4.10998      -1.98375
                        -----------------------------------------
Magnitude (a.u.)       :      5.11737
Magnitude (Debye)      :     13.00733

Rotational constants in cm-1:     0.000846     0.000259     0.000203
Rotational constants in MHz :    25.349308     7.752818     6.083184

                             ****ORCA TERMINATED NORMALLY****
TOTAL RUN TIME: 0 days 0 hours 11 minutes 13 seconds 903 msec
