                         Program Version 4.2.0 -  RELEASE  -
|  1> # ORCA input file
|  2> # SCF done       -189.108722613365          0.000561884840
|  3> ! CAM-B3LYP def2-SVP def2/J RIJCOSX Grid4 TightSCF
|  4> %maxcore 5000
|  5> %tddft
|  6>     Mode sTDDFT
|  7>     Ethresh 5.0
|  8>     maxcore 5000
|  9> end
| 10>
| 11> %pal
| 12>   nprocs 6
| 13>   end
| 14> * xyz 0 1
| 15>    C       10.17169        -6.86356         6.60285
| 16>    C       10.07564        -6.21466         5.43467
| 17>    C       10.88380        -5.12458         4.96658
| 18>    C       10.55609        -4.67431         3.73591
| 19>    C        9.46973        -5.36435         3.12764
| 20>    S        8.87214        -6.61728         4.19864
| 21>    C        8.92603        -5.14223         1.88646
| 22>    C        9.31328        -4.18176         0.91755
| 23>    C        8.58526        -4.22987        -0.22692
| 24>    C        7.57436        -5.22914        -0.24095
| 25>    S        7.58621        -6.10332         1.28160
| 26>    C        6.72333        -5.49559        -1.27797
| 27>    C        5.72758        -6.48669        -1.31744
| 28>    S        5.34888        -7.54137         0.00711
| 29>    C        4.11346        -8.36018        -0.90052
| 30>    C        4.00571        -7.82516        -2.17379
| 31>    C        4.91293        -6.77544        -2.41476
| 32>    O        5.05953        -6.01683        -3.54291
| 33>    C        4.39733        -6.41141        -4.69349
| 34>    S        2.59494        -6.61944        -4.39920
| 35>    S        2.80734        -8.37245        -3.35577
| 36>    C        3.40785        -9.45201        -0.28530
| 37>    C        3.32255        -9.49326         1.11645
| 38>    C        2.69760       -10.54864         1.72816
| 39>    C        2.11204       -11.57038         0.95464
| 40>    C        2.18678       -11.53658        -0.43146
| 41>    C        2.84204       -10.48640        -1.04057
| 42>    C        1.47470       -12.51096         1.84415
| 43>    C        1.64448       -12.06289         3.16761
| 44>    C        2.49305       -10.80940         3.20215
| 45>    C        1.78074        -9.64241         3.90152
| 46>    C        0.41837        -9.34302         3.28647
| 47>    C        3.81837       -11.17702         3.91150
| 48>    C        4.90740       -10.11240         3.88499
| 49>    C        1.10471       -12.76423         4.21380
| 50>    C        0.39194       -13.95469         3.97095
| 51>    C        0.24349       -14.39207         2.64171
| 52>    C        0.76968       -13.68126         1.58600
| 53>    C       -0.14798       -14.66827         5.08985
| 54>    C       -0.69812       -15.91283         5.06401
| 55>    C       -1.21713       -16.57257         6.19050
| 56>    C       -1.73230       -17.84515         6.14200
| 57>    C       -2.30421       -18.60286         7.19137
| 58>    C       -2.73626       -19.84173         6.81726
| 59>    C       -2.52115       -20.13187         5.45241
| 60>    S       -1.75989       -18.78435         4.65433
| 61>    C       -2.82142       -21.27855         4.73444
| 62>    C       -3.50422       -22.44680         5.12695
| 63>    C       -3.63305       -23.35233         4.11361
| 64>    C       -3.06905       -22.94219         2.87802
| 65>    S       -2.39259       -21.36025         3.04259
| 66>    C       -2.96707       -23.76592         1.76027
| 67>    C       -2.32050       -23.57627         0.54738
| 68>    C       -1.87348       -22.40159        -0.05402
| 69>    C       -0.87864       -22.30417        -1.09245
| 70>    C       -0.17803       -23.33080        -1.68233
| 71>    C        0.77782       -23.14714        -2.69999
| 72>    N        1.55952       -23.06236        -3.53798
| 73>    C       -0.30722       -24.69866        -1.37237
| 74>    N       -0.32930       -25.83115        -1.17645
| 75>    C       -0.67572       -20.88150        -1.38095
| 76>    C       -1.59272       -20.13646        -0.60298
| 77>    C       -2.40932       -21.07185         0.19367
| 78>    O       -3.37149       -20.77260         0.89088
| 79>    C       -1.62319       -18.76618        -0.59302
| 80>    C       -0.68482       -18.09105        -1.38241
| 81>    C        0.22108       -18.83997        -2.16491
| 82>    C        0.23967       -20.23146        -2.18473
| 83>    S        1.30798       -17.80606        -3.04715
| 84>    C        0.54586       -16.40486        -2.34509
| 85>    C       -0.47548       -16.68977        -1.50474
| 86>   Br        1.17854       -14.69166        -2.76862
| 87>    H       10.92068        -6.58805         7.32407
| 88>    H        9.51387        -7.67497         6.85447
| 89>    H       11.67648        -4.72906         5.57660
| 90>    H       11.05648        -3.86637         3.23208
| 91>    H       10.11725        -3.49013         1.09474
| 92>    H        8.73555        -3.58312        -1.07346
| 93>    H        6.81823        -4.89940        -2.17544
| 94>    H        4.77328        -7.35973        -5.09275
| 95>    H        4.52154        -5.60837        -5.41907
| 96>    H        3.73647        -8.67569         1.68674
| 97>    H        1.75019       -12.32026        -1.03024
| 98>    H        2.93923       -10.47421        -2.11557
| 99>    H        2.40548        -8.75143         3.83237
|100>    H        1.65789        -9.88651         4.95896
|101>    H        0.52219        -9.08606         2.23465
|102>    H       -0.04968        -8.50669         3.80057
|103>    H       -0.23887       -10.20648         3.36382
|104>    H        4.20642       -12.08567         3.44353
|105>    H        3.58026       -11.41826         4.95022
|106>    H        5.24568        -9.92289         2.87045
|107>    H        5.76105       -10.45906         4.46335
|108>    H        4.56451        -9.17871         4.32204
|109>    H        1.22498       -12.42162         5.23187
|110>    H       -0.30816       -15.29768         2.44222
|111>    H        0.64128       -14.02537         0.57076
|112>    H       -0.08427       -14.16230         6.04620
|113>    H       -0.74275       -16.46210         4.13332
|114>    H       -1.21848       -16.06002         7.14357
|115>    H       -2.38295       -18.20796         8.18919
|116>    H       -3.19672       -20.55153         7.48088
|117>    H       -3.88869       -22.58670         6.12149
|118>    H       -4.11841       -24.30728         4.21505
|119>    H       -3.36459       -24.76215         1.91958
|120>    H       -2.12096       -24.49130         0.00298
|121>    H       -2.33208       -18.23081         0.01885
|122>    H        0.95695       -20.75409        -2.79528
|123>    H       -1.05764       -15.94730        -0.98938
|124> *
|125>
|126>                          ****END OF INPUT****

CARTESIAN COORDINATES (ANGSTROEM)
---------------------------------
  C     10.171690   -6.863560    6.602850
  C     10.075640   -6.214660    5.434670
  C     10.883800   -5.124580    4.966580
  C     10.556090   -4.674310    3.735910
  C      9.469730   -5.364350    3.127640
  S      8.872140   -6.617280    4.198640
  C      8.926030   -5.142230    1.886460
  C      9.313280   -4.181760    0.917550
  C      8.585260   -4.229870   -0.226920
  C      7.574360   -5.229140   -0.240950
  S      7.586210   -6.103320    1.281600
  C      6.723330   -5.495590   -1.277970
  C      5.727580   -6.486690   -1.317440
  S      5.348880   -7.541370    0.007110
  C      4.113460   -8.360180   -0.900520
  C      4.005710   -7.825160   -2.173790
  C      4.912930   -6.775440   -2.414760
  O      5.059530   -6.016830   -3.542910
  C      4.397330   -6.411410   -4.693490
  S      2.594940   -6.619440   -4.399200
  S      2.807340   -8.372450   -3.355770
  C      3.407850   -9.452010   -0.285300
  C      3.322550   -9.493260    1.116450
  C      2.697600  -10.548640    1.728160
  C      2.112040  -11.570380    0.954640
  C      2.186780  -11.536580   -0.431460
  C      2.842040  -10.486400   -1.040570
  C      1.474700  -12.510960    1.844150
  C      1.644480  -12.062890    3.167610
  C      2.493050  -10.809400    3.202150
  C      1.780740   -9.642410    3.901520
  C      0.418370   -9.343020    3.286470
  C      3.818370  -11.177020    3.911500
  C      4.907400  -10.112400    3.884990
  C      1.104710  -12.764230    4.213800
  C      0.391940  -13.954690    3.970950
  C      0.243490  -14.392070    2.641710
  C      0.769680  -13.681260    1.586000
  C     -0.147980  -14.668270    5.089850
  C     -0.698120  -15.912830    5.064010
  C     -1.217130  -16.572570    6.190500
  C     -1.732300  -17.845150    6.142000
  C     -2.304210  -18.602860    7.191370
  C     -2.736260  -19.841730    6.817260
  C     -2.521150  -20.131870    5.452410
  S     -1.759890  -18.784350    4.654330
  C     -2.821420  -21.278550    4.734440
  C     -3.504220  -22.446800    5.126950
  C     -3.633050  -23.352330    4.113610
  C     -3.069050  -22.942190    2.878020
  S     -2.392590  -21.360250    3.042590
  C     -2.967070  -23.765920    1.760270
  C     -2.320500  -23.576270    0.547380
  C     -1.873480  -22.401590   -0.054020
  C     -0.878640  -22.304170   -1.092450
  C     -0.178030  -23.330800   -1.682330
  C      0.777820  -23.147140   -2.699990
  N      1.559520  -23.062360   -3.537980
  C     -0.307220  -24.698660   -1.372370
  N     -0.329300  -25.831150   -1.176450
  C     -0.675720  -20.881500   -1.380950
  C     -1.592720  -20.136460   -0.602980
  C     -2.409320  -21.071850    0.193670
  O     -3.371490  -20.772600    0.890880
  C     -1.623190  -18.766180   -0.593020
  C     -0.684820  -18.091050   -1.382410
  C      0.221080  -18.839970   -2.164910
  C      0.239670  -20.231460   -2.184730
  S      1.307980  -17.806060   -3.047150
  C      0.545860  -16.404860   -2.345090
  C     -0.475480  -16.689770   -1.504740
  Br     1.178540  -14.691660   -2.768620
  H     10.920680   -6.588050    7.324070
  H      9.513870   -7.674970    6.854470
  H     11.676480   -4.729060    5.576600
  H     11.056480   -3.866370    3.232080
  H     10.117250   -3.490130    1.094740
  H      8.735550   -3.583120   -1.073460
  H      6.818230   -4.899400   -2.175440
  H      4.773280   -7.359730   -5.092750
  H      4.521540   -5.608370   -5.419070
  H      3.736470   -8.675690    1.686740
  H      1.750190  -12.320260   -1.030240
  H      2.939230  -10.474210   -2.115570
  H      2.405480   -8.751430    3.832370
  H      1.657890   -9.886510    4.958960
  H      0.522190   -9.086060    2.234650
  H     -0.049680   -8.506690    3.800570
  H     -0.238870  -10.206480    3.363820
  H      4.206420  -12.085670    3.443530
  H      3.580260  -11.418260    4.950220
  H      5.245680   -9.922890    2.870450
  H      5.761050  -10.459060    4.463350
  H      4.564510   -9.178710    4.322040
  H      1.224980  -12.421620    5.231870
  H     -0.308160  -15.297680    2.442220
  H      0.641280  -14.025370    0.570760
  H     -0.084270  -14.162300    6.046200
  H     -0.742750  -16.462100    4.133320
  H     -1.218480  -16.060020    7.143570
  H     -2.382950  -18.207960    8.189190
  H     -3.196720  -20.551530    7.480880
  H     -3.888690  -22.586700    6.121490
  H     -4.118410  -24.307280    4.215050
  H     -3.364590  -24.762150    1.919580
  H     -2.120960  -24.491300    0.002980
  H     -2.332080  -18.230810    0.018850
  H      0.956950  -20.754090   -2.795280
  H     -1.057640  -15.947300   -0.989380

 Total Charge           Charge          ....    0
 Multiplicity           Mult            ....    1
 Number of Electrons    NEL             ....  584
 Basis Dimension        Dim             .... 1243

ORBITAL ENERGIES
----------------

  NO   OCC          E(Eh)            E(eV)
   0   2.0000    -482.883299    -13139.9226
   1   2.0000     -88.964253     -2420.8404
   2   2.0000     -88.962547     -2420.7940
   3   2.0000     -88.957980     -2420.6697
   4   2.0000     -88.956059     -2420.6174
   5   2.0000     -88.954454     -2420.5737
   6   2.0000     -88.943576     -2420.2777
   7   2.0000     -88.941364     -2420.2175
   8   2.0000     -88.936041     -2420.0727
   9   2.0000     -62.560514     -1702.3581
  10   2.0000     -56.394426     -1534.5703
  11   2.0000     -56.391878     -1534.5010
  12   2.0000     -56.391705     -1534.4963
  13   2.0000     -19.264858      -524.2235
  14   2.0000     -19.191056      -522.2152
  15   2.0000     -14.393526      -391.6678
  16   2.0000     -14.393445      -391.6655
  17   2.0000     -10.361494      -281.9506
  18   2.0000     -10.349034      -281.6115
  19   2.0000     -10.341741      -281.4131
  20   2.0000     -10.337285      -281.2918
  21   2.0000     -10.335217      -281.2356
  22   2.0000     -10.321496      -280.8622
  23   2.0000     -10.318384      -280.7775
  24   2.0000     -10.316519      -280.7268
  25   2.0000     -10.316330      -280.7216
  26   2.0000     -10.310019      -280.5499
  27   2.0000     -10.309674      -280.5405
  28   2.0000     -10.309142      -280.5260
  29   2.0000     -10.308474      -280.5078
  30   2.0000     -10.307926      -280.4929
  31   2.0000     -10.307016      -280.4682
  32   2.0000     -10.306108      -280.4435
  33   2.0000     -10.305597      -280.4295
  34   2.0000     -10.304766      -280.4069
  35   2.0000     -10.302989      -280.3586
  36   2.0000     -10.302596      -280.3479
  37   2.0000     -10.299421      -280.2615
  38   2.0000     -10.299386      -280.2605
  39   2.0000     -10.297837      -280.2184
  40   2.0000     -10.297533      -280.2101
  41   2.0000     -10.293001      -280.0868
  42   2.0000     -10.292116      -280.0627
  43   2.0000     -10.289837      -280.0007
  44   2.0000     -10.289768      -279.9988
  45   2.0000     -10.288474      -279.9636
  46   2.0000     -10.288257      -279.9577
  47   2.0000     -10.287957      -279.9495
  48   2.0000     -10.287834      -279.9462
  49   2.0000     -10.287744      -279.9437
  50   2.0000     -10.286273      -279.9037
  51   2.0000     -10.283426      -279.8263
  52   2.0000     -10.283376      -279.8249
  53   2.0000     -10.283239      -279.8212
  54   2.0000     -10.282870      -279.8111
  55   2.0000     -10.282548      -279.8024
  56   2.0000     -10.281793      -279.7818
  57   2.0000     -10.281404      -279.7712
  58   2.0000     -10.280957      -279.7591
  59   2.0000     -10.280315      -279.7416
  60   2.0000     -10.280171      -279.7377
  61   2.0000     -10.278427      -279.6902
  62   2.0000     -10.275455      -279.6093
  63   2.0000     -10.274980      -279.5964
  64   2.0000     -10.274941      -279.5954
  65   2.0000     -10.274738      -279.5898
  66   2.0000     -10.274107      -279.5727
  67   2.0000     -10.273474      -279.5554
  68   2.0000     -10.273245      -279.5492
  69   2.0000     -10.272144      -279.5193
  70   2.0000     -10.267974      -279.4058
  71   2.0000     -10.267178      -279.3841
  72   2.0000     -10.267091      -279.3818
  73   2.0000     -10.266644      -279.3696
  74   2.0000     -10.252492      -278.9845
  75   2.0000     -10.249741      -278.9096
  76   2.0000      -8.789769      -239.1818
  77   2.0000      -8.060092      -219.3263
  78   2.0000      -8.058804      -219.2912
  79   2.0000      -8.052926      -219.1313
  80   2.0000      -8.050880      -219.0756
  81   2.0000      -8.049269      -219.0317
  82   2.0000      -8.040352      -218.7891
  83   2.0000      -8.037522      -218.7121
  84   2.0000      -8.032792      -218.5834
  85   2.0000      -6.625795      -180.2971
  86   2.0000      -6.611655      -179.9123
  87   2.0000      -6.611447      -179.9066
  88   2.0000      -6.029818      -164.0797
  89   2.0000      -6.028459      -164.0427
  90   2.0000      -6.025510      -163.9625
  91   2.0000      -6.024392      -163.9320
  92   2.0000      -6.022157      -163.8712
  93   2.0000      -6.021332      -163.8488
  94   2.0000      -6.020309      -163.8209
  95   2.0000      -6.020276      -163.8201
  96   2.0000      -6.019855      -163.8086
  97   2.0000      -6.018338      -163.7673
  98   2.0000      -6.015827      -163.6990
  99   2.0000      -6.015750      -163.6969
 100   2.0000      -6.014829      -163.6718
 101   2.0000      -6.012860      -163.6182
 102   2.0000      -6.011186      -163.5727
 103   2.0000      -6.007971      -163.4852
 104   2.0000      -6.007373      -163.4689
 105   2.0000      -6.006953      -163.4575
 106   2.0000      -6.003226      -163.3561
 107   2.0000      -6.002646      -163.3403
 108   2.0000      -5.998785      -163.2353
 109   2.0000      -5.998704      -163.2330
 110   2.0000      -5.998280      -163.2215
 111   2.0000      -5.993274      -163.0853
 112   2.0000      -2.741761       -74.6071
 113   2.0000      -2.737749       -74.4979
 114   2.0000      -2.737603       -74.4940
 115   2.0000      -2.726346       -74.1877
 116   2.0000      -2.726334       -74.1873
 117   2.0000      -1.174124       -31.9495
 118   2.0000      -1.104813       -30.0635
 119   2.0000      -1.010281       -27.4912
 120   2.0000      -1.007004       -27.4020
 121   2.0000      -0.998258       -27.1640
 122   2.0000      -0.993858       -27.0443
 123   2.0000      -0.991788       -26.9879
 124   2.0000      -0.987020       -26.8582
 125   2.0000      -0.983617       -26.7656
 126   2.0000      -0.972491       -26.4628
 127   2.0000      -0.969925       -26.3930
 128   2.0000      -0.966355       -26.2959
 129   2.0000      -0.952818       -25.9275
 130   2.0000      -0.933240       -25.3948
 131   2.0000      -0.928764       -25.2729
 132   2.0000      -0.927410       -25.2361
 133   2.0000      -0.915885       -24.9225
 134   2.0000      -0.898458       -24.4483
 135   2.0000      -0.893800       -24.3215
 136   2.0000      -0.890798       -24.2399
 137   2.0000      -0.884721       -24.0745
 138   2.0000      -0.873257       -23.7625
 139   2.0000      -0.870068       -23.6758
 140   2.0000      -0.865215       -23.5437
 141   2.0000      -0.863118       -23.4866
 142   2.0000      -0.858323       -23.3562
 143   2.0000      -0.851058       -23.1585
 144   2.0000      -0.842453       -22.9243
 145   2.0000      -0.842064       -22.9137
 146   2.0000      -0.838145       -22.8071
 147   2.0000      -0.835431       -22.7332
 148   2.0000      -0.832595       -22.6561
 149   2.0000      -0.831237       -22.6191
 150   2.0000      -0.820916       -22.3383
 151   2.0000      -0.815437       -22.1892
 152   2.0000      -0.813911       -22.1477
 153   2.0000      -0.802653       -21.8413
 154   2.0000      -0.785761       -21.3816
 155   2.0000      -0.775137       -21.0926
 156   2.0000      -0.770863       -20.9763
 157   2.0000      -0.767992       -20.8981
 158   2.0000      -0.759443       -20.6655
 159   2.0000      -0.740332       -20.1455
 160   2.0000      -0.737086       -20.0571
 161   2.0000      -0.733139       -19.9497
 162   2.0000      -0.723084       -19.6761
 163   2.0000      -0.715988       -19.4830
 164   2.0000      -0.705862       -19.2075
 165   2.0000      -0.694655       -18.9025
 166   2.0000      -0.691467       -18.8158
 167   2.0000      -0.685170       -18.6444
 168   2.0000      -0.679688       -18.4952
 169   2.0000      -0.677756       -18.4427
 170   2.0000      -0.670684       -18.2502
 171   2.0000      -0.669759       -18.2251
 172   2.0000      -0.661953       -18.0126
 173   2.0000      -0.660108       -17.9625
 174   2.0000      -0.654764       -17.8170
 175   2.0000      -0.643318       -17.5056
 176   2.0000      -0.641486       -17.4557
 177   2.0000      -0.641024       -17.4431
 178   2.0000      -0.630701       -17.1623
 179   2.0000      -0.629787       -17.1374
 180   2.0000      -0.623559       -16.9679
 181   2.0000      -0.622042       -16.9266
 182   2.0000      -0.614412       -16.7190
 183   2.0000      -0.614064       -16.7095
 184   2.0000      -0.603914       -16.4333
 185   2.0000      -0.599301       -16.3078
 186   2.0000      -0.597463       -16.2578
 187   2.0000      -0.593957       -16.1624
 188   2.0000      -0.589147       -16.0315
 189   2.0000      -0.584978       -15.9181
 190   2.0000      -0.580058       -15.7842
 191   2.0000      -0.576625       -15.6908
 192   2.0000      -0.571744       -15.5579
 193   2.0000      -0.568979       -15.4827
 194   2.0000      -0.562444       -15.3049
 195   2.0000      -0.554778       -15.0963
 196   2.0000      -0.548388       -14.9224
 197   2.0000      -0.545558       -14.8454
 198   2.0000      -0.538666       -14.6579
 199   2.0000      -0.538592       -14.6558
 200   2.0000      -0.535206       -14.5637
 201   2.0000      -0.531326       -14.4581
 202   2.0000      -0.530299       -14.4302
 203   2.0000      -0.526458       -14.3257
 204   2.0000      -0.524810       -14.2808
 205   2.0000      -0.524109       -14.2617
 206   2.0000      -0.521593       -14.1933
 207   2.0000      -0.520011       -14.1502
 208   2.0000      -0.518314       -14.1040
 209   2.0000      -0.514703       -14.0058
 210   2.0000      -0.510987       -13.9047
 211   2.0000      -0.510673       -13.8961
 212   2.0000      -0.509801       -13.8724
 213   2.0000      -0.507318       -13.8048
 214   2.0000      -0.503964       -13.7135
 215   2.0000      -0.501347       -13.6423
 216   2.0000      -0.500020       -13.6062
 217   2.0000      -0.497729       -13.5439
 218   2.0000      -0.494905       -13.4670
 219   2.0000      -0.493490       -13.4285
 220   2.0000      -0.491171       -13.3654
 221   2.0000      -0.490405       -13.3446
 222   2.0000      -0.486513       -13.2387
 223   2.0000      -0.483452       -13.1554
 224   2.0000      -0.482380       -13.1262
 225   2.0000      -0.478523       -13.0213
 226   2.0000      -0.478017       -13.0075
 227   2.0000      -0.474843       -12.9211
 228   2.0000      -0.472763       -12.8645
 229   2.0000      -0.472047       -12.8450
 230   2.0000      -0.468183       -12.7399
 231   2.0000      -0.463022       -12.5995
 232   2.0000      -0.462461       -12.5842
 233   2.0000      -0.461094       -12.5470
 234   2.0000      -0.459479       -12.5031
 235   2.0000      -0.457387       -12.4461
 236   2.0000      -0.456285       -12.4161
 237   2.0000      -0.455071       -12.3831
 238   2.0000      -0.451796       -12.2940
 239   2.0000      -0.447171       -12.1682
 240   2.0000      -0.444605       -12.0983
 241   2.0000      -0.443720       -12.0742
 242   2.0000      -0.442415       -12.0387
 243   2.0000      -0.437670       -11.9096
 244   2.0000      -0.434516       -11.8238
 245   2.0000      -0.433413       -11.7938
 246   2.0000      -0.430922       -11.7260
 247   2.0000      -0.428719       -11.6660
 248   2.0000      -0.428199       -11.6519
 249   2.0000      -0.426196       -11.5974
 250   2.0000      -0.425637       -11.5822
 251   2.0000      -0.424955       -11.5636
 252   2.0000      -0.422674       -11.5015
 253   2.0000      -0.422010       -11.4835
 254   2.0000      -0.416768       -11.3408
 255   2.0000      -0.414747       -11.2858
 256   2.0000      -0.409915       -11.1543
 257   2.0000      -0.408438       -11.1142
 258   2.0000      -0.405619       -11.0375
 259   2.0000      -0.403125       -10.9696
 260   2.0000      -0.400108       -10.8875
 261   2.0000      -0.398988       -10.8570
 262   2.0000      -0.393203       -10.6996
 263   2.0000      -0.391735       -10.6597
 264   2.0000      -0.389610       -10.6018
 265   2.0000      -0.387107       -10.5337
 266   2.0000      -0.385837       -10.4992
 267   2.0000      -0.384036       -10.4501
 268   2.0000      -0.381617       -10.3843
 269   2.0000      -0.374497       -10.1906
 270   2.0000      -0.371158       -10.0997
 271   2.0000      -0.368834       -10.0365
 272   2.0000      -0.362899        -9.8750
 273   2.0000      -0.354577        -9.6485
 274   2.0000      -0.346866        -9.4387
 275   2.0000      -0.342087        -9.3087
 276   2.0000      -0.336051        -9.1444
 277   2.0000      -0.331659        -9.0249
 278   2.0000      -0.328343        -8.9347
 279   2.0000      -0.326787        -8.8923
 280   2.0000      -0.320652        -8.7254
 281   2.0000      -0.320189        -8.7128
 282   2.0000      -0.317000        -8.6260
 283   2.0000      -0.311194        -8.4680
 284   2.0000      -0.301122        -8.1940
 285   2.0000      -0.293222        -7.9790
 286   2.0000      -0.284520        -7.7422
 287   2.0000      -0.282593        -7.6897
 288   2.0000      -0.275718        -7.5027
 289   2.0000      -0.261607        -7.1187
 290   2.0000      -0.226499        -6.1634
 291   2.0000      -0.209986        -5.7140
 292   0.0000      -0.107042        -2.9128
 293   0.0000      -0.068020        -1.8509
 294   0.0000      -0.057862        -1.5745
 295   0.0000      -0.037487        -1.0201
 296   0.0000      -0.017427        -0.4742

MULLIKEN ATOMIC CHARGES
-----------------------
   0 C :   -0.033879
   1 C :   -0.061168
   2 C :    0.050238
   3 C :    0.029155
   4 C :   -0.068065
   5 S :    0.074747
   6 C :   -0.033861
   7 C :    0.026439
   8 C :    0.035543
   9 C :   -0.025595
  10 S :    0.049612
  11 C :   -0.002203
  12 C :   -0.135291
  13 S :    0.110288
  14 C :   -0.132226
  15 C :   -0.031966
  16 C :    0.193581
  17 O :   -0.280197
  18 C :    0.121110
  19 S :   -0.041969
  20 S :    0.018483
  21 C :    0.125059
  22 C :   -0.125877
  23 C :    0.023215
  24 C :    0.105073
  25 C :   -0.039497
  26 C :   -0.030717
  27 C :    0.106162
  28 C :    0.019758
  29 C :   -0.132979
  30 C :    0.051787
  31 C :    0.023250
  32 C :    0.077193
  33 C :    0.030617
  34 C :   -0.103350
  35 C :    0.117363
  36 C :    0.000214
  37 C :   -0.035832
  38 C :    0.008554
  39 C :    0.000887
  40 C :    0.020809
  41 C :   -0.036253
  42 C :    0.058077
  43 C :    0.020448
  44 C :   -0.013338
  45 S :    0.088965
  46 C :   -0.068796
  47 C :    0.043704
  48 C :    0.022111
  49 C :    0.003056
  50 S :    0.151795
  51 C :   -0.002519
  52 C :   -0.003738
  53 C :   -0.105077
  54 C :    0.313842
  55 C :   -0.363253
  56 C :   -0.186851
  57 N :    0.132990
  58 C :   -0.198692
  59 N :    0.142660
  60 C :    0.017604
  61 C :    0.007130
  62 C :    0.102153
  63 O :   -0.189764
  64 C :   -0.091475
  65 C :    0.122280
  66 C :   -0.098198
  67 C :   -0.027395
  68 S :    0.178019
  69 C :   -0.123784
  70 C :    0.033052
  71 Br:    0.011205
  72 H :    0.019166
  73 H :    0.019266
  74 H :   -0.012359
  75 H :   -0.011840
  76 H :   -0.016077
  77 H :   -0.012964
  78 H :   -0.004507
  79 H :    0.069020
  80 H :    0.064774
  81 H :   -0.016665
  82 H :   -0.052949
  83 H :   -0.015232
  84 H :    0.011410
  85 H :   -0.003930
  86 H :    0.024199
  87 H :    0.011064
  88 H :    0.018604
  89 H :    0.006619
  90 H :   -0.005851
  91 H :    0.023200
  92 H :    0.013243
  93 H :    0.006516
  94 H :   -0.039074
  95 H :   -0.029931
  96 H :   -0.041802
  97 H :   -0.016525
  98 H :    0.012732
  99 H :   -0.005483
 100 H :   -0.002261
 101 H :   -0.004265
 102 H :   -0.013818
 103 H :   -0.009377
 104 H :   -0.010915
 105 H :    0.019703
 106 H :   -0.021553
 107 H :   -0.008552
 108 H :   -0.008008
Sum of atomic charges:   -0.0000000

LOEWDIN ATOMIC CHARGES
----------------------
   0 C :   -0.080462
   1 C :   -0.138591
   2 C :   -0.032951
   3 C :   -0.026113
   4 C :   -0.178600
   5 S :    0.346805
   6 C :   -0.179403
   7 C :   -0.038573
   8 C :   -0.030752
   9 C :   -0.154579
  10 S :    0.356021
  11 C :   -0.066506
  12 C :   -0.201382
  13 S :    0.453235
  14 C :   -0.180119
  15 C :   -0.237293
  16 C :   -0.000778
  17 O :   -0.095952
  18 C :   -0.041640
  19 S :    0.110020
  20 S :    0.196809
  21 C :   -0.036323
  22 C :   -0.029338
  23 C :    0.008189
  24 C :   -0.020087
  25 C :   -0.012872
  26 C :   -0.024375
  27 C :   -0.003452
  28 C :    0.004679
  29 C :   -0.034753
  30 C :   -0.014873
  31 C :   -0.056751
  32 C :   -0.009435
  33 C :   -0.058000
  34 C :   -0.012044
  35 C :   -0.036072
  36 C :   -0.005357
  37 C :   -0.016052
  38 C :    0.021351
  39 C :   -0.047097
  40 C :   -0.008190
  41 C :   -0.161690
  42 C :   -0.004689
  43 C :   -0.042314
  44 C :   -0.133145
  45 S :    0.397861
  46 C :   -0.207531
  47 C :   -0.025269
  48 C :   -0.042862
  49 C :   -0.112456
  50 S :    0.500351
  51 C :   -0.078043
  52 C :    0.037802
  53 C :   -0.125612
  54 C :    0.078537
  55 C :   -0.156005
  56 C :   -0.017824
  57 N :   -0.071137
  58 C :   -0.022179
  59 N :   -0.065287
  60 C :   -0.017880
  61 C :   -0.041509
  62 C :    0.041859
  63 O :   -0.189341
  64 C :    0.007364
  65 C :   -0.038090
  66 C :   -0.149092
  67 C :   -0.013209
  68 S :    0.425897
  69 C :   -0.279429
  70 C :   -0.074733
  71 Br:    0.135397
  72 H :    0.028181
  73 H :    0.025165
  74 H :    0.032970
  75 H :    0.032227
  76 H :    0.030610
  77 H :    0.033387
  78 H :    0.041206
  79 H :    0.014028
  80 H :    0.027928
  81 H :    0.019063
  82 H :    0.019554
  83 H :    0.015457
  84 H :    0.021895
  85 H :    0.019307
  86 H :    0.026963
  87 H :    0.024691
  88 H :    0.023937
  89 H :    0.027061
  90 H :    0.018949
  91 H :    0.024862
  92 H :    0.028637
  93 H :    0.021061
  94 H :    0.024187
  95 H :    0.026473
  96 H :    0.026259
  97 H :    0.030613
  98 H :    0.021339
  99 H :    0.037494
 100 H :    0.038064
 101 H :    0.035758
 102 H :    0.031841
 103 H :    0.034156
 104 H :    0.037647
 105 H :    0.044882
 106 H :    0.035725
 107 H :    0.039791
 108 H :    0.034546

  Mayer bond orders larger than 0.100000
B(  0-C ,  1-C ) :   1.8641 B(  0-C , 72-H ) :   0.9505 B(  0-C , 73-H ) :   0.9420
B(  1-C ,  2-C ) :   1.0800 B(  1-C ,  5-S ) :   1.0077 B(  2-C ,  3-C ) :   1.6600
B(  2-C , 74-H ) :   0.9933 B(  3-C ,  4-C ) :   1.1518 B(  3-C , 75-H ) :   0.9924
B(  4-C ,  5-S ) :   1.0407 B(  4-C ,  6-C ) :   1.5657 B(  6-C ,  7-C ) :   1.1641
B(  6-C , 10-S ) :   1.0315 B(  7-C ,  8-C ) :   1.6118 B(  7-C , 76-H ) :   0.9924
B(  8-C ,  9-C ) :   1.1337 B(  8-C , 77-H ) :   0.9995 B(  9-C , 10-S ) :   1.0281
B(  9-C , 11-C ) :   1.5659 B( 11-C , 12-C ) :   1.1867 B( 11-C , 78-H ) :   0.9692
B( 12-C , 13-S ) :   1.0829 B( 12-C , 14-C ) :   0.1172 B( 12-C , 16-C ) :   1.4626
B( 13-S , 14-C ) :   1.1414 B( 14-C , 15-C ) :   1.5247 B( 14-C , 21-C ) :   1.0696
B( 15-C , 16-C ) :   1.2679 B( 15-C , 20-S ) :   0.9568 B( 16-C , 17-O ) :   1.1432
B( 17-O , 18-C ) :   0.9805 B( 18-C , 19-S ) :   0.9964 B( 18-C , 79-H ) :   0.9419
B( 18-C , 80-H ) :   0.9581 B( 19-S , 20-S ) :   1.0413 B( 21-C , 22-C ) :   1.2765
B( 21-C , 26-C ) :   1.3435 B( 22-C , 23-C ) :   1.4195 B( 22-C , 81-H ) :   0.9877
B( 23-C , 24-C ) :   1.3662 B( 23-C , 29-C ) :   0.9191 B( 24-C , 25-C ) :   1.3434
B( 24-C , 27-C ) :   1.0048 B( 25-C , 26-C ) :   1.3970 B( 25-C , 82-H ) :   0.9852
B( 26-C , 83-H ) :   0.9723 B( 27-C , 28-C ) :   1.3703 B( 27-C , 37-C ) :   1.3258
B( 28-C , 29-C ) :   0.9209 B( 28-C , 34-C ) :   1.3870 B( 29-C , 30-C ) :   1.0320
B( 29-C , 32-C ) :   1.0130 B( 30-C , 31-C ) :   1.1037 B( 30-C , 84-H ) :   0.9389
B( 30-C , 85-H ) :   0.9389 B( 31-C , 86-H ) :   0.9650 B( 31-C , 87-H ) :   0.9645
B( 31-C , 88-H ) :   0.9633 B( 32-C , 33-C ) :   1.1162 B( 32-C , 89-H ) :   0.9386
B( 32-C , 90-H ) :   0.9360 B( 33-C , 91-H ) :   0.9601 B( 33-C , 92-H ) :   0.9587
B( 33-C , 93-H ) :   0.9632 B( 34-C , 35-C ) :   1.2691 B( 34-C , 94-H ) :   1.0105
B( 35-C , 36-C ) :   1.3260 B( 35-C , 38-C ) :   1.0857 B( 36-C , 37-C ) :   1.4079
B( 36-C , 95-H ) :   0.9839 B( 37-C , 96-H ) :   0.9867 B( 38-C , 39-C ) :   1.6195
B( 38-C , 97-H ) :   0.9897 B( 39-C , 40-C ) :   1.1658 B( 39-C , 98-H ) :   0.9614
B( 40-C , 41-C ) :   1.5430 B( 40-C , 99-H ) :   0.9871 B( 41-C , 42-C ) :   1.1555
B( 41-C , 45-S ) :   1.0228 B( 42-C , 43-C ) :   1.5655 B( 42-C ,100-H ) :   0.9995
B( 43-C , 44-C ) :   1.2074 B( 43-C ,101-H ) :   0.9958 B( 44-C , 45-S ) :   1.0972
B( 44-C , 46-C ) :   1.4403 B( 46-C , 47-C ) :   1.2122 B( 46-C , 50-S ) :   1.0670
B( 47-C , 48-C ) :   1.5464 B( 47-C ,102-H ) :   0.9925 B( 48-C , 49-C ) :   1.1961
B( 48-C ,103-H ) :   0.9971 B( 49-C , 50-S ) :   1.1479 B( 49-C , 51-C ) :   1.3924
B( 51-C , 52-C ) :   1.4226 B( 51-C ,104-H ) :   0.9499 B( 52-C , 53-C ) :   1.3555
B( 52-C ,105-H ) :   0.9359 B( 53-C , 54-C ) :   1.1383 B( 53-C , 62-C ) :   1.0371
B( 54-C , 55-C ) :   1.5864 B( 54-C , 60-C ) :   0.9818 B( 55-C , 56-C ) :   1.1501
B( 55-C , 58-C ) :   1.1490 B( 56-C , 57-N ) :   2.9630 B( 58-C , 59-N ) :   2.9756
B( 60-C , 61-C ) :   1.2792 B( 60-C , 67-C ) :   1.4284 B( 61-C , 62-C ) :   0.9198
B( 61-C , 64-C ) :   1.4413 B( 62-C , 63-O ) :   2.1287 B( 64-C , 65-C ) :   1.2288
B( 64-C ,106-H ) :   1.0160 B( 65-C , 66-C ) :   1.3282 B( 65-C , 70-C ) :   1.1618
B( 66-C , 67-C ) :   1.3152 B( 66-C , 68-S ) :   1.0763 B( 67-C ,107-H ) :   0.9793
B( 68-S , 69-C ) :   1.0898 B( 69-C , 70-C ) :   1.6146 B( 69-C , 71-Br) :   1.0096
B( 70-C ,108-H ) :   0.9978

-----------------------------------------------------------------------------
         ABSORPTION SPECTRUM VIA TRANSITION ELECTRIC DIPOLE MOMENTS
-----------------------------------------------------------------------------
State   Energy  Wavelength   fosc         T2         TX        TY        TZ
        (cm-1)    (nm)                  (au**2)     (au)      (au)      (au)
-----------------------------------------------------------------------------
   0   11483.0    870.9   0.974134693  27.92805   1.37105   4.48516   2.43549
   1   15020.4    665.8   0.241607573   5.29547  -2.01680  -0.84272   0.71958
   2   17900.7    558.6   0.904367002  16.63227   2.91826   1.24256   2.56360
   3   20658.4    484.1   0.035021779   0.55811  -0.31493  -0.33171   0.59068
   4   21647.9    461.9   0.715919249  10.88738   1.44471   1.75192  -2.39395
   5   22882.3    437.0   0.011529880   0.16588   0.00908   0.28178  -0.29394
   6   23953.1    417.5   0.023783227   0.32688  -0.08798   0.35062   0.44295
   7   24892.0    401.7   0.024038787   0.31793   0.32944  -0.09793   0.44699
   8   25167.1    397.3   1.335837078  17.47412  -0.70802  -2.12593   3.52892
   9   26455.0    378.0   0.091794595   1.14231  -0.31193  -1.01230   0.14235
  10   26797.0    373.2   0.010625187   0.13053   0.10404  -0.22131   0.26595
  11   27014.2    370.2   0.213861965   2.60625  -0.64624  -0.99785   1.09221
  12   28316.2    353.2   0.069304546   0.80575   0.71123   0.50187   0.21917
  13   29210.9    342.3   0.085765545   0.96659  -0.09919  -0.70716   0.67578
  14   29475.2    339.3   0.126710236   1.41524   0.35706   0.84751  -0.75464
  15   29820.5    335.3   0.061303433   0.67678   0.04850   0.76332  -0.30294
  16   30106.6    332.2   0.142198735   1.55493   0.27806   0.36617  -1.15911
  17   30480.1    328.1   0.071650613   0.77389   0.26624  -0.83298   0.09567
  18   30717.4    325.5   0.030065509   0.32223  -0.18552  -0.45059   0.29117
  19   31284.9    319.6   0.190448603   2.00410  -0.23292  -1.15474   0.78513
  20   31556.6    316.9   0.042672700   0.44518   0.27039   0.16763  -0.58649
  21   31951.6    313.0   0.329113393   3.39100  -0.59906  -1.59216   0.70508
  22   32226.6    310.3   0.065284850   0.66692  -0.09870   0.74314   0.32391
  23   32540.0    307.3   0.096010507   0.97135   0.42241   0.88963   0.03853
  24   32950.7    303.5   0.213665083   2.13474  -0.33505  -1.41106  -0.17715
  25   33160.2    301.6   0.107818312   1.07041  -0.00796   1.03066  -0.08998
  26   33695.4    296.8   0.140377621   1.37152   0.19008   1.14279   0.17149
  27   34154.8    292.8   0.084001342   0.80967  -0.34442   0.57822   0.59725
  28   34451.1    290.3   0.043923127   0.41973   0.62957   0.15191   0.01706
  29   34709.8    288.1   0.037229546   0.35311   0.14623  -0.46122  -0.34497
  30   34999.2    285.7   0.075231215   0.70765   0.37565   0.09148  -0.74710
  31   35234.5    283.8   0.061125251   0.57112  -0.01973   0.39655   0.64302
  32   35723.8    279.9   0.013222771   0.12185   0.23177   0.19365  -0.17503
  33   35803.2    279.3   0.034777448   0.31978  -0.02021   0.13254   0.54937
  34   36383.8    274.8   0.003367617   0.03047   0.17075  -0.01507   0.03299
  35   36454.0    274.3   0.029631247   0.26760   0.10802  -0.50014  -0.07607
  36   36783.0    271.9   0.013254408   0.11863  -0.24651  -0.00593  -0.24047
  37   36976.5    270.4   0.042105425   0.37488   0.49932  -0.31232  -0.16737
  38   37170.6    269.0   0.032697739   0.28960   0.12463  -0.52288  -0.02576
  39   37463.2    266.9   0.028921389   0.25415   0.35525  -0.35352  -0.05449
  40   37571.4    266.2   0.038944153   0.34124   0.16987  -0.45815  -0.32014
  41   37963.9    263.4   0.036804799   0.31916  -0.37196  -0.40582   0.12692
  42   38121.5    262.3   0.017203943   0.14857   0.16881  -0.04253   0.34390
  43   38417.8    260.3   0.015332586   0.13139  -0.11725   0.33467  -0.07508
  44   38832.2    257.5   0.024316805   0.20615  -0.23739  -0.29995   0.24459
  45   38995.8    256.4   0.021917134   0.18503   0.27630  -0.06256   0.32369
  46   39378.9    253.9   0.100418841   0.83951  -0.03535   0.68972   0.60213
  47   39571.9    252.7   0.100794460   0.83854  -0.41383  -0.64928   0.49571
  48   39665.5    252.1   0.009007126   0.07476   0.01369   0.22913   0.14856
  49   39832.9    251.0   0.002138012   0.01767  -0.06028   0.07605   0.09084
  50   40094.3    249.4   0.046705427   0.38350   0.24574  -0.48568   0.29533
  51   40309.4    248.1   0.093050421   0.75995  -0.22333  -0.25512   0.80312

FINAL SINGLE POINT ENERGY     -8285.670940641925

DIPOLE MOMENT
-------------
                                X             Y             Z
Electronic contribution:    -22.34151     -51.95014     -91.05771
Nuclear contribution   :     22.69321      56.58264      95.09674
                        -----------------------------------------
Total Dipole Moment    :      0.35170       4.63250       4.03902
                        -----------------------------------------
Magnitude (a.u.)       :      6.15609
Magnitude (Debye)      :     15.64754

Rotational constants in cm-1:     0.001131     0.000266     0.000234
Rotational constants in MHz :    33.904563     7.963853     7.025278

                             ****ORCA TERMINATED NORMALLY****
TOTAL RUN TIME: 0 days 0 hours 11 minutes 38 seconds 975 msec
