                         Program Version 4.2.0 -  RELEASE  -
|  1> # ORCA input file
|  2> # SCF done       -176.410671006677          0.000398279940
|  3> ! CAM-B3LYP def2-SVP def2/J RIJCOSX Grid4 TightSCF
|  4> %maxcore 5000
|  5> %tddft
|  6>     Mode sTDDFT
|  7>     Ethresh 5.0
|  8>     maxcore 5000
|  9> end
| 10>
| 11> %pal
| 12>   nprocs 6
| 13>   end
| 14> * xyz 0 1
| 15>    C       -0.87749        -2.10117         4.59311
| 16>    C       -0.79738        -2.56998         5.89492
| 17>    F       -1.39979        -1.88191         6.86967
| 18>    C       -0.10793        -3.74262         6.21223
| 19>    F       -0.05537        -4.15439         7.48338
| 20>    C        0.51704        -4.48311         5.22290
| 21>    C        0.43966        -4.01430         3.92551
| 22>    C       -0.24631        -2.83275         3.59723
| 23>    C       -0.14594        -2.60614         2.15817
| 24>    C       -0.60135        -1.50263         1.49399
| 25>    C       -1.26479        -0.41875         2.11311
| 26>    N       -1.80100         0.49557         2.55093
| 27>    C       -0.47836        -1.26892         0.10768
| 28>    N       -0.44449        -0.99788        -1.00749
| 29>    C        0.59523        -3.72291         1.59013
| 30>    C        1.00600        -4.62484         2.70362
| 31>    O        1.59463        -5.67678         2.62998
| 32>    C        0.74951        -4.01748         0.27665
| 33>    C        1.60542        -5.04623        -0.24805
| 34>    C        2.87247        -5.30725         0.20349
| 35>    F        3.51633        -4.64383         1.15332
| 36>    S        3.73364        -6.48245        -0.71364
| 37>    C        2.33509        -6.65657        -1.72808
| 38>    F        2.37826        -7.56032        -2.70766
| 39>    C        1.28105        -5.85110        -1.40317
| 40>    C       -0.01007        -5.81676        -2.04243
| 41>    C       -0.26108        -6.24793        -3.29418
| 42>    C       -1.53541        -6.18906        -3.93135
| 43>    N       -1.63678        -6.32781        -5.29750
| 44>    C       -2.92962        -6.13003        -5.65820
| 45>    C       -3.78553        -6.00423        -6.75136
| 46>    C       -5.04624        -5.71866        -6.22474
| 47>    N       -4.96677        -5.67136        -4.84358
| 48>    C       -3.67988        -5.91729        -4.47674
| 49>    C       -2.80346        -5.95559        -3.39164
| 50>    C       -6.25603        -5.37410        -6.89214
| 51>    C       -6.41996        -5.33148        -8.22855
| 52>    C       -7.60818        -4.83364        -8.89198
| 53>    C       -8.11978        -5.45549        -9.99304
| 54>    F       -7.61523        -6.54242       -10.57354
| 55>    S       -9.58518        -4.77589       -10.62656
| 56>    C       -9.50495        -3.59462        -9.37887
| 57>    F      -10.43516        -2.64522        -9.32380
| 58>    C       -8.41856        -3.68656        -8.53961
| 59>    C       -8.17348        -2.66252        -7.56441
| 60>    C       -7.00185        -2.44698        -6.92127
| 61>    C       -6.84660        -1.47445        -5.90746
| 62>    C       -5.78756        -1.35759        -5.05636
| 63>    C       -5.96915        -0.59579        -3.78949
| 64>    O       -6.82267         0.22303        -3.55047
| 65>    C       -4.93999        -1.13485        -2.86913
| 66>    C       -4.11427        -2.02847        -3.57299
| 67>    C       -3.15108        -2.76370        -2.90195
| 68>    C       -3.06093        -2.59760        -1.53079
| 69>    C       -3.84799        -1.67622        -0.84325
| 70>    C       -4.80114        -0.92456        -1.51048
| 71>    F       -3.69418        -1.54945         0.48257
| 72>    F       -2.21739        -3.37959        -0.83641
| 73>    C       -4.51356        -2.04611        -4.98154
| 74>    C       -3.71911        -2.48922        -6.00366
| 75>    C       -4.00392        -2.36637        -7.38100
| 76>    N       -4.14790        -2.28193        -8.51626
| 77>    C       -2.43033        -3.03210        -5.81026
| 78>    N       -1.37375        -3.47201        -5.72439
| 79>    H       -1.42809        -1.19549         4.39854
| 80>    H        1.04743        -5.39119         5.46156
| 81>    H        0.19798        -3.45900        -0.46703
| 82>    H       -0.80504        -5.38849        -1.45217
| 83>    H        0.54785        -6.61984        -3.90733
| 84>    H       -0.84837        -6.40363        -5.91716
| 85>    H       -3.54252        -6.08507        -7.79081
| 86>    H       -5.75140        -5.52439        -4.23235
| 87>    H       -3.03485        -5.85627        -2.35031
| 88>    H       -7.07753        -5.07612        -6.25085
| 89>    H       -5.65195        -5.72046        -8.88019
| 90>    H       -9.00672        -1.99375        -7.38326
| 91>    H       -6.16142        -3.07960        -7.14401
| 92>    H       -7.69625        -0.83842        -5.68265
| 93>    H       -2.51089        -3.48105        -3.38838
| 94>    H       -5.42232        -0.22115        -0.97959
| 95> *
| 96>
| 97>                          ****END OF INPUT****

CARTESIAN COORDINATES (ANGSTROEM)
---------------------------------
  C     -0.877490   -2.101170    4.593110
  C     -0.797380   -2.569980    5.894920
  F     -1.399790   -1.881910    6.869670
  C     -0.107930   -3.742620    6.212230
  F     -0.055370   -4.154390    7.483380
  C      0.517040   -4.483110    5.222900
  C      0.439660   -4.014300    3.925510
  C     -0.246310   -2.832750    3.597230
  C     -0.145940   -2.606140    2.158170
  C     -0.601350   -1.502630    1.493990
  C     -1.264790   -0.418750    2.113110
  N     -1.801000    0.495570    2.550930
  C     -0.478360   -1.268920    0.107680
  N     -0.444490   -0.997880   -1.007490
  C      0.595230   -3.722910    1.590130
  C      1.006000   -4.624840    2.703620
  O      1.594630   -5.676780    2.629980
  C      0.749510   -4.017480    0.276650
  C      1.605420   -5.046230   -0.248050
  C      2.872470   -5.307250    0.203490
  F      3.516330   -4.643830    1.153320
  S      3.733640   -6.482450   -0.713640
  C      2.335090   -6.656570   -1.728080
  F      2.378260   -7.560320   -2.707660
  C      1.281050   -5.851100   -1.403170
  C     -0.010070   -5.816760   -2.042430
  C     -0.261080   -6.247930   -3.294180
  C     -1.535410   -6.189060   -3.931350
  N     -1.636780   -6.327810   -5.297500
  C     -2.929620   -6.130030   -5.658200
  C     -3.785530   -6.004230   -6.751360
  C     -5.046240   -5.718660   -6.224740
  N     -4.966770   -5.671360   -4.843580
  C     -3.679880   -5.917290   -4.476740
  C     -2.803460   -5.955590   -3.391640
  C     -6.256030   -5.374100   -6.892140
  C     -6.419960   -5.331480   -8.228550
  C     -7.608180   -4.833640   -8.891980
  C     -8.119780   -5.455490   -9.993040
  F     -7.615230   -6.542420  -10.573540
  S     -9.585180   -4.775890  -10.626560
  C     -9.504950   -3.594620   -9.378870
  F    -10.435160   -2.645220   -9.323800
  C     -8.418560   -3.686560   -8.539610
  C     -8.173480   -2.662520   -7.564410
  C     -7.001850   -2.446980   -6.921270
  C     -6.846600   -1.474450   -5.907460
  C     -5.787560   -1.357590   -5.056360
  C     -5.969150   -0.595790   -3.789490
  O     -6.822670    0.223030   -3.550470
  C     -4.939990   -1.134850   -2.869130
  C     -4.114270   -2.028470   -3.572990
  C     -3.151080   -2.763700   -2.901950
  C     -3.060930   -2.597600   -1.530790
  C     -3.847990   -1.676220   -0.843250
  C     -4.801140   -0.924560   -1.510480
  F     -3.694180   -1.549450    0.482570
  F     -2.217390   -3.379590   -0.836410
  C     -4.513560   -2.046110   -4.981540
  C     -3.719110   -2.489220   -6.003660
  C     -4.003920   -2.366370   -7.381000
  N     -4.147900   -2.281930   -8.516260
  C     -2.430330   -3.032100   -5.810260
  N     -1.373750   -3.472010   -5.724390
  H     -1.428090   -1.195490    4.398540
  H      1.047430   -5.391190    5.461560
  H      0.197980   -3.459000   -0.467030
  H     -0.805040   -5.388490   -1.452170
  H      0.547850   -6.619840   -3.907330
  H     -0.848370   -6.403630   -5.917160
  H     -3.542520   -6.085070   -7.790810
  H     -5.751400   -5.524390   -4.232350
  H     -3.034850   -5.856270   -2.350310
  H     -7.077530   -5.076120   -6.250850
  H     -5.651950   -5.720460   -8.880190
  H     -9.006720   -1.993750   -7.383260
  H     -6.161420   -3.079600   -7.144010
  H     -7.696250   -0.838420   -5.682650
  H     -2.510890   -3.481050   -3.388380
  H     -5.422320   -0.221150   -0.979590

 Total Charge           Charge          ....    0
 Multiplicity           Mult            ....    1
 Number of Electrons    NEL             ....  454
 Basis Dimension        Dim             ....  984

ORBITAL ENERGIES
----------------

  NO   OCC          E(Eh)            E(eV)
   0   2.0000     -88.989433     -2421.5256
   1   2.0000     -88.985197     -2421.4103
   2   2.0000     -24.820918      -675.4115
   3   2.0000     -24.816075      -675.2797
   4   2.0000     -24.815895      -675.2748
   5   2.0000     -24.810060      -675.1161
   6   2.0000     -24.809886      -675.1113
   7   2.0000     -24.809330      -675.0962
   8   2.0000     -24.806269      -675.0129
   9   2.0000     -24.804851      -674.9743
  10   2.0000     -19.225425      -523.1504
  11   2.0000     -19.219795      -522.9972
  12   2.0000     -14.461174      -393.5085
  13   2.0000     -14.454120      -393.3166
  14   2.0000     -14.424450      -392.5093
  15   2.0000     -14.421834      -392.4381
  16   2.0000     -14.417221      -392.3125
  17   2.0000     -14.416611      -392.2959
  18   2.0000     -10.399843      -282.9941
  19   2.0000     -10.399421      -282.9826
  20   2.0000     -10.391761      -282.7742
  21   2.0000     -10.391335      -282.7626
  22   2.0000     -10.389418      -282.7104
  23   2.0000     -10.388920      -282.6969
  24   2.0000     -10.387549      -282.6596
  25   2.0000     -10.383958      -282.5619
  26   2.0000     -10.376747      -282.3656
  27   2.0000     -10.371624      -282.2262
  28   2.0000     -10.352622      -281.7092
  29   2.0000     -10.350157      -281.6421
  30   2.0000     -10.348575      -281.5990
  31   2.0000     -10.345525      -281.5161
  32   2.0000     -10.327001      -281.0120
  33   2.0000     -10.325593      -280.9737
  34   2.0000     -10.324059      -280.9319
  35   2.0000     -10.322160      -280.8803
  36   2.0000     -10.320276      -280.8290
  37   2.0000     -10.318752      -280.7875
  38   2.0000     -10.317705      -280.7590
  39   2.0000     -10.316166      -280.7171
  40   2.0000     -10.313645      -280.6486
  41   2.0000     -10.313391      -280.6416
  42   2.0000     -10.312825      -280.6262
  43   2.0000     -10.310923      -280.5745
  44   2.0000     -10.307709      -280.4870
  45   2.0000     -10.307497      -280.4813
  46   2.0000     -10.306948      -280.4663
  47   2.0000     -10.306876      -280.4644
  48   2.0000     -10.305788      -280.4348
  49   2.0000     -10.304355      -280.3957
  50   2.0000     -10.304211      -280.3918
  51   2.0000     -10.301842      -280.3274
  52   2.0000     -10.301698      -280.3234
  53   2.0000     -10.299562      -280.2653
  54   2.0000     -10.298855      -280.2461
  55   2.0000     -10.292312      -280.0680
  56   2.0000     -10.289662      -279.9959
  57   2.0000     -10.288248      -279.9575
  58   2.0000     -10.286812      -279.9184
  59   2.0000     -10.284012      -279.8422
  60   2.0000     -10.281516      -279.7743
  61   2.0000     -10.280497      -279.7465
  62   2.0000     -10.264368      -279.3077
  63   2.0000     -10.263652      -279.2882
  64   2.0000      -8.086628      -220.0483
  65   2.0000      -8.082429      -219.9341
  66   2.0000      -6.055769      -164.7859
  67   2.0000      -6.052181      -164.6882
  68   2.0000      -6.051576      -164.6717
  69   2.0000      -6.048068      -164.5763
  70   2.0000      -6.047902      -164.5718
  71   2.0000      -6.043903      -164.4630
  72   2.0000      -1.337168       -36.3862
  73   2.0000      -1.334258       -36.3070
  74   2.0000      -1.333100       -36.2755
  75   2.0000      -1.329732       -36.1838
  76   2.0000      -1.325744       -36.0753
  77   2.0000      -1.324585       -36.0438
  78   2.0000      -1.317802       -35.8592
  79   2.0000      -1.314432       -35.7675
  80   2.0000      -1.141854       -31.0714
  81   2.0000      -1.136260       -30.9192
  82   2.0000      -1.089249       -29.6400
  83   2.0000      -1.052797       -28.6481
  84   2.0000      -1.028041       -27.9744
  85   2.0000      -1.022815       -27.8322
  86   2.0000      -1.009740       -27.4764
  87   2.0000      -1.009124       -27.4596
  88   2.0000      -1.006226       -27.3808
  89   2.0000      -1.004472       -27.3331
  90   2.0000      -1.001356       -27.2483
  91   2.0000      -0.995265       -27.0825
  92   2.0000      -0.963485       -26.2178
  93   2.0000      -0.960721       -26.1425
  94   2.0000      -0.929754       -25.2999
  95   2.0000      -0.917172       -24.9575
  96   2.0000      -0.909604       -24.7516
  97   2.0000      -0.908144       -24.7119
  98   2.0000      -0.903105       -24.5747
  99   2.0000      -0.897304       -24.4169
 100   2.0000      -0.881780       -23.9944
 101   2.0000      -0.880029       -23.9468
 102   2.0000      -0.876534       -23.8517
 103   2.0000      -0.869366       -23.6567
 104   2.0000      -0.864265       -23.5179
 105   2.0000      -0.850753       -23.1502
 106   2.0000      -0.838509       -22.8170
 107   2.0000      -0.829284       -22.5660
 108   2.0000      -0.820284       -22.3211
 109   2.0000      -0.789074       -21.4718
 110   2.0000      -0.788415       -21.4539
 111   2.0000      -0.779210       -21.2034
 112   2.0000      -0.775226       -21.0950
 113   2.0000      -0.774290       -21.0695
 114   2.0000      -0.743953       -20.2440
 115   2.0000      -0.734896       -19.9975
 116   2.0000      -0.733734       -19.9659
 117   2.0000      -0.718680       -19.5563
 118   2.0000      -0.714388       -19.4395
 119   2.0000      -0.704050       -19.1582
 120   2.0000      -0.702673       -19.1207
 121   2.0000      -0.698530       -19.0080
 122   2.0000      -0.694458       -18.8972
 123   2.0000      -0.691766       -18.8239
 124   2.0000      -0.688420       -18.7329
 125   2.0000      -0.684520       -18.6267
 126   2.0000      -0.680932       -18.5291
 127   2.0000      -0.670636       -18.2489
 128   2.0000      -0.664626       -18.0854
 129   2.0000      -0.658471       -17.9179
 130   2.0000      -0.651625       -17.7316
 131   2.0000      -0.648534       -17.6475
 132   2.0000      -0.647898       -17.6302
 133   2.0000      -0.645421       -17.5628
 134   2.0000      -0.635417       -17.2906
 135   2.0000      -0.630237       -17.1496
 136   2.0000      -0.622634       -16.9427
 137   2.0000      -0.615039       -16.7361
 138   2.0000      -0.614045       -16.7090
 139   2.0000      -0.609961       -16.5979
 140   2.0000      -0.607966       -16.5436
 141   2.0000      -0.607130       -16.5209
 142   2.0000      -0.603328       -16.4174
 143   2.0000      -0.599418       -16.3110
 144   2.0000      -0.596045       -16.2192
 145   2.0000      -0.594438       -16.1755
 146   2.0000      -0.591158       -16.0862
 147   2.0000      -0.590556       -16.0699
 148   2.0000      -0.586075       -15.9479
 149   2.0000      -0.581057       -15.8114
 150   2.0000      -0.576775       -15.6948
 151   2.0000      -0.573913       -15.6170
 152   2.0000      -0.571439       -15.5496
 153   2.0000      -0.566436       -15.4135
 154   2.0000      -0.560158       -15.2427
 155   2.0000      -0.557070       -15.1586
 156   2.0000      -0.557028       -15.1575
 157   2.0000      -0.556277       -15.1371
 158   2.0000      -0.554261       -15.0822
 159   2.0000      -0.553139       -15.0517
 160   2.0000      -0.549827       -14.9616
 161   2.0000      -0.543664       -14.7938
 162   2.0000      -0.542765       -14.7694
 163   2.0000      -0.538374       -14.6499
 164   2.0000      -0.535979       -14.5847
 165   2.0000      -0.533916       -14.5286
 166   2.0000      -0.531544       -14.4641
 167   2.0000      -0.530788       -14.4435
 168   2.0000      -0.527968       -14.3667
 169   2.0000      -0.521741       -14.1973
 170   2.0000      -0.519013       -14.1231
 171   2.0000      -0.515925       -14.0390
 172   2.0000      -0.510726       -13.8976
 173   2.0000      -0.506176       -13.7737
 174   2.0000      -0.503518       -13.7014
 175   2.0000      -0.502549       -13.6751
 176   2.0000      -0.500655       -13.6235
 177   2.0000      -0.495878       -13.4935
 178   2.0000      -0.495104       -13.4725
 179   2.0000      -0.494150       -13.4465
 180   2.0000      -0.488658       -13.2971
 181   2.0000      -0.482379       -13.1262
 182   2.0000      -0.479747       -13.0546
 183   2.0000      -0.474530       -12.9126
 184   2.0000      -0.471636       -12.8339
 185   2.0000      -0.467699       -12.7267
 186   2.0000      -0.466050       -12.6819
 187   2.0000      -0.464199       -12.6315
 188   2.0000      -0.463244       -12.6055
 189   2.0000      -0.460103       -12.5200
 190   2.0000      -0.457906       -12.4603
 191   2.0000      -0.456643       -12.4259
 192   2.0000      -0.455278       -12.3888
 193   2.0000      -0.454040       -12.3551
 194   2.0000      -0.451297       -12.2804
 195   2.0000      -0.450079       -12.2473
 196   2.0000      -0.449843       -12.2408
 197   2.0000      -0.446816       -12.1585
 198   2.0000      -0.443679       -12.0731
 199   2.0000      -0.440429       -11.9847
 200   2.0000      -0.434188       -11.8149
 201   2.0000      -0.432870       -11.7790
 202   2.0000      -0.431799       -11.7498
 203   2.0000      -0.430426       -11.7125
 204   2.0000      -0.428063       -11.6482
 205   2.0000      -0.424395       -11.5484
 206   2.0000      -0.419873       -11.4253
 207   2.0000      -0.415993       -11.3197
 208   2.0000      -0.410946       -11.1824
 209   2.0000      -0.399194       -10.8626
 210   2.0000      -0.393593       -10.7102
 211   2.0000      -0.387481       -10.5439
 212   2.0000      -0.371262       -10.1025
 213   2.0000      -0.358386        -9.7522
 214   2.0000      -0.355606        -9.6765
 215   2.0000      -0.354479        -9.6459
 216   2.0000      -0.348693        -9.4884
 217   2.0000      -0.344183        -9.3657
 218   2.0000      -0.342056        -9.3078
 219   2.0000      -0.325586        -8.8596
 220   2.0000      -0.321241        -8.7414
 221   2.0000      -0.314028        -8.5451
 222   2.0000      -0.299195        -8.1415
 223   2.0000      -0.289528        -7.8785
 224   2.0000      -0.287153        -7.8138
 225   2.0000      -0.282489        -7.6869
 226   2.0000      -0.225884        -6.1466
 227   0.0000      -0.091004        -2.4763
 228   0.0000      -0.090002        -2.4491
 229   0.0000      -0.064589        -1.7576
 230   0.0000      -0.062448        -1.6993
 231   0.0000      -0.037583        -1.0227

MULLIKEN ATOMIC CHARGES
-----------------------
   0 C :   -0.087216
   1 C :    0.236516
   2 F :   -0.162809
   3 C :    0.235721
   4 F :   -0.166826
   5 C :   -0.097173
   6 C :   -0.016090
   7 C :    0.046905
   8 C :    0.301553
   9 C :   -0.352637
  10 C :   -0.194609
  11 N :    0.170051
  12 C :   -0.191914
  13 N :    0.158554
  14 C :   -0.077777
  15 C :    0.139187
  16 O :   -0.133092
  17 C :   -0.035000
  18 C :    0.036589
  19 C :    0.110163
  20 F :   -0.143935
  21 S :    0.119085
  22 C :    0.029345
  23 F :   -0.162169
  24 C :    0.115355
  25 C :   -0.048403
  26 C :    0.041765
  27 C :    0.098581
  28 N :   -0.007850
  29 C :    0.106000
  30 C :   -0.168415
  31 C :    0.070350
  32 N :   -0.045517
  33 C :    0.105761
  34 C :   -0.211112
  35 C :    0.006308
  36 C :   -0.033790
  37 C :    0.070647
  38 C :    0.062598
  39 F :   -0.155841
  40 S :    0.117968
  41 C :    0.077507
  42 F :   -0.153480
  43 C :    0.054979
  44 C :    0.006990
  45 C :   -0.013740
  46 C :    0.037498
  47 C :   -0.124139
  48 C :    0.137055
  49 O :   -0.135215
  50 C :    0.005725
  51 C :    0.020577
  52 C :   -0.067772
  53 C :    0.243838
  54 C :    0.244275
  55 C :   -0.102837
  56 F :   -0.171050
  57 F :   -0.177888
  58 C :    0.267223
  59 C :   -0.296081
  60 C :   -0.210653
  61 N :    0.172766
  62 C :   -0.175265
  63 N :    0.141062
  64 H :    0.016891
  65 H :    0.013241
  66 H :    0.043517
  67 H :   -0.016135
  68 H :   -0.017816
  69 H :    0.124625
  70 H :   -0.028700
  71 H :    0.119355
  72 H :   -0.034354
  73 H :   -0.014593
  74 H :    0.010631
  75 H :    0.004598
  76 H :    0.051097
  77 H :    0.012321
  78 H :    0.031659
  79 H :    0.015461
Sum of atomic charges:   -0.0000000

LOEWDIN ATOMIC CHARGES
----------------------
   0 C :   -0.017313
   1 C :    0.074522
   2 F :   -0.041718
   3 C :    0.072101
   4 F :   -0.043406
   5 C :   -0.004315
   6 C :   -0.043969
   7 C :   -0.014915
   8 C :    0.075186
   9 C :   -0.128662
  10 C :   -0.021528
  11 N :   -0.043939
  12 C :   -0.021124
  13 N :   -0.049553
  14 C :   -0.087510
  15 C :    0.081005
  16 O :   -0.126706
  17 C :    0.079059
  18 C :   -0.103293
  19 C :   -0.049524
  20 F :   -0.030667
  21 S :    0.439748
  22 C :   -0.087036
  23 F :   -0.049662
  24 C :   -0.077541
  25 C :   -0.039855
  26 C :   -0.011189
  27 C :   -0.002678
  28 N :    0.088841
  29 C :   -0.023427
  30 C :   -0.084657
  31 C :   -0.017006
  32 N :    0.067026
  33 C :   -0.030948
  34 C :   -0.101896
  35 C :   -0.023825
  36 C :   -0.034345
  37 C :   -0.080355
  38 C :   -0.081041
  39 F :   -0.048833
  40 S :    0.433147
  41 C :   -0.067702
  42 F :   -0.043957
  43 C :   -0.097727
  44 C :    0.035570
  45 C :   -0.038539
  46 C :    0.068227
  47 C :   -0.094681
  48 C :    0.082472
  49 O :   -0.136371
  50 C :   -0.045446
  51 C :   -0.011738
  52 C :   -0.009388
  53 C :    0.073214
  54 C :    0.071266
  55 C :   -0.003349
  56 F :   -0.044753
  57 F :   -0.043495
  58 C :    0.065319
  59 C :   -0.125154
  60 C :   -0.022356
  61 N :   -0.044617
  62 C :   -0.010083
  63 N :   -0.055251
  64 H :    0.051909
  65 H :    0.052812
  66 H :    0.043670
  67 H :    0.023705
  68 H :    0.028109
  69 H :    0.091186
  70 H :    0.026579
  71 H :    0.086935
  72 H :    0.020837
  73 H :    0.027884
  74 H :    0.034255
  75 H :    0.037472
  76 H :    0.034894
  77 H :    0.043414
  78 H :    0.052854
  79 H :    0.053824

  Mayer bond orders larger than 0.100000
B(  0-C ,  1-C ) :   1.3444 B(  0-C ,  5-C ) :   0.1054 B(  0-C ,  7-C ) :   1.3047
B(  0-C , 64-H ) :   0.9917 B(  1-C ,  2-F ) :   1.1473 B(  1-C ,  3-C ) :   1.2845
B(  3-C ,  4-F ) :   1.1326 B(  3-C ,  5-C ) :   1.3192 B(  5-C ,  6-C ) :   1.3207
B(  5-C , 65-H ) :   1.0198 B(  6-C ,  7-C ) :   1.3366 B(  6-C , 15-C ) :   0.9538
B(  7-C ,  8-C ) :   1.0158 B(  8-C ,  9-C ) :   1.6680 B(  8-C , 14-C ) :   1.0423
B(  9-C , 10-C ) :   1.1343 B(  9-C , 12-C ) :   1.1568 B( 10-C , 11-N ) :   2.9865
B( 12-C , 13-N ) :   2.9392 B( 14-C , 15-C ) :   0.9343 B( 14-C , 17-C ) :   1.6885
B( 15-C , 16-O ) :   2.2380 B( 17-C , 18-C ) :   1.0775 B( 17-C , 66-H ) :   0.9327
B( 18-C , 19-C ) :   1.4433 B( 18-C , 24-C ) :   1.1494 B( 19-C , 20-F ) :   1.1413
B( 19-C , 21-S ) :   1.1475 B( 21-S , 22-C ) :   1.0969 B( 22-C , 23-F ) :   1.1073
B( 22-C , 24-C ) :   1.4665 B( 24-C , 25-C ) :   1.0849 B( 25-C , 26-C ) :   1.7250
B( 25-C , 67-H ) :   0.9588 B( 26-C , 27-C ) :   1.0945 B( 26-C , 68-H ) :   0.9624
B( 27-C , 28-N ) :   1.1907 B( 27-C , 34-C ) :   1.3949 B( 28-N , 29-C ) :   1.1763
B( 28-N , 69-H ) :   0.9331 B( 29-C , 30-C ) :   1.2351 B( 29-C , 33-C ) :   1.3351
B( 30-C , 31-C ) :   1.4241 B( 30-C , 70-H ) :   1.0390 B( 31-C , 32-N ) :   1.1628
B( 31-C , 35-C ) :   1.1138 B( 32-N , 33-C ) :   1.1616 B( 32-N , 71-H ) :   0.9363
B( 33-C , 34-C ) :   1.2274 B( 34-C , 72-H ) :   1.0401 B( 35-C , 36-C ) :   1.7386
B( 35-C , 73-H ) :   0.9604 B( 36-C , 37-C ) :   1.0371 B( 36-C , 74-H ) :   0.9675
B( 37-C , 38-C ) :   1.5132 B( 37-C , 43-C ) :   1.1410 B( 38-C , 39-F ) :   1.1417
B( 38-C , 40-S ) :   1.0899 B( 40-S , 41-C ) :   1.1408 B( 41-C , 42-F ) :   1.1333
B( 41-C , 43-C ) :   1.4325 B( 43-C , 44-C ) :   1.0951 B( 44-C , 45-C ) :   1.6632
B( 44-C , 75-H ) :   0.9800 B( 45-C , 46-C ) :   1.1431 B( 45-C , 76-H ) :   0.9452
B( 46-C , 47-C ) :   1.6224 B( 46-C , 77-H ) :   0.9598 B( 47-C , 48-C ) :   0.9437
B( 47-C , 58-C ) :   1.0245 B( 48-C , 49-O ) :   2.2701 B( 48-C , 50-C ) :   0.9279
B( 50-C , 51-C ) :   1.3393 B( 50-C , 55-C ) :   1.3226 B( 51-C , 52-C ) :   1.3333
B( 51-C , 58-C ) :   1.0128 B( 52-C , 53-C ) :   1.3443 B( 52-C , 55-C ) :   0.1057
B( 52-C , 78-H ) :   0.9800 B( 53-C , 54-C ) :   1.3068 B( 53-C , 57-F ) :   1.0611
B( 54-C , 55-C ) :   1.3302 B( 54-C , 56-F ) :   1.1065 B( 55-C , 79-H ) :   1.0215
B( 58-C , 59-C ) :   1.6699 B( 59-C , 60-C ) :   1.1565 B( 59-C , 62-C ) :   1.1306
B( 60-C , 61-N ) :   2.9926 B( 62-C , 63-N ) :   2.9466

-----------------------------------------------------------------------------
         ABSORPTION SPECTRUM VIA TRANSITION ELECTRIC DIPOLE MOMENTS
-----------------------------------------------------------------------------
State   Energy  Wavelength   fosc         T2         TX        TY        TZ
        (cm-1)    (nm)                  (au**2)     (au)      (au)      (au)
-----------------------------------------------------------------------------
   0   12032.8    831.1   0.021587544   0.59063  -0.44143   0.61388  -0.13754
   1   15782.5    633.6   0.031041080   0.64749   0.47662   0.18277   0.62203
   2   19224.8    520.2   0.004022382   0.06888  -0.18771   0.02020  -0.18231
   3   22174.6    451.0   0.030633968   0.45480   0.46560   0.05708   0.48452
   4   23801.9    420.1   0.023214476   0.32109  -0.50897  -0.17544   0.17679
   5   24714.4    404.6   0.205006350   2.73082  -0.83482  -0.24147  -1.40556
   6   25107.4    398.3   0.484474485   6.35250  -1.18890  -1.25861  -1.83165
   7   26178.2    382.0   1.368445983  17.20930  -3.60735   0.79431  -1.88823
   8   27034.4    369.9   0.228362810   2.78089  -1.37506   0.03070  -0.94295
   9   27933.3    358.0   0.010662903   0.12567   0.22144   0.12110  -0.24893
  10   29274.1    341.6   0.141585145   1.59224  -0.85525  -0.53661  -0.75686
  11   29621.7    337.6   0.091840195   1.02070  -0.70564   0.70486  -0.16104
  12   30516.8    327.7   0.002625431   0.02832   0.00969  -0.16518  -0.03075
  13   30597.6    326.8   0.001692918   0.01821  -0.10321   0.03985  -0.07730
  14   31117.5    321.4   0.407695888   4.31328  -0.99930  -0.44849  -1.76452
  15   31736.2    315.1   0.257162643   2.66765  -0.26138   0.38670  -1.56518
  16   31995.1    312.5   0.100562324   1.03473  -0.10948  -0.69915  -0.73070
  17   32057.1    311.9   0.086601484   0.88936   0.24017  -0.55659   0.72241
  18   32323.8    309.4   0.039257300   0.39983  -0.10973  -0.14097   0.60656
  19   32709.6    305.7   0.082617309   0.83152   0.39095   0.15430   0.80924
  20   33150.5    301.7   0.113187347   1.12405  -0.81004   0.55824   0.39528
  21   33254.3    300.7   0.008519188   0.08434  -0.19963  -0.01390  -0.21046
  22   33544.9    298.1   0.061694160   0.60547  -0.26524   0.58649   0.43721
  23   33655.6    297.1   0.127555635   1.24772   0.34200  -0.02882  -1.06298
  24   34074.4    293.5   0.018510434   0.17884  -0.09619  -0.09002  -0.40185
  25   34257.8    291.9   0.005356561   0.05148  -0.14510   0.12458   0.12207
  26   35599.5    280.9   0.021543159   0.19922   0.39109   0.01478   0.21460
  27   35831.3    279.1   0.260442561   2.39290  -0.11876   0.26479  -1.51944
  28   35920.8    278.4   0.049889850   0.45724  -0.34563  -0.09336   0.57364
  29   36152.2    276.6   0.013465196   0.12262  -0.16415  -0.12371   0.28349
  30   36472.1    274.2   0.434623989   3.92310   0.30860  -1.02385   1.66721
  31   36985.2    270.4   0.072663241   0.64679  -0.34813   0.35176   0.63392
  32   37129.9    269.3   0.322197877   2.85677   0.22976  -0.79554  -1.47346
  33   37442.7    267.1   0.115428629   1.01490  -0.09263   0.21375   0.98012
  34   37566.7    266.2   0.127551412   1.11778   0.35280  -0.45542  -0.88651
  35   37806.4    264.5   0.036143746   0.31473   0.31512  -0.43403  -0.16447
  36   37882.5    264.0   0.055932371   0.48607   0.27294  -0.46220   0.44491
  37   38393.9    260.5   0.019246512   0.16503   0.12064  -0.36799   0.12273
  38   38488.5    259.8   0.173471668   1.48379  -0.59422   0.81801   0.67938
  39   38542.0    259.5   0.036306699   0.31012  -0.37793   0.39764   0.09575
  40   38967.1    256.6   0.002292188   0.01937  -0.04544   0.10792  -0.07519
  41   39295.3    254.5   0.036237307   0.30359   0.44008  -0.21176  -0.25510
  42   39644.6    252.2   0.012934751   0.10741  -0.06902  -0.13610  -0.29004
  43   40123.4    249.2   0.006479521   0.05316   0.20526  -0.01413  -0.10408

FINAL SINGLE POINT ENERGY     -3832.514160349570

DIPOLE MOMENT
-------------
                                X             Y             Z
Electronic contribution:     13.57766       1.41138      25.75237
Nuclear contribution   :    -14.53662      -3.52144     -25.92245
                        -----------------------------------------
Total Dipole Moment    :     -0.95896      -2.11006      -0.17008
                        -----------------------------------------
Magnitude (a.u.)       :      2.32398
Magnitude (Debye)      :      5.90708

Rotational constants in cm-1:     0.002197     0.000550     0.000475
Rotational constants in MHz :    65.868214    16.491783    14.230190

                             ****ORCA TERMINATED NORMALLY****
TOTAL RUN TIME: 0 days 0 hours 15 minutes 51 seconds 38 msec
