                         Program Version 4.2.0 -  RELEASE  -
|  1> # ORCA input file
|  2> # SCF done       -167.601586187133          0.000570905375
|  3> ! CAM-B3LYP def2-SVP def2/J RIJCOSX Grid4 TightSCF
|  4> %maxcore 5000
|  5> %tddft
|  6>     Mode sTDDFT
|  7>     Ethresh 5.0
|  8>     maxcore 5000
|  9> end
| 10>
| 11> %pal
| 12>   nprocs 6
| 13>   end
| 14> * xyz 0 1
| 15>    C        0.97501        -1.12598         3.15184
| 16>    C        1.36108         0.20258         3.25295
| 17>    F        1.09735         0.87004         4.38180
| 18>    C        2.01818         0.85534         2.20961
| 19>    F        2.36602         2.14059         2.34830
| 20>    C        2.31734         0.18714         1.03287
| 21>    C        1.94305        -1.13829         0.93516
| 22>    C        1.27096        -1.79952         1.97828
| 23>    C        0.97032        -3.16720         1.55073
| 24>    C       -0.00561        -3.96445         2.09052
| 25>    C       -0.70937        -3.65916         3.27279
| 26>    N       -1.29015        -3.46722         4.24392
| 27>    C       -0.47836        -5.13222         1.45878
| 28>    N       -0.91867        -6.05948         0.94595
| 29>    C        1.67477        -3.39244         0.31144
| 30>    C        2.16223        -2.08271        -0.18488
| 31>    O        2.66893        -1.85262        -1.25921
| 32>    C        2.00680        -4.52350        -0.38010
| 33>    C        2.04281        -5.86773         0.03525
| 34>    N        2.22853        -6.87926        -0.87229
| 35>    C        2.31201        -8.06935        -0.23312
| 36>    C        2.22741        -7.82668         1.13958
| 37>    C        2.05209        -6.46369         1.30554
| 38>    C        2.45735        -9.28323        -0.90682
| 39>    C        2.56968       -10.33827        -1.48958
| 40>    C        2.70273       -11.55400        -2.17672
| 41>    C        3.92532       -12.02161        -2.64884
| 42>    C        4.04723       -13.24149        -3.35380
| 43>    N        5.32475       -13.53157        -3.73168
| 44>    C        6.14861       -12.63202        -3.36533
| 45>    S        5.48416       -11.27037        -2.49226
| 46>    C        2.93317       -14.05872        -3.64217
| 47>    C        1.70895       -13.58581        -3.15389
| 48>    C        1.58879       -12.36877        -2.43371
| 49>    N        0.32654       -12.06595        -2.02331
| 50>    C       -0.51147       -12.95841        -2.36834
| 51>    S        0.12984       -14.31216        -3.26453
| 52>    C        3.16300       -15.25925        -4.39477
| 53>    C        2.22419       -16.07635        -4.91521
| 54>    C        2.50401       -17.24448        -5.67925
| 55>    N        1.50827       -17.96515        -6.24194
| 56>    C        2.02646       -19.02626        -6.92753
| 57>    C        3.42464       -18.97931        -6.78358
| 58>    C        3.71861       -17.87321        -6.01159
| 59>    C        1.22834       -19.91098        -7.61383
| 60>    C        0.38156       -20.59095        -8.17809
| 61>    C       -0.37191       -21.48466        -8.88555
| 62>    C       -1.72243       -21.57878        -9.11336
| 63>    C       -2.16532       -22.71569        -9.95650
| 64>    O       -1.45758       -23.56155       -10.45670
| 65>    C       -3.63407       -22.59547       -10.05451
| 66>    C       -4.05127       -21.46855        -9.32711
| 67>    C       -5.40013       -21.15297        -9.27208
| 68>    C       -6.29282       -21.97320        -9.94633
| 69>    C       -5.86610       -23.08892       -10.66579
| 70>    C       -4.52025       -23.41263       -10.72659
| 71>    F       -6.76288       -23.85214       -11.30115
| 72>    F       -7.59742       -21.68077        -9.90071
| 73>    C       -2.87999       -20.81302        -8.72813
| 74>    C       -2.95865       -19.67914        -7.95667
| 75>    C       -1.91446       -18.98262        -7.33218
| 76>    N       -1.18398       -18.30449        -6.75910
| 77>    C       -4.16127       -19.00075        -7.65431
| 78>    N       -5.08340       -18.38400        -7.35899
| 79>    H        0.47041        -1.58911         3.98416
| 80>    H        2.82451         0.69086         0.22556
| 81>    H        2.38856        -4.33215        -1.37992
| 82>    H        2.22178        -6.76239        -1.87320
| 83>    H        2.28469        -8.57138         1.90759
| 84>    H        1.98630        -5.94630         2.24204
| 85>    H        7.20139       -12.67544        -3.56478
| 86>    H       -1.55892       -12.91346        -2.14365
| 87>    H        4.20889       -15.47036        -4.56439
| 88>    H        1.17249       -15.85878        -4.78954
| 89>    H        0.50893       -17.78070        -6.20397
| 90>    H        4.11585       -19.68160        -7.20592
| 91>    H        4.69397       -17.54670        -5.71140
| 92>    H        0.19871       -22.27877        -9.36723
| 93>    H       -5.79000       -20.30581        -8.73320
| 94>    H       -4.18201       -24.27383       -11.28033
| 95> *
| 96>
| 97>                          ****END OF INPUT****

CARTESIAN COORDINATES (ANGSTROEM)
---------------------------------
  C      0.975010   -1.125980    3.151840
  C      1.361080    0.202580    3.252950
  F      1.097350    0.870040    4.381800
  C      2.018180    0.855340    2.209610
  F      2.366020    2.140590    2.348300
  C      2.317340    0.187140    1.032870
  C      1.943050   -1.138290    0.935160
  C      1.270960   -1.799520    1.978280
  C      0.970320   -3.167200    1.550730
  C     -0.005610   -3.964450    2.090520
  C     -0.709370   -3.659160    3.272790
  N     -1.290150   -3.467220    4.243920
  C     -0.478360   -5.132220    1.458780
  N     -0.918670   -6.059480    0.945950
  C      1.674770   -3.392440    0.311440
  C      2.162230   -2.082710   -0.184880
  O      2.668930   -1.852620   -1.259210
  C      2.006800   -4.523500   -0.380100
  C      2.042810   -5.867730    0.035250
  N      2.228530   -6.879260   -0.872290
  C      2.312010   -8.069350   -0.233120
  C      2.227410   -7.826680    1.139580
  C      2.052090   -6.463690    1.305540
  C      2.457350   -9.283230   -0.906820
  C      2.569680  -10.338270   -1.489580
  C      2.702730  -11.554000   -2.176720
  C      3.925320  -12.021610   -2.648840
  C      4.047230  -13.241490   -3.353800
  N      5.324750  -13.531570   -3.731680
  C      6.148610  -12.632020   -3.365330
  S      5.484160  -11.270370   -2.492260
  C      2.933170  -14.058720   -3.642170
  C      1.708950  -13.585810   -3.153890
  C      1.588790  -12.368770   -2.433710
  N      0.326540  -12.065950   -2.023310
  C     -0.511470  -12.958410   -2.368340
  S      0.129840  -14.312160   -3.264530
  C      3.163000  -15.259250   -4.394770
  C      2.224190  -16.076350   -4.915210
  C      2.504010  -17.244480   -5.679250
  N      1.508270  -17.965150   -6.241940
  C      2.026460  -19.026260   -6.927530
  C      3.424640  -18.979310   -6.783580
  C      3.718610  -17.873210   -6.011590
  C      1.228340  -19.910980   -7.613830
  C      0.381560  -20.590950   -8.178090
  C     -0.371910  -21.484660   -8.885550
  C     -1.722430  -21.578780   -9.113360
  C     -2.165320  -22.715690   -9.956500
  O     -1.457580  -23.561550  -10.456700
  C     -3.634070  -22.595470  -10.054510
  C     -4.051270  -21.468550   -9.327110
  C     -5.400130  -21.152970   -9.272080
  C     -6.292820  -21.973200   -9.946330
  C     -5.866100  -23.088920  -10.665790
  C     -4.520250  -23.412630  -10.726590
  F     -6.762880  -23.852140  -11.301150
  F     -7.597420  -21.680770   -9.900710
  C     -2.879990  -20.813020   -8.728130
  C     -2.958650  -19.679140   -7.956670
  C     -1.914460  -18.982620   -7.332180
  N     -1.183980  -18.304490   -6.759100
  C     -4.161270  -19.000750   -7.654310
  N     -5.083400  -18.384000   -7.358990
  H      0.470410   -1.589110    3.984160
  H      2.824510    0.690860    0.225560
  H      2.388560   -4.332150   -1.379920
  H      2.221780   -6.762390   -1.873200
  H      2.284690   -8.571380    1.907590
  H      1.986300   -5.946300    2.242040
  H      7.201390  -12.675440   -3.564780
  H     -1.558920  -12.913460   -2.143650
  H      4.208890  -15.470360   -4.564390
  H      1.172490  -15.858780   -4.789540
  H      0.508930  -17.780700   -6.203970
  H      4.115850  -19.681600   -7.205920
  H      4.693970  -17.546700   -5.711400
  H      0.198710  -22.278770   -9.367230
  H     -5.790000  -20.305810   -8.733200
  H     -4.182010  -24.273830  -11.280330

 Total Charge           Charge          ....    0
 Multiplicity           Mult            ....    1
 Number of Electrons    NEL             ....  444
 Basis Dimension        Dim             ....  984

ORBITAL ENERGIES
----------------

  NO   OCC          E(Eh)            E(eV)
   0   2.0000     -88.974216     -2421.1115
   1   2.0000     -88.973571     -2421.0939
   2   2.0000     -24.804138      -674.9549
   3   2.0000     -24.802463      -674.9093
   4   2.0000     -24.800821      -674.8646
   5   2.0000     -24.800415      -674.8536
   6   2.0000     -19.221200      -523.0354
   7   2.0000     -19.218250      -522.9552
   8   2.0000     -14.485626      -394.1739
   9   2.0000     -14.466357      -393.6496
  10   2.0000     -14.433133      -392.7455
  11   2.0000     -14.426177      -392.5562
  12   2.0000     -14.422017      -392.4430
  13   2.0000     -14.421764      -392.4362
  14   2.0000     -14.417157      -392.3108
  15   2.0000     -14.414747      -392.2452
  16   2.0000     -10.389237      -282.7055
  17   2.0000     -10.388541      -282.6866
  18   2.0000     -10.386500      -282.6310
  19   2.0000     -10.385568      -282.6057
  20   2.0000     -10.370881      -282.2060
  21   2.0000     -10.369971      -282.1813
  22   2.0000     -10.353509      -281.7333
  23   2.0000     -10.350390      -281.6484
  24   2.0000     -10.349480      -281.6237
  25   2.0000     -10.346709      -281.5483
  26   2.0000     -10.344915      -281.4995
  27   2.0000     -10.344252      -281.4814
  28   2.0000     -10.342486      -281.4333
  29   2.0000     -10.340410      -281.3769
  30   2.0000     -10.332986      -281.1748
  31   2.0000     -10.327462      -281.0245
  32   2.0000     -10.325336      -280.9667
  33   2.0000     -10.325196      -280.9629
  34   2.0000     -10.324521      -280.9445
  35   2.0000     -10.324386      -280.9408
  36   2.0000     -10.323973      -280.9296
  37   2.0000     -10.323797      -280.9248
  38   2.0000     -10.323002      -280.9032
  39   2.0000     -10.322714      -280.8953
  40   2.0000     -10.320618      -280.8383
  41   2.0000     -10.319847      -280.8173
  42   2.0000     -10.319623      -280.8112
  43   2.0000     -10.317059      -280.7414
  44   2.0000     -10.315542      -280.7002
  45   2.0000     -10.311983      -280.6033
  46   2.0000     -10.311692      -280.5954
  47   2.0000     -10.311039      -280.5776
  48   2.0000     -10.309140      -280.5260
  49   2.0000     -10.308620      -280.5118
  50   2.0000     -10.307043      -280.4689
  51   2.0000     -10.305041      -280.4144
  52   2.0000     -10.302535      -280.3462
  53   2.0000     -10.301709      -280.3238
  54   2.0000     -10.296712      -280.1878
  55   2.0000     -10.296336      -280.1775
  56   2.0000     -10.294134      -280.1176
  57   2.0000     -10.293319      -280.0954
  58   2.0000     -10.291607      -280.0489
  59   2.0000     -10.290421      -280.0166
  60   2.0000     -10.286077      -279.8984
  61   2.0000     -10.283933      -279.8400
  62   2.0000     -10.279015      -279.7062
  63   2.0000     -10.274617      -279.5865
  64   2.0000      -8.070415      -219.6071
  65   2.0000      -8.069375      -219.5789
  66   2.0000      -6.039800      -164.3513
  67   2.0000      -6.038799      -164.3241
  68   2.0000      -6.035695      -164.2396
  69   2.0000      -6.034575      -164.2091
  70   2.0000      -6.032064      -164.1408
  71   2.0000      -6.031158      -164.1162
  72   2.0000      -1.327064       -36.1112
  73   2.0000      -1.324346       -36.0373
  74   2.0000      -1.311844       -35.6971
  75   2.0000      -1.309127       -35.6232
  76   2.0000      -1.136247       -30.9188
  77   2.0000      -1.133609       -30.8471
  78   2.0000      -1.104428       -30.0530
  79   2.0000      -1.094168       -29.7738
  80   2.0000      -1.085189       -29.5295
  81   2.0000      -1.077438       -29.3186
  82   2.0000      -1.031343       -28.0643
  83   2.0000      -1.021551       -27.7978
  84   2.0000      -1.012449       -27.5501
  85   2.0000      -1.003358       -27.3028
  86   2.0000      -1.002522       -27.2800
  87   2.0000      -0.994461       -27.0607
  88   2.0000      -0.966554       -26.3013
  89   2.0000      -0.962363       -26.1872
  90   2.0000      -0.958374       -26.0787
  91   2.0000      -0.944938       -25.7131
  92   2.0000      -0.920456       -25.0469
  93   2.0000      -0.913207       -24.8496
  94   2.0000      -0.908061       -24.7096
  95   2.0000      -0.900903       -24.5148
  96   2.0000      -0.898880       -24.4598
  97   2.0000      -0.897301       -24.4168
  98   2.0000      -0.893739       -24.3199
  99   2.0000      -0.884731       -24.0747
 100   2.0000      -0.878412       -23.9028
 101   2.0000      -0.875777       -23.8311
 102   2.0000      -0.874614       -23.7995
 103   2.0000      -0.867191       -23.5975
 104   2.0000      -0.852213       -23.1899
 105   2.0000      -0.834222       -22.7003
 106   2.0000      -0.828807       -22.5530
 107   2.0000      -0.813610       -22.1394
 108   2.0000      -0.795721       -21.6527
 109   2.0000      -0.785160       -21.3653
 110   2.0000      -0.778334       -21.1795
 111   2.0000      -0.771574       -20.9956
 112   2.0000      -0.758453       -20.6385
 113   2.0000      -0.740561       -20.1517
 114   2.0000      -0.735223       -20.0064
 115   2.0000      -0.729886       -19.8612
 116   2.0000      -0.714964       -19.4552
 117   2.0000      -0.711729       -19.3671
 118   2.0000      -0.703147       -19.1336
 119   2.0000      -0.698421       -19.0050
 120   2.0000      -0.696712       -18.9585
 121   2.0000      -0.693285       -18.8652
 122   2.0000      -0.692024       -18.8309
 123   2.0000      -0.689472       -18.7615
 124   2.0000      -0.686757       -18.6876
 125   2.0000      -0.678041       -18.4504
 126   2.0000      -0.671621       -18.2757
 127   2.0000      -0.665943       -18.1212
 128   2.0000      -0.662342       -18.0232
 129   2.0000      -0.647319       -17.6144
 130   2.0000      -0.646491       -17.5919
 131   2.0000      -0.645258       -17.5584
 132   2.0000      -0.641263       -17.4496
 133   2.0000      -0.634842       -17.2749
 134   2.0000      -0.618485       -16.8298
 135   2.0000      -0.612130       -16.6569
 136   2.0000      -0.609627       -16.5888
 137   2.0000      -0.608076       -16.5466
 138   2.0000      -0.604872       -16.4594
 139   2.0000      -0.598323       -16.2812
 140   2.0000      -0.592105       -16.1120
 141   2.0000      -0.589786       -16.0489
 142   2.0000      -0.589038       -16.0285
 143   2.0000      -0.583526       -15.8785
 144   2.0000      -0.571463       -15.5503
 145   2.0000      -0.569115       -15.4864
 146   2.0000      -0.566534       -15.4162
 147   2.0000      -0.555672       -15.1206
 148   2.0000      -0.552349       -15.0302
 149   2.0000      -0.551894       -15.0178
 150   2.0000      -0.549255       -14.9460
 151   2.0000      -0.547875       -14.9084
 152   2.0000      -0.546743       -14.8776
 153   2.0000      -0.545091       -14.8327
 154   2.0000      -0.544632       -14.8202
 155   2.0000      -0.542511       -14.7625
 156   2.0000      -0.541052       -14.7228
 157   2.0000      -0.538872       -14.6635
 158   2.0000      -0.535540       -14.5728
 159   2.0000      -0.531726       -14.4690
 160   2.0000      -0.531322       -14.4580
 161   2.0000      -0.530701       -14.4411
 162   2.0000      -0.527628       -14.3575
 163   2.0000      -0.524184       -14.2638
 164   2.0000      -0.521975       -14.2037
 165   2.0000      -0.516362       -14.0509
 166   2.0000      -0.514607       -14.0032
 167   2.0000      -0.510638       -13.8952
 168   2.0000      -0.507126       -13.7996
 169   2.0000      -0.505582       -13.7576
 170   2.0000      -0.501038       -13.6339
 171   2.0000      -0.497977       -13.5506
 172   2.0000      -0.496212       -13.5026
 173   2.0000      -0.495395       -13.4804
 174   2.0000      -0.493424       -13.4268
 175   2.0000      -0.492129       -13.3915
 176   2.0000      -0.489381       -13.3167
 177   2.0000      -0.488175       -13.2839
 178   2.0000      -0.473270       -12.8783
 179   2.0000      -0.468611       -12.7516
 180   2.0000      -0.468470       -12.7477
 181   2.0000      -0.464351       -12.6356
 182   2.0000      -0.460894       -12.5416
 183   2.0000      -0.458675       -12.4812
 184   2.0000      -0.454766       -12.3748
 185   2.0000      -0.453331       -12.3358
 186   2.0000      -0.451754       -12.2928
 187   2.0000      -0.449466       -12.2306
 188   2.0000      -0.449206       -12.2235
 189   2.0000      -0.444583       -12.0977
 190   2.0000      -0.443790       -12.0761
 191   2.0000      -0.443340       -12.0639
 192   2.0000      -0.439421       -11.9572
 193   2.0000      -0.435949       -11.8628
 194   2.0000      -0.435343       -11.8463
 195   2.0000      -0.431243       -11.7347
 196   2.0000      -0.428325       -11.6553
 197   2.0000      -0.422314       -11.4917
 198   2.0000      -0.420267       -11.4360
 199   2.0000      -0.409731       -11.1493
 200   2.0000      -0.409529       -11.1438
 201   2.0000      -0.394524       -10.7356
 202   2.0000      -0.378879       -10.3098
 203   2.0000      -0.371504       -10.1091
 204   2.0000      -0.365716        -9.9516
 205   2.0000      -0.364009        -9.9052
 206   2.0000      -0.361966        -9.8496
 207   2.0000      -0.360820        -9.8184
 208   2.0000      -0.354663        -9.6509
 209   2.0000      -0.353581        -9.6214
 210   2.0000      -0.348608        -9.4861
 211   2.0000      -0.345594        -9.4041
 212   2.0000      -0.344406        -9.3718
 213   2.0000      -0.343049        -9.3348
 214   2.0000      -0.340002        -9.2519
 215   2.0000      -0.336521        -9.1572
 216   2.0000      -0.319769        -8.7014
 217   2.0000      -0.317322        -8.6348
 218   2.0000      -0.314274        -8.5518
 219   2.0000      -0.293460        -7.9854
 220   2.0000      -0.271243        -7.3809
 221   2.0000      -0.251585        -6.8460
 222   0.0000      -0.102817        -2.7978
 223   0.0000      -0.088369        -2.4046
 224   0.0000      -0.070497        -1.9183
 225   0.0000      -0.060746        -1.6530
 226   0.0000      -0.055764        -1.5174

MULLIKEN ATOMIC CHARGES
-----------------------
   0 C :   -0.093306
   1 C :    0.235452
   2 F :   -0.165875
   3 C :    0.232832
   4 F :   -0.169615
   5 C :   -0.103390
   6 C :    0.009750
   7 C :    0.031045
   8 C :    0.259349
   9 C :   -0.335380
  10 C :   -0.178873
  11 N :    0.156782
  12 C :   -0.210760
  13 N :    0.181749
  14 C :   -0.149801
  15 C :    0.133876
  16 O :   -0.145533
  17 C :    0.043901
  18 C :    0.080192
  19 N :   -0.031956
  20 C :   -0.013027
  21 C :    0.002605
  22 C :    0.008890
  23 C :    0.059581
  24 C :   -0.052309
  25 C :   -0.056190
  26 C :   -0.074695
  27 C :    0.006567
  28 N :   -0.060006
  29 C :    0.010771
  30 S :    0.126296
  31 C :    0.036600
  32 C :   -0.113712
  33 C :    0.027911
  34 N :   -0.031768
  35 C :    0.032493
  36 S :    0.090066
  37 C :   -0.043226
  38 C :    0.027637
  39 C :    0.090982
  40 N :   -0.022046
  41 C :   -0.035882
  42 C :    0.032722
  43 C :   -0.041168
  44 C :    0.164277
  45 C :   -0.067153
  46 C :   -0.059328
  47 C :   -0.133658
  48 C :    0.124932
  49 O :   -0.144330
  50 C :    0.005557
  51 C :    0.024109
  52 C :   -0.091493
  53 C :    0.234132
  54 C :    0.234046
  55 C :   -0.099241
  56 F :   -0.167245
  57 F :   -0.165042
  58 C :    0.355515
  59 C :   -0.377537
  60 C :   -0.128167
  61 N :    0.128289
  62 C :   -0.211529
  63 N :    0.156532
  64 H :    0.017363
  65 H :    0.011033
  66 H :    0.009178
  67 H :    0.132356
  68 H :   -0.013562
  69 H :   -0.002827
  70 H :    0.047239
  71 H :    0.052487
  72 H :    0.000035
  73 H :   -0.004215
  74 H :    0.123632
  75 H :   -0.015331
  76 H :   -0.012545
  77 H :    0.056482
  78 H :    0.015597
  79 H :    0.010884
Sum of atomic charges:   -0.0000000

LOEWDIN ATOMIC CHARGES
----------------------
   0 C :   -0.021582
   1 C :    0.073889
   2 F :   -0.043866
   3 C :    0.068491
   4 F :   -0.046689
   5 C :   -0.005457
   6 C :   -0.047081
   7 C :   -0.011819
   8 C :    0.065480
   9 C :   -0.140508
  10 C :   -0.022786
  11 N :   -0.049240
  12 C :   -0.019986
  13 N :   -0.038369
  14 C :   -0.106774
  15 C :    0.082424
  16 O :   -0.145926
  17 C :    0.058308
  18 C :   -0.028309
  19 N :    0.120957
  20 C :    0.001040
  21 C :   -0.034001
  22 C :   -0.011003
  23 C :   -0.038924
  24 C :   -0.007417
  25 C :   -0.064549
  26 C :   -0.155460
  27 C :   -0.028782
  28 N :   -0.088401
  29 C :   -0.098661
  30 S :    0.404146
  31 C :   -0.031557
  32 C :   -0.165842
  33 C :   -0.017199
  34 N :   -0.077380
  35 C :   -0.093982
  36 S :    0.406119
  37 C :   -0.004313
  38 C :   -0.033174
  39 C :    0.015809
  40 N :    0.124810
  41 C :   -0.046781
  42 C :   -0.010764
  43 C :   -0.056594
  44 C :    0.026675
  45 C :   -0.060993
  46 C :    0.058897
  47 C :   -0.109457
  48 C :    0.081305
  49 O :   -0.142479
  50 C :   -0.044724
  51 C :   -0.013990
  52 C :   -0.019656
  53 C :    0.073363
  54 C :    0.071169
  55 C :   -0.004686
  56 F :   -0.044415
  57 F :   -0.043681
  58 C :    0.079674
  59 C :   -0.147532
  60 C :    0.035564
  61 N :   -0.064821
  62 C :   -0.020425
  63 N :   -0.051231
  64 H :    0.051127
  65 H :    0.051851
  66 H :    0.045074
  67 H :    0.100098
  68 H :    0.035807
  69 H :    0.031768
  70 H :    0.022362
  71 H :    0.025378
  72 H :    0.035687
  73 H :    0.015003
  74 H :    0.065526
  75 H :    0.033595
  76 H :    0.029311
  77 H :    0.066937
  78 H :    0.051086
  79 H :    0.052530

  Mayer bond orders larger than 0.100000
B(  0-C ,  1-C ) :   1.3332 B(  0-C ,  5-C ) :   0.1050 B(  0-C ,  7-C ) :   1.3207
B(  0-C , 64-H ) :   0.9943 B(  1-C ,  2-F ) :   1.1415 B(  1-C ,  3-C ) :   1.2942
B(  3-C ,  4-F ) :   1.1300 B(  3-C ,  5-C ) :   1.3181 B(  5-C ,  6-C ) :   1.3259
B(  5-C , 65-H ) :   1.0198 B(  6-C ,  7-C ) :   1.3445 B(  6-C , 15-C ) :   0.9281
B(  7-C ,  8-C ) :   1.0128 B(  8-C ,  9-C ) :   1.6471 B(  8-C , 14-C ) :   1.0567
B(  9-C , 10-C ) :   1.1243 B(  9-C , 12-C ) :   1.1681 B( 10-C , 11-N ) :   2.9935
B( 12-C , 13-N ) :   3.0003 B( 14-C , 15-C ) :   0.9588 B( 14-C , 17-C ) :   1.6274
B( 15-C , 16-O ) :   2.2609 B( 17-C , 18-C ) :   1.1182 B( 17-C , 66-H ) :   0.9316
B( 18-C , 19-N ) :   1.1774 B( 18-C , 20-C ) :   0.1196 B( 18-C , 22-C ) :   1.3479
B( 19-N , 20-C ) :   1.2986 B( 19-N , 67-H ) :   0.9352 B( 20-C , 21-C ) :   1.4021
B( 20-C , 23-C ) :   0.7762 B( 21-C , 22-C ) :   1.3766 B( 21-C , 68-H ) :   1.0179
B( 22-C , 69-H ) :   0.9990 B( 23-C , 24-C ) :   2.3090 B( 24-C , 25-C ) :   0.8811
B( 25-C , 26-C ) :   1.4122 B( 25-C , 31-C ) :   0.1037 B( 25-C , 33-C ) :   1.3536
B( 26-C , 27-C ) :   1.2842 B( 26-C , 30-S ) :   1.0678 B( 27-C , 28-N ) :   1.3306
B( 27-C , 31-C ) :   1.2949 B( 28-N , 29-C ) :   1.7663 B( 28-N , 30-S ) :   0.1047
B( 29-C , 30-S ) :   1.1102 B( 29-C , 70-H ) :   0.9635 B( 31-C , 32-C ) :   1.3481
B( 31-C , 37-C ) :   1.1507 B( 32-C , 33-C ) :   1.2868 B( 32-C , 36-S ) :   1.0712
B( 33-C , 34-N ) :   1.3849 B( 34-N , 35-C ) :   1.7613 B( 34-N , 36-S ) :   0.1039
B( 35-C , 36-S ) :   1.1079 B( 35-C , 71-H ) :   0.9627 B( 37-C , 38-C ) :   1.6443
B( 37-C , 72-H ) :   0.9714 B( 38-C , 39-C ) :   1.1038 B( 38-C , 73-H ) :   0.9425
B( 39-C , 40-N ) :   1.2872 B( 39-C , 41-C ) :   0.1045 B( 39-C , 43-C ) :   1.3293
B( 40-N , 41-C ) :   1.2408 B( 40-N , 74-H ) :   0.8751 B( 41-C , 42-C ) :   1.3149
B( 41-C , 44-C ) :   0.9272 B( 42-C , 43-C ) :   1.4100 B( 42-C , 75-H ) :   1.0112
B( 43-C , 76-H ) :   1.0059 B( 44-C , 45-C ) :   1.9573 B( 45-C , 46-C ) :   1.0121
B( 46-C , 47-C ) :   1.5657 B( 46-C , 77-H ) :   0.9400 B( 47-C , 48-C ) :   0.9612
B( 47-C , 58-C ) :   1.0678 B( 48-C , 49-O ) :   2.2498 B( 48-C , 50-C ) :   0.9365
B( 50-C , 51-C ) :   1.3385 B( 50-C , 55-C ) :   1.3267 B( 51-C , 52-C ) :   1.3155
B( 51-C , 58-C ) :   1.0128 B( 52-C , 53-C ) :   1.3366 B( 52-C , 55-C ) :   0.1041
B( 52-C , 78-H ) :   0.9877 B( 53-C , 54-C ) :   1.2939 B( 53-C , 57-F ) :   1.1468
B( 54-C , 55-C ) :   1.3131 B( 54-C , 56-F ) :   1.1329 B( 55-C , 79-H ) :   1.0210
B( 58-C , 59-C ) :   1.5840 B( 59-C , 60-C ) :   1.1998 B( 59-C , 62-C ) :   1.1305
B( 60-C , 61-N ) :   2.8908 B( 61-N , 74-H ) :   0.1424 B( 62-C , 63-N ) :   2.9756

-----------------------------------------------------------------------------
         ABSORPTION SPECTRUM VIA TRANSITION ELECTRIC DIPOLE MOMENTS
-----------------------------------------------------------------------------
State   Energy  Wavelength   fosc         T2         TX        TY        TZ
        (cm-1)    (nm)                  (au**2)     (au)      (au)      (au)
-----------------------------------------------------------------------------
   0   16884.0    592.3   1.167030327  22.75523  -2.98256  -3.00584  -2.19648
   1   21508.8    464.9   0.789584576  12.08533  -1.25403   2.95860   1.32643
   2   24398.1    409.9   0.694199707   9.36707   0.77559   2.50114   1.58424
   3   26083.3    383.4   0.004019717   0.05074   0.19097  -0.08304   0.08584
   4   27156.2    368.2   0.308156367   3.73574   0.70049  -1.74035  -0.46502
   5   27706.7    360.9   0.145384781   1.72747   0.11400  -1.29070  -0.22037
   6   28102.5    355.8   0.067074958   0.78576   0.36597  -0.79680  -0.13015
   7   28329.4    353.0   0.230719354   2.68116  -0.50909   1.26912   0.90074
   8   29865.4    334.8   0.000200076   0.00221  -0.02613   0.00761   0.03828
   9   30634.4    326.4   0.124429658   1.33718   0.26172   1.12455  -0.06379
  10   30806.5    324.6   0.339412509   3.62711  -1.16890  -1.18420  -0.92653
  11   31512.1    317.3   0.000052317   0.00055  -0.01173  -0.02009   0.00233
  12   32115.1    311.4   0.315998002   3.23930   0.65754   1.67506  -0.03332
  13   32233.5    310.2   0.025082313   0.25617  -0.04903   0.41871   0.28009
  14   32492.3    307.8   0.006240570   0.06323  -0.13611  -0.19010   0.09255
  15   32732.0    305.5   0.004443634   0.04469   0.05369  -0.05698  -0.19638
  16   33245.8    300.8   0.000421056   0.00417   0.02992   0.01969  -0.05373
  17   33465.6    298.8   0.006385102   0.06281   0.09391   0.22925   0.03791
  18   33997.9    294.1   0.008298698   0.08036   0.22885   0.09427   0.13821
  19   34710.1    288.1   0.016713470   0.15852  -0.19090  -0.31084  -0.15955
  20   34878.8    286.7   0.024272695   0.22910   0.21923  -0.36867  -0.21243
  21   35594.7    280.9   0.035682652   0.33003   0.06702   0.14051   0.55298
  22   35623.6    280.7   0.103304255   0.95468  -0.30846  -0.80832  -0.45404
  23   35849.3    278.9   0.130423627   1.19771   1.02027  -0.20524  -0.33858
  24   36337.4    275.2   0.530279277   4.80426  -1.03394  -1.89363   0.38651
  25   36934.5    270.7   0.180750083   1.61110   0.86798   0.78317   0.49432
  26   37228.6    268.6   0.236009293   2.08702   0.27295   1.10431   0.89052
  27   37253.3    268.4   0.093618558   0.82732  -0.10063  -0.73824  -0.52172
  28   37664.4    265.5   0.034086813   0.29794  -0.22998  -0.21756   0.44465
  29   38062.5    262.7   0.004938624   0.04272  -0.14712  -0.13823  -0.04430
  30   38259.6    261.4   0.109817111   0.94494  -0.74576   0.55418   0.28578
  31   39030.1    256.2   0.010131166   0.08545   0.27479  -0.09919  -0.01020
  32   39474.0    253.3   0.109860174   0.91623  -0.92382   0.10367   0.22812
  33   39854.0    250.9   0.001113627   0.00920  -0.02718   0.07610   0.05166

FINAL SINGLE POINT ENERGY     -3619.051187118177

DIPOLE MOMENT
-------------
                                X             Y             Z
Electronic contribution:    -24.28170      12.52375       0.71160
Nuclear contribution   :     27.14360     -13.61345      -1.72088
                        -----------------------------------------
Total Dipole Moment    :      2.86190      -1.08970      -1.00929
                        -----------------------------------------
Magnitude (a.u.)       :      3.22437
Magnitude (Debye)      :      8.19571

Rotational constants in cm-1:     0.002346     0.000224     0.000209
Rotational constants in MHz :    70.326609     6.700865     6.252120

                             ****ORCA TERMINATED NORMALLY****
TOTAL RUN TIME: 0 days 0 hours 7 minutes 23 seconds 942 msec
