                         Program Version 4.2.0 -  RELEASE  -
|  1> # ORCA input file
|  2> # SCF done       -192.386803290441          0.000844201061
|  3> ! CAM-B3LYP def2-SVP def2/J RIJCOSX Grid4 TightSCF
|  4> %maxcore 5000
|  5> %tddft
|  6>     Mode sTDDFT
|  7>     Ethresh 5.0
|  8>     maxcore 5000
|  9> end
| 10>
| 11> %pal
| 12>   nprocs 6
| 13>   end
| 14> * xyz 0 1
| 15>    C       -4.33996        -2.40191        -1.05874
| 16>    C       -5.41357        -1.70555        -1.58858
| 17>    F       -6.61438        -2.29427        -1.62118
| 18>    C       -5.27269        -0.41380        -2.09791
| 19>    F       -6.33835         0.20410        -2.62423
| 20>    C       -4.04509         0.22646        -2.07577
| 21>    C       -2.97260        -0.46660        -1.54758
| 22>    C       -3.10303        -1.77610        -1.05044
| 23>    C       -1.80751        -2.22759        -0.55051
| 24>    C       -1.59827        -3.30266         0.26867
| 25>    C       -2.57059        -4.29283         0.52036
| 26>    N       -3.31430        -5.15008         0.68701
| 27>    C       -0.39441        -3.51755         0.97228
| 28>    N        0.54722        -3.68513         1.60474
| 29>    C       -0.82699        -1.22539        -0.92925
| 30>    C       -1.56739        -0.01895        -1.40902
| 31>    O       -1.10443         1.06241        -1.66694
| 32>    C        0.52380        -1.24815        -1.03153
| 33>    C        1.43696        -2.35415        -0.98169
| 34>    C        2.72446        -2.21021        -0.52801
| 35>    F        3.24888        -1.08635        -0.06079
| 36>    S        3.65135        -3.65956        -0.49983
| 37>    C        2.29415        -4.49162        -1.18065
| 38>    F        2.42442        -5.77587        -1.48739
| 39>    C        1.18957        -3.71674        -1.39608
| 40>    C       -0.04170        -4.14507        -2.00828
| 41>    C       -0.53666        -5.39859        -1.98184
| 42>    C       -1.82149        -5.69789        -2.53431
| 43>    O       -2.54331        -4.68222        -3.03828
| 44>    C       -3.73021        -5.16576        -3.46935
| 45>    C       -3.79299        -6.54172        -3.23203
| 46>    C       -2.55202        -6.88410        -2.62737
| 47>    C       -2.07924        -8.23283        -2.20509
| 48>    F       -0.83592        -8.23258        -1.71505
| 49>    F       -2.84830        -8.78733        -1.25063
| 50>    F       -2.06468        -9.11321        -3.22766
| 51>    O       -4.89144        -7.21792        -3.57813
| 52>    C       -5.05727        -8.58785        -3.25477
| 53>    C       -4.71426        -4.33087        -4.06826
| 54>    C       -4.54185        -3.00764        -4.25737
| 55>    C       -5.47692        -2.08144        -4.84204
| 56>    C       -5.04346        -0.90192        -5.38407
| 57>    F       -3.77535        -0.48648        -5.40791
| 58>    S       -6.27003         0.08320        -6.09616
| 59>    C       -7.42215        -1.11342        -5.63364
| 60>    F       -8.70367        -0.87596        -5.89255
| 61>    C       -6.91268        -2.19977        -4.96673
| 62>    C       -7.70297        -3.24009        -4.37121
| 63>    C       -8.98050        -3.54102        -4.69414
| 64>    C       -9.70281        -4.55437        -4.01301
| 65>    C      -10.92860        -5.04388        -4.34034
| 66>    C      -11.72685        -5.79620        -3.33508
| 67>    O      -11.32748        -6.28844        -2.30793
| 68>    C      -13.11618        -5.75727        -3.84699
| 69>    C      -13.13353        -5.15374        -5.11782
| 70>    C      -14.33453        -4.97151        -5.78471
| 71>    C      -15.49546        -5.40402        -5.16160
| 72>    C      -15.46929        -6.01440        -3.90599
| 73>    C      -14.27239        -6.19725        -3.23243
| 74>    F      -16.61327        -6.42242        -3.34653
| 75>    F      -16.66699        -5.22762        -5.77964
| 76>    C      -11.75929        -4.84265        -5.51106
| 77>    C      -11.32799        -4.63142        -6.79198
| 78>    C       -9.96909        -4.63506        -7.17764
| 79>    N       -8.88645        -4.68776        -7.55309
| 80>    C      -12.19431        -4.50270        -7.89940
| 81>    N      -12.85784        -4.37471        -8.82626
| 82>    H       -4.49630        -3.40101        -0.68762
| 83>    H       -3.93307         1.22752        -2.46083
| 84>    H        0.98266        -0.28084        -1.21760
| 85>    H       -0.60899        -3.36663        -2.50023
| 86>    H        0.00143        -6.19667        -1.50027
| 87>    H       -6.05486        -8.83839        -3.61090
| 88>    H       -5.00715        -8.75376        -2.17736
| 89>    H       -4.32684        -9.21525        -3.76783
| 90>    H       -5.60108        -4.85312        -4.38864
| 91>    H       -3.58293        -2.57515        -4.00007
| 92>    H       -7.21761        -3.81179        -3.59438
| 93>    H       -9.48687        -3.00092        -5.47820
| 94>    H       -9.27976        -4.92903        -3.08709
| 95>    H      -14.40381        -4.50193        -6.75250
| 96>    H      -14.25116        -6.66604        -2.26152
| 97> *
| 98>
| 99>                          ****END OF INPUT****

CARTESIAN COORDINATES (ANGSTROEM)
---------------------------------
  C     -4.339960   -2.401910   -1.058740
  C     -5.413570   -1.705550   -1.588580
  F     -6.614380   -2.294270   -1.621180
  C     -5.272690   -0.413800   -2.097910
  F     -6.338350    0.204100   -2.624230
  C     -4.045090    0.226460   -2.075770
  C     -2.972600   -0.466600   -1.547580
  C     -3.103030   -1.776100   -1.050440
  C     -1.807510   -2.227590   -0.550510
  C     -1.598270   -3.302660    0.268670
  C     -2.570590   -4.292830    0.520360
  N     -3.314300   -5.150080    0.687010
  C     -0.394410   -3.517550    0.972280
  N      0.547220   -3.685130    1.604740
  C     -0.826990   -1.225390   -0.929250
  C     -1.567390   -0.018950   -1.409020
  O     -1.104430    1.062410   -1.666940
  C      0.523800   -1.248150   -1.031530
  C      1.436960   -2.354150   -0.981690
  C      2.724460   -2.210210   -0.528010
  F      3.248880   -1.086350   -0.060790
  S      3.651350   -3.659560   -0.499830
  C      2.294150   -4.491620   -1.180650
  F      2.424420   -5.775870   -1.487390
  C      1.189570   -3.716740   -1.396080
  C     -0.041700   -4.145070   -2.008280
  C     -0.536660   -5.398590   -1.981840
  C     -1.821490   -5.697890   -2.534310
  O     -2.543310   -4.682220   -3.038280
  C     -3.730210   -5.165760   -3.469350
  C     -3.792990   -6.541720   -3.232030
  C     -2.552020   -6.884100   -2.627370
  C     -2.079240   -8.232830   -2.205090
  F     -0.835920   -8.232580   -1.715050
  F     -2.848300   -8.787330   -1.250630
  F     -2.064680   -9.113210   -3.227660
  O     -4.891440   -7.217920   -3.578130
  C     -5.057270   -8.587850   -3.254770
  C     -4.714260   -4.330870   -4.068260
  C     -4.541850   -3.007640   -4.257370
  C     -5.476920   -2.081440   -4.842040
  C     -5.043460   -0.901920   -5.384070
  F     -3.775350   -0.486480   -5.407910
  S     -6.270030    0.083200   -6.096160
  C     -7.422150   -1.113420   -5.633640
  F     -8.703670   -0.875960   -5.892550
  C     -6.912680   -2.199770   -4.966730
  C     -7.702970   -3.240090   -4.371210
  C     -8.980500   -3.541020   -4.694140
  C     -9.702810   -4.554370   -4.013010
  C    -10.928600   -5.043880   -4.340340
  C    -11.726850   -5.796200   -3.335080
  O    -11.327480   -6.288440   -2.307930
  C    -13.116180   -5.757270   -3.846990
  C    -13.133530   -5.153740   -5.117820
  C    -14.334530   -4.971510   -5.784710
  C    -15.495460   -5.404020   -5.161600
  C    -15.469290   -6.014400   -3.905990
  C    -14.272390   -6.197250   -3.232430
  F    -16.613270   -6.422420   -3.346530
  F    -16.666990   -5.227620   -5.779640
  C    -11.759290   -4.842650   -5.511060
  C    -11.327990   -4.631420   -6.791980
  C     -9.969090   -4.635060   -7.177640
  N     -8.886450   -4.687760   -7.553090
  C    -12.194310   -4.502700   -7.899400
  N    -12.857840   -4.374710   -8.826260
  H     -4.496300   -3.401010   -0.687620
  H     -3.933070    1.227520   -2.460830
  H      0.982660   -0.280840   -1.217600
  H     -0.608990   -3.366630   -2.500230
  H      0.001430   -6.196670   -1.500270
  H     -6.054860   -8.838390   -3.610900
  H     -5.007150   -8.753760   -2.177360
  H     -4.326840   -9.215250   -3.767830
  H     -5.601080   -4.853120   -4.388640
  H     -3.582930   -2.575150   -4.000070
  H     -7.217610   -3.811790   -3.594380
  H     -9.486870   -3.000920   -5.478200
  H     -9.279760   -4.929030   -3.087090
  H    -14.403810   -4.501930   -6.752500
  H    -14.251160   -6.666040   -2.261520

 Total Charge           Charge          ....    0
 Multiplicity           Mult            ....    1
 Number of Electrons    NEL             ....  482
 Basis Dimension        Dim             .... 1021

ORBITAL ENERGIES
----------------

  NO   OCC          E(Eh)            E(eV)
   0   2.0000     -88.999556     -2421.8011
   1   2.0000     -88.992729     -2421.6153
   2   2.0000     -24.829389      -675.6420
   3   2.0000     -24.824205      -675.5010
   4   2.0000     -24.823649      -675.4858
   5   2.0000     -24.818724      -675.3518
   6   2.0000     -24.818602      -675.3485
   7   2.0000     -24.815900      -675.2750
   8   2.0000     -24.812969      -675.1952
   9   2.0000     -24.804999      -674.9784
  10   2.0000     -24.804696      -674.9701
  11   2.0000     -24.804414      -674.9624
  12   2.0000     -24.804010      -674.9514
  13   2.0000     -19.314036      -525.5616
  14   2.0000     -19.266811      -524.2766
  15   2.0000     -19.233568      -523.3720
  16   2.0000     -19.222564      -523.0726
  17   2.0000     -14.432947      -392.7404
  18   2.0000     -14.428133      -392.6094
  19   2.0000     -14.421953      -392.4413
  20   2.0000     -14.419015      -392.3613
  21   2.0000     -10.532520      -286.6044
  22   2.0000     -10.410718      -283.2900
  23   2.0000     -10.401901      -283.0501
  24   2.0000     -10.401066      -283.0274
  25   2.0000     -10.399386      -282.9817
  26   2.0000     -10.398894      -282.9683
  27   2.0000     -10.392118      -282.7839
  28   2.0000     -10.390294      -282.7343
  29   2.0000     -10.389622      -282.7160
  30   2.0000     -10.384599      -282.5793
  31   2.0000     -10.374022      -282.2915
  32   2.0000     -10.364728      -282.0386
  33   2.0000     -10.361119      -281.9404
  34   2.0000     -10.358748      -281.8759
  35   2.0000     -10.356626      -281.8181
  36   2.0000     -10.352200      -281.6977
  37   2.0000     -10.349230      -281.6169
  38   2.0000     -10.337669      -281.3023
  39   2.0000     -10.336144      -281.2608
  40   2.0000     -10.334222      -281.2085
  41   2.0000     -10.329642      -281.0838
  42   2.0000     -10.329546      -281.0812
  43   2.0000     -10.328314      -281.0477
  44   2.0000     -10.323892      -280.9274
  45   2.0000     -10.321598      -280.8650
  46   2.0000     -10.321381      -280.8591
  47   2.0000     -10.321147      -280.8527
  48   2.0000     -10.319672      -280.8126
  49   2.0000     -10.318869      -280.7907
  50   2.0000     -10.318291      -280.7750
  51   2.0000     -10.316228      -280.7188
  52   2.0000     -10.315579      -280.7012
  53   2.0000     -10.314147      -280.6622
  54   2.0000     -10.312549      -280.6187
  55   2.0000     -10.312332      -280.6128
  56   2.0000     -10.312103      -280.6066
  57   2.0000     -10.309780      -280.5434
  58   2.0000     -10.309120      -280.5254
  59   2.0000     -10.307217      -280.4736
  60   2.0000     -10.306709      -280.4598
  61   2.0000     -10.305425      -280.4249
  62   2.0000     -10.300430      -280.2890
  63   2.0000     -10.300051      -280.2786
  64   2.0000     -10.295658      -280.1591
  65   2.0000     -10.293330      -280.0957
  66   2.0000     -10.292776      -280.0807
  67   2.0000      -8.096774      -220.3244
  68   2.0000      -8.089973      -220.1394
  69   2.0000      -6.065836      -165.0598
  70   2.0000      -6.062219      -164.9614
  71   2.0000      -6.059086      -164.8761
  72   2.0000      -6.058313      -164.8551
  73   2.0000      -6.055499      -164.7785
  74   2.0000      -6.051410      -164.6672
  75   2.0000      -1.399339       -38.0779
  76   2.0000      -1.346921       -36.6516
  77   2.0000      -1.340699       -36.4823
  78   2.0000      -1.340572       -36.4788
  79   2.0000      -1.339892       -36.4603
  80   2.0000      -1.332619       -36.2624
  81   2.0000      -1.328419       -36.1481
  82   2.0000      -1.324221       -36.0339
  83   2.0000      -1.313149       -35.7326
  84   2.0000      -1.302667       -35.4474
  85   2.0000      -1.296026       -35.2667
  86   2.0000      -1.234865       -33.6024
  87   2.0000      -1.170002       -31.8374
  88   2.0000      -1.150610       -31.3097
  89   2.0000      -1.138523       -30.9808
  90   2.0000      -1.037182       -28.2232
  91   2.0000      -1.026147       -27.9229
  92   2.0000      -1.020851       -27.7788
  93   2.0000      -1.016439       -27.6587
  94   2.0000      -1.013252       -27.5720
  95   2.0000      -1.007900       -27.4264
  96   2.0000      -1.006854       -27.3979
  97   2.0000      -0.999122       -27.1875
  98   2.0000      -0.971934       -26.4477
  99   2.0000      -0.963069       -26.2064
 100   2.0000      -0.942135       -25.6368
 101   2.0000      -0.932188       -25.3661
 102   2.0000      -0.929894       -25.3037
 103   2.0000      -0.924460       -25.1558
 104   2.0000      -0.919088       -25.0096
 105   2.0000      -0.907981       -24.7074
 106   2.0000      -0.904734       -24.6191
 107   2.0000      -0.888032       -24.1646
 108   2.0000      -0.887625       -24.1535
 109   2.0000      -0.878791       -23.9131
 110   2.0000      -0.874111       -23.7858
 111   2.0000      -0.855628       -23.2828
 112   2.0000      -0.843062       -22.9409
 113   2.0000      -0.835500       -22.7351
 114   2.0000      -0.827058       -22.5054
 115   2.0000      -0.800154       -21.7733
 116   2.0000      -0.797556       -21.7026
 117   2.0000      -0.791547       -21.5391
 118   2.0000      -0.789427       -21.4814
 119   2.0000      -0.784917       -21.3587
 120   2.0000      -0.776040       -21.1171
 121   2.0000      -0.751722       -20.4554
 122   2.0000      -0.741515       -20.1777
 123   2.0000      -0.739073       -20.1112
 124   2.0000      -0.726859       -19.7788
 125   2.0000      -0.723917       -19.6988
 126   2.0000      -0.722285       -19.6544
 127   2.0000      -0.716455       -19.4957
 128   2.0000      -0.707267       -19.2457
 129   2.0000      -0.704638       -19.1742
 130   2.0000      -0.702625       -19.1194
 131   2.0000      -0.696418       -18.9505
 132   2.0000      -0.692101       -18.8330
 133   2.0000      -0.687891       -18.7185
 134   2.0000      -0.686594       -18.6832
 135   2.0000      -0.680810       -18.5258
 136   2.0000      -0.676239       -18.4014
 137   2.0000      -0.668593       -18.1933
 138   2.0000      -0.661011       -17.9870
 139   2.0000      -0.657212       -17.8836
 140   2.0000      -0.655753       -17.8440
 141   2.0000      -0.646648       -17.5962
 142   2.0000      -0.643299       -17.5050
 143   2.0000      -0.633828       -17.2473
 144   2.0000      -0.631371       -17.1805
 145   2.0000      -0.627170       -17.0662
 146   2.0000      -0.622533       -16.9400
 147   2.0000      -0.619721       -16.8635
 148   2.0000      -0.617269       -16.7967
 149   2.0000      -0.614619       -16.7246
 150   2.0000      -0.612360       -16.6632
 151   2.0000      -0.611440       -16.6381
 152   2.0000      -0.608189       -16.5497
 153   2.0000      -0.603606       -16.4249
 154   2.0000      -0.597648       -16.2628
 155   2.0000      -0.596346       -16.2274
 156   2.0000      -0.592996       -16.1362
 157   2.0000      -0.592375       -16.1193
 158   2.0000      -0.591735       -16.1019
 159   2.0000      -0.590175       -16.0595
 160   2.0000      -0.585393       -15.9293
 161   2.0000      -0.580188       -15.7877
 162   2.0000      -0.575396       -15.6573
 163   2.0000      -0.571147       -15.5417
 164   2.0000      -0.567344       -15.4382
 165   2.0000      -0.565835       -15.3971
 166   2.0000      -0.564534       -15.3617
 167   2.0000      -0.562187       -15.2979
 168   2.0000      -0.561853       -15.2888
 169   2.0000      -0.556811       -15.1516
 170   2.0000      -0.555687       -15.1210
 171   2.0000      -0.555534       -15.1168
 172   2.0000      -0.553013       -15.0482
 173   2.0000      -0.551991       -15.0204
 174   2.0000      -0.549726       -14.9588
 175   2.0000      -0.545612       -14.8469
 176   2.0000      -0.543674       -14.7941
 177   2.0000      -0.542180       -14.7535
 178   2.0000      -0.541163       -14.7258
 179   2.0000      -0.538107       -14.6426
 180   2.0000      -0.534917       -14.5558
 181   2.0000      -0.530002       -14.4221
 182   2.0000      -0.528239       -14.3741
 183   2.0000      -0.519198       -14.1281
 184   2.0000      -0.518608       -14.1120
 185   2.0000      -0.517299       -14.0764
 186   2.0000      -0.513002       -13.9595
 187   2.0000      -0.510400       -13.8887
 188   2.0000      -0.508244       -13.8300
 189   2.0000      -0.506839       -13.7918
 190   2.0000      -0.502443       -13.6722
 191   2.0000      -0.499331       -13.5875
 192   2.0000      -0.498792       -13.5728
 193   2.0000      -0.495472       -13.4825
 194   2.0000      -0.493625       -13.4322
 195   2.0000      -0.490360       -13.3434
 196   2.0000      -0.481509       -13.1025
 197   2.0000      -0.479460       -13.0468
 198   2.0000      -0.478054       -13.0085
 199   2.0000      -0.475143       -12.9293
 200   2.0000      -0.474248       -12.9049
 201   2.0000      -0.473052       -12.8724
 202   2.0000      -0.471117       -12.8197
 203   2.0000      -0.468158       -12.7392
 204   2.0000      -0.463798       -12.6206
 205   2.0000      -0.462835       -12.5944
 206   2.0000      -0.462490       -12.5850
 207   2.0000      -0.457296       -12.4437
 208   2.0000      -0.456986       -12.4352
 209   2.0000      -0.454697       -12.3729
 210   2.0000      -0.453540       -12.3414
 211   2.0000      -0.450355       -12.2548
 212   2.0000      -0.448298       -12.1988
 213   2.0000      -0.447175       -12.1683
 214   2.0000      -0.444046       -12.0831
 215   2.0000      -0.442898       -12.0519
 216   2.0000      -0.442273       -12.0349
 217   2.0000      -0.437530       -11.9058
 218   2.0000      -0.430850       -11.7240
 219   2.0000      -0.429364       -11.6836
 220   2.0000      -0.427388       -11.6298
 221   2.0000      -0.424525       -11.5519
 222   2.0000      -0.420484       -11.4419
 223   2.0000      -0.418981       -11.4010
 224   2.0000      -0.413095       -11.2409
 225   2.0000      -0.401171       -10.9164
 226   2.0000      -0.396246       -10.7824
 227   2.0000      -0.385822       -10.4987
 228   2.0000      -0.362753        -9.8710
 229   2.0000      -0.362500        -9.8641
 230   2.0000      -0.357451        -9.7267
 231   2.0000      -0.352909        -9.6031
 232   2.0000      -0.351942        -9.5768
 233   2.0000      -0.344375        -9.3709
 234   2.0000      -0.336280        -9.1507
 235   2.0000      -0.325929        -8.8690
 236   2.0000      -0.321448        -8.7470
 237   2.0000      -0.317881        -8.6500
 238   2.0000      -0.300946        -8.1891
 239   2.0000      -0.287118        -7.8129
 240   2.0000      -0.250903        -6.8274
 241   0.0000      -0.098454        -2.6791
 242   0.0000      -0.092964        -2.5297
 243   0.0000      -0.071554        -1.9471
 244   0.0000      -0.065624        -1.7857
 245   0.0000      -0.058877        -1.6021

MULLIKEN ATOMIC CHARGES
-----------------------
   0 C :   -0.094111
   1 C :    0.254848
   2 F :   -0.166205
   3 C :    0.243771
   4 F :   -0.172354
   5 C :   -0.101622
   6 C :    0.002782
   7 C :    0.044862
   8 C :    0.247583
   9 C :   -0.309806
  10 C :   -0.190305
  11 N :    0.164762
  12 C :   -0.184857
  13 N :    0.178792
  14 C :   -0.137675
  15 C :    0.139052
  16 O :   -0.124051
  17 C :    0.027834
  18 C :    0.019194
  19 C :    0.101460
  20 F :   -0.139333
  21 S :    0.145046
  22 C :    0.055110
  23 F :   -0.146517
  24 C :    0.082605
  25 C :    0.006052
  26 C :   -0.035155
  27 C :    0.118739
  28 O :   -0.212154
  29 C :    0.074015
  30 C :    0.166334
  31 C :   -0.155041
  32 C :    0.512197
  33 F :   -0.144859
  34 F :   -0.156856
  35 F :   -0.164138
  36 O :   -0.296770
  37 C :    0.177407
  38 C :   -0.034306
  39 C :   -0.015896
  40 C :    0.067929
  41 C :    0.051127
  42 F :   -0.161717
  43 S :    0.129637
  44 C :    0.066045
  45 F :   -0.148257
  46 C :    0.095906
  47 C :   -0.008770
  48 C :    0.007587
  49 C :    0.027083
  50 C :   -0.108186
  51 C :    0.139118
  52 O :   -0.134297
  53 C :    0.001287
  54 C :    0.029626
  55 C :   -0.084742
  56 C :    0.235059
  57 C :    0.231895
  58 C :   -0.096338
  59 F :   -0.167018
  60 F :   -0.163702
  61 C :    0.261075
  62 C :   -0.318340
  63 C :   -0.216422
  64 N :    0.173874
  65 C :   -0.185452
  66 N :    0.161837
  67 H :    0.015321
  68 H :    0.012866
  69 H :    0.036141
  70 H :    0.022816
  71 H :    0.020412
  72 H :    0.040536
  73 H :    0.039590
  74 H :    0.037464
  75 H :    0.017439
  76 H :    0.001316
  77 H :    0.013149
  78 H :    0.027603
  79 H :    0.017416
  80 H :    0.018345
  81 H :    0.013307
Sum of atomic charges:   -0.0000000

LOEWDIN ATOMIC CHARGES
----------------------
   0 C :   -0.014864
   1 C :    0.076810
   2 F :   -0.036777
   3 C :    0.069735
   4 F :   -0.043850
   5 C :   -0.003518
   6 C :   -0.047330
   7 C :   -0.012756
   8 C :    0.062420
   9 C :   -0.120030
  10 C :   -0.017047
  11 N :   -0.041437
  12 C :   -0.015067
  13 N :   -0.040505
  14 C :   -0.089638
  15 C :    0.085219
  16 O :   -0.125893
  17 C :    0.078692
  18 C :   -0.105266
  19 C :   -0.055585
  20 F :   -0.032789
  21 S :    0.461675
  22 C :   -0.070219
  23 F :   -0.035872
  24 C :   -0.089362
  25 C :   -0.005592
  26 C :   -0.039307
  27 C :    0.058479
  28 O :    0.026231
  29 C :   -0.011683
  30 C :    0.035691
  31 C :   -0.151510
  32 C :    0.172588
  33 F :   -0.042726
  34 F :   -0.056844
  35 F :   -0.064032
  36 O :   -0.088052
  37 C :    0.078060
  38 C :   -0.027771
  39 C :   -0.035894
  40 C :   -0.086749
  41 C :   -0.090505
  42 F :   -0.051335
  43 S :    0.444609
  44 C :   -0.059797
  45 F :   -0.035731
  46 C :   -0.092860
  47 C :    0.036770
  48 C :   -0.031971
  49 C :    0.073372
  50 C :   -0.096667
  51 C :    0.082846
  52 O :   -0.135515
  53 C :   -0.046806
  54 C :   -0.012461
  55 C :   -0.019817
  56 C :    0.074477
  57 C :    0.069899
  58 C :   -0.004515
  59 F :   -0.044062
  60 F :   -0.041788
  61 C :    0.069962
  62 C :   -0.132313
  63 C :   -0.024571
  64 N :   -0.042548
  65 C :   -0.021452
  66 N :   -0.043575
  67 H :    0.050481
  68 H :    0.053182
  69 H :    0.052714
  70 H :    0.033208
  71 H :    0.035295
  72 H :    0.031871
  73 H :    0.019501
  74 H :    0.017293
  75 H :    0.041842
  76 H :    0.029025
  77 H :    0.034047
  78 H :    0.029762
  79 H :    0.046167
  80 H :    0.051607
  81 H :    0.052720

  Mayer bond orders larger than 0.100000
B(  0-C ,  1-C ) :   1.3333 B(  0-C ,  5-C ) :   0.1063 B(  0-C ,  7-C ) :   1.3191
B(  0-C , 67-H ) :   0.9917 B(  1-C ,  2-F ) :   1.1128 B(  1-C ,  3-C ) :   1.2954
B(  3-C ,  4-F ) :   1.1120 B(  3-C ,  5-C ) :   1.3260 B(  5-C ,  6-C ) :   1.3159
B(  5-C , 68-H ) :   1.0199 B(  6-C ,  7-C ) :   1.3413 B(  6-C , 15-C ) :   0.9272
B(  7-C ,  8-C ) :   1.0313 B(  8-C ,  9-C ) :   1.6649 B(  8-C , 14-C ) :   1.0210
B(  9-C , 10-C ) :   1.1344 B(  9-C , 12-C ) :   1.1584 B( 10-C , 11-N ) :   2.9757
B( 12-C , 13-N ) :   3.0188 B( 14-C , 15-C ) :   0.9310 B( 14-C , 17-C ) :   1.7162
B( 15-C , 16-O ) :   2.2865 B( 17-C , 18-C ) :   1.0531 B( 17-C , 69-H ) :   0.9420
B( 18-C , 19-C ) :   1.4337 B( 18-C , 24-C ) :   1.1513 B( 19-C , 20-F ) :   1.1624
B( 19-C , 21-S ) :   1.1532 B( 21-S , 22-C ) :   1.1165 B( 22-C , 23-F ) :   1.1350
B( 22-C , 24-C ) :   1.4685 B( 24-C , 25-C ) :   1.0918 B( 25-C , 26-C ) :   1.6860
B( 25-C , 70-H ) :   0.9460 B( 26-C , 27-C ) :   1.1497 B( 26-C , 71-H ) :   0.9636
B( 27-C , 28-O ) :   1.1733 B( 27-C , 29-C ) :   0.1170 B( 27-C , 31-C ) :   1.4285
B( 28-O , 29-C ) :   1.0989 B( 29-C , 30-C ) :   1.4048 B( 29-C , 38-C ) :   1.1705
B( 30-C , 31-C ) :   1.2164 B( 30-C , 36-O ) :   1.2435 B( 31-C , 32-C ) :   0.9419
B( 32-C , 33-F ) :   1.1551 B( 32-C , 34-F ) :   1.1643 B( 32-C , 35-F ) :   1.1560
B( 36-O , 37-C ) :   0.9178 B( 37-C , 72-H ) :   0.9774 B( 37-C , 73-H ) :   0.9668
B( 37-C , 74-H ) :   0.9647 B( 38-C , 39-C ) :   1.6515 B( 38-C , 75-H ) :   0.9569
B( 39-C , 40-C ) :   1.0865 B( 39-C , 76-H ) :   0.9683 B( 40-C , 41-C ) :   1.4591
B( 40-C , 46-C ) :   1.1457 B( 41-C , 42-F ) :   1.1183 B( 41-C , 43-S ) :   1.1093
B( 43-S , 44-C ) :   1.1413 B( 44-C , 45-F ) :   1.1170 B( 44-C , 46-C ) :   1.4374
B( 46-C , 47-C ) :   1.0793 B( 47-C , 48-C ) :   1.6813 B( 47-C , 77-H ) :   0.9655
B( 48-C , 49-C ) :   1.1222 B( 48-C , 78-H ) :   0.9574 B( 49-C , 50-C ) :   1.6181
B( 49-C , 79-H ) :   0.9616 B( 50-C , 51-C ) :   0.9411 B( 50-C , 61-C ) :   1.0358
B( 51-C , 52-O ) :   2.2780 B( 51-C , 53-C ) :   0.9290 B( 53-C , 54-C ) :   1.3404
B( 53-C , 58-C ) :   1.3240 B( 54-C , 55-C ) :   1.3198 B( 54-C , 61-C ) :   1.0180
B( 55-C , 56-C ) :   1.3374 B( 55-C , 58-C ) :   0.1045 B( 55-C , 80-H ) :   0.9928
B( 56-C , 57-C ) :   1.2895 B( 56-C , 60-F ) :   1.1427 B( 57-C , 58-C ) :   1.3237
B( 57-C , 59-F ) :   1.1328 B( 58-C , 81-H ) :   1.0180 B( 61-C , 62-C ) :   1.6641
B( 62-C , 63-C ) :   1.1541 B( 62-C , 65-C ) :   1.1234 B( 63-C , 64-N ) :   3.0182
B( 65-C , 66-N ) :   2.9984

-----------------------------------------------------------------------------
         ABSORPTION SPECTRUM VIA TRANSITION ELECTRIC DIPOLE MOMENTS
-----------------------------------------------------------------------------
State   Energy  Wavelength   fosc         T2         TX        TY        TZ
        (cm-1)    (nm)                  (au**2)     (au)      (au)      (au)
-----------------------------------------------------------------------------
   0   14836.7    674.0   0.006974344   0.15475   0.11014   0.35375   0.13223
   1   19905.9    502.4   0.061760637   1.02142   0.95525  -0.11017   0.31109
   2   21467.2    465.8   0.012358042   0.18952  -0.25854  -0.29654  -0.18638
   3   23919.4    418.1   0.746078829  10.26856  -2.87764  -0.79838  -1.16204
   4   24620.9    406.2   0.107090958   1.43194  -0.85716  -0.75960   0.34674
   5   25493.9    392.3   0.235179343   3.03696  -1.48638   0.64149  -0.64507
   6   28111.3    355.7   0.006933399   0.08120   0.25187   0.11337  -0.07005
   7   28229.8    354.2   0.028564954   0.33312  -0.47334   0.11569   0.30933
   8   29227.9    342.1   0.170150946   1.91652  -1.36980   0.20037   0.00450
   9   29366.8    340.5   0.035785932   0.40117  -0.16027   0.60158   0.11657
  10   30749.3    325.2   0.029301834   0.31372   0.03254   0.11277   0.54767
  11   30913.1    323.5   0.158768815   1.69083   1.05690   0.55610  -0.51434
  12   32011.0    312.4   0.036727530   0.37772  -0.38301   0.44023  -0.19294
  13   32058.6    311.9   0.377294793   3.87446   1.66177   0.30613  -1.00959
  14   32324.6    309.4   0.201156155   2.04869   1.00194  -0.72758   0.71793
  15   32717.2    305.6   0.012766583   0.12846  -0.33277  -0.07598  -0.10933
  16   32905.1    303.9   0.013871567   0.13878   0.33880   0.14063  -0.06498
  17   33114.5    302.0   0.071693286   0.71275  -0.80754  -0.22511   0.09977
  18   33343.4    299.9   0.286164150   2.82541  -1.24758   0.91445  -0.65782
  19   33962.5    294.4   0.048746457   0.47252   0.32482   0.54395  -0.26670
  20   34358.0    291.1   0.107293386   1.02807  -0.97020  -0.22479  -0.19040
  21   34839.3    287.0   0.019979404   0.18879   0.35419  -0.15211   0.20052
  22   34962.3    286.0   0.014786033   0.13923  -0.17759   0.30668  -0.11678
  23   35629.2    280.7   0.022650084   0.20929  -0.38610   0.15904   0.18686
  24   36281.7    275.6   0.049944220   0.45318  -0.05997  -0.63162  -0.22505
  25   36483.6    274.1   0.265499374   2.39575  -0.53066   1.37178  -0.48204
  26   36768.5    272.0   0.531340238   4.75743  -1.53329  -0.62980   1.41767
  27   36981.5    270.4   0.358312026   3.18972  -0.90665   1.15695  -1.01449
  28   37621.5    265.8   0.083843600   0.73368   0.19550   0.12024  -0.82523
  29   37735.5    265.0   0.197731517   1.72505   0.31018  -1.04706   0.72973
  30   38093.8    262.5   0.088898059   0.76827   0.72089  -0.35860   0.34640
  31   38281.3    261.2   0.066895004   0.57528   0.49915  -0.40230   0.40532
  32   38754.2    258.0   0.024851915   0.21111   0.38013  -0.24882  -0.06859
  33   39176.4    255.3   0.004096594   0.03442   0.12034   0.13463  -0.04266
  34   39496.3    253.2   0.099251580   0.82729  -0.76883  -0.44916   0.18561
  35   40211.1    248.7   0.300937958   2.46381   0.94578   1.19473   0.37673

FINAL SINGLE POINT ENERGY     -4172.052301062355

DIPOLE MOMENT
-------------
                                X             Y             Z
Electronic contribution:      8.37340       6.36503       3.14347
Nuclear contribution   :     -7.16235      -5.49779      -2.61668
                        -----------------------------------------
Total Dipole Moment    :      1.21105       0.86724       0.52678
                        -----------------------------------------
Magnitude (a.u.)       :      1.57996
Magnitude (Debye)      :      4.01593

Rotational constants in cm-1:     0.002003     0.000507     0.000454
Rotational constants in MHz :    60.058795    15.209630    13.607600

                             ****ORCA TERMINATED NORMALLY****
TOTAL RUN TIME: 0 days 0 hours 8 minutes 33 seconds 519 msec
