                         Program Version 4.2.0 -  RELEASE  -
|  1> # ORCA input file
|  2> # SCF done       -202.295470666319          0.000253121278
|  3> ! CAM-B3LYP def2-SVP def2/J RIJCOSX Grid4 TightSCF
|  4> %maxcore 5000
|  5> %tddft
|  6>     Mode sTDDFT
|  7>     Ethresh 5.0
|  8>     maxcore 5000
|  9> end
| 10>
| 11> %pal
| 12>   nprocs 6
| 13>   end
| 14> * xyz 0 1
| 15>    C        2.26699         4.16983         4.73561
| 16>    C        2.84400         3.08619         4.14292
| 17>    C        3.29365         2.12391         5.10077
| 18>    C        3.06649         2.48929         6.38674
| 19>    S        2.29138         4.02798         6.44994
| 20>    C        3.81919         0.94668         4.40236
| 21>    O        4.23377        -0.07534         4.89565
| 22>    C        3.63581         1.24582         2.94666
| 23>    C        3.06454         2.56757         2.79758
| 24>    C        2.85571         3.32906         1.67136
| 25>    N        2.68120         4.76731         1.78196
| 26>    O        1.77336         5.26157         1.15813
| 27>    O        3.45198         5.36418         2.49992
| 28>    N        2.79824         2.88718         0.31806
| 29>    O        3.18015         3.66134        -0.53449
| 30>    O        2.37190         1.76723         0.09916
| 31>    C        3.91843         0.33279         1.95681
| 32>    C        4.77030        -0.78446         2.00001
| 33>    C        4.74022        -1.78259         1.03294
| 34>    C        5.76140        -2.73150         1.30835
| 35>    C        6.43437        -2.22884         2.50241
| 36>    C        5.87251        -1.08147         2.91786
| 37>    F        7.48857        -2.84124         3.05772
| 38>    C        6.09838        -3.85624         0.57892
| 39>    C        7.15781        -4.76359         0.80073
| 40>    C        7.19372        -5.68929        -0.23261
| 41>    C        6.08477        -5.39048        -1.14725
| 42>    C        5.44779        -4.31838        -0.65775
| 43>    F        4.37604        -3.72734        -1.18980
| 44>    C        8.16454        -6.69151        -0.39212
| 45>    C        8.27979        -7.49970        -1.49037
| 46>    C        9.30674        -8.43832        -1.69446
| 47>    N        9.42370        -9.11570        -2.89274
| 48>    C       10.53310        -9.89517        -2.84748
| 49>    C       11.32657       -10.75814        -3.57918
| 50>    C       12.39841       -11.11865        -2.73475
| 51>    N       12.24312       -10.49590        -1.51239
| 52>    C       11.12494        -9.72727        -1.55727
| 53>    C       10.36465        -8.82181        -0.84184
| 54>    C       13.49300       -11.92865        -3.08432
| 55>    C       14.51685       -12.30405        -2.25736
| 56>    C       15.65557       -13.01600        -2.67940
| 57>    C       16.03505       -13.35985        -3.96801
| 58>    C       17.30098       -13.98782        -3.92758
| 59>    C       17.66506       -14.03924        -2.50355
| 60>    C       16.70864       -13.46431        -1.76191
| 61>    F       18.80041       -14.58191        -2.05427
| 62>    C       18.07973       -14.40579        -4.98939
| 63>    C       19.38273       -14.96987        -4.95918
| 64>    C       19.82860       -15.15019        -6.25974
| 65>    C       18.76471       -14.71898        -7.17128
| 66>    C       17.74337       -14.29590        -6.41011
| 67>    F       16.57033       -13.82290        -6.84703
| 68>    C       21.09194       -15.64962        -6.62556
| 69>    C       21.57265       -15.67295        -7.90761
| 70>    C       22.82153       -16.22066        -8.23276
| 71>    C       23.38390       -16.38172        -9.47436
| 72>    C       22.85042       -16.18701       -10.80271
| 73>    C       21.53240       -16.30655       -11.17763
| 74>    N       21.03941       -15.94918       -12.47081
| 75>    O       20.09488       -16.57212       -12.90297
| 76>    O       21.60603       -15.04592       -13.05673
| 77>    N       20.53203       -16.89230       -10.31749
| 78>    O       19.43162       -16.38617       -10.32608
| 79>    O       20.86577       -17.83321        -9.63245
| 80>    C       23.99431       -16.04052       -11.68945
| 81>    C       24.25406       -15.75459       -12.99724
| 82>    S       25.93148       -15.90052       -13.34642
| 83>    C       26.30880       -16.34911       -11.72363
| 84>    C       25.18831       -16.37408       -10.96217
| 85>    C       24.85143       -16.64041        -9.55801
| 86>    O       25.58330       -16.94516        -8.64730
| 87>    H        1.82351         5.04615         4.30763
| 88>    H        3.29919         1.96088         7.28927
| 89>    H        3.41224         0.45730         1.00443
| 90>    H        4.04112        -1.83729         0.22070
| 91>    H        6.17377        -0.48417         3.75308
| 92>    H        7.84578        -4.71991         1.62193
| 93>    H        5.82992        -5.93867        -2.03209
| 94>    H        8.89136        -6.78159         0.40298
| 95>    H        7.56400        -7.39449        -2.29423
| 96>    H        8.80056        -9.00390        -3.67434
| 97>    H       11.19286       -11.10330        -4.58427
| 98>    H       12.88807       -10.56683        -0.74516
| 99>    H       10.52200        -8.46616         0.15554
|100>    H       13.51132       -12.25877        -4.11220
|101>    H       14.48283       -12.04153        -1.20754
|102>    H       15.48628       -13.15924        -4.86577
|103>    H       16.68870       -13.34692        -0.69585
|104>    H       19.94217       -15.18959        -4.07067
|105>    H       18.78441       -14.78050        -8.24159
|106>    H       21.70766       -16.05108        -5.83048
|107>    H       20.97746       -15.21668        -8.68366
|108>    H       23.46569       -16.50960        -7.40864
|109>    H       23.58436       -15.43005       -13.76851
|110>    H       27.31957       -16.56602       -11.44194
|111> *
|112>
|113>                          ****END OF INPUT****

CARTESIAN COORDINATES (ANGSTROEM)
---------------------------------
  C      2.266990    4.169830    4.735610
  C      2.844000    3.086190    4.142920
  C      3.293650    2.123910    5.100770
  C      3.066490    2.489290    6.386740
  S      2.291380    4.027980    6.449940
  C      3.819190    0.946680    4.402360
  O      4.233770   -0.075340    4.895650
  C      3.635810    1.245820    2.946660
  C      3.064540    2.567570    2.797580
  C      2.855710    3.329060    1.671360
  N      2.681200    4.767310    1.781960
  O      1.773360    5.261570    1.158130
  O      3.451980    5.364180    2.499920
  N      2.798240    2.887180    0.318060
  O      3.180150    3.661340   -0.534490
  O      2.371900    1.767230    0.099160
  C      3.918430    0.332790    1.956810
  C      4.770300   -0.784460    2.000010
  C      4.740220   -1.782590    1.032940
  C      5.761400   -2.731500    1.308350
  C      6.434370   -2.228840    2.502410
  C      5.872510   -1.081470    2.917860
  F      7.488570   -2.841240    3.057720
  C      6.098380   -3.856240    0.578920
  C      7.157810   -4.763590    0.800730
  C      7.193720   -5.689290   -0.232610
  C      6.084770   -5.390480   -1.147250
  C      5.447790   -4.318380   -0.657750
  F      4.376040   -3.727340   -1.189800
  C      8.164540   -6.691510   -0.392120
  C      8.279790   -7.499700   -1.490370
  C      9.306740   -8.438320   -1.694460
  N      9.423700   -9.115700   -2.892740
  C     10.533100   -9.895170   -2.847480
  C     11.326570  -10.758140   -3.579180
  C     12.398410  -11.118650   -2.734750
  N     12.243120  -10.495900   -1.512390
  C     11.124940   -9.727270   -1.557270
  C     10.364650   -8.821810   -0.841840
  C     13.493000  -11.928650   -3.084320
  C     14.516850  -12.304050   -2.257360
  C     15.655570  -13.016000   -2.679400
  C     16.035050  -13.359850   -3.968010
  C     17.300980  -13.987820   -3.927580
  C     17.665060  -14.039240   -2.503550
  C     16.708640  -13.464310   -1.761910
  F     18.800410  -14.581910   -2.054270
  C     18.079730  -14.405790   -4.989390
  C     19.382730  -14.969870   -4.959180
  C     19.828600  -15.150190   -6.259740
  C     18.764710  -14.718980   -7.171280
  C     17.743370  -14.295900   -6.410110
  F     16.570330  -13.822900   -6.847030
  C     21.091940  -15.649620   -6.625560
  C     21.572650  -15.672950   -7.907610
  C     22.821530  -16.220660   -8.232760
  C     23.383900  -16.381720   -9.474360
  C     22.850420  -16.187010  -10.802710
  C     21.532400  -16.306550  -11.177630
  N     21.039410  -15.949180  -12.470810
  O     20.094880  -16.572120  -12.902970
  O     21.606030  -15.045920  -13.056730
  N     20.532030  -16.892300  -10.317490
  O     19.431620  -16.386170  -10.326080
  O     20.865770  -17.833210   -9.632450
  C     23.994310  -16.040520  -11.689450
  C     24.254060  -15.754590  -12.997240
  S     25.931480  -15.900520  -13.346420
  C     26.308800  -16.349110  -11.723630
  C     25.188310  -16.374080  -10.962170
  C     24.851430  -16.640410   -9.558010
  O     25.583300  -16.945160   -8.647300
  H      1.823510    5.046150    4.307630
  H      3.299190    1.960880    7.289270
  H      3.412240    0.457300    1.004430
  H      4.041120   -1.837290    0.220700
  H      6.173770   -0.484170    3.753080
  H      7.845780   -4.719910    1.621930
  H      5.829920   -5.938670   -2.032090
  H      8.891360   -6.781590    0.402980
  H      7.564000   -7.394490   -2.294230
  H      8.800560   -9.003900   -3.674340
  H     11.192860  -11.103300   -4.584270
  H     12.888070  -10.566830   -0.745160
  H     10.522000   -8.466160    0.155540
  H     13.511320  -12.258770   -4.112200
  H     14.482830  -12.041530   -1.207540
  H     15.486280  -13.159240   -4.865770
  H     16.688700  -13.346920   -0.695850
  H     19.942170  -15.189590   -4.070670
  H     18.784410  -14.780500   -8.241590
  H     21.707660  -16.051080   -5.830480
  H     20.977460  -15.216680   -8.683660
  H     23.465690  -16.509600   -7.408640
  H     23.584360  -15.430050  -13.768510
  H     27.319570  -16.566020  -11.441940

 Total Charge           Charge          ....    0
 Multiplicity           Mult            ....    1
 Number of Electrons    NEL             ....  514
 Basis Dimension        Dim             .... 1136

ORBITAL ENERGIES
----------------

  NO   OCC          E(Eh)            E(eV)
   0   2.0000     -88.980006     -2421.2691
   1   2.0000     -88.977467     -2421.2000
   2   2.0000     -24.803613      -674.9406
   3   2.0000     -24.800426      -674.8539
   4   2.0000     -24.788999      -674.5430
   5   2.0000     -24.784827      -674.4294
   6   2.0000     -19.248914      -523.7896
   7   2.0000     -19.248102      -523.7675
   8   2.0000     -19.247707      -523.7567
   9   2.0000     -19.246878      -523.7342
  10   2.0000     -19.245961      -523.7092
  11   2.0000     -19.244189      -523.6610
  12   2.0000     -19.244090      -523.6583
  13   2.0000     -19.244051      -523.6572
  14   2.0000     -19.212302      -522.7933
  15   2.0000     -19.207551      -522.6640
  16   2.0000     -14.655954      -398.8088
  17   2.0000     -14.655131      -398.7864
  18   2.0000     -14.655079      -398.7850
  19   2.0000     -14.654346      -398.7650
  20   2.0000     -14.486487      -394.1973
  21   2.0000     -14.483305      -394.1108
  22   2.0000     -10.371683      -282.2279
  23   2.0000     -10.367996      -282.1275
  24   2.0000     -10.367106      -282.1033
  25   2.0000     -10.361985      -281.9639
  26   2.0000     -10.361741      -281.9573
  27   2.0000     -10.360433      -281.9217
  28   2.0000     -10.353912      -281.7443
  29   2.0000     -10.348530      -281.5978
  30   2.0000     -10.347141      -281.5600
  31   2.0000     -10.346927      -281.5542
  32   2.0000     -10.337093      -281.2866
  33   2.0000     -10.334669      -281.2206
  34   2.0000     -10.326175      -280.9895
  35   2.0000     -10.324446      -280.9425
  36   2.0000     -10.319548      -280.8092
  37   2.0000     -10.319189      -280.7994
  38   2.0000     -10.317598      -280.7561
  39   2.0000     -10.316161      -280.7170
  40   2.0000     -10.315277      -280.6930
  41   2.0000     -10.314772      -280.6792
  42   2.0000     -10.314354      -280.6678
  43   2.0000     -10.309919      -280.5471
  44   2.0000     -10.309699      -280.5412
  45   2.0000     -10.309113      -280.5252
  46   2.0000     -10.308250      -280.5017
  47   2.0000     -10.307222      -280.4738
  48   2.0000     -10.306884      -280.4646
  49   2.0000     -10.305585      -280.4292
  50   2.0000     -10.303893      -280.3832
  51   2.0000     -10.301308      -280.3128
  52   2.0000     -10.301248      -280.3112
  53   2.0000     -10.300430      -280.2890
  54   2.0000     -10.298358      -280.2326
  55   2.0000     -10.298269      -280.2302
  56   2.0000     -10.295207      -280.1468
  57   2.0000     -10.293893      -280.1111
  58   2.0000     -10.292369      -280.0696
  59   2.0000     -10.291949      -280.0582
  60   2.0000     -10.291019      -280.0329
  61   2.0000     -10.289950      -280.0038
  62   2.0000     -10.288737      -279.9708
  63   2.0000     -10.287757      -279.9441
  64   2.0000     -10.286779      -279.9175
  65   2.0000     -10.286216      -279.9022
  66   2.0000     -10.283171      -279.8193
  67   2.0000     -10.281325      -279.7691
  68   2.0000     -10.272103      -279.5181
  69   2.0000     -10.271564      -279.5035
  70   2.0000     -10.269188      -279.4388
  71   2.0000     -10.266389      -279.3626
  72   2.0000      -8.075963      -219.7581
  73   2.0000      -8.073430      -219.6892
  74   2.0000      -6.045162      -164.4972
  75   2.0000      -6.042625      -164.4282
  76   2.0000      -6.040488      -164.3700
  77   2.0000      -6.038706      -164.3215
  78   2.0000      -6.037921      -164.3002
  79   2.0000      -6.036225      -164.2540
  80   2.0000      -1.337315       -36.3902
  81   2.0000      -1.337250       -36.3884
  82   2.0000      -1.319910       -35.9166
  83   2.0000      -1.319321       -35.9006
  84   2.0000      -1.317302       -35.8456
  85   2.0000      -1.313426       -35.7401
  86   2.0000      -1.301632       -35.4192
  87   2.0000      -1.297176       -35.2980
  88   2.0000      -1.151302       -31.3285
  89   2.0000      -1.150972       -31.3195
  90   2.0000      -1.143204       -31.1082
  91   2.0000      -1.142883       -31.0994
  92   2.0000      -1.130258       -30.7559
  93   2.0000      -1.124358       -30.5953
  94   2.0000      -1.118084       -30.4246
  95   2.0000      -1.081296       -29.4236
  96   2.0000      -1.016459       -27.6593
  97   2.0000      -1.014685       -27.6110
  98   2.0000      -0.998442       -27.1690
  99   2.0000      -0.995401       -27.0862
 100   2.0000      -0.979181       -26.6449
 101   2.0000      -0.977339       -26.5948
 102   2.0000      -0.975628       -26.5482
 103   2.0000      -0.973724       -26.4964
 104   2.0000      -0.935991       -25.4696
 105   2.0000      -0.932282       -25.3687
 106   2.0000      -0.926165       -25.2022
 107   2.0000      -0.922025       -25.0896
 108   2.0000      -0.912538       -24.8314
 109   2.0000      -0.894284       -24.3347
 110   2.0000      -0.889658       -24.2088
 111   2.0000      -0.882734       -24.0204
 112   2.0000      -0.867571       -23.6078
 113   2.0000      -0.854197       -23.2439
 114   2.0000      -0.846359       -23.0306
 115   2.0000      -0.845232       -22.9999
 116   2.0000      -0.842573       -22.9276
 117   2.0000      -0.834623       -22.7112
 118   2.0000      -0.816893       -22.2288
 119   2.0000      -0.814732       -22.1700
 120   2.0000      -0.811493       -22.0818
 121   2.0000      -0.803960       -21.8769
 122   2.0000      -0.802217       -21.8294
 123   2.0000      -0.797770       -21.7084
 124   2.0000      -0.792776       -21.5725
 125   2.0000      -0.781118       -21.2553
 126   2.0000      -0.776307       -21.1244
 127   2.0000      -0.764399       -20.8004
 128   2.0000      -0.753922       -20.5153
 129   2.0000      -0.743068       -20.2199
 130   2.0000      -0.734136       -19.9768
 131   2.0000      -0.720404       -19.6032
 132   2.0000      -0.716713       -19.5027
 133   2.0000      -0.704543       -19.1716
 134   2.0000      -0.702307       -19.1107
 135   2.0000      -0.685940       -18.6654
 136   2.0000      -0.680974       -18.5303
 137   2.0000      -0.679522       -18.4907
 138   2.0000      -0.677671       -18.4404
 139   2.0000      -0.676268       -18.4022
 140   2.0000      -0.674942       -18.3661
 141   2.0000      -0.669342       -18.2137
 142   2.0000      -0.667510       -18.1639
 143   2.0000      -0.662348       -18.0234
 144   2.0000      -0.659712       -17.9517
 145   2.0000      -0.651847       -17.7377
 146   2.0000      -0.647281       -17.6134
 147   2.0000      -0.646814       -17.6007
 148   2.0000      -0.644493       -17.5375
 149   2.0000      -0.641592       -17.4586
 150   2.0000      -0.635705       -17.2984
 151   2.0000      -0.633701       -17.2439
 152   2.0000      -0.631112       -17.1734
 153   2.0000      -0.629125       -17.1193
 154   2.0000      -0.626589       -17.0503
 155   2.0000      -0.625053       -17.0085
 156   2.0000      -0.624072       -16.9819
 157   2.0000      -0.620062       -16.8727
 158   2.0000      -0.619008       -16.8441
 159   2.0000      -0.617222       -16.7955
 160   2.0000      -0.614436       -16.7196
 161   2.0000      -0.603802       -16.4303
 162   2.0000      -0.598489       -16.2857
 163   2.0000      -0.591268       -16.0892
 164   2.0000      -0.589014       -16.0279
 165   2.0000      -0.587036       -15.9741
 166   2.0000      -0.585663       -15.9367
 167   2.0000      -0.581258       -15.8168
 168   2.0000      -0.580627       -15.7997
 169   2.0000      -0.575371       -15.6566
 170   2.0000      -0.571900       -15.5622
 171   2.0000      -0.568719       -15.4756
 172   2.0000      -0.567895       -15.4532
 173   2.0000      -0.563422       -15.3315
 174   2.0000      -0.562394       -15.3035
 175   2.0000      -0.560815       -15.2606
 176   2.0000      -0.556350       -15.1391
 177   2.0000      -0.555924       -15.1275
 178   2.0000      -0.554173       -15.0798
 179   2.0000      -0.553114       -15.0510
 180   2.0000      -0.549042       -14.9402
 181   2.0000      -0.545937       -14.8557
 182   2.0000      -0.544759       -14.8236
 183   2.0000      -0.543838       -14.7986
 184   2.0000      -0.540225       -14.7003
 185   2.0000      -0.535017       -14.5586
 186   2.0000      -0.530878       -14.4459
 187   2.0000      -0.527496       -14.3539
 188   2.0000      -0.526635       -14.3305
 189   2.0000      -0.521679       -14.1956
 190   2.0000      -0.520793       -14.1715
 191   2.0000      -0.518236       -14.1019
 192   2.0000      -0.512965       -13.9585
 193   2.0000      -0.505821       -13.7641
 194   2.0000      -0.505252       -13.7486
 195   2.0000      -0.504966       -13.7408
 196   2.0000      -0.502747       -13.6804
 197   2.0000      -0.496968       -13.5232
 198   2.0000      -0.493918       -13.4402
 199   2.0000      -0.492447       -13.4002
 200   2.0000      -0.490155       -13.3378
 201   2.0000      -0.482376       -13.1261
 202   2.0000      -0.480941       -13.0871
 203   2.0000      -0.480369       -13.0715
 204   2.0000      -0.478515       -13.0211
 205   2.0000      -0.477020       -12.9804
 206   2.0000      -0.475616       -12.9422
 207   2.0000      -0.474100       -12.9009
 208   2.0000      -0.472035       -12.8447
 209   2.0000      -0.468722       -12.7546
 210   2.0000      -0.465755       -12.6738
 211   2.0000      -0.465305       -12.6616
 212   2.0000      -0.464189       -12.6312
 213   2.0000      -0.458360       -12.4726
 214   2.0000      -0.456756       -12.4290
 215   2.0000      -0.454554       -12.3690
 216   2.0000      -0.451462       -12.2849
 217   2.0000      -0.450992       -12.2721
 218   2.0000      -0.447365       -12.1734
 219   2.0000      -0.441258       -12.0072
 220   2.0000      -0.440564       -11.9883
 221   2.0000      -0.438867       -11.9422
 222   2.0000      -0.434189       -11.8149
 223   2.0000      -0.422742       -11.5034
 224   2.0000      -0.421039       -11.4571
 225   2.0000      -0.414276       -11.2730
 226   2.0000      -0.410271       -11.1640
 227   2.0000      -0.408236       -11.1087
 228   2.0000      -0.405248       -11.0274
 229   2.0000      -0.399353       -10.8669
 230   2.0000      -0.392797       -10.6886
 231   2.0000      -0.391557       -10.6548
 232   2.0000      -0.387261       -10.5379
 233   2.0000      -0.386756       -10.5242
 234   2.0000      -0.379597       -10.3294
 235   2.0000      -0.376645       -10.2490
 236   2.0000      -0.373348       -10.1593
 237   2.0000      -0.372210       -10.1283
 238   2.0000      -0.371600       -10.1118
 239   2.0000      -0.367173        -9.9913
 240   2.0000      -0.363488        -9.8910
 241   2.0000      -0.352217        -9.5843
 242   2.0000      -0.339448        -9.2369
 243   2.0000      -0.335378        -9.1261
 244   2.0000      -0.332991        -9.0612
 245   2.0000      -0.332454        -9.0465
 246   2.0000      -0.329919        -8.9775
 247   2.0000      -0.319357        -8.6901
 248   2.0000      -0.317056        -8.6275
 249   2.0000      -0.315673        -8.5899
 250   2.0000      -0.309749        -8.4287
 251   2.0000      -0.309600        -8.4246
 252   2.0000      -0.306175        -8.3315
 253   2.0000      -0.285616        -7.7720
 254   2.0000      -0.277644        -7.5551
 255   2.0000      -0.265366        -7.2210
 256   2.0000      -0.231370        -6.2959
 257   0.0000      -0.134255        -3.6533
 258   0.0000      -0.116993        -3.1835
 259   0.0000      -0.083695        -2.2775
 260   0.0000      -0.075367        -2.0508
 261   0.0000      -0.047554        -1.2940

MULLIKEN ATOMIC CHARGES
-----------------------
   0 C :   -0.124180
   1 C :    0.050834
   2 C :    0.013336
   3 C :   -0.129327
   4 S :    0.153089
   5 C :    0.147750
   6 O :   -0.139415
   7 C :   -0.078565
   8 C :    0.231115
   9 C :    0.037702
  10 N :    0.208917
  11 O :   -0.213557
  12 O :   -0.223542
  13 N :    0.258116
  14 O :   -0.226558
  15 O :   -0.243237
  16 C :   -0.050347
  17 C :    0.073637
  18 C :   -0.054721
  19 C :    0.008395
  20 C :    0.224466
  21 C :   -0.012849
  22 F :   -0.183319
  23 C :    0.030312
  24 C :   -0.098458
  25 C :    0.128015
  26 C :   -0.080312
  27 C :    0.260167
  28 F :   -0.167217
  29 C :   -0.016676
  30 C :    0.016487
  31 C :    0.108672
  32 N :   -0.032402
  33 C :    0.133024
  34 C :   -0.157559
  35 C :    0.090403
  36 N :   -0.036328
  37 C :    0.129843
  38 C :   -0.159285
  39 C :    0.056479
  40 C :   -0.028510
  41 C :    0.107835
  42 C :   -0.104627
  43 C :    0.028233
  44 C :    0.260471
  45 C :   -0.081129
  46 F :   -0.172302
  47 C :   -0.002935
  48 C :   -0.060399
  49 C :    0.092499
  50 C :   -0.071555
  51 C :    0.251306
  52 F :   -0.177025
  53 C :    0.025429
  54 C :    0.000869
  55 C :    0.041005
  56 C :   -0.115932
  57 C :    0.209476
  58 C :    0.047973
  59 N :    0.254976
  60 O :   -0.223401
  61 O :   -0.251909
  62 N :    0.208591
  63 O :   -0.218644
  64 O :   -0.207825
  65 C :    0.043636
  66 C :   -0.132754
  67 S :    0.148279
  68 C :   -0.134296
  69 C :    0.019751
  70 C :    0.157486
  71 O :   -0.143255
  72 H :    0.046299
  73 H :    0.037680
  74 H :    0.031589
  75 H :    0.006866
  76 H :   -0.009776
  77 H :   -0.011233
  78 H :   -0.017922
  79 H :   -0.012468
  80 H :   -0.021745
  81 H :    0.129275
  82 H :   -0.020798
  83 H :    0.131025
  84 H :   -0.021325
  85 H :   -0.001499
  86 H :   -0.042957
  87 H :   -0.014883
  88 H :   -0.016972
  89 H :   -0.008762
  90 H :   -0.003034
  91 H :    0.000992
  92 H :    0.005747
  93 H :    0.015801
  94 H :    0.055467
  95 H :    0.038411
Sum of atomic charges:   -0.0000000

LOEWDIN ATOMIC CHARGES
----------------------
   0 C :   -0.150496
   1 C :   -0.064057
   2 C :   -0.090538
   3 C :   -0.144221
   4 S :    0.487603
   5 C :    0.082289
   6 O :   -0.131820
   7 C :   -0.097370
   8 C :    0.055367
   9 C :   -0.072752
  10 N :    0.270040
  11 O :   -0.182678
  12 O :   -0.188731
  13 N :    0.278780
  14 O :   -0.191613
  15 O :   -0.203491
  16 C :    0.078654
  17 C :   -0.028157
  18 C :    0.015151
  19 C :   -0.022950
  20 C :    0.062437
  21 C :   -0.034834
  22 F :   -0.058632
  23 C :    0.021162
  24 C :   -0.068775
  25 C :    0.017817
  26 C :   -0.061976
  27 C :    0.089958
  28 F :   -0.043493
  29 C :   -0.016984
  30 C :   -0.009591
  31 C :    0.007484
  32 N :    0.075415
  33 C :   -0.011153
  34 C :   -0.070086
  35 C :    0.006910
  36 N :    0.070360
  37 C :   -0.000327
  38 C :   -0.077173
  39 C :    0.012247
  40 C :   -0.047643
  41 C :    0.015055
  42 C :   -0.077994
  43 C :    0.018006
  44 C :    0.086205
  45 C :   -0.060241
  46 F :   -0.047598
  47 C :   -0.020020
  48 C :   -0.015348
  49 C :   -0.023084
  50 C :   -0.052983
  51 C :    0.076468
  52 F :   -0.053298
  53 C :    0.052317
  54 C :   -0.045390
  55 C :    0.076018
  56 C :   -0.098362
  57 C :    0.058950
  58 C :   -0.081744
  59 N :    0.278319
  60 O :   -0.189557
  61 O :   -0.207097
  62 N :    0.273487
  63 O :   -0.192852
  64 O :   -0.178257
  65 C :   -0.062491
  66 C :   -0.151198
  67 S :    0.481863
  68 C :   -0.143582
  69 C :   -0.089610
  70 C :    0.079821
  71 O :   -0.143654
  72 H :    0.029328
  73 H :    0.035106
  74 H :    0.037853
  75 H :    0.030808
  76 H :    0.031654
  77 H :    0.025360
  78 H :    0.028209
  79 H :    0.034685
  80 H :    0.030471
  81 H :    0.093935
  82 H :    0.031331
  83 H :    0.091467
  84 H :    0.029069
  85 H :    0.043140
  86 H :    0.020381
  87 H :    0.020054
  88 H :    0.029966
  89 H :    0.026065
  90 H :    0.032878
  91 H :    0.039671
  92 H :    0.025048
  93 H :    0.044878
  94 H :    0.029268
  95 H :    0.035091

  Mayer bond orders larger than 0.100000
B(  0-C ,  1-C ) :   1.5334 B(  0-C ,  4-S ) :   1.1952 B(  0-C , 72-H ) :   0.9593
B(  1-C ,  2-C ) :   1.2396 B(  1-C ,  8-C ) :   1.0138 B(  2-C ,  3-C ) :   1.5506
B(  2-C ,  5-C ) :   0.9495 B(  3-C ,  4-S ) :   1.1836 B(  3-C , 73-H ) :   0.9707
B(  5-C ,  6-O ) :   2.2266 B(  5-C ,  7-C ) :   0.9428 B(  7-C ,  8-C ) :   1.1208
B(  7-C , 16-C ) :   1.4977 B(  8-C ,  9-C ) :   1.5531 B(  9-C , 10-N ) :   0.8911
B(  9-C , 13-N ) :   0.9534 B( 10-N , 11-O ) :   1.5348 B( 10-N , 12-O ) :   1.5231
B( 11-O , 12-O ) :   0.2844 B( 13-N , 14-O ) :   1.5266 B( 13-N , 15-O ) :   1.4636
B( 14-O , 15-O ) :   0.2597 B( 16-C , 17-C ) :   1.1911 B( 16-C , 74-H ) :   0.9442
B( 17-C , 18-C ) :   1.4382 B( 17-C , 21-C ) :   1.0337 B( 18-C , 19-C ) :   1.1263
B( 18-C , 75-H ) :   1.0204 B( 19-C , 20-C ) :   1.0457 B( 19-C , 23-C ) :   1.4097
B( 20-C , 21-C ) :   1.6582 B( 20-C , 22-F ) :   1.1157 B( 21-C , 76-H ) :   1.0067
B( 23-C , 24-C ) :   1.1788 B( 23-C , 27-C ) :   1.0019 B( 24-C , 25-C ) :   1.4389
B( 24-C , 77-H ) :   1.0251 B( 25-C , 26-C ) :   1.0015 B( 25-C , 29-C ) :   1.1979
B( 26-C , 27-C ) :   1.6864 B( 26-C , 78-H ) :   1.0114 B( 27-C , 28-F ) :   1.1343
B( 29-C , 30-C ) :   1.5529 B( 29-C , 79-H ) :   0.9819 B( 30-C , 31-C ) :   1.1523
B( 30-C , 80-H ) :   0.9660 B( 31-C , 32-N ) :   1.1694 B( 31-C , 38-C ) :   1.3485
B( 32-N , 33-C ) :   1.1747 B( 32-N , 81-H ) :   0.9344 B( 33-C , 34-C ) :   1.2769
B( 33-C , 37-C ) :   1.2628 B( 34-C , 35-C ) :   1.3088 B( 34-C , 82-H ) :   1.0431
B( 35-C , 36-N ) :   1.1856 B( 35-C , 39-C ) :   1.2039 B( 36-N , 37-C ) :   1.1737
B( 36-N , 83-H ) :   0.9312 B( 37-C , 38-C ) :   1.3020 B( 38-C , 84-H ) :   1.0320
B( 39-C , 40-C ) :   1.5266 B( 39-C , 85-H ) :   0.9624 B( 40-C , 41-C ) :   1.1911
B( 40-C , 86-H ) :   0.9721 B( 41-C , 42-C ) :   1.4765 B( 41-C , 45-C ) :   0.9975
B( 42-C , 43-C ) :   1.1927 B( 42-C , 87-H ) :   1.0081 B( 43-C , 44-C ) :   1.0007
B( 43-C , 47-C ) :   1.4092 B( 44-C , 45-C ) :   1.6735 B( 44-C , 46-F ) :   1.1274
B( 45-C , 88-H ) :   1.0206 B( 47-C , 48-C ) :   1.1368 B( 47-C , 51-C ) :   1.0397
B( 48-C , 49-C ) :   1.4606 B( 48-C , 89-H ) :   1.0214 B( 49-C , 50-C ) :   1.0332
B( 49-C , 53-C ) :   1.1466 B( 50-C , 51-C ) :   1.6563 B( 50-C , 90-H ) :   1.0066
B( 51-C , 52-F ) :   1.1183 B( 53-C , 54-C ) :   1.5597 B( 53-C , 91-H ) :   0.9905
B( 54-C , 55-C ) :   1.1811 B( 54-C , 92-H ) :   0.9548 B( 55-C , 56-C ) :   1.5594
B( 55-C , 93-H ) :   0.9559 B( 56-C , 57-C ) :   1.0906 B( 56-C , 70-C ) :   0.9518
B( 57-C , 58-C ) :   1.5521 B( 57-C , 65-C ) :   1.0244 B( 58-C , 59-N ) :   0.9396
B( 58-C , 62-N ) :   0.9079 B( 59-N , 60-O ) :   1.5341 B( 59-N , 61-O ) :   1.4892
B( 60-O , 61-O ) :   0.2633 B( 62-N , 63-O ) :   1.4993 B( 62-N , 64-O ) :   1.5334
B( 63-O , 64-O ) :   0.2727 B( 65-C , 66-C ) :   1.5544 B( 65-C , 69-C ) :   1.2177
B( 66-C , 67-S ) :   1.1825 B( 66-C , 94-H ) :   0.9464 B( 67-S , 68-C ) :   1.1797
B( 68-C , 69-C ) :   1.5590 B( 68-C , 95-H ) :   0.9724 B( 69-C , 70-C ) :   0.9350
B( 70-C , 71-O ) :   2.2528

-----------------------------------------------------------------------------
         ABSORPTION SPECTRUM VIA TRANSITION ELECTRIC DIPOLE MOMENTS
-----------------------------------------------------------------------------
State   Energy  Wavelength   fosc         T2         TX        TY        TZ
        (cm-1)    (nm)                  (au**2)     (au)      (au)      (au)
-----------------------------------------------------------------------------
   0    8542.3   1170.6   2.382196793  91.80767  -6.27421   5.95472   4.12108
   1   12593.1    794.1   0.146374968   3.82658   0.60146   1.71956  -0.71269
   2   15541.7    643.4   0.017074506   0.36168   0.12466   0.41222  -0.41978
   3   15736.9    635.5   0.061726740   1.29131  -0.29254   0.22331   1.07511
   4   17943.6    557.3   0.024253843   0.44499   0.26147  -0.25581  -0.55784
   5   19495.3    512.9   0.630225947  10.64247   2.29506  -1.99978  -1.17305
   6   20296.0    492.7   0.167862119   2.72281  -0.46301   0.64156  -1.44804
   7   21954.7    455.5   0.174238300   2.61271  -0.16865  -1.59403   0.20821
   8   23519.3    425.2   0.296073103   4.14430  -0.75698   0.95400   1.63131
   9   23621.9    423.3   0.039562240   0.55137   0.65630  -0.22557  -0.26411
  10   24173.8    413.7   0.003946010   0.05374   0.19377   0.10795   0.06737
  11   25321.5    394.9   0.009793314   0.12733  -0.12463   0.10599  -0.31711
  12   25508.5    392.0   0.060408198   0.77963   0.29704  -0.69165   0.46154
  13   25829.4    387.2   0.170354675   2.17128  -1.27460   0.53318   0.51224
  14   26086.6    383.3   0.077514776   0.97823   0.63041   0.76152  -0.03014
  15   26650.3    375.2   0.103544940   1.27909   0.30433  -0.53175  -0.95064
  16   27086.7    369.2   0.065548381   0.79668   0.29699  -0.54109  -0.64474
  17   27233.4    367.2   0.030200778   0.36508   0.37277   0.28564   0.38018
  18   27720.2    360.7   0.022268663   0.26447  -0.49840  -0.08960   0.08965
  19   28426.0    351.8   0.029377866   0.34024   0.53706   0.17401   0.14672
  20   28527.5    350.5   0.111603724   1.28792  -0.90534   0.49412   0.47343
  21   28952.8    345.4   0.313600625   3.56584   0.69314  -0.23825  -1.74030
  22   29367.2    340.5   0.045510707   0.51018  -0.41177   0.15550   0.56254
  23   29695.4    336.8   0.102211863   1.13315  -0.52288   0.67176   0.63913
  24   29873.3    334.7   0.277138719   3.05415   1.36677  -0.90724  -0.60249
  25   29936.3    334.0   0.041715375   0.45875  -0.30179   0.33280  -0.50687
  26   30214.8    331.0   0.021047481   0.22933  -0.03247   0.41448  -0.23765
  27   30844.7    324.2   0.049314152   0.52634   0.66856  -0.24151  -0.14508
  28   31125.1    321.3   0.089076062   0.94216  -0.95298   0.16636   0.07946
  29   31194.3    320.6   0.036492209   0.38512   0.55452   0.27083  -0.06545
  30   31499.1    317.5   0.025707413   0.26868  -0.32870   0.17622   0.35997
  31   32002.5    312.5   0.007134240   0.07339   0.13269  -0.04818   0.23122
  32   32221.6    310.4   0.070219815   0.71745  -0.43362   0.20441   0.69831
  33   32456.0    308.1   0.201802108   2.04695  -0.01350  -0.74714  -1.22006
  34   32877.2    304.2   0.020508827   0.20536  -0.14839   0.19084  -0.38331
  35   33152.3    301.6   0.033588353   0.33354  -0.47095  -0.17410  -0.28538
  36   33327.0    300.1   0.022444269   0.22171  -0.46969  -0.03098  -0.01196
  37   33583.7    297.8   0.103740522   1.01694   0.64819  -0.24473  -0.73274
  38   33703.9    296.7   0.022193585   0.21678  -0.32617   0.18681   0.27476
  39   33875.8    295.2   0.017631907   0.17135   0.22463  -0.32257  -0.12976
  40   34030.7    293.9   0.116672013   1.12868   0.99430   0.11444  -0.35630
  41   34427.3    290.5   0.045958713   0.43948  -0.13865  -0.09165  -0.64176
  42   34832.2    287.1   0.026257575   0.24817  -0.44096   0.20966  -0.09882
  43   35075.3    285.1   0.062271169   0.58447  -0.51801  -0.11255   0.55088
  44   35772.0    279.5   0.014267944   0.13131  -0.10110  -0.22050  -0.26920
  45   35800.4    279.3   0.019033819   0.17503   0.16585  -0.38247  -0.03526
  46   36263.3    275.8   0.005071132   0.04604   0.14889   0.04632  -0.14738
  47   36379.1    274.9   0.006024384   0.05452  -0.02379  -0.22521   0.05685
  48   36431.5    274.5   0.004402235   0.03978   0.19372   0.03629   0.03061
  49   36576.3    273.4   0.088707260   0.79843   0.00828  -0.30649  -0.83930
  50   36643.8    272.9   0.030428163   0.27337  -0.50900   0.04340   0.11138
  51   37006.0    270.2   0.024475985   0.21774  -0.29359   0.34428  -0.11411
  52   37129.5    269.3   0.009030855   0.08007  -0.14737  -0.18023   0.16085
  53   37203.3    268.8   0.032959400   0.29166   0.40292  -0.03855   0.35753
  54   37344.8    267.8   0.002933950   0.02586   0.14225   0.00379   0.07493
  55   37398.2    267.4   0.000737779   0.00649   0.04902   0.02151  -0.06024
  56   37668.6    265.5   0.067258945   0.58782  -0.06350  -0.23632   0.72659
  57   37925.0    263.7   0.010937061   0.09494  -0.12340   0.24233  -0.14487
  58   38080.1    262.6   0.015111514   0.13064   0.29944  -0.10555   0.17273
  59   38165.7    262.0   0.011462188   0.09887   0.07803   0.22230  -0.20824
  60   38319.2    261.0   0.012543100   0.10776   0.11779  -0.20681   0.22609
  61   38784.9    257.8   0.016243139   0.13787  -0.06096   0.05226   0.36253
  62   39177.0    255.3   0.002314232   0.01945   0.01003   0.08759   0.10805
  63   39376.1    254.0   0.042680961   0.35684  -0.01611  -0.14509  -0.57925
  64   39717.4    251.8   0.013239842   0.10974   0.19057  -0.22845  -0.14573
  65   40032.7    249.8   0.021350879   0.17558  -0.15434   0.17491   0.34809
  66   40118.1    249.3   0.022343979   0.18336   0.26090   0.32373  -0.10241

FINAL SINGLE POINT ENERGY     -4191.263880097348

DIPOLE MOMENT
-------------
                                X             Y             Z
Electronic contribution:     -9.19965      20.63557      -1.21304
Nuclear contribution   :      9.61960     -22.12482       3.41052
                        -----------------------------------------
Total Dipole Moment    :      0.41995      -1.48925       2.19748
                        -----------------------------------------
Magnitude (a.u.)       :      2.68759
Magnitude (Debye)      :      6.83131

Rotational constants in cm-1:     0.002191     0.000108     0.000106
Rotational constants in MHz :    65.692837     3.245335     3.191600

                             ****ORCA TERMINATED NORMALLY****
TOTAL RUN TIME: 0 days 0 hours 9 minutes 30 seconds 732 msec
