                         Program Version 4.2.0 -  RELEASE  -
|  1> # ORCA input file
|  2> # SCF done       -200.575341859403          0.000779493881
|  3> ! CAM-B3LYP def2-SVP def2/J RIJCOSX Grid4 TightSCF
|  4> %maxcore 5000
|  5> %tddft
|  6>     Mode sTDDFT
|  7>     Ethresh 5.0
|  8>     maxcore 5000
|  9> end
| 10>
| 11> %pal
| 12>   nprocs 6
| 13>   end
| 14> * xyz 0 1
| 15>    C        6.06714       -16.52293         5.61470
| 16>    C        6.16319       -17.78865         5.05401
| 17>    C        5.36347       -18.16131         3.98360
| 18>    C        4.44632       -17.27542         3.43657
| 19>    C        4.33978       -16.01190         3.99070
| 20>    C        5.14829       -15.63118         5.08578
| 21>    C        4.80908       -14.26539         5.46938
| 22>    C        5.46524       -13.50818         6.40511
| 23>    C        6.58355       -13.95427         7.14054
| 24>    N        7.49429       -14.24920         7.77400
| 25>    C        5.15805       -12.17353         6.73925
| 26>    N        4.96841       -11.08572         7.05741
| 27>    C        3.64770       -13.88566         4.67702
| 28>    C        3.50593       -14.87769         3.62553
| 29>    C        2.94358       -14.65837         2.39359
| 30>    C        2.44260       -13.40304         1.99225
| 31>    N        2.07558       -12.37760         1.62811
| 32>    C        2.89850       -15.62198         1.36743
| 33>    N        2.81908       -16.37585         0.50548
| 34>    C        2.82316       -12.82971         4.97597
| 35>    C        1.46959       -12.61552         4.62986
| 36>    C        0.89914       -11.36950         4.82590
| 37>    C       -0.42373       -11.04985         4.57338
| 38>    C       -1.37767       -12.05392         4.09726
| 39>    C       -1.06228       -13.34932         3.87986
| 40>    S        0.50343       -13.99928         4.11135
| 41>    C       -2.61575       -11.36774         3.97574
| 42>    C       -2.46502       -10.03115         4.36807
| 43>    C       -3.67655        -9.31292         4.23390
| 44>    C       -4.68114       -10.10103         3.77180
| 45>    S       -4.21119       -11.74017         3.47290
| 46>    C       -1.09713        -9.81532         4.75032
| 47>    C       -0.49016        -8.63522         5.23011
| 48>    C       -1.13882        -7.52406         5.66883
| 49>    C       -0.47844        -6.36878         6.14916
| 50>    S        1.24847        -6.18469         6.03215
| 51>    C        1.18693        -4.62502         6.80106
| 52>    C       -0.11714        -4.27629         7.12418
| 53>    C       -1.05043        -5.25595         6.75327
| 54>    C       -2.52853        -5.10697         6.95112
| 55>    C       -2.86989        -3.88952         7.82312
| 56>    C       -4.27723        -3.58911         7.67764
| 57>    N       -5.38811        -3.37629         7.51977
| 58>    C       -2.00886        -2.68421         7.39421
| 59>    C       -2.43568        -1.48294         8.07812
| 60>    N       -2.75408        -0.54001         8.63746
| 61>    C       -0.53930        -2.97461         7.73239
| 62>    C        2.39904        -3.88453         6.97752
| 63>    C        2.61191        -3.00532         8.01238
| 64>    C        3.76767        -2.24625         8.17957
| 65>    C        4.88165        -2.32751         7.23782
| 66>    C        4.91148        -3.16594         6.17605
| 67>    S        3.62041        -4.20873         5.75693
| 68>    C        5.85116        -1.40525         7.71958
| 69>    C        5.39622        -0.79546         8.89127
| 70>    C        6.32252         0.15369         9.37524
| 71>    C        7.42585         0.22954         8.58437
| 72>    S        7.39437        -0.83797         7.22671
| 73>    C        4.09239        -1.33052         9.21042
| 74>    C        3.26905        -1.06221        10.31043
| 75>    C        3.56342        -0.27392        11.39387
| 76>    C        2.65542        -0.15163        12.44873
| 77>    C        2.77652         0.62505        13.58220
| 78>    C        2.06751         0.36965        14.82250
| 79>    C        1.02535        -0.50207        15.02592
| 80>    C        0.41864        -1.31351        14.04661
| 81>    N       -0.11957        -2.01923        13.31551
| 82>    C        0.39814        -0.70947        16.27170
| 83>    N       -0.16077        -0.93323        17.24969
| 84>    C        2.70795         1.18075        15.85165
| 85>    C        3.71840         1.96446        15.25031
| 86>    C        4.50739         2.80582        16.01584
| 87>    C        4.28192         2.86518        17.38342
| 88>    C        3.28238         2.10683        17.97369
| 89>    C        2.48626         1.25922        17.21691
| 90>    C        3.69142         1.72376        13.81375
| 91>    C        4.25189         2.54280        12.86391
| 92>    C        5.13512         3.60115        13.15716
| 93>    N        5.88652         4.45487        13.31867
| 94>    C        3.94108         2.51616        11.48890
| 95>    N        3.70155         2.58925        10.36791
| 96>    H        6.69556       -16.25335         6.44749
| 97>    H        6.87137       -18.49330         5.46240
| 98>    H        5.45279       -19.15396         3.56955
| 99>    H        3.82471       -17.57525         2.60828
|100>    H        3.22172       -12.07981         5.64663
|101>    H        1.56433       -10.59269         5.17855
|102>    H       -1.78370       -14.07847         3.54619
|103>    H       -3.81353        -8.26878         4.44618
|104>    H       -5.69744        -9.81856         3.57817
|105>    H        0.59165        -8.63560         5.27910
|106>    H       -2.21722        -7.50729         5.69816
|107>    H       -2.94003        -6.00788         7.41347
|108>    H       -3.00930        -4.99291         5.97204
|109>    H       -2.67133        -4.10986         8.87917
|110>    H       -2.12235        -2.52379         6.31458
|111>    H       -0.43664        -3.01536         8.82274
|112>    H        0.09366        -2.16181         7.36693
|113>    H        1.83927        -2.92844         8.76118
|114>    H        5.75872        -3.23497         5.51238
|115>    H        6.19298         0.77515        10.24102
|116>    H        8.27944         0.86569         8.71398
|117>    H        2.29392        -1.53398        10.30688
|118>    H        4.52740         0.20187        11.45915
|119>    H        1.80114        -0.81296        12.40377
|120>    H        5.28989         3.39827        15.57033
|121>    H        4.89435         3.51198        17.99297
|122>    H        3.12001         2.17192        19.03876
|123>    H        1.71558         0.67710        17.69434
|124> *
|125>
|126>                          ****END OF INPUT****

CARTESIAN COORDINATES (ANGSTROEM)
---------------------------------
  C      6.067140  -16.522930    5.614700
  C      6.163190  -17.788650    5.054010
  C      5.363470  -18.161310    3.983600
  C      4.446320  -17.275420    3.436570
  C      4.339780  -16.011900    3.990700
  C      5.148290  -15.631180    5.085780
  C      4.809080  -14.265390    5.469380
  C      5.465240  -13.508180    6.405110
  C      6.583550  -13.954270    7.140540
  N      7.494290  -14.249200    7.774000
  C      5.158050  -12.173530    6.739250
  N      4.968410  -11.085720    7.057410
  C      3.647700  -13.885660    4.677020
  C      3.505930  -14.877690    3.625530
  C      2.943580  -14.658370    2.393590
  C      2.442600  -13.403040    1.992250
  N      2.075580  -12.377600    1.628110
  C      2.898500  -15.621980    1.367430
  N      2.819080  -16.375850    0.505480
  C      2.823160  -12.829710    4.975970
  C      1.469590  -12.615520    4.629860
  C      0.899140  -11.369500    4.825900
  C     -0.423730  -11.049850    4.573380
  C     -1.377670  -12.053920    4.097260
  C     -1.062280  -13.349320    3.879860
  S      0.503430  -13.999280    4.111350
  C     -2.615750  -11.367740    3.975740
  C     -2.465020  -10.031150    4.368070
  C     -3.676550   -9.312920    4.233900
  C     -4.681140  -10.101030    3.771800
  S     -4.211190  -11.740170    3.472900
  C     -1.097130   -9.815320    4.750320
  C     -0.490160   -8.635220    5.230110
  C     -1.138820   -7.524060    5.668830
  C     -0.478440   -6.368780    6.149160
  S      1.248470   -6.184690    6.032150
  C      1.186930   -4.625020    6.801060
  C     -0.117140   -4.276290    7.124180
  C     -1.050430   -5.255950    6.753270
  C     -2.528530   -5.106970    6.951120
  C     -2.869890   -3.889520    7.823120
  C     -4.277230   -3.589110    7.677640
  N     -5.388110   -3.376290    7.519770
  C     -2.008860   -2.684210    7.394210
  C     -2.435680   -1.482940    8.078120
  N     -2.754080   -0.540010    8.637460
  C     -0.539300   -2.974610    7.732390
  C      2.399040   -3.884530    6.977520
  C      2.611910   -3.005320    8.012380
  C      3.767670   -2.246250    8.179570
  C      4.881650   -2.327510    7.237820
  C      4.911480   -3.165940    6.176050
  S      3.620410   -4.208730    5.756930
  C      5.851160   -1.405250    7.719580
  C      5.396220   -0.795460    8.891270
  C      6.322520    0.153690    9.375240
  C      7.425850    0.229540    8.584370
  S      7.394370   -0.837970    7.226710
  C      4.092390   -1.330520    9.210420
  C      3.269050   -1.062210   10.310430
  C      3.563420   -0.273920   11.393870
  C      2.655420   -0.151630   12.448730
  C      2.776520    0.625050   13.582200
  C      2.067510    0.369650   14.822500
  C      1.025350   -0.502070   15.025920
  C      0.418640   -1.313510   14.046610
  N     -0.119570   -2.019230   13.315510
  C      0.398140   -0.709470   16.271700
  N     -0.160770   -0.933230   17.249690
  C      2.707950    1.180750   15.851650
  C      3.718400    1.964460   15.250310
  C      4.507390    2.805820   16.015840
  C      4.281920    2.865180   17.383420
  C      3.282380    2.106830   17.973690
  C      2.486260    1.259220   17.216910
  C      3.691420    1.723760   13.813750
  C      4.251890    2.542800   12.863910
  C      5.135120    3.601150   13.157160
  N      5.886520    4.454870   13.318670
  C      3.941080    2.516160   11.488900
  N      3.701550    2.589250   10.367910
  H      6.695560  -16.253350    6.447490
  H      6.871370  -18.493300    5.462400
  H      5.452790  -19.153960    3.569550
  H      3.824710  -17.575250    2.608280
  H      3.221720  -12.079810    5.646630
  H      1.564330  -10.592690    5.178550
  H     -1.783700  -14.078470    3.546190
  H     -3.813530   -8.268780    4.446180
  H     -5.697440   -9.818560    3.578170
  H      0.591650   -8.635600    5.279100
  H     -2.217220   -7.507290    5.698160
  H     -2.940030   -6.007880    7.413470
  H     -3.009300   -4.992910    5.972040
  H     -2.671330   -4.109860    8.879170
  H     -2.122350   -2.523790    6.314580
  H     -0.436640   -3.015360    8.822740
  H      0.093660   -2.161810    7.366930
  H      1.839270   -2.928440    8.761180
  H      5.758720   -3.234970    5.512380
  H      6.192980    0.775150   10.241020
  H      8.279440    0.865690    8.713980
  H      2.293920   -1.533980   10.306880
  H      4.527400    0.201870   11.459150
  H      1.801140   -0.812960   12.403770
  H      5.289890    3.398270   15.570330
  H      4.894350    3.511980   17.992970
  H      3.120010    2.171920   19.038760
  H      1.715580    0.677100   17.694340

 Total Charge           Charge          ....    0
 Multiplicity           Mult            ....    1
 Number of Electrons    NEL             ....  574
 Basis Dimension        Dim             .... 1294

ORBITAL ENERGIES
----------------

  NO   OCC          E(Eh)            E(eV)
   0   2.0000     -89.000857     -2421.8364
   1   2.0000     -88.992275     -2421.6029
   2   2.0000     -88.983235     -2421.3569
   3   2.0000     -88.979550     -2421.2567
   4   2.0000     -88.967661     -2420.9331
   5   2.0000     -14.430291      -392.6682
   6   2.0000     -14.426251      -392.5582
   7   2.0000     -14.424335      -392.5061
   8   2.0000     -14.424301      -392.5052
   9   2.0000     -14.416994      -392.3064
  10   2.0000     -14.414650      -392.2426
  11   2.0000     -14.414253      -392.2318
  12   2.0000     -14.410988      -392.1429
  13   2.0000     -14.409577      -392.1045
  14   2.0000     -14.408414      -392.0729
  15   2.0000     -10.355992      -281.8009
  16   2.0000     -10.355126      -281.7773
  17   2.0000     -10.354788      -281.7681
  18   2.0000     -10.354313      -281.7552
  19   2.0000     -10.350753      -281.6583
  20   2.0000     -10.349381      -281.6210
  21   2.0000     -10.349218      -281.6165
  22   2.0000     -10.348761      -281.6041
  23   2.0000     -10.348144      -281.5873
  24   2.0000     -10.342792      -281.4417
  25   2.0000     -10.338528      -281.3257
  26   2.0000     -10.336655      -281.2747
  27   2.0000     -10.336033      -281.2578
  28   2.0000     -10.335923      -281.2548
  29   2.0000     -10.335636      -281.2469
  30   2.0000     -10.334937      -281.2279
  31   2.0000     -10.332852      -281.1712
  32   2.0000     -10.329785      -281.0877
  33   2.0000     -10.329417      -281.0777
  34   2.0000     -10.328237      -281.0456
  35   2.0000     -10.327097      -281.0146
  36   2.0000     -10.326538      -280.9994
  37   2.0000     -10.323849      -280.9262
  38   2.0000     -10.319448      -280.8065
  39   2.0000     -10.319429      -280.8059
  40   2.0000     -10.318912      -280.7919
  41   2.0000     -10.318606      -280.7835
  42   2.0000     -10.318039      -280.7681
  43   2.0000     -10.317706      -280.7590
  44   2.0000     -10.317654      -280.7576
  45   2.0000     -10.317265      -280.7471
  46   2.0000     -10.316945      -280.7383
  47   2.0000     -10.315771      -280.7064
  48   2.0000     -10.315624      -280.7024
  49   2.0000     -10.315539      -280.7001
  50   2.0000     -10.315032      -280.6863
  51   2.0000     -10.314165      -280.6627
  52   2.0000     -10.312384      -280.6142
  53   2.0000     -10.312234      -280.6101
  54   2.0000     -10.312103      -280.6066
  55   2.0000     -10.311930      -280.6019
  56   2.0000     -10.311009      -280.5768
  57   2.0000     -10.310858      -280.5727
  58   2.0000     -10.310394      -280.5601
  59   2.0000     -10.309226      -280.5283
  60   2.0000     -10.308228      -280.5011
  61   2.0000     -10.307300      -280.4759
  62   2.0000     -10.305328      -280.4222
  63   2.0000     -10.305224      -280.4194
  64   2.0000     -10.305202      -280.4188
  65   2.0000     -10.304271      -280.3935
  66   2.0000     -10.302928      -280.3569
  67   2.0000     -10.301335      -280.3136
  68   2.0000     -10.301024      -280.3051
  69   2.0000     -10.300762      -280.2980
  70   2.0000     -10.299514      -280.2640
  71   2.0000     -10.299253      -280.2569
  72   2.0000     -10.297748      -280.2160
  73   2.0000     -10.293660      -280.1047
  74   2.0000     -10.290474      -280.0180
  75   2.0000     -10.290285      -280.0129
  76   2.0000     -10.289858      -280.0013
  77   2.0000     -10.289222      -279.9840
  78   2.0000     -10.288928      -279.9760
  79   2.0000     -10.285726      -279.8888
  80   2.0000     -10.282976      -279.8140
  81   2.0000      -8.096222      -220.3094
  82   2.0000      -8.087153      -220.0626
  83   2.0000      -8.078718      -219.8331
  84   2.0000      -8.075031      -219.7328
  85   2.0000      -8.063091      -219.4079
  86   2.0000      -6.065683      -165.0556
  87   2.0000      -6.061005      -164.9283
  88   2.0000      -6.058374      -164.8567
  89   2.0000      -6.056793      -164.8137
  90   2.0000      -6.052185      -164.6883
  91   2.0000      -6.048916      -164.5994
  92   2.0000      -6.047937      -164.5727
  93   2.0000      -6.044418      -164.4770
  94   2.0000      -6.043969      -164.4647
  95   2.0000      -6.040748      -164.3771
  96   2.0000      -6.040145      -164.3607
  97   2.0000      -6.037147      -164.2791
  98   2.0000      -6.032513      -164.1530
  99   2.0000      -6.028219      -164.0362
 100   2.0000      -6.025215      -163.9544
 101   2.0000      -1.042732       -28.3742
 102   2.0000      -1.033513       -28.1233
 103   2.0000      -1.029916       -28.0255
 104   2.0000      -1.024180       -27.8694
 105   2.0000      -1.023832       -27.8599
 106   2.0000      -1.022783       -27.8313
 107   2.0000      -1.012877       -27.5618
 108   2.0000      -1.011919       -27.5357
 109   2.0000      -1.008541       -27.4438
 110   2.0000      -1.005359       -27.3572
 111   2.0000      -1.004473       -27.3331
 112   2.0000      -0.998801       -27.1788
 113   2.0000      -0.997674       -27.1481
 114   2.0000      -0.993689       -27.0397
 115   2.0000      -0.989411       -26.9232
 116   2.0000      -0.989041       -26.9132
 117   2.0000      -0.988567       -26.9003
 118   2.0000      -0.966587       -26.3022
 119   2.0000      -0.964681       -26.2503
 120   2.0000      -0.952935       -25.9307
 121   2.0000      -0.950934       -25.8762
 122   2.0000      -0.945815       -25.7369
 123   2.0000      -0.944880       -25.7115
 124   2.0000      -0.932937       -25.3865
 125   2.0000      -0.928355       -25.2618
 126   2.0000      -0.924277       -25.1509
 127   2.0000      -0.914511       -24.8851
 128   2.0000      -0.903565       -24.5873
 129   2.0000      -0.899481       -24.4761
 130   2.0000      -0.894100       -24.3297
 131   2.0000      -0.883645       -24.0452
 132   2.0000      -0.879731       -23.9387
 133   2.0000      -0.878470       -23.9044
 134   2.0000      -0.870906       -23.6986
 135   2.0000      -0.867533       -23.6068
 136   2.0000      -0.865510       -23.5517
 137   2.0000      -0.855803       -23.2876
 138   2.0000      -0.846044       -23.0220
 139   2.0000      -0.840097       -22.8602
 140   2.0000      -0.831017       -22.6131
 141   2.0000      -0.821017       -22.3410
 142   2.0000      -0.811857       -22.0917
 143   2.0000      -0.803518       -21.8648
 144   2.0000      -0.796247       -21.6670
 145   2.0000      -0.787274       -21.4228
 146   2.0000      -0.781135       -21.2558
 147   2.0000      -0.775684       -21.1074
 148   2.0000      -0.773041       -21.0355
 149   2.0000      -0.762323       -20.7439
 150   2.0000      -0.752062       -20.4646
 151   2.0000      -0.737270       -20.0621
 152   2.0000      -0.737006       -20.0549
 153   2.0000      -0.723321       -19.6826
 154   2.0000      -0.718017       -19.5382
 155   2.0000      -0.716374       -19.4935
 156   2.0000      -0.706677       -19.2297
 157   2.0000      -0.706205       -19.2168
 158   2.0000      -0.697956       -18.9923
 159   2.0000      -0.685214       -18.6456
 160   2.0000      -0.684011       -18.6129
 161   2.0000      -0.676316       -18.4035
 162   2.0000      -0.674034       -18.3414
 163   2.0000      -0.672170       -18.2907
 164   2.0000      -0.671035       -18.2598
 165   2.0000      -0.668355       -18.1869
 166   2.0000      -0.665789       -18.1170
 167   2.0000      -0.657659       -17.8958
 168   2.0000      -0.655175       -17.8282
 169   2.0000      -0.650173       -17.6921
 170   2.0000      -0.646517       -17.5926
 171   2.0000      -0.639832       -17.4107
 172   2.0000      -0.637296       -17.3417
 173   2.0000      -0.633130       -17.2284
 174   2.0000      -0.624401       -16.9908
 175   2.0000      -0.617365       -16.7994
 176   2.0000      -0.610900       -16.6234
 177   2.0000      -0.602436       -16.3931
 178   2.0000      -0.596431       -16.2297
 179   2.0000      -0.594013       -16.1639
 180   2.0000      -0.590728       -16.0745
 181   2.0000      -0.588343       -16.0096
 182   2.0000      -0.583244       -15.8709
 183   2.0000      -0.581949       -15.8356
 184   2.0000      -0.578019       -15.7287
 185   2.0000      -0.574781       -15.6406
 186   2.0000      -0.573947       -15.6179
 187   2.0000      -0.571246       -15.5444
 188   2.0000      -0.563010       -15.3203
 189   2.0000      -0.556409       -15.1407
 190   2.0000      -0.553135       -15.0516
 191   2.0000      -0.551615       -15.0102
 192   2.0000      -0.550094       -14.9688
 193   2.0000      -0.545033       -14.8311
 194   2.0000      -0.542998       -14.7757
 195   2.0000      -0.541839       -14.7442
 196   2.0000      -0.538663       -14.6578
 197   2.0000      -0.536756       -14.6059
 198   2.0000      -0.535198       -14.5635
 199   2.0000      -0.532820       -14.4988
 200   2.0000      -0.531402       -14.4602
 201   2.0000      -0.528855       -14.3909
 202   2.0000      -0.528371       -14.3777
 203   2.0000      -0.526725       -14.3329
 204   2.0000      -0.522993       -14.2314
 205   2.0000      -0.520249       -14.1567
 206   2.0000      -0.517421       -14.0797
 207   2.0000      -0.516989       -14.0680
 208   2.0000      -0.513598       -13.9757
 209   2.0000      -0.510132       -13.8814
 210   2.0000      -0.502577       -13.6758
 211   2.0000      -0.499878       -13.6024
 212   2.0000      -0.497280       -13.5317
 213   2.0000      -0.493331       -13.4242
 214   2.0000      -0.490251       -13.3404
 215   2.0000      -0.487682       -13.2705
 216   2.0000      -0.485927       -13.2228
 217   2.0000      -0.485176       -13.2023
 218   2.0000      -0.481451       -13.1010
 219   2.0000      -0.479165       -13.0387
 220   2.0000      -0.473727       -12.8908
 221   2.0000      -0.472411       -12.8550
 222   2.0000      -0.470402       -12.8003
 223   2.0000      -0.468989       -12.7618
 224   2.0000      -0.468552       -12.7499
 225   2.0000      -0.464691       -12.6449
 226   2.0000      -0.462707       -12.5909
 227   2.0000      -0.462134       -12.5753
 228   2.0000      -0.461219       -12.5504
 229   2.0000      -0.459190       -12.4952
 230   2.0000      -0.458300       -12.4710
 231   2.0000      -0.456053       -12.4098
 232   2.0000      -0.453927       -12.3520
 233   2.0000      -0.453582       -12.3426
 234   2.0000      -0.452007       -12.2997
 235   2.0000      -0.449692       -12.2367
 236   2.0000      -0.449267       -12.2252
 237   2.0000      -0.448188       -12.1958
 238   2.0000      -0.447563       -12.1788
 239   2.0000      -0.446318       -12.1449
 240   2.0000      -0.445068       -12.1109
 241   2.0000      -0.444237       -12.0883
 242   2.0000      -0.443333       -12.0637
 243   2.0000      -0.441749       -12.0206
 244   2.0000      -0.440486       -11.9862
 245   2.0000      -0.438717       -11.9381
 246   2.0000      -0.438496       -11.9321
 247   2.0000      -0.438211       -11.9243
 248   2.0000      -0.437244       -11.8980
 249   2.0000      -0.435456       -11.8494
 250   2.0000      -0.433507       -11.7963
 251   2.0000      -0.431701       -11.7472
 252   2.0000      -0.430703       -11.7200
 253   2.0000      -0.428969       -11.6728
 254   2.0000      -0.426437       -11.6039
 255   2.0000      -0.426247       -11.5988
 256   2.0000      -0.422974       -11.5097
 257   2.0000      -0.421111       -11.4590
 258   2.0000      -0.420685       -11.4474
 259   2.0000      -0.420622       -11.4457
 260   2.0000      -0.417555       -11.3623
 261   2.0000      -0.414565       -11.2809
 262   2.0000      -0.413600       -11.2546
 263   2.0000      -0.412860       -11.2345
 264   2.0000      -0.411061       -11.1855
 265   2.0000      -0.405589       -11.0366
 266   2.0000      -0.404960       -11.0195
 267   2.0000      -0.404908       -11.0181
 268   2.0000      -0.401148       -10.9158
 269   2.0000      -0.389399       -10.5961
 270   2.0000      -0.386733       -10.5235
 271   2.0000      -0.385586       -10.4923
 272   2.0000      -0.375278       -10.2118
 273   2.0000      -0.358550        -9.7566
 274   2.0000      -0.351892        -9.5755
 275   2.0000      -0.349696        -9.5157
 276   2.0000      -0.342711        -9.3256
 277   2.0000      -0.338665        -9.2155
 278   2.0000      -0.324588        -8.8325
 279   2.0000      -0.323589        -8.8053
 280   2.0000      -0.321823        -8.7572
 281   2.0000      -0.316260        -8.6059
 282   2.0000      -0.298612        -8.1257
 283   2.0000      -0.294844        -8.0231
 284   2.0000      -0.287105        -7.8125
 285   2.0000      -0.257045        -6.9945
 286   2.0000      -0.240634        -6.5480
 287   0.0000      -0.122311        -3.3283
 288   0.0000      -0.101527        -2.7627
 289   0.0000      -0.093316        -2.5393
 290   0.0000      -0.078932        -2.1478
 291   0.0000      -0.065062        -1.7704

MULLIKEN ATOMIC CHARGES
-----------------------
   0 C :   -0.033627
   1 C :    0.045299
   2 C :    0.050697
   3 C :   -0.035703
   4 C :    0.011839
   5 C :    0.008790
   6 C :    0.299001
   7 C :   -0.343963
   8 C :   -0.189492
   9 N :    0.159236
  10 C :   -0.175327
  11 N :    0.142462
  12 C :   -0.054143
  13 C :    0.212881
  14 C :   -0.322782
  15 C :   -0.208104
  16 N :    0.177246
  17 C :   -0.180268
  18 N :    0.165790
  19 C :    0.014359
  20 C :   -0.092727
  21 C :   -0.015242
  22 C :    0.071670
  23 C :    0.062798
  24 C :   -0.101435
  25 S :    0.141161
  26 C :   -0.097724
  27 C :    0.042753
  28 C :   -0.001203
  29 C :   -0.061878
  30 S :    0.152386
  31 C :    0.117736
  32 C :   -0.036458
  33 C :   -0.019599
  34 C :   -0.085442
  35 S :    0.131908
  36 C :   -0.121071
  37 C :   -0.041181
  38 C :   -0.084595
  39 C :    0.193977
  40 C :   -0.096863
  41 C :   -0.254938
  42 N :    0.161051
  43 C :   -0.099769
  44 C :   -0.256247
  45 N :    0.174675
  46 C :    0.171919
  47 C :   -0.084346
  48 C :   -0.043128
  49 C :    0.067329
  50 C :    0.064491
  51 C :   -0.120098
  52 S :    0.169536
  53 C :   -0.116450
  54 C :    0.062670
  55 C :    0.008898
  56 C :   -0.062714
  57 S :    0.140321
  58 C :    0.116360
  59 C :   -0.022861
  60 C :    0.006891
  61 C :    0.009505
  62 C :   -0.057060
  63 C :    0.320027
  64 C :   -0.358792
  65 C :   -0.173824
  66 N :    0.128850
  67 C :   -0.191007
  68 N :    0.149161
  69 C :    0.007363
  70 C :    0.002911
  71 C :   -0.035528
  72 C :    0.046571
  73 C :    0.044095
  74 C :   -0.035879
  75 C :    0.259855
  76 C :   -0.349950
  77 C :   -0.182839
  78 N :    0.147917
  79 C :   -0.223604
  80 N :    0.175320
  81 H :    0.006256
  82 H :    0.005051
  83 H :    0.004794
  84 H :    0.006109
  85 H :    0.018779
  86 H :    0.002521
  87 H :    0.043777
  88 H :   -0.009084
  89 H :    0.036236
  90 H :   -0.009988
  91 H :   -0.017750
  92 H :    0.047147
  93 H :    0.034665
  94 H :    0.056811
  95 H :    0.052236
  96 H :    0.049107
  97 H :    0.049267
  98 H :   -0.011939
  99 H :    0.047698
 100 H :   -0.003587
 101 H :    0.034155
 102 H :   -0.013025
 103 H :   -0.009624
 104 H :    0.002690
 105 H :    0.002980
 106 H :    0.000855
 107 H :    0.001312
 108 H :    0.002706
Sum of atomic charges:   -0.0000000

LOEWDIN ATOMIC CHARGES
----------------------
   0 C :    0.005770
   1 C :    0.000488
   2 C :    0.005374
   3 C :    0.000046
   4 C :   -0.008813
   5 C :   -0.014911
   6 C :    0.081096
   7 C :   -0.137258
   8 C :   -0.019778
   9 N :   -0.046719
  10 C :   -0.018817
  11 N :   -0.052909
  12 C :   -0.069992
  13 C :    0.054517
  14 C :   -0.139899
  15 C :   -0.037801
  16 N :   -0.048426
  17 C :   -0.020561
  18 N :   -0.044824
  19 C :    0.033913
  20 C :   -0.182131
  21 C :    0.037211
  22 C :   -0.028756
  23 C :   -0.055512
  24 C :   -0.121413
  25 S :    0.482719
  26 C :   -0.179075
  27 C :   -0.044488
  28 C :   -0.063320
  29 C :   -0.156141
  30 S :    0.443537
  31 C :   -0.011071
  32 C :   -0.016074
  33 C :   -0.037262
  34 C :   -0.161218
  35 S :    0.444107
  36 C :   -0.195472
  37 C :   -0.051991
  38 C :   -0.061117
  39 C :   -0.006987
  40 C :   -0.031227
  41 C :   -0.037798
  42 N :   -0.042257
  43 C :   -0.031240
  44 C :   -0.040868
  45 N :   -0.034467
  46 C :   -0.008946
  47 C :   -0.169267
  48 C :   -0.024971
  49 C :    0.014929
  50 C :   -0.044591
  51 C :   -0.136843
  52 S :    0.478150
  53 C :   -0.203252
  54 C :   -0.028450
  55 C :   -0.055824
  56 C :   -0.155814
  57 S :    0.433978
  58 C :   -0.057819
  59 C :    0.050321
  60 C :   -0.044278
  61 C :    0.059992
  62 C :   -0.080351
  63 C :    0.080242
  64 C :   -0.145419
  65 C :   -0.016287
  66 N :   -0.066120
  67 C :   -0.019128
  68 N :   -0.056994
  69 C :   -0.013675
  70 C :   -0.010489
  71 C :   -0.001246
  72 C :    0.000576
  73 C :   -0.002450
  74 C :    0.003168
  75 C :    0.071578
  76 C :   -0.145348
  77 C :   -0.020436
  78 N :   -0.056705
  79 C :   -0.026598
  80 N :   -0.050925
  81 H :    0.041675
  82 H :    0.037979
  83 H :    0.037858
  84 H :    0.040864
  85 H :    0.049520
  86 H :    0.045688
  87 H :    0.040997
  88 H :    0.030141
  89 H :    0.028316
  90 H :    0.023714
  91 H :    0.032469
  92 H :    0.045354
  93 H :    0.044174
  94 H :    0.061439
  95 H :    0.059539
  96 H :    0.044591
  97 H :    0.046630
  98 H :    0.039916
  99 H :    0.041396
 100 H :    0.032967
 101 H :    0.027947
 102 H :    0.033908
 103 H :    0.028789
 104 H :    0.042524
 105 H :    0.039938
 106 H :    0.035970
 107 H :    0.036158
 108 H :    0.040643

  Mayer bond orders larger than 0.100000
B(  0-C ,  1-C ) :   1.3663 B(  0-C ,  5-C ) :   1.3843 B(  0-C , 81-H ) :   0.9854
B(  1-C ,  2-C ) :   1.3799 B(  1-C , 82-H ) :   0.9867 B(  2-C ,  3-C ) :   1.3599
B(  2-C , 83-H ) :   0.9867 B(  3-C ,  4-C ) :   1.3844 B(  3-C , 84-H ) :   0.9891
B(  4-C ,  5-C ) :   1.3117 B(  4-C , 13-C ) :   1.0133 B(  5-C ,  6-C ) :   0.9956
B(  6-C ,  7-C ) :   1.6287 B(  6-C , 12-C ) :   1.0754 B(  7-C ,  8-C ) :   1.1461
B(  7-C , 10-C ) :   1.1395 B(  8-C ,  9-N ) :   2.9773 B( 10-C , 11-N ) :   2.9600
B( 12-C , 13-C ) :   1.0326 B( 12-C , 19-C ) :   1.5161 B( 13-C , 14-C ) :   1.6367
B( 14-C , 15-C ) :   1.1496 B( 14-C , 17-C ) :   1.1485 B( 15-C , 16-N ) :   3.0251
B( 17-C , 18-N ) :   2.9959 B( 19-C , 20-C ) :   1.2161 B( 19-C , 85-H ) :   0.9369
B( 20-C , 21-C ) :   1.4313 B( 20-C , 25-S ) :   1.0388 B( 21-C , 22-C ) :   1.2655
B( 21-C , 86-H ) :   0.9777 B( 22-C , 23-C ) :   1.0453 B( 22-C , 31-C ) :   1.3217
B( 23-C , 24-C ) :   1.5953 B( 23-C , 26-C ) :   1.1882 B( 24-C , 25-S ) :   1.1601
B( 24-C , 87-H ) :   0.9408 B( 26-C , 27-C ) :   1.4210 B( 26-C , 30-S ) :   1.1000
B( 27-C , 28-C ) :   1.2053 B( 27-C , 31-C ) :   1.1119 B( 28-C , 29-C ) :   1.6014
B( 28-C , 88-H ) :   0.9969 B( 29-C , 30-S ) :   1.1478 B( 29-C , 89-H ) :   0.9642
B( 31-C , 32-C ) :   1.1880 B( 32-C , 33-C ) :   1.5932 B( 32-C , 90-H ) :   0.9591
B( 33-C , 34-C ) :   1.1752 B( 33-C , 91-H ) :   0.9734 B( 34-C , 35-S ) :   1.1141
B( 34-C , 36-C ) :   0.1044 B( 34-C , 38-C ) :   1.4712 B( 35-S , 36-C ) :   1.1180
B( 36-C , 37-C ) :   1.5234 B( 36-C , 47-C ) :   1.0901 B( 37-C , 38-C ) :   1.3339
B( 37-C , 46-C ) :   1.0555 B( 38-C , 39-C ) :   1.0488 B( 39-C , 40-C ) :   1.0878
B( 39-C , 92-H ) :   0.9067 B( 39-C , 93-H ) :   0.8938 B( 40-C , 41-C ) :   1.0792
B( 40-C , 43-C ) :   1.0651 B( 40-C , 94-H ) :   0.8538 B( 41-C , 42-N ) :   3.1241
B( 43-C , 44-C ) :   1.0932 B( 43-C , 46-C ) :   1.0912 B( 43-C , 95-H ) :   0.8596
B( 44-C , 45-N ) :   3.1247 B( 46-C , 96-H ) :   0.8765 B( 46-C , 97-H ) :   0.9146
B( 47-C , 48-C ) :   1.5237 B( 47-C , 52-S ) :   1.0837 B( 48-C , 49-C ) :   1.2631
B( 48-C , 98-H ) :   0.9630 B( 49-C , 50-C ) :   1.0730 B( 49-C , 58-C ) :   1.3133
B( 50-C , 51-C ) :   1.5813 B( 50-C , 53-C ) :   1.1768 B( 51-C , 52-S ) :   1.1510
B( 51-C , 99-H ) :   0.9408 B( 53-C , 54-C ) :   1.4540 B( 53-C , 57-S ) :   1.0841
B( 54-C , 55-C ) :   1.2289 B( 54-C , 58-C ) :   1.0632 B( 55-C , 56-C ) :   1.5830
B( 55-C ,100-H ) :   0.9976 B( 56-C , 57-S ) :   1.1590 B( 56-C ,101-H ) :   0.9638
B( 58-C , 59-C ) :   1.2094 B( 59-C , 60-C ) :   1.4905 B( 59-C ,102-H ) :   0.9719
B( 60-C , 61-C ) :   1.2560 B( 60-C ,103-H ) :   0.9764 B( 61-C , 62-C ) :   1.4309
B( 61-C ,104-H ) :   0.9449 B( 62-C , 63-C ) :   1.0941 B( 62-C , 75-C ) :   1.0653
B( 63-C , 64-C ) :   1.5950 B( 63-C , 69-C ) :   0.9895 B( 64-C , 65-C ) :   1.1460
B( 64-C , 67-C ) :   1.1536 B( 65-C , 66-N ) :   2.9527 B( 67-C , 68-N ) :   2.9689
B( 69-C , 70-C ) :   1.3148 B( 69-C , 74-C ) :   1.3871 B( 70-C , 71-C ) :   1.3883
B( 70-C , 75-C ) :   1.0050 B( 71-C , 72-C ) :   1.3599 B( 71-C ,105-H ) :   0.9846
B( 72-C , 73-C ) :   1.3836 B( 72-C ,106-H ) :   0.9864 B( 73-C , 74-C ) :   1.3643
B( 73-C ,107-H ) :   0.9853 B( 74-C ,108-H ) :   0.9835 B( 75-C , 76-C ) :   1.5994
B( 76-C , 77-C ) :   1.1418 B( 76-C , 79-C ) :   1.1635 B( 77-C , 78-N ) :   2.9815
B( 79-C , 80-N ) :   3.0002

-----------------------------------------------------------------------------
         ABSORPTION SPECTRUM VIA TRANSITION ELECTRIC DIPOLE MOMENTS
-----------------------------------------------------------------------------
State   Energy  Wavelength   fosc         T2         TX        TY        TZ
        (cm-1)    (nm)                  (au**2)     (au)      (au)      (au)
-----------------------------------------------------------------------------
   0   12373.4    808.2   1.389524501  36.97032  -1.16462   5.27351   2.79358
   1   15697.4    637.0   0.605431535  12.69736   1.78452   0.75446   2.99059
   2   17958.8    556.8   0.051565684   0.94528  -0.79959   0.51357   0.20539
   3   18853.3    530.4   0.049143364   0.85813  -0.51300  -0.21703  -0.74018
   4   20136.5    496.6   0.075895471   1.24082  -0.52196  -0.88083   0.43876
   5   20598.8    485.5   0.190082993   3.03792  -1.66407  -0.43519   0.28178
   6   21288.4    469.7   0.376402841   5.82083  -2.02339  -0.24225   1.29152
   7   22994.8    434.9   0.077402605   1.10816   0.54674  -0.71758  -0.54250
   8   23524.5    425.1   0.068726003   0.96178  -0.18430   0.37443   0.88748
   9   23881.5    418.7   0.017899331   0.24675  -0.40451   0.17541   0.22880
  10   25621.1    390.3   0.041601185   0.53455   0.33247   0.30093  -0.57745
  11   25721.6    388.8   0.038343057   0.49075  -0.20988   0.42147  -0.51872
  12   26003.2    384.6   0.054957467   0.69579  -0.66483   0.21915   0.45360
  13   26300.2    380.2   0.054217923   0.67867   0.68265   0.21505   0.40794
  14   26744.2    373.9   0.484595472   5.96521   1.55389   1.65907   0.89339
  15   27936.8    358.0   0.250045731   2.94658  -1.29638   0.10209  -1.12051
  16   28633.9    349.2   0.076146228   0.87547   0.45431   0.53702   0.61699
  17   29084.9    343.8   0.125924785   1.42534   0.77844   0.73551  -0.52763
  18   29819.2    335.4   0.277461583   3.06325   0.43737   1.61226   0.52207
  19   30465.1    328.2   0.054315098   0.58694   0.18203   0.49624   0.55457
  20   30615.4    326.6   0.047140327   0.50691   0.67660  -0.20997   0.07092
  21   30715.3    325.6   0.032715868   0.35065  -0.53230  -0.25235  -0.06027
  22   30917.5    323.4   0.197232798   2.10015  -0.78997  -0.60936   1.05109
  23   31425.0    318.2   0.029251598   0.30644  -0.18553   0.28715   0.43539
  24   31871.9    313.8   0.058789327   0.60725  -0.35817   0.29289  -0.62704
  25   32173.0    310.8   0.389536625   3.98595  -0.82422  -0.68622  -1.68396
  26   32368.3    308.9   0.131911851   1.34165  -1.09533   0.32971  -0.18218
  27   32653.0    306.3   0.204876671   2.06559  -0.22425  -1.02877   0.97824
  28   32775.2    305.1   0.299318600   3.00652   1.29309   1.10031  -0.35178
  29   33118.6    301.9   0.031941946   0.31752  -0.04125   0.39921   0.39554
  30   33482.3    298.7   0.166363807   1.63576   0.38533   0.97603   0.73120
  31   33585.2    297.8   0.035826968   0.35119  -0.05572   0.57669  -0.12457
  32   34067.5    293.5   0.045658772   0.44122   0.60169  -0.21528   0.18123
  33   34153.7    292.8   0.256337664   2.47087  -1.29247   0.78091   0.43655
  34   34311.0    291.5   0.362728579   3.48036  -0.22764  -0.89834  -1.61911
  35   34653.2    288.6   0.064943425   0.61697   0.56981  -0.54060   0.00658
  36   34970.4    286.0   0.298984310   2.81464  -0.29358   1.64571  -0.14169
  37   35377.9    282.7   0.026159583   0.24343  -0.47126  -0.02833   0.14331
  38   35560.5    281.2   0.094455927   0.87445  -0.90112   0.24810   0.02977
  39   35815.7    279.2   0.034060168   0.31308  -0.40824   0.17223   0.34169
  40   36335.0    275.2   0.344318325   3.11968   0.85955   0.92614   1.23415
  41   36838.0    271.5   0.012678921   0.11331  -0.18793   0.25268   0.11894
  42   36857.5    271.3   0.141971258   1.26809  -0.86057   0.43606   0.58084
  43   37008.7    270.2   0.166963490   1.48523   0.01480  -0.48196  -1.11925
  44   37121.2    269.4   0.043769285   0.38817  -0.05598   0.33286  -0.52368
  45   37377.3    267.5   0.016433817   0.14475  -0.34041   0.08200  -0.14881
  46   38049.8    262.8   0.001026027   0.00888  -0.05118  -0.04708   0.06358
  47   38110.1    262.4   0.005407021   0.04671  -0.11763  -0.16228   0.08084
  48   38369.7    260.6   0.180230924   1.54638  -0.82173   0.92170   0.14701
  49   38624.0    258.9   0.098138525   0.83649   0.52868   0.24449  -0.70513
  50   38805.0    257.7   0.037086666   0.31463  -0.03355  -0.52342  -0.19884
  51   39108.3    255.7   0.237034241   1.99535  -1.40156  -0.12400  -0.12492
  52   39220.7    255.0   0.050373885   0.42283   0.09816   0.60547   0.21587
  53   39584.8    252.6   0.064416982   0.53573   0.29670   0.34913   0.57080
  54   39900.4    250.6   0.018547893   0.15304   0.36024  -0.06786   0.13659
  55   39947.0    250.3   0.029597047   0.24392  -0.45333   0.01762  -0.19519

FINAL SINGLE POINT ENERGY     -5065.507148565440

DIPOLE MOMENT
-------------
                                X             Y             Z
Electronic contribution:      7.97586     -15.77666     -16.45087
Nuclear contribution   :     -7.26277      11.67041      14.39786
                        -----------------------------------------
Total Dipole Moment    :      0.71309      -4.10625      -2.05301
                        -----------------------------------------
Magnitude (a.u.)       :      4.64592
Magnitude (Debye)      :     11.80900

Rotational constants in cm-1:     0.000990     0.000254     0.000230
Rotational constants in MHz :    29.686217     7.622703     6.888463

                             ****ORCA TERMINATED NORMALLY****
TOTAL RUN TIME: 0 days 0 hours 13 minutes 21 seconds 989 msec
