                         Program Version 4.2.0 -  RELEASE  -
|  1> # ORCA input file
|  2> # SCF done       -223.687492271826          0.000852250284
|  3> ! CAM-B3LYP def2-SVP def2/J RIJCOSX Grid4 TightSCF
|  4> %maxcore 5000
|  5> %tddft
|  6>     Mode sTDDFT
|  7>     Ethresh 5.0
|  8>     maxcore 5000
|  9> end
| 10>
| 11> %pal
| 12>   nprocs 6
| 13>   end
| 14> * xyz 0 1
| 15>    C       -8.30477        -4.33246        14.11335
| 16>    C       -7.53674        -4.85390        15.14414
| 17>    C       -6.46505        -5.69591        14.88444
| 18>    C       -6.12503        -6.03601        13.58347
| 19>    C       -6.88543        -5.52225        12.54654
| 20>    C       -7.98290        -4.67039        12.80834
| 21>    C       -8.60762        -4.30137        11.54336
| 22>    C       -9.63377        -3.40837        11.38370
| 23>    C      -10.23567        -2.69748        12.44394
| 24>    N      -10.76807        -2.08618        13.25651
| 25>    C      -10.21202        -3.03704        10.15128
| 26>    N      -10.73171        -2.68218         9.19096
| 27>    C       -7.94223        -5.07712        10.50559
| 28>    C       -6.75741        -5.67069        11.10549
| 29>    C       -5.62554        -6.04962        10.43155
| 30>    C       -5.42554        -5.85232         9.04777
| 31>    N       -5.17083        -5.62475         7.95189
| 32>    C       -4.47820        -6.57302        11.06212
| 33>    N       -3.52872        -7.02053        11.52637
| 34>    C       -8.40916        -5.27624         9.23130
| 35>    C       -8.06589        -6.33342         8.36292
| 36>    C       -8.23746        -6.32291         6.98997
| 37>    C       -7.77977        -7.55680         6.45496
| 38>    C       -7.38393        -8.35439         7.61375
| 39>    C       -7.53582        -7.64594         8.74492
| 40>    F       -6.95614        -9.61705         7.52974
| 41>    C       -7.68919        -7.93325         5.12872
| 42>    C       -7.18457        -9.13995         4.59372
| 43>    C       -7.24609        -9.08228         3.20579
| 44>    C       -7.82294        -7.78604         2.83156
| 45>    C       -8.08277        -7.12224         3.96570
| 46>    F       -8.62355        -5.90701         4.06818
| 47>    C       -6.84467       -10.03907         2.26300
| 48>    C       -6.35354       -11.28244         2.58029
| 49>    C       -5.91662       -12.21428         1.63310
| 50>    S       -5.80540       -11.73081        -0.03312
| 51>    C       -5.13862       -13.24233        -0.55047
| 52>    C       -4.92553       -14.08588         0.56553
| 53>    C       -5.43360       -13.54193         1.78706
| 54>    C       -5.39810       -14.35076         2.94941
| 55>    C       -6.08608       -13.98981         4.23455
| 56>    F       -7.34388       -13.54929         4.04925
| 57>    F       -6.19079       -15.03695         5.06391
| 58>    F       -5.44389       -13.03632         4.94010
| 59>    C       -4.74029       -15.56045         2.90899
| 60>    C       -4.09199       -16.00743         1.76188
| 61>    C       -4.17254       -15.29428         0.58208
| 62>    O       -3.54973       -15.64453        -0.55508
| 63>    C       -2.72989       -16.79404        -0.57452
| 64>    C       -4.97107       -13.40044        -1.93854
| 65>    C       -4.96612       -14.56798        -2.65151
| 66>    C       -4.78619       -14.64972        -4.04264
| 67>    C       -4.82541       -15.82265        -4.78283
| 68>    C       -4.54406       -15.53117        -6.13874
| 69>    C       -4.33847       -14.07828        -6.18242
| 70>    C       -4.48481       -13.54640        -4.96023
| 71>    F       -4.05537       -13.40998        -7.30556
| 72>    C       -4.45765       -16.40434        -7.20555
| 73>    C       -4.11237       -16.11868        -8.55239
| 74>    C       -4.12815       -17.29402        -9.28410
| 75>    C       -4.51205       -18.38574        -8.38689
| 76>    C       -4.69270       -17.84948        -7.17022
| 77>    F       -5.04616       -18.50645        -6.05865
| 78>    C       -3.76738       -17.41040       -10.64030
| 79>    C       -3.84309       -18.55620       -11.37920
| 80>    C       -3.47282       -18.67352       -12.73813
| 81>    C       -2.53903       -17.94270       -13.42560
| 82>    C       -2.50085       -17.80430       -14.87718
| 83>    C       -3.14788       -18.57605       -15.80540
| 84>    C       -3.95291       -19.70104       -15.52721
| 85>    N       -4.61809       -20.62649       -15.38625
| 86>    C       -3.06154       -18.37372       -17.19980
| 87>    N       -3.03631       -18.26971       -18.34252
| 88>    C       -1.63791       -16.66654       -15.16921
| 89>    C       -1.04231       -16.22449       -13.96634
| 90>    C       -0.18899       -15.13350       -13.95911
| 91>    C        0.07186       -14.48948       -15.15915
| 92>    C       -0.50287       -14.92847       -16.34343
| 93>    C       -1.36176       -16.01728       -16.36235
| 94>    C       -1.47260       -17.10394       -12.88992
| 95>    C       -0.80799       -17.28399       -11.70596
| 96>    C        0.28765       -16.49796       -11.29266
| 97>    N        1.17036       -15.88131       -10.89526
| 98>    C       -1.06976       -18.32223       -10.78773
| 99>    N       -1.18818       -19.17379       -10.02752
|100>    H       -9.13523        -3.68305        14.33589
|101>    H       -7.78184        -4.60067        16.16422
|102>    H       -5.88676        -6.09421        15.70399
|103>    H       -5.29385        -6.69553        13.39283
|104>    H       -9.16576        -4.60026         8.85527
|105>    H       -8.59184        -5.48954         6.41553
|106>    H       -7.37406        -7.99356         9.74672
|107>    H       -6.80441        -9.95293         5.17950
|108>    H       -7.99702        -7.45941         1.82504
|109>    H       -6.94411        -9.76865         1.21857
|110>    H       -6.28789       -11.52777         3.62396
|111>    H       -4.70513       -16.17774         3.79258
|112>    H       -3.53876       -16.92959         1.81271
|113>    H       -2.32698       -16.84134        -1.58464
|114>    H       -3.30649       -17.70074        -0.37093
|115>    H       -1.90841       -16.71113         0.14195
|116>    H       -4.94731       -12.46994        -2.49156
|117>    H       -5.13215       -15.50415        -2.14174
|118>    H       -5.02421       -16.80038        -4.39000
|119>    H       -4.38994       -12.51248        -4.69471
|120>    H       -3.86533       -15.14710        -8.93393
|121>    H       -4.60200       -19.41838        -8.65711
|122>    H       -3.42743       -16.49811       -11.11713
|123>    H       -4.31581       -19.42406       -10.94187
|124>    H       -4.04053       -19.40088       -13.30403
|125>    H        0.25668       -14.77867       -13.04405
|126>    H        0.73032       -13.63452       -15.16875
|127>    H       -0.28339       -14.41399       -17.26636
|128>    H       -1.80313       -16.33878       -17.29107
|129> *
|130>
|131>                          ****END OF INPUT****

CARTESIAN COORDINATES (ANGSTROEM)
---------------------------------
  C     -8.304770   -4.332460   14.113350
  C     -7.536740   -4.853900   15.144140
  C     -6.465050   -5.695910   14.884440
  C     -6.125030   -6.036010   13.583470
  C     -6.885430   -5.522250   12.546540
  C     -7.982900   -4.670390   12.808340
  C     -8.607620   -4.301370   11.543360
  C     -9.633770   -3.408370   11.383700
  C    -10.235670   -2.697480   12.443940
  N    -10.768070   -2.086180   13.256510
  C    -10.212020   -3.037040   10.151280
  N    -10.731710   -2.682180    9.190960
  C     -7.942230   -5.077120   10.505590
  C     -6.757410   -5.670690   11.105490
  C     -5.625540   -6.049620   10.431550
  C     -5.425540   -5.852320    9.047770
  N     -5.170830   -5.624750    7.951890
  C     -4.478200   -6.573020   11.062120
  N     -3.528720   -7.020530   11.526370
  C     -8.409160   -5.276240    9.231300
  C     -8.065890   -6.333420    8.362920
  C     -8.237460   -6.322910    6.989970
  C     -7.779770   -7.556800    6.454960
  C     -7.383930   -8.354390    7.613750
  C     -7.535820   -7.645940    8.744920
  F     -6.956140   -9.617050    7.529740
  C     -7.689190   -7.933250    5.128720
  C     -7.184570   -9.139950    4.593720
  C     -7.246090   -9.082280    3.205790
  C     -7.822940   -7.786040    2.831560
  C     -8.082770   -7.122240    3.965700
  F     -8.623550   -5.907010    4.068180
  C     -6.844670  -10.039070    2.263000
  C     -6.353540  -11.282440    2.580290
  C     -5.916620  -12.214280    1.633100
  S     -5.805400  -11.730810   -0.033120
  C     -5.138620  -13.242330   -0.550470
  C     -4.925530  -14.085880    0.565530
  C     -5.433600  -13.541930    1.787060
  C     -5.398100  -14.350760    2.949410
  C     -6.086080  -13.989810    4.234550
  F     -7.343880  -13.549290    4.049250
  F     -6.190790  -15.036950    5.063910
  F     -5.443890  -13.036320    4.940100
  C     -4.740290  -15.560450    2.908990
  C     -4.091990  -16.007430    1.761880
  C     -4.172540  -15.294280    0.582080
  O     -3.549730  -15.644530   -0.555080
  C     -2.729890  -16.794040   -0.574520
  C     -4.971070  -13.400440   -1.938540
  C     -4.966120  -14.567980   -2.651510
  C     -4.786190  -14.649720   -4.042640
  C     -4.825410  -15.822650   -4.782830
  C     -4.544060  -15.531170   -6.138740
  C     -4.338470  -14.078280   -6.182420
  C     -4.484810  -13.546400   -4.960230
  F     -4.055370  -13.409980   -7.305560
  C     -4.457650  -16.404340   -7.205550
  C     -4.112370  -16.118680   -8.552390
  C     -4.128150  -17.294020   -9.284100
  C     -4.512050  -18.385740   -8.386890
  C     -4.692700  -17.849480   -7.170220
  F     -5.046160  -18.506450   -6.058650
  C     -3.767380  -17.410400  -10.640300
  C     -3.843090  -18.556200  -11.379200
  C     -3.472820  -18.673520  -12.738130
  C     -2.539030  -17.942700  -13.425600
  C     -2.500850  -17.804300  -14.877180
  C     -3.147880  -18.576050  -15.805400
  C     -3.952910  -19.701040  -15.527210
  N     -4.618090  -20.626490  -15.386250
  C     -3.061540  -18.373720  -17.199800
  N     -3.036310  -18.269710  -18.342520
  C     -1.637910  -16.666540  -15.169210
  C     -1.042310  -16.224490  -13.966340
  C     -0.188990  -15.133500  -13.959110
  C      0.071860  -14.489480  -15.159150
  C     -0.502870  -14.928470  -16.343430
  C     -1.361760  -16.017280  -16.362350
  C     -1.472600  -17.103940  -12.889920
  C     -0.807990  -17.283990  -11.705960
  C      0.287650  -16.497960  -11.292660
  N      1.170360  -15.881310  -10.895260
  C     -1.069760  -18.322230  -10.787730
  N     -1.188180  -19.173790  -10.027520
  H     -9.135230   -3.683050   14.335890
  H     -7.781840   -4.600670   16.164220
  H     -5.886760   -6.094210   15.703990
  H     -5.293850   -6.695530   13.392830
  H     -9.165760   -4.600260    8.855270
  H     -8.591840   -5.489540    6.415530
  H     -7.374060   -7.993560    9.746720
  H     -6.804410   -9.952930    5.179500
  H     -7.997020   -7.459410    1.825040
  H     -6.944110   -9.768650    1.218570
  H     -6.287890  -11.527770    3.623960
  H     -4.705130  -16.177740    3.792580
  H     -3.538760  -16.929590    1.812710
  H     -2.326980  -16.841340   -1.584640
  H     -3.306490  -17.700740   -0.370930
  H     -1.908410  -16.711130    0.141950
  H     -4.947310  -12.469940   -2.491560
  H     -5.132150  -15.504150   -2.141740
  H     -5.024210  -16.800380   -4.390000
  H     -4.389940  -12.512480   -4.694710
  H     -3.865330  -15.147100   -8.933930
  H     -4.602000  -19.418380   -8.657110
  H     -3.427430  -16.498110  -11.117130
  H     -4.315810  -19.424060  -10.941870
  H     -4.040530  -19.400880  -13.304030
  H      0.256680  -14.778670  -13.044050
  H      0.730320  -13.634520  -15.168750
  H     -0.283390  -14.413990  -17.266360
  H     -1.803130  -16.338780  -17.291070

 Total Charge           Charge          ....    0
 Multiplicity           Mult            ....    1
 Number of Electrons    NEL             ....  580
 Basis Dimension        Dim             .... 1339

ORBITAL ENERGIES
----------------

  NO   OCC          E(Eh)            E(eV)
   0   2.0000     -88.991072     -2421.5702
   1   2.0000     -24.809011      -675.0875
   2   2.0000     -24.808596      -675.0762
   3   2.0000     -24.807596      -675.0490
   4   2.0000     -24.807472      -675.0456
   5   2.0000     -24.801195      -674.8748
   6   2.0000     -24.798352      -674.7975
   7   2.0000     -24.791408      -674.6085
   8   2.0000     -19.284081      -524.7465
   9   2.0000     -14.426589      -392.5674
  10   2.0000     -14.425369      -392.5342
  11   2.0000     -14.424703      -392.5161
  12   2.0000     -14.423683      -392.4884
  13   2.0000     -14.418767      -392.3546
  14   2.0000     -14.417727      -392.3263
  15   2.0000     -14.416497      -392.2928
  16   2.0000     -14.411274      -392.1507
  17   2.0000     -10.528054      -286.4829
  18   2.0000     -10.376050      -282.3467
  19   2.0000     -10.375131      -282.3217
  20   2.0000     -10.367608      -282.1169
  21   2.0000     -10.365878      -282.0699
  22   2.0000     -10.357103      -281.8311
  23   2.0000     -10.355411      -281.7850
  24   2.0000     -10.355009      -281.7741
  25   2.0000     -10.352816      -281.7144
  26   2.0000     -10.352516      -281.7063
  27   2.0000     -10.350957      -281.6639
  28   2.0000     -10.347348      -281.5657
  29   2.0000     -10.346774      -281.5500
  30   2.0000     -10.344254      -281.4815
  31   2.0000     -10.343013      -281.4477
  32   2.0000     -10.340874      -281.3895
  33   2.0000     -10.334142      -281.2063
  34   2.0000     -10.328574      -281.0548
  35   2.0000     -10.328302      -281.0474
  36   2.0000     -10.327814      -281.0341
  37   2.0000     -10.326296      -280.9928
  38   2.0000     -10.326197      -280.9901
  39   2.0000     -10.326121      -280.9880
  40   2.0000     -10.325074      -280.9595
  41   2.0000     -10.324209      -280.9360
  42   2.0000     -10.320831      -280.8441
  43   2.0000     -10.319785      -280.8156
  44   2.0000     -10.319482      -280.8074
  45   2.0000     -10.319221      -280.8003
  46   2.0000     -10.318787      -280.7885
  47   2.0000     -10.318083      -280.7693
  48   2.0000     -10.317800      -280.7616
  49   2.0000     -10.317491      -280.7532
  50   2.0000     -10.316397      -280.7234
  51   2.0000     -10.315527      -280.6998
  52   2.0000     -10.314221      -280.6642
  53   2.0000     -10.314115      -280.6613
  54   2.0000     -10.312776      -280.6249
  55   2.0000     -10.311840      -280.5994
  56   2.0000     -10.311209      -280.5823
  57   2.0000     -10.310668      -280.5675
  58   2.0000     -10.308989      -280.5219
  59   2.0000     -10.308881      -280.5189
  60   2.0000     -10.308674      -280.5133
  61   2.0000     -10.305818      -280.4356
  62   2.0000     -10.305748      -280.4337
  63   2.0000     -10.305286      -280.4211
  64   2.0000     -10.305250      -280.4201
  65   2.0000     -10.305087      -280.4157
  66   2.0000     -10.304604      -280.4025
  67   2.0000     -10.304580      -280.4019
  68   2.0000     -10.304308      -280.3945
  69   2.0000     -10.303608      -280.3754
  70   2.0000     -10.297324      -280.2044
  71   2.0000     -10.297235      -280.2020
  72   2.0000     -10.296894      -280.1927
  73   2.0000     -10.296657      -280.1863
  74   2.0000     -10.296506      -280.1822
  75   2.0000     -10.296452      -280.1807
  76   2.0000     -10.295488      -280.1545
  77   2.0000     -10.292089      -280.0620
  78   2.0000     -10.290835      -280.0278
  79   2.0000     -10.286977      -279.9229
  80   2.0000     -10.285864      -279.8926
  81   2.0000     -10.282778      -279.8086
  82   2.0000     -10.281076      -279.7623
  83   2.0000     -10.275832      -279.6196
  84   2.0000     -10.266863      -279.3755
  85   2.0000      -8.086566      -220.0466
  86   2.0000      -6.055445      -164.7770
  87   2.0000      -6.051427      -164.6677
  88   2.0000      -6.049341      -164.6109
  89   2.0000      -1.398973       -38.0680
  90   2.0000      -1.320287       -35.9268
  91   2.0000      -1.313592       -35.7447
  92   2.0000      -1.312016       -35.7018
  93   2.0000      -1.304644       -35.5012
  94   2.0000      -1.300579       -35.3905
  95   2.0000      -1.299394       -35.3583
  96   2.0000      -1.191551       -32.4238
  97   2.0000      -1.040830       -28.3224
  98   2.0000      -1.032085       -28.0844
  99   2.0000      -1.026508       -27.9327
 100   2.0000      -1.022518       -27.8241
 101   2.0000      -1.014021       -27.5929
 102   2.0000      -1.012027       -27.5386
 103   2.0000      -1.006653       -27.3924
 104   2.0000      -1.003367       -27.3030
 105   2.0000      -1.003098       -27.2957
 106   2.0000      -1.003063       -27.2947
 107   2.0000      -0.997590       -27.1458
 108   2.0000      -0.995762       -27.0961
 109   2.0000      -0.991645       -26.9840
 110   2.0000      -0.988276       -26.8924
 111   2.0000      -0.977577       -26.6012
 112   2.0000      -0.967246       -26.3201
 113   2.0000      -0.965486       -26.2722
 114   2.0000      -0.954033       -25.9606
 115   2.0000      -0.944947       -25.7133
 116   2.0000      -0.937210       -25.5028
 117   2.0000      -0.935778       -25.4638
 118   2.0000      -0.930246       -25.3133
 119   2.0000      -0.906932       -24.6789
 120   2.0000      -0.899548       -24.4779
 121   2.0000      -0.898912       -24.4606
 122   2.0000      -0.893346       -24.3092
 123   2.0000      -0.887515       -24.1505
 124   2.0000      -0.880849       -23.9691
 125   2.0000      -0.871023       -23.7018
 126   2.0000      -0.867402       -23.6032
 127   2.0000      -0.862651       -23.4739
 128   2.0000      -0.860521       -23.4160
 129   2.0000      -0.853143       -23.2152
 130   2.0000      -0.840577       -22.8733
 131   2.0000      -0.831628       -22.6297
 132   2.0000      -0.825147       -22.4534
 133   2.0000      -0.819723       -22.3058
 134   2.0000      -0.816993       -22.2315
 135   2.0000      -0.802637       -21.8409
 136   2.0000      -0.798168       -21.7192
 137   2.0000      -0.796427       -21.6719
 138   2.0000      -0.787115       -21.4185
 139   2.0000      -0.783355       -21.3162
 140   2.0000      -0.777991       -21.1702
 141   2.0000      -0.768241       -20.9049
 142   2.0000      -0.757724       -20.6187
 143   2.0000      -0.739551       -20.1242
 144   2.0000      -0.732614       -19.9355
 145   2.0000      -0.730035       -19.8653
 146   2.0000      -0.722036       -19.6476
 147   2.0000      -0.719769       -19.5859
 148   2.0000      -0.718376       -19.5480
 149   2.0000      -0.713286       -19.4095
 150   2.0000      -0.710431       -19.3318
 151   2.0000      -0.700241       -19.0545
 152   2.0000      -0.699382       -19.0311
 153   2.0000      -0.690396       -18.7866
 154   2.0000      -0.688998       -18.7486
 155   2.0000      -0.682877       -18.5820
 156   2.0000      -0.681618       -18.5478
 157   2.0000      -0.679159       -18.4808
 158   2.0000      -0.677627       -18.4392
 159   2.0000      -0.671412       -18.2700
 160   2.0000      -0.670919       -18.2566
 161   2.0000      -0.668150       -18.1813
 162   2.0000      -0.664473       -18.0812
 163   2.0000      -0.663623       -18.0581
 164   2.0000      -0.661805       -18.0086
 165   2.0000      -0.654037       -17.7972
 166   2.0000      -0.650689       -17.7062
 167   2.0000      -0.648612       -17.6496
 168   2.0000      -0.640648       -17.4329
 169   2.0000      -0.638117       -17.3640
 170   2.0000      -0.636563       -17.3218
 171   2.0000      -0.631610       -17.1870
 172   2.0000      -0.626782       -17.0556
 173   2.0000      -0.624423       -16.9914
 174   2.0000      -0.614739       -16.7279
 175   2.0000      -0.608113       -16.5476
 176   2.0000      -0.597258       -16.2522
 177   2.0000      -0.591724       -16.1016
 178   2.0000      -0.591169       -16.0865
 179   2.0000      -0.588953       -16.0262
 180   2.0000      -0.588112       -16.0033
 181   2.0000      -0.582296       -15.8451
 182   2.0000      -0.582050       -15.8384
 183   2.0000      -0.576691       -15.6925
 184   2.0000      -0.575782       -15.6678
 185   2.0000      -0.572483       -15.5780
 186   2.0000      -0.567441       -15.4408
 187   2.0000      -0.567244       -15.4355
 188   2.0000      -0.566572       -15.4172
 189   2.0000      -0.562830       -15.3154
 190   2.0000      -0.560546       -15.2532
 191   2.0000      -0.559569       -15.2267
 192   2.0000      -0.558272       -15.1914
 193   2.0000      -0.556631       -15.1467
 194   2.0000      -0.554705       -15.0943
 195   2.0000      -0.553781       -15.0692
 196   2.0000      -0.550135       -14.9699
 197   2.0000      -0.549075       -14.9411
 198   2.0000      -0.544725       -14.8227
 199   2.0000      -0.542928       -14.7738
 200   2.0000      -0.541973       -14.7478
 201   2.0000      -0.539066       -14.6687
 202   2.0000      -0.538301       -14.6479
 203   2.0000      -0.536774       -14.6064
 204   2.0000      -0.535427       -14.5697
 205   2.0000      -0.533840       -14.5265
 206   2.0000      -0.532376       -14.4867
 207   2.0000      -0.529777       -14.4160
 208   2.0000      -0.524147       -14.2628
 209   2.0000      -0.520666       -14.1680
 210   2.0000      -0.516830       -14.0637
 211   2.0000      -0.514978       -14.0133
 212   2.0000      -0.513285       -13.9672
 213   2.0000      -0.512407       -13.9433
 214   2.0000      -0.511181       -13.9099
 215   2.0000      -0.509524       -13.8648
 216   2.0000      -0.504350       -13.7241
 217   2.0000      -0.503053       -13.6888
 218   2.0000      -0.502851       -13.6833
 219   2.0000      -0.496118       -13.5001
 220   2.0000      -0.495100       -13.4723
 221   2.0000      -0.493868       -13.4388
 222   2.0000      -0.491443       -13.3728
 223   2.0000      -0.488494       -13.2926
 224   2.0000      -0.486419       -13.2361
 225   2.0000      -0.486186       -13.2298
 226   2.0000      -0.480967       -13.0878
 227   2.0000      -0.480258       -13.0685
 228   2.0000      -0.478193       -13.0123
 229   2.0000      -0.476793       -12.9742
 230   2.0000      -0.475464       -12.9380
 231   2.0000      -0.473329       -12.8799
 232   2.0000      -0.472846       -12.8668
 233   2.0000      -0.469118       -12.7653
 234   2.0000      -0.466357       -12.6902
 235   2.0000      -0.465789       -12.6748
 236   2.0000      -0.463571       -12.6144
 237   2.0000      -0.462931       -12.5970
 238   2.0000      -0.459068       -12.4919
 239   2.0000      -0.458518       -12.4769
 240   2.0000      -0.458130       -12.4663
 241   2.0000      -0.456917       -12.4334
 242   2.0000      -0.455670       -12.3994
 243   2.0000      -0.453873       -12.3505
 244   2.0000      -0.452950       -12.3254
 245   2.0000      -0.452209       -12.3052
 246   2.0000      -0.450847       -12.2682
 247   2.0000      -0.450467       -12.2578
 248   2.0000      -0.449957       -12.2440
 249   2.0000      -0.447946       -12.1892
 250   2.0000      -0.444401       -12.0928
 251   2.0000      -0.443489       -12.0679
 252   2.0000      -0.441158       -12.0045
 253   2.0000      -0.438283       -11.9263
 254   2.0000      -0.436206       -11.8698
 255   2.0000      -0.435476       -11.8499
 256   2.0000      -0.434511       -11.8236
 257   2.0000      -0.434201       -11.8152
 258   2.0000      -0.433794       -11.8041
 259   2.0000      -0.430643       -11.7184
 260   2.0000      -0.429193       -11.6789
 261   2.0000      -0.428550       -11.6614
 262   2.0000      -0.425155       -11.5691
 263   2.0000      -0.423903       -11.5350
 264   2.0000      -0.421788       -11.4774
 265   2.0000      -0.419953       -11.4275
 266   2.0000      -0.419017       -11.4020
 267   2.0000      -0.415841       -11.3156
 268   2.0000      -0.410917       -11.1816
 269   2.0000      -0.408875       -11.1261
 270   2.0000      -0.406835       -11.0706
 271   2.0000      -0.395745       -10.7688
 272   2.0000      -0.389726       -10.6050
 273   2.0000      -0.381480       -10.3806
 274   2.0000      -0.378913       -10.3107
 275   2.0000      -0.363597        -9.8940
 276   2.0000      -0.351715        -9.5707
 277   2.0000      -0.347884        -9.4664
 278   2.0000      -0.340982        -9.2786
 279   2.0000      -0.338945        -9.2232
 280   2.0000      -0.330409        -8.9909
 281   2.0000      -0.325678        -8.8622
 282   2.0000      -0.321358        -8.7446
 283   2.0000      -0.311907        -8.4874
 284   2.0000      -0.308029        -8.3819
 285   2.0000      -0.304547        -8.2871
 286   2.0000      -0.292259        -7.9528
 287   2.0000      -0.282031        -7.6745
 288   2.0000      -0.271762        -7.3950
 289   2.0000      -0.237278        -6.4567
 290   0.0000      -0.141459        -3.8493
 291   0.0000      -0.119808        -3.2601
 292   0.0000      -0.092663        -2.5215
 293   0.0000      -0.090362        -2.4589
 294   0.0000      -0.083689        -2.2773

MULLIKEN ATOMIC CHARGES
-----------------------
   0 C :   -0.034314
   1 C :    0.046681
   2 C :    0.047874
   3 C :   -0.036768
   4 C :    0.009603
   5 C :    0.012821
   6 C :    0.303508
   7 C :   -0.345128
   8 C :   -0.192461
   9 N :    0.161398
  10 C :   -0.180372
  11 N :    0.157658
  12 C :   -0.066839
  13 C :    0.225795
  14 C :   -0.354423
  15 C :   -0.177771
  16 N :    0.180325
  17 C :   -0.187701
  18 N :    0.165918
  19 C :    0.039471
  20 C :    0.018777
  21 C :   -0.017533
  22 C :    0.005391
  23 C :    0.264077
  24 C :   -0.073336
  25 F :   -0.169854
  26 C :    0.023723
  27 C :   -0.100759
  28 C :    0.123801
  29 C :   -0.082841
  30 C :    0.271471
  31 F :   -0.166705
  32 C :   -0.036263
  33 C :    0.015702
  34 C :   -0.113600
  35 S :    0.160373
  36 C :   -0.116756
  37 C :    0.079374
  38 C :    0.153305
  39 C :   -0.153832
  40 C :    0.519363
  41 F :   -0.165742
  42 F :   -0.152979
  43 F :   -0.166715
  44 C :    0.016463
  45 C :   -0.110082
  46 C :    0.198535
  47 O :   -0.298368
  48 C :    0.169955
  49 C :    0.025592
  50 C :    0.042370
  51 C :    0.096187
  52 C :   -0.089522
  53 C :    0.021335
  54 C :    0.259149
  55 C :   -0.074432
  56 F :   -0.171705
  57 C :    0.007960
  58 C :   -0.065374
  59 C :    0.084730
  60 C :   -0.057282
  61 C :    0.254278
  62 F :   -0.176530
  63 C :    0.035648
  64 C :   -0.013620
  65 C :    0.046315
  66 C :   -0.057609
  67 C :    0.296341
  68 C :   -0.340159
  69 C :   -0.180578
  70 N :    0.157392
  71 C :   -0.188801
  72 N :    0.158509
  73 C :    0.016056
  74 C :    0.000573
  75 C :   -0.029479
  76 C :    0.045166
  77 C :    0.047254
  78 C :   -0.031966
  79 C :    0.217076
  80 C :   -0.330202
  81 C :   -0.184965
  82 N :    0.162065
  83 C :   -0.192797
  84 N :    0.180497
  85 H :    0.004442
  86 H :    0.002408
  87 H :    0.003423
  88 H :    0.005118
  89 H :    0.019001
  90 H :    0.005303
  91 H :   -0.004036
  92 H :   -0.006008
  93 H :   -0.014620
  94 H :   -0.011426
  95 H :    0.018270
  96 H :    0.008340
  97 H :   -0.017641
  98 H :    0.051382
  99 H :    0.035324
 100 H :    0.039194
 101 H :   -0.005474
 102 H :   -0.011904
 103 H :   -0.012064
 104 H :   -0.010516
 105 H :   -0.006055
 106 H :   -0.006939
 107 H :    0.009594
 108 H :    0.012945
 109 H :    0.027305
 110 H :    0.006185
 111 H :    0.006956
 112 H :    0.005456
 113 H :    0.006348
Sum of atomic charges:   -0.0000000

LOEWDIN ATOMIC CHARGES
----------------------
   0 C :    0.004765
   1 C :   -0.000269
   2 C :    0.003540
   3 C :   -0.000308
   4 C :   -0.010164
   5 C :   -0.014247
   6 C :    0.077682
   7 C :   -0.132008
   8 C :   -0.018802
   9 N :   -0.047808
  10 C :   -0.021117
  11 N :   -0.044203
  12 C :   -0.057842
  13 C :    0.063341
  14 C :   -0.123985
  15 C :   -0.019534
  16 N :   -0.042265
  17 C :   -0.019163
  18 N :   -0.046220
  19 C :    0.067413
  20 C :   -0.034847
  21 C :    0.018942
  22 C :   -0.019694
  23 C :    0.084663
  24 C :   -0.062727
  25 F :   -0.047521
  26 C :    0.026673
  27 C :   -0.071040
  28 C :    0.020987
  29 C :   -0.056556
  30 C :    0.088558
  31 F :   -0.042608
  32 C :   -0.037855
  33 C :    0.002793
  34 C :   -0.173009
  35 S :    0.501514
  36 C :   -0.141783
  37 C :   -0.060525
  38 C :   -0.014442
  39 C :   -0.104103
  40 C :    0.172317
  41 F :   -0.058604
  42 F :   -0.050947
  43 F :   -0.063960
  44 C :    0.023187
  45 C :   -0.089331
  46 C :    0.080475
  47 O :   -0.070676
  48 C :    0.083037
  49 C :   -0.038171
  50 C :    0.007217
  51 C :    0.007314
  52 C :   -0.055936
  53 C :    0.011634
  54 C :    0.086139
  55 C :   -0.056432
  56 F :   -0.048053
  57 C :   -0.009294
  58 C :   -0.020820
  59 C :   -0.011908
  60 C :   -0.047598
  61 C :    0.080264
  62 F :   -0.052336
  63 C :    0.037888
  64 C :   -0.028901
  65 C :    0.058319
  66 C :   -0.053688
  67 C :    0.076949
  68 C :   -0.130791
  69 C :   -0.022137
  70 N :   -0.042083
  71 C :   -0.018842
  72 N :   -0.044867
  73 C :   -0.013223
  74 C :   -0.011452
  75 C :    0.001423
  76 C :    0.004804
  77 C :    0.002695
  78 C :    0.005731
  79 C :    0.064138
  80 C :   -0.130636
  81 C :   -0.020788
  82 N :   -0.046339
  83 C :   -0.017343
  84 N :   -0.038960
  85 H :    0.041132
  86 H :    0.036919
  87 H :    0.037138
  88 H :    0.040607
  89 H :    0.050334
  90 H :    0.032435
  91 H :    0.030348
  92 H :    0.023539
  93 H :    0.031621
  94 H :    0.019995
  95 H :    0.032209
  96 H :    0.039619
  97 H :    0.033754
  98 H :    0.035259
  99 H :    0.020792
 100 H :    0.023342
 101 H :    0.030218
 102 H :    0.032265
 103 H :    0.024722
 104 H :    0.031044
 105 H :    0.027011
 106 H :    0.034053
 107 H :    0.037011
 108 H :    0.040042
 109 H :    0.049638
 110 H :    0.040939
 111 H :    0.038307
 112 H :    0.038258
 113 H :    0.041813

  Mayer bond orders larger than 0.100000
B(  0-C ,  1-C ) :   1.3680 B(  0-C ,  5-C ) :   1.3826 B(  0-C , 85-H ) :   0.9844
B(  1-C ,  2-C ) :   1.3793 B(  1-C , 86-H ) :   0.9867 B(  2-C ,  3-C ) :   1.3616
B(  2-C , 87-H ) :   0.9865 B(  3-C ,  4-C ) :   1.3843 B(  3-C , 88-H ) :   0.9879
B(  4-C ,  5-C ) :   1.3135 B(  4-C , 13-C ) :   1.0085 B(  5-C ,  6-C ) :   0.9965
B(  6-C ,  7-C ) :   1.6331 B(  6-C , 12-C ) :   1.0595 B(  7-C ,  8-C ) :   1.1483
B(  7-C , 10-C ) :   1.1386 B(  8-C ,  9-N ) :   2.9772 B( 10-C , 11-N ) :   2.9672
B( 12-C , 13-C ) :   1.0395 B( 12-C , 19-C ) :   1.5432 B( 13-C , 14-C ) :   1.6373
B( 14-C , 15-C ) :   1.1487 B( 14-C , 17-C ) :   1.1529 B( 15-C , 16-N ) :   3.0025
B( 17-C , 18-N ) :   2.9914 B( 19-C , 20-C ) :   1.1614 B( 19-C , 89-H ) :   0.9430
B( 20-C , 21-C ) :   1.4589 B( 20-C , 24-C ) :   1.0318 B( 21-C , 22-C ) :   1.1408
B( 21-C , 90-H ) :   1.0173 B( 22-C , 23-C ) :   1.0452 B( 22-C , 26-C ) :   1.3953
B( 23-C , 24-C ) :   1.6344 B( 23-C , 25-F ) :   1.1337 B( 24-C , 91-H ) :   1.0138
B( 26-C , 27-C ) :   1.2009 B( 26-C , 30-C ) :   0.9944 B( 27-C , 28-C ) :   1.4605
B( 27-C , 92-H ) :   1.0066 B( 28-C , 29-C ) :   0.9939 B( 28-C , 32-C ) :   1.1960
B( 29-C , 30-C ) :   1.6748 B( 29-C , 93-H ) :   1.0232 B( 30-C , 31-F ) :   1.1337
B( 32-C , 33-C ) :   1.5344 B( 32-C , 94-H ) :   0.9701 B( 33-C , 34-C ) :   1.2275
B( 33-C , 95-H ) :   0.9585 B( 34-C , 35-S ) :   1.1225 B( 34-C , 38-C ) :   1.2926
B( 35-S , 36-C ) :   1.1803 B( 36-C , 37-C ) :   1.2821 B( 36-C , 49-C ) :   1.1795
B( 37-C , 38-C ) :   1.2568 B( 37-C , 46-C ) :   1.2006 B( 38-C , 39-C ) :   1.2210
B( 39-C , 40-C ) :   0.9568 B( 39-C , 44-C ) :   1.5272 B( 40-C , 41-F ) :   1.1457
B( 40-C , 42-F ) :   1.1623 B( 40-C , 43-F ) :   1.1082 B( 44-C , 45-C ) :   1.2252
B( 44-C , 96-H ) :   0.9884 B( 45-C , 46-C ) :   1.4044 B( 45-C , 97-H ) :   0.9957
B( 46-C , 47-O ) :   1.2150 B( 47-O , 48-C ) :   0.9379 B( 48-C , 98-H ) :   0.9775
B( 48-C , 99-H ) :   0.9700 B( 48-C ,100-H ) :   0.9707 B( 49-C , 50-C ) :   1.5827
B( 49-C ,101-H ) :   0.9432 B( 50-C , 51-C ) :   1.2050 B( 50-C ,102-H ) :   0.9668
B( 51-C , 52-C ) :   1.4573 B( 51-C , 55-C ) :   1.0074 B( 52-C , 53-C ) :   1.1543
B( 52-C ,103-H ) :   1.0241 B( 53-C , 54-C ) :   1.0138 B( 53-C , 57-C ) :   1.4308
B( 54-C , 55-C ) :   1.6783 B( 54-C , 56-F ) :   1.1299 B( 55-C ,104-H ) :   1.0107
B( 57-C , 58-C ) :   1.1306 B( 57-C , 61-C ) :   1.0359 B( 58-C , 59-C ) :   1.4727
B( 58-C ,105-H ) :   1.0214 B( 59-C , 60-C ) :   1.0333 B( 59-C , 63-C ) :   1.1860
B( 60-C , 61-C ) :   1.6576 B( 60-C ,106-H ) :   1.0117 B( 61-C , 62-F ) :   1.1238
B( 63-C , 64-C ) :   1.5802 B( 63-C ,107-H ) :   0.9702 B( 64-C , 65-C ) :   1.1876
B( 64-C ,108-H ) :   0.9544 B( 65-C , 66-C ) :   1.5957 B( 65-C ,109-H ) :   0.9226
B( 66-C , 67-C ) :   1.0591 B( 66-C , 79-C ) :   1.0233 B( 67-C , 68-C ) :   1.6365
B( 67-C , 73-C ) :   0.9967 B( 68-C , 69-C ) :   1.1345 B( 68-C , 71-C ) :   1.1479
B( 69-C , 70-N ) :   2.9697 B( 71-C , 72-N ) :   2.9749 B( 73-C , 74-C ) :   1.3124
B( 73-C , 78-C ) :   1.3799 B( 74-C , 75-C ) :   1.3794 B( 74-C , 79-C ) :   1.0074
B( 75-C , 76-C ) :   1.3678 B( 75-C ,110-H ) :   0.9873 B( 76-C , 77-C ) :   1.3746
B( 76-C ,111-H ) :   0.9872 B( 77-C , 78-C ) :   1.3719 B( 77-C ,112-H ) :   0.9864
B( 78-C ,113-H ) :   0.9840 B( 79-C , 80-C ) :   1.6499 B( 80-C , 81-C ) :   1.1401
B( 80-C , 83-C ) :   1.1546 B( 81-C , 82-N ) :   2.9919 B( 83-C , 84-N ) :   3.0026

-----------------------------------------------------------------------------
         ABSORPTION SPECTRUM VIA TRANSITION ELECTRIC DIPOLE MOMENTS
-----------------------------------------------------------------------------
State   Energy  Wavelength   fosc         T2         TX        TY        TZ
        (cm-1)    (nm)                  (au**2)     (au)      (au)      (au)
-----------------------------------------------------------------------------
   0    8248.2   1212.4   1.913036701  76.35564  -1.65023   4.35326   7.39470
   1   12431.4    804.4   0.054715292   1.44898  -0.23562  -0.52654   1.05652
   2   15195.3    658.1   0.088481325   1.91698   0.60012  -0.59219  -1.09824
   3   16216.8    616.6   0.064121132   1.30170  -0.03281   0.38455   1.07366
   4   17290.0    578.4   0.035402701   0.67409  -0.03498  -0.67635  -0.46413
   5   18890.8    529.4   0.342481910   5.96846  -0.54869   1.53945   1.81590
   6   20002.9    499.9   0.102380685   1.68500   0.87753   0.06735  -0.95415
   7   20831.2    480.0   0.104625669   1.65348  -1.24029   0.33822  -0.02748
   8   21488.6    465.4   0.063810705   0.97760   0.17359   0.13770   0.96359
   9   21519.7    464.7   0.069643189   1.06541  -0.06730   0.08285   1.02665
  10   22077.6    452.9   0.234696814   3.49971   0.20516  -1.02428  -1.55192
  11   22923.5    436.2   0.005236994   0.07521   0.09434   0.22139  -0.13151
  12   23259.3    429.9   0.000350747   0.00496  -0.02381  -0.05940  -0.02948
  13   23842.0    419.4   0.174646876   2.41153   0.42419  -0.61444  -1.36164
  14   24888.5    401.8   0.106220310   1.40503   0.38815  -0.05993   1.11838
  15   25286.2    395.5   0.053475472   0.69622   0.26343   0.18465  -0.76989
  16   25470.0    392.6   0.022667576   0.29299  -0.31798  -0.26435  -0.34928
  17   25907.1    386.0   0.146905123   1.86678  -0.25691  -0.39922  -1.28117
  18   26226.0    381.3   0.161092585   2.02217   0.17593  -0.76170  -1.18787
  19   26683.8    374.8   0.008638082   0.10657  -0.22317  -0.08620  -0.22211
  20   27616.1    362.1   0.026545617   0.31645   0.28848  -0.27047   0.40009
  21   27985.2    357.3   0.020967919   0.24666  -0.35853  -0.05136  -0.33983
  22   28177.0    354.9   0.056363538   0.65854   0.39269  -0.37940  -0.60033
  23   28901.3    346.0   0.050453878   0.57472  -0.21243   0.38591  -0.61698
  24   29200.7    342.5   0.003461844   0.03903  -0.15356  -0.02969  -0.12069
  25   29330.0    340.9   0.150204372   1.68595   0.33561  -0.09468  -1.25074
  26   30006.3    333.3   0.019898789   0.21832   0.11174   0.19393   0.41015
  27   30189.7    331.2   0.046540611   0.50751  -0.24217   0.48098  -0.46639
  28   30882.5    323.8   0.030573730   0.32592   0.02492   0.35180   0.44893
  29   31308.7    319.4   0.440470542   4.63156  -0.40713   1.33896   1.63493
  30   31518.0    317.3   0.538721351   5.62705   2.19026  -0.42022   0.80823
  31   31635.1    316.1   0.079683926   0.82923  -0.37641   0.80092   0.21467
  32   31824.4    314.2   0.317613825   3.28560  -0.76305  -0.29460  -1.61758
  33   32476.6    307.9   0.016980507   0.17213  -0.20818  -0.03162  -0.35748
  34   32579.2    306.9   0.015517166   0.15680   0.21389  -0.33259  -0.02085
  35   33052.6    302.5   0.016759071   0.16692   0.24393   0.28383  -0.16390
  36   33417.7    299.2   0.034678024   0.34163  -0.20342   0.39702   0.37765
  37   33554.1    298.0   0.092973875   0.91220   0.81804  -0.47889   0.11696
  38   33694.0    296.8   0.007154928   0.06991  -0.06086   0.24010  -0.09250
  39   34142.1    292.9   0.026676096   0.25722  -0.20148  -0.45981   0.07211
  40   34279.5    291.7   0.104073818   0.99950  -0.17297  -0.16205  -0.97125
  41   34418.3    290.5   0.042257079   0.40419  -0.55273   0.31363  -0.01776
  42   34506.8    289.8   0.009670715   0.09226   0.21778  -0.13454   0.16350
  43   34823.2    287.2   0.200799170   1.89831   0.29595   1.13493  -0.72295
  44   35005.2    285.7   0.084626473   0.79588  -0.19760   0.37091  -0.78693
  45   35131.9    284.6   0.027259117   0.25544  -0.49519   0.07994   0.06195
  46   35234.8    283.8   0.189806487   1.77343   0.54814  -0.20575  -1.19609
  47   35431.9    282.2   0.311829896   2.89734   0.24735  -0.22604   1.66885
  48   35823.3    279.1   0.093417388   0.85849  -0.04813   0.22515  -0.89749
  49   36127.5    276.8   0.010388703   0.09467  -0.03762   0.28442   0.11117
  50   36439.0    274.4   0.035242272   0.31840   0.01073  -0.53151  -0.18917
  51   36813.7    271.6   0.002717844   0.02430   0.06000   0.01535  -0.14307
  52   37026.5    270.1   0.000146612   0.00130  -0.02622  -0.01830  -0.01677
  53   37053.6    269.9   0.092664046   0.82330   0.32083   0.75435   0.38900
  54   37208.6    268.8   0.057839539   0.51175  -0.64626  -0.23997  -0.19110
  55   37933.2    263.6   0.131466000   1.14096   0.12405  -0.62582   0.85669
  56   38055.4    262.8   0.031538642   0.27284  -0.26026  -0.45286  -0.00407
  57   38242.4    261.5   0.028654334   0.24667   0.11568   0.32306  -0.35906
  58   38329.9    260.9   0.175746822   1.50947  -0.20730  -0.92705   0.77916
  59   38506.2    259.7   0.054399687   0.46509  -0.46152  -0.50154  -0.02355
  60   38809.8    257.7   0.030233603   0.25646  -0.03034  -0.09719   0.49608
  61   39116.2    255.6   0.096746316   0.81424  -0.12421  -0.86992  -0.20508
  62   39321.2    254.3   0.031732315   0.26567   0.18421  -0.47108  -0.09910
  63   39886.7    250.7   0.010460325   0.08634   0.23067   0.03732  -0.17814
  64   39991.1    250.1   0.146313705   1.20447   0.43155  -0.45597  -0.90019
  65   40093.4    249.4   0.030706705   0.25214  -0.07104  -0.16086  -0.47033

FINAL SINGLE POINT ENERGY     -4213.800938200922

DIPOLE MOMENT
-------------
                                X             Y             Z
Electronic contribution:    -18.04088      10.02406      26.95705
Nuclear contribution   :     18.93877     -11.89413     -27.64545
                        -----------------------------------------
Total Dipole Moment    :      0.89789      -1.87007      -0.68840
                        -----------------------------------------
Magnitude (a.u.)       :      2.18569
Magnitude (Debye)      :      5.55559

Rotational constants in cm-1:     0.002048     0.000122     0.000119
Rotational constants in MHz :    61.402456     3.662502     3.576823

                             ****ORCA TERMINATED NORMALLY****
TOTAL RUN TIME: 0 days 0 hours 14 minutes 31 seconds 639 msec
