                         Program Version 4.2.0 -  RELEASE  -
|  1> # ORCA input file
|  2> # SCF done       -157.182830345655          0.002151617508
|  3> ! CAM-B3LYP def2-SVP def2/J RIJCOSX Grid4 TightSCF
|  4> %maxcore 5000
|  5> %tddft
|  6>     Mode sTDDFT
|  7>     Ethresh 5.0
|  8>     maxcore 5000
|  9> end
| 10>
| 11> %pal
| 12>   nprocs 6
| 13>   end
| 14> * xyz 0 1
| 15>    C       -4.21430         3.99745        -0.01268
| 16>    C       -4.40963         4.59055        -1.25203
| 17>    C       -4.88835         3.85940        -2.32926
| 18>    C       -5.19389         2.51253        -2.19658
| 19>    C       -5.00087         1.91034        -0.96527
| 20>    C       -4.50499         2.65062         0.13197
| 21>    C       -4.37790         1.76129         1.28116
| 22>    C       -4.01205         2.14162         2.54943
| 23>    C       -3.72571         3.46921         2.92797
| 24>    N       -3.47967         4.52410         3.31034
| 25>    C       -3.90344         1.28286         3.66061
| 26>    N       -3.79472         0.63846         4.60626
| 27>    C       -4.68435         0.42116         0.81080
| 28>    C       -5.25170         0.54814        -0.51927
| 29>    C       -6.10794        -0.34149        -1.11829
| 30>    C       -6.57656        -1.51236        -0.48997
| 31>    N       -7.02736        -2.44273         0.00973
| 32>    C       -6.70018        -0.13851        -2.37992
| 33>    N       -7.19403        -0.03279        -3.41130
| 34>    C       -4.38595        -0.73142         1.49896
| 35>    C       -4.18271        -2.02540         0.99287
| 36>    N       -4.06099        -3.09510         1.84292
| 37>    C       -3.74535        -4.21518         1.14810
| 38>    C       -3.61849        -3.85547        -0.20240
| 39>    C       -3.89912        -2.50841        -0.29850
| 40>    C       -3.57643        -5.45850         1.73648
| 41>    C       -3.41678        -6.55647         2.23259
| 42>    C       -3.21794        -7.80878         2.79168
| 43>    N       -3.52287        -8.08080         4.11096
| 44>    C       -3.20666        -9.37928         4.35606
| 45>    C       -3.19922       -10.36939         5.33349
| 46>    C       -2.66549       -11.51199         4.72484
| 47>    N       -2.36040       -11.22876         3.40914
| 48>    C       -2.68270        -9.93324         3.15993
| 49>    C       -2.69338        -8.94819         2.17565
| 50>    C       -2.44672       -12.77138         5.33850
| 51>    C       -1.87648       -13.85453         4.75586
| 52>    C       -1.65569       -15.09693         5.40772
| 53>    N       -1.01719       -16.11830         4.79031
| 54>    C       -0.94075       -17.19959         5.62352
| 55>    C       -1.56135       -16.84257         6.83265
| 56>    C       -1.99241       -15.53803         6.70141
| 57>    C       -0.32145       -18.36773         5.25093
| 58>    C        0.27553       -19.32538         4.77580
| 59>    C        0.83433       -20.52626         4.43717
| 60>    C        1.74772       -20.82277         3.45053
| 61>    C        2.33136       -22.14934         3.30977
| 62>    C        1.83409       -23.32801         3.80183
| 63>    C        0.61952       -23.47904         4.50431
| 64>    N       -0.36290       -23.69177         5.06058
| 65>    C        2.45255       -24.58400         3.62627
| 66>    N        2.89988       -25.63674         3.52872
| 67>    C        3.52801       -22.00623         2.49464
| 68>    C        3.61261       -20.66725         2.05332
| 69>    C        4.67661       -20.26070         1.26428
| 70>    C        5.64800       -21.19045         0.92276
| 71>    C        5.56160       -22.50514         1.35427
| 72>    C        4.50089       -22.92699         2.14248
| 73>    C        2.45730       -19.93067         2.55735
| 74>    C        2.12832       -18.65387         2.16924
| 75>    C        2.93766       -17.84183         1.34329
| 76>    N        3.52900       -17.09998         0.69575
| 77>    C        0.95002       -17.93855         2.41918
| 78>    N        0.04047       -17.23461         2.47052
| 79>    H       -3.83880         4.58218         0.81114
| 80>    H       -4.18098         5.63806        -1.37670
| 81>    H       -5.02511         4.34157        -3.28530
| 82>    H       -5.56085         1.95162        -3.04134
| 83>    H       -4.18460        -0.63121         2.55784
| 84>    H       -4.23892        -3.05828         2.83434
| 85>    H       -3.35335        -4.52188        -0.99878
| 86>    H       -3.86060        -1.91935        -1.19388
| 87>    H       -3.92562        -7.42128         4.75413
| 88>    H       -3.52398       -10.30228         6.35239
| 89>    H       -1.96196       -11.88087         2.75664
| 90>    H       -2.37235        -9.00885         1.15552
| 91>    H       -2.76217       -12.83690         6.36905
| 92>    H       -1.53973       -13.80993         3.72832
| 93>    H       -0.68644       -16.15733         3.82923
| 94>    H       -1.65532       -17.47668         7.69186
| 95>    H       -2.50379       -14.96094         7.44546
| 96>    H        0.54371       -21.33909         5.09386
| 97>    H        4.76724       -19.24366         0.92170
| 98>    H        6.48306       -20.88045         0.31316
| 99>    H        6.32929       -23.21160         1.07803
|100>    H        4.44952       -23.95071         2.47444
|101> *
|102>
|103>                          ****END OF INPUT****

CARTESIAN COORDINATES (ANGSTROEM)
---------------------------------
  C     -4.214300    3.997450   -0.012680
  C     -4.409630    4.590550   -1.252030
  C     -4.888350    3.859400   -2.329260
  C     -5.193890    2.512530   -2.196580
  C     -5.000870    1.910340   -0.965270
  C     -4.504990    2.650620    0.131970
  C     -4.377900    1.761290    1.281160
  C     -4.012050    2.141620    2.549430
  C     -3.725710    3.469210    2.927970
  N     -3.479670    4.524100    3.310340
  C     -3.903440    1.282860    3.660610
  N     -3.794720    0.638460    4.606260
  C     -4.684350    0.421160    0.810800
  C     -5.251700    0.548140   -0.519270
  C     -6.107940   -0.341490   -1.118290
  C     -6.576560   -1.512360   -0.489970
  N     -7.027360   -2.442730    0.009730
  C     -6.700180   -0.138510   -2.379920
  N     -7.194030   -0.032790   -3.411300
  C     -4.385950   -0.731420    1.498960
  C     -4.182710   -2.025400    0.992870
  N     -4.060990   -3.095100    1.842920
  C     -3.745350   -4.215180    1.148100
  C     -3.618490   -3.855470   -0.202400
  C     -3.899120   -2.508410   -0.298500
  C     -3.576430   -5.458500    1.736480
  C     -3.416780   -6.556470    2.232590
  C     -3.217940   -7.808780    2.791680
  N     -3.522870   -8.080800    4.110960
  C     -3.206660   -9.379280    4.356060
  C     -3.199220  -10.369390    5.333490
  C     -2.665490  -11.511990    4.724840
  N     -2.360400  -11.228760    3.409140
  C     -2.682700   -9.933240    3.159930
  C     -2.693380   -8.948190    2.175650
  C     -2.446720  -12.771380    5.338500
  C     -1.876480  -13.854530    4.755860
  C     -1.655690  -15.096930    5.407720
  N     -1.017190  -16.118300    4.790310
  C     -0.940750  -17.199590    5.623520
  C     -1.561350  -16.842570    6.832650
  C     -1.992410  -15.538030    6.701410
  C     -0.321450  -18.367730    5.250930
  C      0.275530  -19.325380    4.775800
  C      0.834330  -20.526260    4.437170
  C      1.747720  -20.822770    3.450530
  C      2.331360  -22.149340    3.309770
  C      1.834090  -23.328010    3.801830
  C      0.619520  -23.479040    4.504310
  N     -0.362900  -23.691770    5.060580
  C      2.452550  -24.584000    3.626270
  N      2.899880  -25.636740    3.528720
  C      3.528010  -22.006230    2.494640
  C      3.612610  -20.667250    2.053320
  C      4.676610  -20.260700    1.264280
  C      5.648000  -21.190450    0.922760
  C      5.561600  -22.505140    1.354270
  C      4.500890  -22.926990    2.142480
  C      2.457300  -19.930670    2.557350
  C      2.128320  -18.653870    2.169240
  C      2.937660  -17.841830    1.343290
  N      3.529000  -17.099980    0.695750
  C      0.950020  -17.938550    2.419180
  N      0.040470  -17.234610    2.470520
  H     -3.838800    4.582180    0.811140
  H     -4.180980    5.638060   -1.376700
  H     -5.025110    4.341570   -3.285300
  H     -5.560850    1.951620   -3.041340
  H     -4.184600   -0.631210    2.557840
  H     -4.238920   -3.058280    2.834340
  H     -3.353350   -4.521880   -0.998780
  H     -3.860600   -1.919350   -1.193880
  H     -3.925620   -7.421280    4.754130
  H     -3.523980  -10.302280    6.352390
  H     -1.961960  -11.880870    2.756640
  H     -2.372350   -9.008850    1.155520
  H     -2.762170  -12.836900    6.369050
  H     -1.539730  -13.809930    3.728320
  H     -0.686440  -16.157330    3.829230
  H     -1.655320  -17.476680    7.691860
  H     -2.503790  -14.960940    7.445460
  H      0.543710  -21.339090    5.093860
  H      4.767240  -19.243660    0.921700
  H      6.483060  -20.880450    0.313160
  H      6.329290  -23.211600    1.078030
  H      4.449520  -23.950710    2.474440

 Total Charge           Charge          ....    0
 Multiplicity           Mult            ....    1
 Number of Electrons    NEL             ....  418
 Basis Dimension        Dim             .... 1006

ORBITAL ENERGIES
----------------

  NO   OCC          E(Eh)            E(eV)
   0   2.0000     -14.489600      -394.2821
   1   2.0000     -14.474096      -393.8602
   2   2.0000     -14.469756      -393.7421
   3   2.0000     -14.467169      -393.6717
   4   2.0000     -14.431752      -392.7079
   5   2.0000     -14.422517      -392.4566
   6   2.0000     -14.421673      -392.4337
   7   2.0000     -14.421237      -392.4218
   8   2.0000     -14.419277      -392.3685
   9   2.0000     -14.417616      -392.3233
  10   2.0000     -14.416827      -392.3018
  11   2.0000     -14.415247      -392.2588
  12   2.0000     -10.351844      -281.6880
  13   2.0000     -10.351258      -281.6721
  14   2.0000     -10.349686      -281.6293
  15   2.0000     -10.349038      -281.6116
  16   2.0000     -10.346029      -281.5298
  17   2.0000     -10.345570      -281.5173
  18   2.0000     -10.344933      -281.4999
  19   2.0000     -10.343969      -281.4737
  20   2.0000     -10.342801      -281.4419
  21   2.0000     -10.342469      -281.4329
  22   2.0000     -10.336801      -281.2786
  23   2.0000     -10.331972      -281.1473
  24   2.0000     -10.328410      -281.0503
  25   2.0000     -10.327529      -281.0263
  26   2.0000     -10.327077      -281.0140
  27   2.0000     -10.326162      -280.9892
  28   2.0000     -10.324943      -280.9560
  29   2.0000     -10.324574      -280.9459
  30   2.0000     -10.323512      -280.9170
  31   2.0000     -10.321966      -280.8750
  32   2.0000     -10.320330      -280.8305
  33   2.0000     -10.319791      -280.8158
  34   2.0000     -10.318669      -280.7853
  35   2.0000     -10.318540      -280.7817
  36   2.0000     -10.317932      -280.7652
  37   2.0000     -10.312749      -280.6242
  38   2.0000     -10.311695      -280.5955
  39   2.0000     -10.311332      -280.5856
  40   2.0000     -10.309908      -280.5469
  41   2.0000     -10.309175      -280.5269
  42   2.0000     -10.308846      -280.5179
  43   2.0000     -10.307912      -280.4925
  44   2.0000     -10.307378      -280.4780
  45   2.0000     -10.301514      -280.3184
  46   2.0000     -10.300654      -280.2950
  47   2.0000     -10.300421      -280.2887
  48   2.0000     -10.300384      -280.2877
  49   2.0000     -10.299525      -280.2643
  50   2.0000     -10.299136      -280.2537
  51   2.0000     -10.298003      -280.2229
  52   2.0000     -10.297637      -280.2129
  53   2.0000     -10.297020      -280.1962
  54   2.0000     -10.295997      -280.1683
  55   2.0000     -10.295176      -280.1460
  56   2.0000     -10.294765      -280.1348
  57   2.0000     -10.294715      -280.1335
  58   2.0000     -10.292541      -280.0743
  59   2.0000     -10.286136      -279.9000
  60   2.0000     -10.285750      -279.8895
  61   2.0000     -10.283190      -279.8198
  62   2.0000     -10.279651      -279.7235
  63   2.0000     -10.275580      -279.6127
  64   2.0000      -1.109136       -30.1811
  65   2.0000      -1.104203       -30.0469
  66   2.0000      -1.094786       -29.7906
  67   2.0000      -1.067597       -29.0508
  68   2.0000      -1.037407       -28.2293
  69   2.0000      -1.032215       -28.0880
  70   2.0000      -1.024160       -27.8688
  71   2.0000      -1.015326       -27.6284
  72   2.0000      -1.010749       -27.5039
  73   2.0000      -1.004628       -27.3373
  74   2.0000      -1.004110       -27.3232
  75   2.0000      -0.998396       -27.1677
  76   2.0000      -0.996305       -27.1108
  77   2.0000      -0.995470       -27.0881
  78   2.0000      -0.960468       -26.1357
  79   2.0000      -0.956731       -26.0340
  80   2.0000      -0.941432       -25.6177
  81   2.0000      -0.936146       -25.4738
  82   2.0000      -0.923862       -25.1396
  83   2.0000      -0.916723       -24.9453
  84   2.0000      -0.912982       -24.8435
  85   2.0000      -0.900163       -24.4947
  86   2.0000      -0.897648       -24.4262
  87   2.0000      -0.896239       -24.3879
  88   2.0000      -0.890506       -24.2319
  89   2.0000      -0.886189       -24.1144
  90   2.0000      -0.882074       -24.0024
  91   2.0000      -0.875619       -23.8268
  92   2.0000      -0.867926       -23.6175
  93   2.0000      -0.866545       -23.5799
  94   2.0000      -0.863098       -23.4861
  95   2.0000      -0.845932       -23.0190
  96   2.0000      -0.830139       -22.5892
  97   2.0000      -0.809107       -22.0169
  98   2.0000      -0.795935       -21.6585
  99   2.0000      -0.792447       -21.5636
 100   2.0000      -0.787957       -21.4414
 101   2.0000      -0.775675       -21.1072
 102   2.0000      -0.749580       -20.3971
 103   2.0000      -0.721954       -19.6454
 104   2.0000      -0.719816       -19.5872
 105   2.0000      -0.716039       -19.4844
 106   2.0000      -0.714833       -19.4516
 107   2.0000      -0.710663       -19.3381
 108   2.0000      -0.710068       -19.3219
 109   2.0000      -0.706475       -19.2242
 110   2.0000      -0.706080       -19.2134
 111   2.0000      -0.705265       -19.1912
 112   2.0000      -0.696282       -18.9468
 113   2.0000      -0.694050       -18.8861
 114   2.0000      -0.687672       -18.7125
 115   2.0000      -0.677599       -18.4384
 116   2.0000      -0.668197       -18.1826
 117   2.0000      -0.667432       -18.1618
 118   2.0000      -0.665363       -18.1055
 119   2.0000      -0.662608       -18.0305
 120   2.0000      -0.657276       -17.8854
 121   2.0000      -0.653522       -17.7832
 122   2.0000      -0.640998       -17.4424
 123   2.0000      -0.628925       -17.1139
 124   2.0000      -0.618793       -16.8382
 125   2.0000      -0.602453       -16.3936
 126   2.0000      -0.591933       -16.1073
 127   2.0000      -0.587255       -15.9800
 128   2.0000      -0.584285       -15.8992
 129   2.0000      -0.583807       -15.8862
 130   2.0000      -0.582139       -15.8408
 131   2.0000      -0.574870       -15.6430
 132   2.0000      -0.573835       -15.6148
 133   2.0000      -0.554035       -15.0761
 134   2.0000      -0.550842       -14.9892
 135   2.0000      -0.549423       -14.9506
 136   2.0000      -0.547772       -14.9056
 137   2.0000      -0.546070       -14.8593
 138   2.0000      -0.545248       -14.8370
 139   2.0000      -0.544443       -14.8151
 140   2.0000      -0.538984       -14.6665
 141   2.0000      -0.538143       -14.6436
 142   2.0000      -0.536593       -14.6014
 143   2.0000      -0.535808       -14.5801
 144   2.0000      -0.534991       -14.5579
 145   2.0000      -0.531688       -14.4680
 146   2.0000      -0.530276       -14.4296
 147   2.0000      -0.523352       -14.2411
 148   2.0000      -0.519936       -14.1482
 149   2.0000      -0.514233       -13.9930
 150   2.0000      -0.510701       -13.8969
 151   2.0000      -0.509519       -13.8647
 152   2.0000      -0.502340       -13.6694
 153   2.0000      -0.501970       -13.6593
 154   2.0000      -0.498876       -13.5751
 155   2.0000      -0.498332       -13.5603
 156   2.0000      -0.491014       -13.3612
 157   2.0000      -0.490111       -13.3366
 158   2.0000      -0.487501       -13.2656
 159   2.0000      -0.485763       -13.2183
 160   2.0000      -0.479773       -13.0553
 161   2.0000      -0.473179       -12.8758
 162   2.0000      -0.471495       -12.8300
 163   2.0000      -0.462933       -12.5971
 164   2.0000      -0.461921       -12.5695
 165   2.0000      -0.460155       -12.5214
 166   2.0000      -0.459250       -12.4968
 167   2.0000      -0.456550       -12.4234
 168   2.0000      -0.454527       -12.3683
 169   2.0000      -0.453794       -12.3484
 170   2.0000      -0.452969       -12.3259
 171   2.0000      -0.452313       -12.3081
 172   2.0000      -0.450738       -12.2652
 173   2.0000      -0.447041       -12.1646
 174   2.0000      -0.445653       -12.1268
 175   2.0000      -0.444750       -12.1023
 176   2.0000      -0.444160       -12.0862
 177   2.0000      -0.441906       -12.0249
 178   2.0000      -0.440339       -11.9822
 179   2.0000      -0.431702       -11.7472
 180   2.0000      -0.430755       -11.7215
 181   2.0000      -0.430134       -11.7045
 182   2.0000      -0.429395       -11.6844
 183   2.0000      -0.427399       -11.6301
 184   2.0000      -0.426136       -11.5957
 185   2.0000      -0.423967       -11.5367
 186   2.0000      -0.416293       -11.3279
 187   2.0000      -0.413303       -11.2466
 188   2.0000      -0.411520       -11.1980
 189   2.0000      -0.411198       -11.1893
 190   2.0000      -0.408847       -11.1253
 191   2.0000      -0.400128       -10.8880
 192   2.0000      -0.387731       -10.5507
 193   2.0000      -0.382645       -10.4123
 194   2.0000      -0.376811       -10.2535
 195   2.0000      -0.372805       -10.1445
 196   2.0000      -0.363218        -9.8837
 197   2.0000      -0.354912        -9.6576
 198   2.0000      -0.353017        -9.6061
 199   2.0000      -0.345646        -9.4055
 200   2.0000      -0.339622        -9.2416
 201   2.0000      -0.335207        -9.1214
 202   2.0000      -0.331085        -9.0093
 203   2.0000      -0.316709        -8.6181
 204   2.0000      -0.309417        -8.4197
 205   2.0000      -0.303637        -8.2624
 206   2.0000      -0.288471        -7.8497
 207   2.0000      -0.264905        -7.2084
 208   2.0000      -0.229943        -6.2571
 209   0.0000      -0.103983        -2.8295
 210   0.0000      -0.094905        -2.5825
 211   0.0000      -0.091060        -2.4779
 212   0.0000      -0.085464        -2.3256
 213   0.0000      -0.041514        -1.1296

MULLIKEN ATOMIC CHARGES
-----------------------
   0 C :   -0.035487
   1 C :    0.045721
   2 C :    0.048288
   3 C :   -0.036069
   4 C :    0.004346
   5 C :    0.010532
   6 C :    0.307549
   7 C :   -0.357366
   8 C :   -0.189122
   9 N :    0.155685
  10 C :   -0.175912
  11 N :    0.136707
  12 C :   -0.090720
  13 C :    0.233112
  14 C :   -0.342495
  15 C :   -0.203695
  16 N :    0.175101
  17 C :   -0.180501
  18 N :    0.158258
  19 C :    0.043222
  20 C :    0.047457
  21 N :   -0.035805
  22 C :    0.017967
  23 C :   -0.002978
  24 C :    0.020250
  25 C :    0.005449
  26 C :    0.043727
  27 C :   -0.023440
  28 N :   -0.038648
  29 C :    0.113695
  30 C :   -0.156826
  31 C :    0.079690
  32 N :   -0.034736
  33 C :    0.110457
  34 C :   -0.108658
  35 C :    0.037195
  36 C :   -0.000878
  37 C :    0.094198
  38 N :   -0.031971
  39 C :   -0.053016
  40 C :    0.041643
  41 C :   -0.044988
  42 C :    0.177901
  43 C :   -0.082939
  44 C :   -0.058459
  45 C :   -0.074805
  46 C :    0.293254
  47 C :   -0.349390
  48 C :   -0.196893
  49 N :    0.172546
  50 C :   -0.189471
  51 N :    0.155867
  52 C :    0.003970
  53 C :    0.002133
  54 C :   -0.035727
  55 C :    0.048235
  56 C :    0.047717
  57 C :   -0.032966
  58 C :    0.304418
  59 C :   -0.356661
  60 C :   -0.210968
  61 N :    0.152905
  62 C :   -0.112500
  63 N :    0.099599
  64 H :    0.004927
  65 H :    0.002811
  66 H :    0.002675
  67 H :    0.004360
  68 H :   -0.003824
  69 H :    0.138251
  70 H :   -0.012717
  71 H :    0.003971
  72 H :    0.126853
  73 H :   -0.030789
  74 H :    0.128770
  75 H :   -0.026612
  76 H :   -0.014642
  77 H :   -0.036427
  78 H :    0.126335
  79 H :   -0.013849
  80 H :   -0.017103
  81 H :    0.057211
  82 H :    0.003274
  83 H :    0.002970
  84 H :    0.004001
  85 H :    0.004855
Sum of atomic charges:   -0.0000000

LOEWDIN ATOMIC CHARGES
----------------------
   0 C :    0.004131
   1 C :   -0.000475
   2 C :    0.002496
   3 C :   -0.000295
   4 C :   -0.010627
   5 C :   -0.013641
   6 C :    0.080313
   7 C :   -0.145618
   8 C :   -0.020137
   9 N :   -0.053491
  10 C :   -0.017749
  11 N :   -0.061376
  12 C :   -0.074179
  13 C :    0.067038
  14 C :   -0.139595
  15 C :   -0.018216
  16 N :   -0.045374
  17 C :   -0.022007
  18 N :   -0.050723
  19 C :    0.045993
  20 C :   -0.026454
  21 N :    0.119510
  22 C :    0.013139
  23 C :   -0.034769
  24 C :   -0.008314
  25 C :   -0.058585
  26 C :   -0.014628
  27 C :   -0.023901
  28 N :    0.078925
  29 C :   -0.018698
  30 C :   -0.082630
  31 C :   -0.000511
  32 N :    0.070206
  33 C :   -0.017126
  34 C :   -0.065686
  35 C :   -0.004188
  36 C :   -0.059712
  37 C :    0.023313
  38 N :    0.116735
  39 C :   -0.049751
  40 C :   -0.005882
  41 C :   -0.064890
  42 C :    0.032336
  43 C :   -0.062564
  44 C :    0.046153
  45 C :   -0.067836
  46 C :    0.076036
  47 C :   -0.134208
  48 C :   -0.027263
  49 N :   -0.043178
  50 C :   -0.018657
  51 N :   -0.047800
  52 C :   -0.012398
  53 C :   -0.012377
  54 C :    0.001862
  55 C :    0.001928
  56 C :    0.002715
  57 C :    0.004074
  58 C :    0.080745
  59 C :   -0.144755
  60 C :   -0.018311
  61 N :   -0.053657
  62 C :    0.031288
  63 N :   -0.076341
  64 H :    0.041275
  65 H :    0.036993
  66 H :    0.036889
  67 H :    0.040409
  68 H :    0.044033
  69 H :    0.101998
  70 H :    0.035712
  71 H :    0.033512
  72 H :    0.094476
  73 H :    0.027074
  74 H :    0.089886
  75 H :    0.031708
  76 H :    0.038360
  77 H :    0.023615
  78 H :    0.069215
  79 H :    0.034484
  80 H :    0.026322
  81 H :    0.066651
  82 H :    0.040609
  83 H :    0.037309
  84 H :    0.037647
  85 H :    0.041464

  Mayer bond orders larger than 0.100000
B(  0-C ,  1-C ) :   1.3653 B(  0-C ,  5-C ) :   1.3889 B(  0-C , 64-H ) :   0.9825
B(  1-C ,  2-C ) :   1.3837 B(  1-C , 65-H ) :   0.9856 B(  2-C ,  3-C ) :   1.3600
B(  2-C , 66-H ) :   0.9860 B(  3-C ,  4-C ) :   1.3871 B(  3-C , 67-H ) :   0.9869
B(  4-C ,  5-C ) :   1.3142 B(  4-C , 13-C ) :   1.0048 B(  5-C ,  6-C ) :   0.9921
B(  6-C ,  7-C ) :   1.6058 B(  6-C , 12-C ) :   1.0908 B(  7-C ,  8-C ) :   1.1512
B(  7-C , 10-C ) :   1.1462 B(  8-C ,  9-N ) :   2.9734 B( 10-C , 11-N ) :   2.9535
B( 12-C , 13-C ) :   1.0449 B( 12-C , 19-C ) :   1.5399 B( 13-C , 14-C ) :   1.6301
B( 14-C , 15-C ) :   1.1589 B( 14-C , 17-C ) :   1.1418 B( 15-C , 16-N ) :   3.0027
B( 17-C , 18-N ) :   2.9899 B( 19-C , 20-C ) :   1.1808 B( 19-C , 68-H ) :   0.9155
B( 20-C , 21-N ) :   1.1745 B( 20-C , 22-C ) :   0.1107 B( 20-C , 24-C ) :   1.3191
B( 21-N , 22-C ) :   1.2964 B( 21-N , 69-H ) :   0.9332 B( 22-C , 23-C ) :   1.3530
B( 22-C , 25-C ) :   0.8338 B( 23-C , 24-C ) :   1.4078 B( 23-C , 70-H ) :   1.0143
B( 24-C , 71-H ) :   1.0009 B( 25-C , 26-C ) :   2.1954 B( 26-C , 27-C ) :   0.8453
B( 27-C , 28-N ) :   1.2069 B( 27-C , 34-C ) :   1.4034 B( 28-N , 29-C ) :   1.1684
B( 28-N , 72-H ) :   0.9389 B( 29-C , 30-C ) :   1.2463 B( 29-C , 33-C ) :   1.3102
B( 30-C , 31-C ) :   1.3604 B( 30-C , 73-H ) :   1.0398 B( 31-C , 32-N ) :   1.1990
B( 31-C , 35-C ) :   1.1619 B( 32-N , 33-C ) :   1.1658 B( 32-N , 74-H ) :   0.9308
B( 33-C , 34-C ) :   1.2605 B( 34-C , 75-H ) :   1.0370 B( 35-C , 36-C ) :   1.6256
B( 35-C , 76-H ) :   0.9626 B( 36-C , 37-C ) :   1.1190 B( 36-C , 77-H ) :   0.9585
B( 37-C , 38-N ) :   1.2799 B( 37-C , 41-C ) :   1.3217 B( 38-N , 39-C ) :   1.2308
B( 38-N , 78-H ) :   0.8798 B( 39-C , 40-C ) :   1.3142 B( 39-C , 42-C ) :   0.9364
B( 40-C , 41-C ) :   1.4150 B( 40-C , 79-H ) :   1.0105 B( 41-C , 80-H ) :   1.0019
B( 42-C , 43-C ) :   1.9114 B( 43-C , 44-C ) :   1.1035 B( 44-C , 45-C ) :   1.5229
B( 44-C , 81-H ) :   0.9307 B( 45-C , 46-C ) :   1.0509 B( 45-C , 58-C ) :   1.0599
B( 46-C , 47-C ) :   1.6283 B( 46-C , 52-C ) :   0.9974 B( 47-C , 48-C ) :   1.1360
B( 47-C , 50-C ) :   1.1506 B( 48-C , 49-N ) :   2.9915 B( 50-C , 51-N ) :   2.9747
B( 52-C , 53-C ) :   1.3094 B( 52-C , 57-C ) :   1.3870 B( 53-C , 54-C ) :   1.3832
B( 53-C , 58-C ) :   1.0080 B( 54-C , 55-C ) :   1.3669 B( 54-C , 82-H ) :   0.9809
B( 55-C , 56-C ) :   1.3806 B( 55-C , 83-H ) :   0.9859 B( 56-C , 57-C ) :   1.3634
B( 56-C , 84-H ) :   0.9858 B( 57-C , 85-H ) :   0.9835 B( 58-C , 59-C ) :   1.5713
B( 59-C , 60-C ) :   1.1356 B( 59-C , 62-C ) :   1.1957 B( 60-C , 61-N ) :   2.9764
B( 62-C , 63-N ) :   2.8473 B( 63-N , 78-H ) :   0.1249

-----------------------------------------------------------------------------
         ABSORPTION SPECTRUM VIA TRANSITION ELECTRIC DIPOLE MOMENTS
-----------------------------------------------------------------------------
State   Energy  Wavelength   fosc         T2         TX        TY        TZ
        (cm-1)    (nm)                  (au**2)     (au)      (au)      (au)
-----------------------------------------------------------------------------
   0   13945.2    717.1   2.243762259  52.96973   2.71959  -6.75066  -0.04663
   1   16706.0    598.6   0.415336271   8.18471  -0.16277  -2.29701   1.69763
   2   18418.6    542.9   0.167158189   2.98777  -0.34668   1.67984   0.21382
   3   19227.4    520.1   0.106838070   1.82928  -0.56437  -1.08895  -0.57005
   4   22808.4    438.4   0.090166366   1.30144   0.49480   0.30474  -0.98171
   5   24287.5    411.7   0.105299188   1.42731   0.57916   0.18853  -1.02778
   6   26446.1    378.1   0.036182631   0.45042   0.01390  -0.67077  -0.01696
   7   26900.5    371.7   0.125625110   1.53741  -0.48372  -0.62226  -0.95719
   8   27675.8    361.3   0.980580473  11.66430   0.48551  -3.05549   1.44658
   9   28022.4    356.9   0.079709320   0.93644  -0.65086   0.59004   0.40580
  10   28515.3    350.7   0.146184192   1.68771   0.12178  -1.28837   0.11392
  11   30842.3    324.2   0.096070248   1.02546  -0.25340  -0.96086   0.19491
  12   31114.7    321.4   0.233606415   2.47169   0.30910   1.26038  -0.88746
  13   31300.0    319.5   0.067106531   0.70582   0.70259   0.17283   0.42699
  14   31419.9    318.3   0.286615992   3.00311  -0.46442  -1.06261  -1.28775
  15   32194.6    310.6   0.064554581   0.66012   0.05175  -0.65575  -0.47689
  16   32237.3    310.2   0.041264644   0.42140   0.10795  -0.63954   0.02699
  17   33545.2    298.1   0.124489611   1.22174   0.16442  -0.98283  -0.47828
  18   33635.4    297.3   0.347948167   3.40560   1.02531   1.01934   1.14685
  19   33694.0    296.8   0.298194402   2.91355  -0.37017   1.54149  -0.63272
  20   34150.1    292.8   0.138797140   1.33803  -0.91216   0.38770   0.59638
  21   34594.1    289.1   0.254988389   2.42658  -1.31492  -0.16708   0.81833
  22   34791.2    287.4   0.353634493   3.34627  -0.00112  -1.51385   1.02690
  23   35132.2    284.6   0.005393147   0.05054   0.11058   0.18659  -0.05910
  24   35282.0    283.4   0.016427354   0.15328  -0.26607   0.19958   0.20653
  25   35416.8    282.4   0.125780240   1.16917   0.41651   0.41673  -0.90666
  26   36079.7    277.2   0.009070212   0.08276  -0.04887   0.19837  -0.20254
  27   36377.0    274.9   0.020962190   0.18971   0.06354  -0.29271   0.31622
  28   37132.5    269.3   0.022110043   0.19602   0.26794  -0.15901   0.31457
  29   37168.3    269.0   0.009292356   0.08231  -0.09719  -0.18631   0.19531
  30   37878.9    264.0   0.039128595   0.34007  -0.38054  -0.13628   0.42035
  31   38421.4    260.3   0.128440421   1.10054  -0.68554  -0.40085   0.68548
  32   38466.6    260.0   0.012337333   0.10559  -0.16938  -0.08154   0.26505
  33   39099.1    255.8   0.036729275   0.30926   0.20216  -0.40941  -0.31745
  34   39616.7    252.4   0.016325643   0.13566   0.07674   0.18614  -0.30843

FINAL SINGLE POINT ENERGY     -2648.102333068822

DIPOLE MOMENT
-------------
                                X             Y             Z
Electronic contribution:     -3.17013      -4.07639       0.23217
Nuclear contribution   :      4.73676       4.59286      -0.27809
                        -----------------------------------------
Total Dipole Moment    :      1.56662       0.51647      -0.04591
                        -----------------------------------------
Magnitude (a.u.)       :      1.65020
Magnitude (Debye)      :      4.19447

Rotational constants in cm-1:     0.003296     0.000197     0.000192
Rotational constants in MHz :    98.799228     5.900264     5.760634

                             ****ORCA TERMINATED NORMALLY****
TOTAL RUN TIME: 0 days 0 hours 6 minutes 58 seconds 159 msec
