                         Program Version 4.2.0 -  RELEASE  -
|  1> # ORCA input file
|  2> # SCF done       -174.013069281158          0.000365685604
|  3> ! CAM-B3LYP def2-SVP def2/J RIJCOSX Grid4 TightSCF
|  4> %maxcore 5000
|  5> %tddft
|  6>     Mode sTDDFT
|  7>     Ethresh 5.0
|  8>     maxcore 5000
|  9> end
| 10>
| 11> %pal
| 12>   nprocs 6
| 13>   end
| 14> * xyz 0 1
| 15>    C        1.57282        -3.43081         0.84523
| 16>    C        2.11091        -2.77047         1.94106
| 17>    C        1.30747        -2.35574         2.99194
| 18>    C       -0.05815        -2.60135         2.98428
| 19>    C       -0.60443        -3.26153         1.89752
| 20>    C        0.20920        -3.67085         0.81790
| 21>    C       -0.63606        -4.29504        -0.19522
| 22>    C       -0.19437        -4.82417        -1.38358
| 23>    C        1.16108        -4.88933        -1.76609
| 24>    N        2.24133        -4.98098        -2.14510
| 25>    C       -1.00387        -5.38733        -2.38983
| 26>    N       -1.59318        -5.85030        -3.26141
| 27>    C       -2.00506        -4.18437         0.26911
| 28>    C       -1.97145        -3.68292         1.62519
| 29>    C       -2.96827        -3.78582         2.56873
| 30>    C       -4.16907        -4.49524         2.38940
| 31>    N       -5.14294        -5.10241         2.32755
| 32>    C       -2.88391        -3.25954         3.87159
| 33>    N       -2.90486        -2.82152         4.93337
| 34>    C       -3.11542        -4.49162        -0.50167
| 35>    C       -4.42045        -4.02730        -0.36927
| 36>    S       -5.70586        -4.96388        -1.08096
| 37>    C       -6.94970        -3.95440        -0.42433
| 38>    C       -6.38584        -2.84251         0.23704
| 39>    C       -4.96025        -2.87598         0.25265
| 40>    C       -4.24293        -1.80157         0.78608
| 41>    C       -4.91941        -0.75466         1.37370
| 42>    S       -3.97127         0.55526         2.06331
| 43>    C       -6.32543        -0.73396         1.39351
| 44>    C       -7.04391        -1.74194         0.81181
| 45>    C       -8.29685        -4.34915        -0.56849
| 46>    N       -8.63976        -5.36368        -1.44326
| 47>    C       -9.97435        -5.58522        -1.35596
| 48>    C      -11.01765        -6.35777        -1.84130
| 49>    C      -12.17122        -5.92529        -1.16228
| 50>    N      -11.83038        -4.90735        -0.29128
| 51>    C      -10.49608        -4.68290        -0.38618
| 52>    C       -9.45338        -3.91115         0.10265
| 53>    C      -13.50651        -6.36867        -1.25876
| 54>    C      -13.91815        -7.41650        -2.03084
| 55>    C      -15.22377        -7.92328        -2.15088
| 56>    S      -15.38791        -9.51937        -2.80619
| 57>    C      -17.10829        -9.56677        -2.55541
| 58>    C      -17.54742        -8.33029        -2.02420
| 59>    C      -16.49289        -7.39890        -1.80384
| 60>    C      -16.80427        -6.10923        -1.35291
| 61>    C      -18.11100        -5.78492        -1.06620
| 62>    S      -18.45559        -4.14904        -0.50146
| 63>    C      -19.14294        -6.72659        -1.22812
| 64>    C      -18.86933        -7.97724        -1.70883
| 65>    C      -17.94163       -10.60855        -2.95948
| 66>    C      -17.61902       -11.88312        -3.37821
| 67>    C      -18.45101       -12.67886        -4.26116
| 68>    C      -19.77000       -12.46967        -4.58280
| 69>    C      -20.58540       -11.44559        -4.06255
| 70>    N      -21.30741       -10.63790        -3.67759
| 71>    C      -20.51012       -13.28821        -5.45989
| 72>    N      -21.17398       -13.90852        -6.16225
| 73>    C      -17.61122       -13.75771        -4.77178
| 74>    C      -16.35853       -13.70644        -4.12021
| 75>    C      -15.35887       -14.60981        -4.43520
| 76>    C      -15.61489       -15.56683        -5.40673
| 77>    C      -16.84669       -15.62589        -6.04104
| 78>    C      -17.85679       -14.72615        -5.73099
| 79>    C      -16.40158       -12.63286        -3.13797
| 80>    C      -15.61091       -12.54827        -2.01861
| 81>    C      -14.47511       -13.34899        -1.79431
| 82>    N      -13.52723       -13.95716        -1.57015
| 83>    C      -15.91335       -11.71674        -0.92205
| 84>    N      -16.16213       -11.08749         0.00605
| 85>    H        2.21423        -3.74277         0.03782
| 86>    H        3.17204        -2.57511         1.96962
| 87>    H        1.74636        -1.83454         3.82897
| 88>    H       -0.67386        -2.26985         3.80447
| 89>    H       -2.95799        -5.16991        -1.33058
| 90>    H       -3.16789        -1.76592         0.71480
| 91>    H       -5.00407         1.26004         2.52348
| 92>    H       -6.83794         0.10345         1.84344
| 93>    H       -8.11707        -1.67310         0.77192
| 94>    H       -7.98282        -5.85217        -2.02792
| 95>    H      -10.97664        -7.13218        -2.57910
| 96>    H      -12.47647        -4.44467         0.32506
| 97>    H       -9.49802        -3.17617         0.87802
| 98>    H      -14.21741        -5.85745        -0.62724
| 99>    H      -13.16163        -7.97720        -2.56374
|100>    H      -16.04399        -5.35310        -1.25793
|101>    H      -19.77125        -4.30858        -0.37925
|102>    H      -20.15959        -6.45263        -0.98820
|103>    H      -19.67201        -8.68313        -1.85167
|104>    H      -18.98280       -10.32866        -3.04094
|105>    H      -14.39677       -14.56900        -3.95044
|106>    H      -14.84283       -16.27346        -5.67047
|107>    H      -17.02585       -16.38115        -6.79098
|108>    H      -18.80663       -14.78757        -6.23601
|109> *
|110>
|111>                          ****END OF INPUT****

CARTESIAN COORDINATES (ANGSTROEM)
---------------------------------
  C      1.572820   -3.430810    0.845230
  C      2.110910   -2.770470    1.941060
  C      1.307470   -2.355740    2.991940
  C     -0.058150   -2.601350    2.984280
  C     -0.604430   -3.261530    1.897520
  C      0.209200   -3.670850    0.817900
  C     -0.636060   -4.295040   -0.195220
  C     -0.194370   -4.824170   -1.383580
  C      1.161080   -4.889330   -1.766090
  N      2.241330   -4.980980   -2.145100
  C     -1.003870   -5.387330   -2.389830
  N     -1.593180   -5.850300   -3.261410
  C     -2.005060   -4.184370    0.269110
  C     -1.971450   -3.682920    1.625190
  C     -2.968270   -3.785820    2.568730
  C     -4.169070   -4.495240    2.389400
  N     -5.142940   -5.102410    2.327550
  C     -2.883910   -3.259540    3.871590
  N     -2.904860   -2.821520    4.933370
  C     -3.115420   -4.491620   -0.501670
  C     -4.420450   -4.027300   -0.369270
  S     -5.705860   -4.963880   -1.080960
  C     -6.949700   -3.954400   -0.424330
  C     -6.385840   -2.842510    0.237040
  C     -4.960250   -2.875980    0.252650
  C     -4.242930   -1.801570    0.786080
  C     -4.919410   -0.754660    1.373700
  S     -3.971270    0.555260    2.063310
  C     -6.325430   -0.733960    1.393510
  C     -7.043910   -1.741940    0.811810
  C     -8.296850   -4.349150   -0.568490
  N     -8.639760   -5.363680   -1.443260
  C     -9.974350   -5.585220   -1.355960
  C    -11.017650   -6.357770   -1.841300
  C    -12.171220   -5.925290   -1.162280
  N    -11.830380   -4.907350   -0.291280
  C    -10.496080   -4.682900   -0.386180
  C     -9.453380   -3.911150    0.102650
  C    -13.506510   -6.368670   -1.258760
  C    -13.918150   -7.416500   -2.030840
  C    -15.223770   -7.923280   -2.150880
  S    -15.387910   -9.519370   -2.806190
  C    -17.108290   -9.566770   -2.555410
  C    -17.547420   -8.330290   -2.024200
  C    -16.492890   -7.398900   -1.803840
  C    -16.804270   -6.109230   -1.352910
  C    -18.111000   -5.784920   -1.066200
  S    -18.455590   -4.149040   -0.501460
  C    -19.142940   -6.726590   -1.228120
  C    -18.869330   -7.977240   -1.708830
  C    -17.941630  -10.608550   -2.959480
  C    -17.619020  -11.883120   -3.378210
  C    -18.451010  -12.678860   -4.261160
  C    -19.770000  -12.469670   -4.582800
  C    -20.585400  -11.445590   -4.062550
  N    -21.307410  -10.637900   -3.677590
  C    -20.510120  -13.288210   -5.459890
  N    -21.173980  -13.908520   -6.162250
  C    -17.611220  -13.757710   -4.771780
  C    -16.358530  -13.706440   -4.120210
  C    -15.358870  -14.609810   -4.435200
  C    -15.614890  -15.566830   -5.406730
  C    -16.846690  -15.625890   -6.041040
  C    -17.856790  -14.726150   -5.730990
  C    -16.401580  -12.632860   -3.137970
  C    -15.610910  -12.548270   -2.018610
  C    -14.475110  -13.348990   -1.794310
  N    -13.527230  -13.957160   -1.570150
  C    -15.913350  -11.716740   -0.922050
  N    -16.162130  -11.087490    0.006050
  H      2.214230   -3.742770    0.037820
  H      3.172040   -2.575110    1.969620
  H      1.746360   -1.834540    3.828970
  H     -0.673860   -2.269850    3.804470
  H     -2.957990   -5.169910   -1.330580
  H     -3.167890   -1.765920    0.714800
  H     -5.004070    1.260040    2.523480
  H     -6.837940    0.103450    1.843440
  H     -8.117070   -1.673100    0.771920
  H     -7.982820   -5.852170   -2.027920
  H    -10.976640   -7.132180   -2.579100
  H    -12.476470   -4.444670    0.325060
  H     -9.498020   -3.176170    0.878020
  H    -14.217410   -5.857450   -0.627240
  H    -13.161630   -7.977200   -2.563740
  H    -16.043990   -5.353100   -1.257930
  H    -19.771250   -4.308580   -0.379250
  H    -20.159590   -6.452630   -0.988200
  H    -19.672010   -8.683130   -1.851670
  H    -18.982800  -10.328660   -3.040940
  H    -14.396770  -14.569000   -3.950440
  H    -14.842830  -16.273460   -5.670470
  H    -17.025850  -16.381150   -6.790980
  H    -18.806630  -14.787570   -6.236010

 Total Charge           Charge          ....    0
 Multiplicity           Mult            ....    1
 Number of Electrons    NEL             ....  494
 Basis Dimension        Dim             .... 1116

ORBITAL ENERGIES
----------------

  NO   OCC          E(Eh)            E(eV)
   0   2.0000     -88.989002     -2421.5138
   1   2.0000     -88.988776     -2421.5077
   2   2.0000     -88.950595     -2420.4687
   3   2.0000     -88.947035     -2420.3719
   4   2.0000     -14.489293      -394.2737
   5   2.0000     -14.488629      -394.2556
   6   2.0000     -14.419927      -392.3862
   7   2.0000     -14.416042      -392.2804
   8   2.0000     -14.415003      -392.2522
   9   2.0000     -14.413512      -392.2116
  10   2.0000     -14.412622      -392.1874
  11   2.0000     -14.410049      -392.1174
  12   2.0000     -14.408679      -392.0801
  13   2.0000     -14.408471      -392.0744
  14   2.0000     -10.352223      -281.6983
  15   2.0000     -10.346269      -281.5363
  16   2.0000     -10.345232      -281.5081
  17   2.0000     -10.343657      -281.4652
  18   2.0000     -10.342152      -281.4243
  19   2.0000     -10.341027      -281.3937
  20   2.0000     -10.340942      -281.3913
  21   2.0000     -10.340872      -281.3894
  22   2.0000     -10.336702      -281.2760
  23   2.0000     -10.336019      -281.2574
  24   2.0000     -10.334787      -281.2238
  25   2.0000     -10.332746      -281.1683
  26   2.0000     -10.331853      -281.1440
  27   2.0000     -10.329532      -281.0809
  28   2.0000     -10.327674      -281.0303
  29   2.0000     -10.326291      -280.9927
  30   2.0000     -10.324880      -280.9543
  31   2.0000     -10.323824      -280.9255
  32   2.0000     -10.323284      -280.9108
  33   2.0000     -10.322924      -280.9010
  34   2.0000     -10.319828      -280.8168
  35   2.0000     -10.319446      -280.8064
  36   2.0000     -10.318877      -280.7909
  37   2.0000     -10.317265      -280.7470
  38   2.0000     -10.317015      -280.7402
  39   2.0000     -10.316241      -280.7192
  40   2.0000     -10.313496      -280.6445
  41   2.0000     -10.313296      -280.6391
  42   2.0000     -10.312413      -280.6150
  43   2.0000     -10.312365      -280.6137
  44   2.0000     -10.312235      -280.6102
  45   2.0000     -10.310960      -280.5755
  46   2.0000     -10.310076      -280.5514
  47   2.0000     -10.308668      -280.5131
  48   2.0000     -10.308120      -280.4982
  49   2.0000     -10.307117      -280.4709
  50   2.0000     -10.306914      -280.4654
  51   2.0000     -10.306592      -280.4566
  52   2.0000     -10.302964      -280.3579
  53   2.0000     -10.302897      -280.3561
  54   2.0000     -10.301751      -280.3249
  55   2.0000     -10.301274      -280.3119
  56   2.0000     -10.300603      -280.2937
  57   2.0000     -10.300265      -280.2845
  58   2.0000     -10.299773      -280.2711
  59   2.0000     -10.298853      -280.2460
  60   2.0000     -10.296259      -280.1754
  61   2.0000     -10.295882      -280.1652
  62   2.0000     -10.295371      -280.1513
  63   2.0000     -10.294855      -280.1372
  64   2.0000     -10.294752      -280.1345
  65   2.0000     -10.293847      -280.1098
  66   2.0000     -10.290017      -280.0056
  67   2.0000     -10.289757      -279.9985
  68   2.0000     -10.289314      -279.9865
  69   2.0000     -10.288250      -279.9575
  70   2.0000      -8.084535      -219.9914
  71   2.0000      -8.083518      -219.9637
  72   2.0000      -8.046261      -218.9499
  73   2.0000      -8.042737      -218.8540
  74   2.0000      -6.053693      -164.7294
  75   2.0000      -6.052571      -164.6988
  76   2.0000      -6.049556      -164.6168
  77   2.0000      -6.048421      -164.5859
  78   2.0000      -6.046881      -164.5440
  79   2.0000      -6.046154      -164.5242
  80   2.0000      -6.016565      -163.7191
  81   2.0000      -6.013125      -163.6254
  82   2.0000      -6.012311      -163.6033
  83   2.0000      -6.008920      -163.5110
  84   2.0000      -6.006431      -163.4433
  85   2.0000      -6.002769      -163.3436
  86   2.0000      -1.123400       -30.5693
  87   2.0000      -1.087320       -29.5875
  88   2.0000      -1.032555       -28.0972
  89   2.0000      -1.028202       -27.9788
  90   2.0000      -1.021328       -27.7917
  91   2.0000      -1.018456       -27.7136
  92   2.0000      -1.013129       -27.5686
  93   2.0000      -1.007452       -27.4142
  94   2.0000      -1.002786       -27.2872
  95   2.0000      -0.997226       -27.1359
  96   2.0000      -0.994124       -27.0515
  97   2.0000      -0.993896       -27.0453
  98   2.0000      -0.989416       -26.9234
  99   2.0000      -0.987670       -26.8759
 100   2.0000      -0.968929       -26.3659
 101   2.0000      -0.967883       -26.3374
 102   2.0000      -0.954727       -25.9794
 103   2.0000      -0.949048       -25.8249
 104   2.0000      -0.937778       -25.5182
 105   2.0000      -0.933977       -25.4148
 106   2.0000      -0.928167       -25.2567
 107   2.0000      -0.919959       -25.0334
 108   2.0000      -0.909037       -24.7361
 109   2.0000      -0.902012       -24.5450
 110   2.0000      -0.894203       -24.3325
 111   2.0000      -0.890981       -24.2448
 112   2.0000      -0.888230       -24.1700
 113   2.0000      -0.885427       -24.0937
 114   2.0000      -0.882934       -24.0258
 115   2.0000      -0.866857       -23.5884
 116   2.0000      -0.863752       -23.5039
 117   2.0000      -0.860921       -23.4268
 118   2.0000      -0.855244       -23.2724
 119   2.0000      -0.849345       -23.1119
 120   2.0000      -0.835454       -22.7339
 121   2.0000      -0.819752       -22.3066
 122   2.0000      -0.810966       -22.0675
 123   2.0000      -0.805536       -21.9198
 124   2.0000      -0.792369       -21.5614
 125   2.0000      -0.785585       -21.3769
 126   2.0000      -0.780590       -21.2409
 127   2.0000      -0.763169       -20.7669
 128   2.0000      -0.748990       -20.3811
 129   2.0000      -0.731845       -19.9145
 130   2.0000      -0.727500       -19.7963
 131   2.0000      -0.723373       -19.6840
 132   2.0000      -0.720742       -19.6124
 133   2.0000      -0.713529       -19.4161
 134   2.0000      -0.710985       -19.3469
 135   2.0000      -0.708387       -19.2762
 136   2.0000      -0.706817       -19.2335
 137   2.0000      -0.702228       -19.1086
 138   2.0000      -0.699531       -19.0352
 139   2.0000      -0.697430       -18.9780
 140   2.0000      -0.680077       -18.5058
 141   2.0000      -0.669942       -18.2301
 142   2.0000      -0.662825       -18.0364
 143   2.0000      -0.660333       -17.9686
 144   2.0000      -0.658249       -17.9119
 145   2.0000      -0.654907       -17.8209
 146   2.0000      -0.652771       -17.7628
 147   2.0000      -0.648747       -17.6533
 148   2.0000      -0.646775       -17.5996
 149   2.0000      -0.627766       -17.0824
 150   2.0000      -0.624979       -17.0065
 151   2.0000      -0.612080       -16.6555
 152   2.0000      -0.603310       -16.4169
 153   2.0000      -0.597961       -16.2714
 154   2.0000      -0.592411       -16.1203
 155   2.0000      -0.588168       -16.0049
 156   2.0000      -0.579890       -15.7796
 157   2.0000      -0.579499       -15.7690
 158   2.0000      -0.576259       -15.6808
 159   2.0000      -0.573777       -15.6133
 160   2.0000      -0.570234       -15.5168
 161   2.0000      -0.568044       -15.4573
 162   2.0000      -0.565689       -15.3932
 163   2.0000      -0.561128       -15.2691
 164   2.0000      -0.550918       -14.9912
 165   2.0000      -0.547768       -14.9055
 166   2.0000      -0.544200       -14.8084
 167   2.0000      -0.541176       -14.7261
 168   2.0000      -0.539248       -14.6737
 169   2.0000      -0.538971       -14.6661
 170   2.0000      -0.536229       -14.5915
 171   2.0000      -0.533993       -14.5307
 172   2.0000      -0.532788       -14.4979
 173   2.0000      -0.531954       -14.4752
 174   2.0000      -0.529455       -14.4072
 175   2.0000      -0.527104       -14.3432
 176   2.0000      -0.526374       -14.3234
 177   2.0000      -0.523856       -14.2549
 178   2.0000      -0.522244       -14.2110
 179   2.0000      -0.513219       -13.9654
 180   2.0000      -0.508038       -13.8244
 181   2.0000      -0.506019       -13.7695
 182   2.0000      -0.503675       -13.7057
 183   2.0000      -0.501317       -13.6415
 184   2.0000      -0.496635       -13.5141
 185   2.0000      -0.493239       -13.4217
 186   2.0000      -0.490748       -13.3539
 187   2.0000      -0.487897       -13.2763
 188   2.0000      -0.480479       -13.0745
 189   2.0000      -0.476219       -12.9586
 190   2.0000      -0.474540       -12.9129
 191   2.0000      -0.472883       -12.8678
 192   2.0000      -0.472368       -12.8538
 193   2.0000      -0.467229       -12.7139
 194   2.0000      -0.466438       -12.6924
 195   2.0000      -0.459187       -12.4951
 196   2.0000      -0.458019       -12.4633
 197   2.0000      -0.455830       -12.4038
 198   2.0000      -0.452633       -12.3168
 199   2.0000      -0.451614       -12.2890
 200   2.0000      -0.450309       -12.2535
 201   2.0000      -0.448416       -12.2020
 202   2.0000      -0.448160       -12.1950
 203   2.0000      -0.446778       -12.1574
 204   2.0000      -0.446413       -12.1475
 205   2.0000      -0.444902       -12.1064
 206   2.0000      -0.444504       -12.0956
 207   2.0000      -0.444295       -12.0899
 208   2.0000      -0.442163       -12.0319
 209   2.0000      -0.441360       -12.0100
 210   2.0000      -0.438515       -11.9326
 211   2.0000      -0.437527       -11.9057
 212   2.0000      -0.432732       -11.7752
 213   2.0000      -0.429984       -11.7004
 214   2.0000      -0.428070       -11.6484
 215   2.0000      -0.427114       -11.6224
 216   2.0000      -0.425906       -11.5895
 217   2.0000      -0.424143       -11.5415
 218   2.0000      -0.422995       -11.5103
 219   2.0000      -0.422327       -11.4921
 220   2.0000      -0.421771       -11.4770
 221   2.0000      -0.420747       -11.4491
 222   2.0000      -0.416359       -11.3297
 223   2.0000      -0.412133       -11.2147
 224   2.0000      -0.410563       -11.1720
 225   2.0000      -0.406869       -11.0715
 226   2.0000      -0.404417       -11.0048
 227   2.0000      -0.401613       -10.9284
 228   2.0000      -0.395805       -10.7704
 229   2.0000      -0.390346       -10.6219
 230   2.0000      -0.379998       -10.3403
 231   2.0000      -0.377097       -10.2613
 232   2.0000      -0.374064       -10.1788
 233   2.0000      -0.372303       -10.1309
 234   2.0000      -0.356762        -9.7080
 235   2.0000      -0.345882        -9.4119
 236   2.0000      -0.343966        -9.3598
 237   2.0000      -0.329129        -8.9560
 238   2.0000      -0.323929        -8.8146
 239   2.0000      -0.322206        -8.7677
 240   2.0000      -0.319625        -8.6974
 241   2.0000      -0.312876        -8.5138
 242   2.0000      -0.300224        -8.1695
 243   2.0000      -0.294182        -8.0051
 244   2.0000      -0.291745        -7.9388
 245   2.0000      -0.262072        -7.1313
 246   2.0000      -0.234052        -6.3689
 247   0.0000      -0.123859        -3.3704
 248   0.0000      -0.096943        -2.6380
 249   0.0000      -0.083356        -2.2682
 250   0.0000      -0.079723        -2.1694
 251   0.0000      -0.049762        -1.3541

MULLIKEN ATOMIC CHARGES
-----------------------
   0 C :   -0.041040
   1 C :    0.044753
   2 C :    0.047797
   3 C :   -0.039886
   4 C :    0.004263
   5 C :    0.013085
   6 C :    0.316420
   7 C :   -0.367651
   8 C :   -0.187454
   9 N :    0.147629
  10 C :   -0.184458
  11 N :    0.144730
  12 C :   -0.099408
  13 C :    0.211002
  14 C :   -0.345522
  15 C :   -0.193636
  16 N :    0.162136
  17 C :   -0.189872
  18 N :    0.149654
  19 C :    0.070588
  20 C :   -0.171758
  21 S :    0.168266
  22 C :   -0.056187
  23 C :    0.121367
  24 C :    0.083894
  25 C :    0.004823
  26 C :   -0.061329
  27 S :    0.065132
  28 C :    0.030607
  29 C :   -0.036500
  30 C :    0.087061
  31 N :   -0.050444
  32 C :    0.133408
  33 C :   -0.159738
  34 C :    0.100825
  35 N :   -0.031606
  36 C :    0.118034
  37 C :   -0.155320
  38 C :    0.010894
  39 C :    0.027511
  40 C :   -0.083039
  41 S :    0.185109
  42 C :   -0.120105
  43 C :    0.139671
  44 C :    0.117520
  45 C :   -0.047700
  46 C :   -0.050846
  47 S :    0.031081
  48 C :    0.028813
  49 C :   -0.030360
  50 C :    0.007907
  51 C :   -0.073946
  52 C :    0.300930
  53 C :   -0.354836
  54 C :   -0.176894
  55 N :    0.133482
  56 C :   -0.187077
  57 N :    0.152862
  58 C :    0.009634
  59 C :    0.003619
  60 C :   -0.032596
  61 C :    0.045578
  62 C :    0.043784
  63 C :   -0.032472
  64 C :    0.213407
  65 C :   -0.332181
  66 C :   -0.177986
  67 N :    0.153761
  68 C :   -0.214108
  69 N :    0.176687
  70 H :    0.002446
  71 H :   -0.000518
  72 H :   -0.001219
  73 H :    0.001586
  74 H :    0.013426
  75 H :   -0.008445
  76 H :    0.062805
  77 H :   -0.020934
  78 H :   -0.026573
  79 H :    0.137451
  80 H :   -0.016611
  81 H :    0.130503
  82 H :   -0.016880
  83 H :   -0.012980
  84 H :   -0.007268
  85 H :   -0.034633
  86 H :    0.063263
  87 H :   -0.010162
  88 H :    0.007905
  89 H :    0.003832
  90 H :    0.003109
  91 H :    0.002352
  92 H :    0.002237
  93 H :    0.003538
Sum of atomic charges:   -0.0000000

LOEWDIN ATOMIC CHARGES
----------------------
   0 C :    0.002308
   1 C :   -0.004546
   2 C :   -0.000326
   3 C :   -0.003377
   4 C :   -0.011775
   5 C :   -0.015413
   6 C :    0.078847
   7 C :   -0.146795
   8 C :   -0.019110
   9 N :   -0.057766
  10 C :   -0.020871
  11 N :   -0.060300
  12 C :   -0.089630
  13 C :    0.055360
  14 C :   -0.145381
  15 C :   -0.012362
  16 N :   -0.064889
  17 C :   -0.020626
  18 N :   -0.061019
  19 C :    0.023638
  20 C :   -0.191206
  21 S :    0.486542
  22 C :   -0.117978
  23 C :   -0.049532
  24 C :   -0.013018
  25 C :   -0.045174
  26 C :   -0.125954
  27 S :    0.258749
  28 C :   -0.045729
  29 C :    0.009575
  30 C :   -0.011399
  31 N :    0.070501
  32 C :    0.002014
  33 C :   -0.078105
  34 C :    0.010206
  35 N :    0.075491
  36 C :   -0.010286
  37 C :   -0.067823
  38 C :   -0.009468
  39 C :   -0.047007
  40 C :   -0.121987
  41 S :    0.516127
  42 C :   -0.190235
  43 C :   -0.010253
  44 C :   -0.042797
  45 C :   -0.045705
  46 C :   -0.145115
  47 S :    0.229490
  48 C :   -0.022171
  49 C :    0.001783
  50 C :    0.035361
  51 C :   -0.081934
  52 C :    0.080212
  53 C :   -0.147762
  54 C :   -0.016724
  55 N :   -0.062708
  56 C :   -0.020149
  57 N :   -0.055535
  58 C :   -0.013470
  59 C :   -0.010126
  60 C :   -0.001267
  61 C :    0.001270
  62 C :   -0.001582
  63 C :    0.003662
  64 C :    0.059244
  65 C :   -0.149523
  66 C :   -0.021410
  67 N :   -0.053285
  68 C :   -0.037732
  69 N :   -0.050703
  70 H :    0.040348
  71 H :    0.035517
  72 H :    0.035320
  73 H :    0.039861
  74 H :    0.043024
  75 H :    0.033156
  76 H :   -0.021113
  77 H :    0.029216
  78 H :    0.031293
  79 H :    0.085952
  80 H :    0.030049
  81 H :    0.094302
  82 H :    0.029812
  83 H :    0.032086
  84 H :    0.032829
  85 H :    0.023192
  86 H :   -0.021736
  87 H :    0.033049
  88 H :    0.041130
  89 H :    0.047344
  90 H :    0.039893
  91 H :    0.036573
  92 H :    0.036616
  93 H :    0.040949

  Mayer bond orders larger than 0.100000
B(  0-C ,  1-C ) :   1.3601 B(  0-C ,  5-C ) :   1.3881 B(  0-C , 70-H ) :   0.9827
B(  1-C ,  2-C ) :   1.3872 B(  1-C , 71-H ) :   0.9860 B(  2-C ,  3-C ) :   1.3532
B(  2-C , 72-H ) :   0.9859 B(  3-C ,  4-C ) :   1.3939 B(  3-C , 73-H ) :   0.9858
B(  4-C ,  5-C ) :   1.3149 B(  4-C , 13-C ) :   1.0005 B(  5-C ,  6-C ) :   0.9820
B(  6-C ,  7-C ) :   1.5932 B(  6-C , 12-C ) :   1.1122 B(  7-C ,  8-C ) :   1.1540
B(  7-C , 10-C ) :   1.1446 B(  8-C ,  9-N ) :   2.9693 B( 10-C , 11-N ) :   2.9590
B( 12-C , 13-C ) :   1.0890 B( 12-C , 19-C ) :   1.4381 B( 13-C , 14-C ) :   1.5878
B( 14-C , 15-C ) :   1.1779 B( 14-C , 17-C ) :   1.1452 B( 15-C , 16-N ) :   2.9968
B( 17-C , 18-N ) :   2.9799 B( 19-C , 20-C ) :   1.3425 B( 19-C , 74-H ) :   0.9076
B( 20-C , 21-S ) :   1.0866 B( 20-C , 24-C ) :   1.2199 B( 21-S , 22-C ) :   1.1848
B( 22-C , 23-C ) :   1.3077 B( 22-C , 30-C ) :   1.1454 B( 23-C , 24-C ) :   1.2424
B( 23-C , 29-C ) :   1.2201 B( 24-C , 25-C ) :   1.3368 B( 25-C , 26-C ) :   1.4396
B( 25-C , 75-H ) :   0.9687 B( 26-C , 27-S ) :   1.0746 B( 26-C , 28-C ) :   1.2515
B( 27-S , 76-H ) :   0.9545 B( 28-C , 29-C ) :   1.5229 B( 28-C , 77-H ) :   0.9805
B( 29-C , 78-H ) :   0.9889 B( 30-C , 31-N ) :   1.1883 B( 30-C , 37-C ) :   1.3587
B( 31-N , 32-C ) :   1.1776 B( 31-N , 79-H ) :   0.9262 B( 32-C , 33-C ) :   1.2913
B( 32-C , 36-C ) :   1.2744 B( 33-C , 34-C ) :   1.3615 B( 33-C , 80-H ) :   1.0313
B( 34-C , 35-N ) :   1.1700 B( 34-C , 38-C ) :   1.1596 B( 35-N , 36-C ) :   1.1716
B( 35-N , 81-H ) :   0.9335 B( 36-C , 37-C ) :   1.2942 B( 37-C , 82-H ) :   1.0264
B( 38-C , 39-C ) :   1.5981 B( 38-C , 83-H ) :   0.9587 B( 39-C , 40-C ) :   1.2085
B( 39-C , 84-H ) :   0.9492 B( 40-C , 41-S ) :   1.1924 B( 40-C , 44-C ) :   1.2432
B( 41-S , 42-C ) :   1.0977 B( 42-C , 43-C ) :   1.2250 B( 42-C , 50-C ) :   1.3194
B( 43-C , 44-C ) :   1.2526 B( 43-C , 49-C ) :   1.2406 B( 44-C , 45-C ) :   1.2601
B( 45-C , 46-C ) :   1.4792 B( 45-C , 85-H ) :   0.9801 B( 46-C , 47-S ) :   1.0462
B( 46-C , 48-C ) :   1.2457 B( 47-S , 86-H ) :   0.9565 B( 48-C , 49-C ) :   1.5396
B( 48-C , 87-H ) :   0.9799 B( 49-C , 88-H ) :   0.9850 B( 50-C , 51-C ) :   1.4761
B( 50-C , 89-H ) :   0.9236 B( 51-C , 52-C ) :   1.1023 B( 51-C , 64-C ) :   1.0485
B( 52-C , 53-C ) :   1.6024 B( 52-C , 58-C ) :   0.9914 B( 53-C , 54-C ) :   1.1461
B( 53-C , 56-C ) :   1.1498 B( 54-C , 55-N ) :   2.9657 B( 56-C , 57-N ) :   2.9735
B( 58-C , 59-C ) :   1.3149 B( 58-C , 63-C ) :   1.3900 B( 59-C , 60-C ) :   1.3914
B( 59-C , 64-C ) :   1.0087 B( 60-C , 61-C ) :   1.3568 B( 60-C , 90-H ) :   0.9867
B( 61-C , 62-C ) :   1.3845 B( 61-C , 91-H ) :   0.9865 B( 62-C , 63-C ) :   1.3634
B( 62-C , 92-H ) :   0.9864 B( 63-C , 93-H ) :   0.9835 B( 64-C , 65-C ) :   1.6185
B( 65-C , 66-C ) :   1.1435 B( 65-C , 68-C ) :   1.1558 B( 66-C , 67-N ) :   2.9909
B( 68-C , 69-N ) :   3.0246

-----------------------------------------------------------------------------
         ABSORPTION SPECTRUM VIA TRANSITION ELECTRIC DIPOLE MOMENTS
-----------------------------------------------------------------------------
State   Energy  Wavelength   fosc         T2         TX        TY        TZ
        (cm-1)    (nm)                  (au**2)     (au)      (au)      (au)
-----------------------------------------------------------------------------
   0   10045.6    995.5   1.645560684  53.92814  -6.28389  -3.46635  -1.55732
   1   15310.0    653.2   0.413025462   8.88130  -2.19010   2.00792  -0.23024
   2   18251.4    547.9   0.005723803   0.10324  -0.07122  -0.28526  -0.12962
   3   18903.9    529.0   0.179998672   3.13467   1.66141   0.43627   0.42901
   4   19142.7    522.4   0.138172561   2.37627   0.71677  -0.43115  -1.29484
   5   21721.2    460.4   0.241686921   3.66307   1.34858   1.25231   0.52546
   6   23101.4    432.9   0.046134015   0.65744  -0.22004   0.77643   0.07862
   7   23446.3    426.5   0.067837791   0.95252  -0.89774   0.34400   0.16808
   8   24412.9    409.6   0.039358067   0.53075   0.33214  -0.53330  -0.36882
   9   26193.9    381.8   0.255215464   3.20762  -0.74528   1.45482   0.73189
  10   26618.6    375.7   0.022348180   0.27640  -0.45846  -0.17361   0.18993
  11   27521.1    363.4   0.053526380   0.64029  -0.68589   0.26670  -0.31418
  12   27572.5    362.7   0.156314271   1.86637   0.23175  -1.25876  -0.47769
  13   27698.2    361.0   0.088788347   1.05531   0.91233  -0.08152   0.46510
  14   27997.6    357.2   0.001946190   0.02288   0.01509  -0.03425   0.14657
  15   28457.4    351.4   0.274946892   3.18075  -0.16029   1.23813   1.27362
  16   28965.6    345.2   0.232343554   2.64073   1.30632  -0.03034  -0.96609
  17   29575.2    338.1   0.001403444   0.01562  -0.03292   0.11424  -0.03857
  18   30305.0    330.0   0.014354860   0.15594  -0.26990   0.21290   0.19434
  19   30563.1    327.2   0.177249829   1.90926  -1.04254  -0.10082   0.90123
  20   31243.6    320.1   0.084067984   0.88582  -0.34026  -0.28705  -0.82924
  21   31510.2    317.4   0.057161501   0.59721   0.72258  -0.25250   0.10647
  22   31977.6    312.7   0.472278493   4.86214   1.80344  -0.05283   1.26766
  23   32250.0    310.1   0.139246378   1.42144   1.11304   0.38112   0.19322
  24   32478.2    307.9   0.061367114   0.62204   0.44938   0.00673   0.64812
  25   32808.5    304.8   0.067843246   0.68076   0.48809  -0.37668  -0.54831
  26   33238.3    300.9   0.043185198   0.42773   0.17862   0.14563  -0.61206
  27   33378.0    299.6   0.241169244   2.37869   0.38740  -0.84542  -1.23040
  28   33644.2    297.2   0.070716801   0.69197  -0.72457   0.37075   0.17177
  29   33804.3    295.8   0.036966967   0.36001  -0.10226  -0.51615  -0.28834
  30   34036.2    293.8   0.059017583   0.57084  -0.74741   0.10679   0.02860
  31   34307.8    291.5   0.105568210   1.01302   0.00288   0.74086   0.68127
  32   35387.7    282.6   0.195398861   1.81780  -1.16502  -0.34513  -0.58429
  33   35517.5    281.6   0.020119152   0.18648   0.23167   0.20610   0.30056
  34   35851.3    278.9   0.038866094   0.35690   0.56496  -0.05483   0.18632
  35   36078.7    277.2   0.009182967   0.08379   0.06027   0.11328   0.25948
  36   36545.5    273.6   0.041966229   0.37804   0.11515  -0.58260  -0.15925
  37   36958.7    270.6   0.154831397   1.37917  -1.06930   0.38652   0.29386
  38   37735.5    265.0   0.184736925   1.61168  -0.17151  -1.04329  -0.70272
  39   38173.8    262.0   0.033370590   0.28779  -0.16183  -0.48063  -0.17492
  40   38921.6    256.9   0.034276576   0.28992  -0.44232   0.30378  -0.04466
  41   38973.2    256.6   0.086030185   0.72671  -0.61017   0.50959   0.30777
  42   39076.2    255.9   0.013945592   0.11749   0.19156  -0.26303   0.10774
  43   39135.5    255.5   0.032618353   0.27439  -0.38136   0.34357   0.10444
  44   39349.6    254.1   0.018083152   0.15129  -0.10697  -0.34703  -0.13935
  45   39602.3    252.5   0.039085065   0.32491  -0.40871   0.25437   0.30523
  46   39767.1    251.5   0.306620197   2.53836   0.63691  -1.28064  -0.70189
  47   39956.6    250.3   0.061507729   0.50678   0.55867  -0.38549  -0.21462
  48   40047.8    249.7   0.001257067   0.01033  -0.09942   0.01818  -0.01091
  49   40301.1    248.1   0.078120167   0.63815   0.67017   0.35395   0.25246

FINAL SINGLE POINT ENERGY     -4284.547963178973

DIPOLE MOMENT
-------------
                                X             Y             Z
Electronic contribution:      2.07057      -9.36059      -3.09416
Nuclear contribution   :     -3.25452      13.10669       3.03746
                        -----------------------------------------
Total Dipole Moment    :     -1.18395       3.74610      -0.05670
                        -----------------------------------------
Magnitude (a.u.)       :      3.92915
Magnitude (Debye)      :      9.98710

Rotational constants in cm-1:     0.001865     0.000256     0.000234
Rotational constants in MHz :    55.926199     7.676508     7.006852

                             ****ORCA TERMINATED NORMALLY****
TOTAL RUN TIME: 0 days 0 hours 21 minutes 2 seconds 807 msec
