                         Program Version 4.2.0 -  RELEASE  -
|  1> # ORCA input file
|  2> # SCF done       -150.017857899516          0.000653171388
|  3> ! CAM-B3LYP def2-SVP def2/J RIJCOSX Grid4 TightSCF
|  4> %maxcore 5000
|  5> %tddft
|  6>     Mode sTDDFT
|  7>     Ethresh 5.0
|  8>     maxcore 5000
|  9> end
| 10>
| 11> %pal
| 12>   nprocs 6
| 13>   end
| 14> * xyz 0 1
| 15>    C        0.63758         1.45857         0.91398
| 16>    C       -0.07409         1.05767         2.02942
| 17>    C       -0.77364        -0.13410         2.00691
| 18>    F       -1.46933        -0.46063         3.11496
| 19>    C       -0.80390        -0.97357         0.88672
| 20>    C       -0.08425        -0.54712        -0.23466
| 21>    C        0.61447         0.64052        -0.20353
| 22>    F        1.30519         1.01634        -1.29855
| 23>    C       -1.53622        -2.22263         0.85100
| 24>    C       -2.02654        -2.83946        -0.26724
| 25>    C       -2.68635        -4.05321         0.11771
| 26>    C       -2.53419        -4.11933         1.56713
| 27>    C       -1.86369        -3.04488         2.01587
| 28>    F       -3.00181        -5.13044         2.31748
| 29>    C       -3.33308        -4.96225        -0.68586
| 30>    C       -3.99639        -6.15918        -0.30259
| 31>    C       -4.51682        -6.77248        -1.42472
| 32>    C       -4.18070        -5.94481        -2.58940
| 33>    C       -3.48595        -4.88957        -2.14490
| 34>    F       -2.98772        -3.89646        -2.89233
| 35>    C       -5.24757        -7.97582        -1.53072
| 36>    C       -5.55722        -8.78951        -0.48082
| 37>    C       -6.27719        -9.99811        -0.57267
| 38>    N       -6.51185       -10.76981         0.54969
| 39>    C       -7.20785       -11.87550         0.18267
| 40>    C       -7.77566       -13.04990         0.65052
| 41>    C       -8.34118       -13.68443        -0.47023
| 42>    N       -8.12122       -12.90510        -1.59045
| 43>    C       -7.42734       -11.79739        -1.22286
| 44>    C       -6.84805       -10.63039        -1.69309
| 45>    C       -9.03007       -14.91193        -0.56743
| 46>    C       -9.25971       -15.76578         0.47060
| 47>    C       -9.93180       -17.00130         0.37097
| 48>    C      -10.13779       -17.89040         1.40880
| 49>    C      -10.83791       -19.02679         0.92568
| 50>    C      -11.05279       -18.76056        -0.50052
| 51>    C      -10.52476       -17.57641        -0.84102
| 52>    F      -11.68982       -19.60353        -1.32459
| 53>    C      -11.23399       -20.15104         1.61634
| 54>    C      -11.93333       -21.29235         1.12608
| 55>    C      -12.11770       -22.18920         2.15338
| 56>    C      -11.52220       -21.62319         3.36677
| 57>    C      -11.00994       -20.42777         3.03543
| 58>    F      -10.37492       -19.58297         3.86180
| 59>    C      -12.77325       -23.44502         2.03785
| 60>    C      -12.92832       -24.33075         3.04652
| 61>    C      -13.58311       -25.61298         2.95681
| 62>    C      -14.21559       -26.08858         1.80274
| 63>    C      -14.81634       -27.32910         1.80368
| 64>    F      -15.41800       -27.75586         0.67457
| 65>    C      -14.82761       -28.15313         2.91712
| 66>    C      -14.20933       -27.70214         4.06989
| 67>    C      -13.60765       -26.46036         4.07520
| 68>    F      -13.01319       -26.05134         5.21573
| 69>    H        1.19692         2.37951         0.90264
| 70>    H       -0.09605         1.66155         2.92261
| 71>    H       -0.05780        -1.15610        -1.12315
| 72>    H       -1.97589        -2.47453        -1.27356
| 73>    H       -1.59719        -2.82839         3.03072
| 74>    H       -4.07016        -6.50794         0.70766
| 75>    H       -4.45296        -6.17048        -3.60223
| 76>    H       -5.57011        -8.25800        -2.52312
| 77>    H       -5.22573        -8.50588         0.50894
| 78>    H       -6.20185       -10.53241         1.47639
| 79>    H       -7.79510       -13.42041         1.65471
| 80>    H       -8.42507       -13.14447        -2.51850
| 81>    H       -6.82596       -10.26191        -2.69808
| 82>    H       -9.38375       -15.17846        -1.55438
| 83>    H       -8.89909       -15.50209         1.45508
| 84>    H       -9.81686       -17.75160         2.42234
| 85>    H      -10.53408       -17.12732        -1.81431
| 86>    H      -12.25899       -21.42345         0.11281
| 87>    H      -11.50517       -22.08383         4.33426
| 88>    H      -13.15472       -23.67017         1.05105
| 89>    H      -12.52805       -24.08993         4.02064
| 90>    H      -14.24522       -25.49499         0.90387
| 91>    H      -15.30826       -29.11651         2.87457
| 92>    H      -14.18936       -28.30415         4.96397
| 93> *
| 94>
| 95>                          ****END OF INPUT****

CARTESIAN COORDINATES (ANGSTROEM)
---------------------------------
  C      0.637580    1.458570    0.913980
  C     -0.074090    1.057670    2.029420
  C     -0.773640   -0.134100    2.006910
  F     -1.469330   -0.460630    3.114960
  C     -0.803900   -0.973570    0.886720
  C     -0.084250   -0.547120   -0.234660
  C      0.614470    0.640520   -0.203530
  F      1.305190    1.016340   -1.298550
  C     -1.536220   -2.222630    0.851000
  C     -2.026540   -2.839460   -0.267240
  C     -2.686350   -4.053210    0.117710
  C     -2.534190   -4.119330    1.567130
  C     -1.863690   -3.044880    2.015870
  F     -3.001810   -5.130440    2.317480
  C     -3.333080   -4.962250   -0.685860
  C     -3.996390   -6.159180   -0.302590
  C     -4.516820   -6.772480   -1.424720
  C     -4.180700   -5.944810   -2.589400
  C     -3.485950   -4.889570   -2.144900
  F     -2.987720   -3.896460   -2.892330
  C     -5.247570   -7.975820   -1.530720
  C     -5.557220   -8.789510   -0.480820
  C     -6.277190   -9.998110   -0.572670
  N     -6.511850  -10.769810    0.549690
  C     -7.207850  -11.875500    0.182670
  C     -7.775660  -13.049900    0.650520
  C     -8.341180  -13.684430   -0.470230
  N     -8.121220  -12.905100   -1.590450
  C     -7.427340  -11.797390   -1.222860
  C     -6.848050  -10.630390   -1.693090
  C     -9.030070  -14.911930   -0.567430
  C     -9.259710  -15.765780    0.470600
  C     -9.931800  -17.001300    0.370970
  C    -10.137790  -17.890400    1.408800
  C    -10.837910  -19.026790    0.925680
  C    -11.052790  -18.760560   -0.500520
  C    -10.524760  -17.576410   -0.841020
  F    -11.689820  -19.603530   -1.324590
  C    -11.233990  -20.151040    1.616340
  C    -11.933330  -21.292350    1.126080
  C    -12.117700  -22.189200    2.153380
  C    -11.522200  -21.623190    3.366770
  C    -11.009940  -20.427770    3.035430
  F    -10.374920  -19.582970    3.861800
  C    -12.773250  -23.445020    2.037850
  C    -12.928320  -24.330750    3.046520
  C    -13.583110  -25.612980    2.956810
  C    -14.215590  -26.088580    1.802740
  C    -14.816340  -27.329100    1.803680
  F    -15.418000  -27.755860    0.674570
  C    -14.827610  -28.153130    2.917120
  C    -14.209330  -27.702140    4.069890
  C    -13.607650  -26.460360    4.075200
  F    -13.013190  -26.051340    5.215730
  H      1.196920    2.379510    0.902640
  H     -0.096050    1.661550    2.922610
  H     -0.057800   -1.156100   -1.123150
  H     -1.975890   -2.474530   -1.273560
  H     -1.597190   -2.828390    3.030720
  H     -4.070160   -6.507940    0.707660
  H     -4.452960   -6.170480   -3.602230
  H     -5.570110   -8.258000   -2.523120
  H     -5.225730   -8.505880    0.508940
  H     -6.201850  -10.532410    1.476390
  H     -7.795100  -13.420410    1.654710
  H     -8.425070  -13.144470   -2.518500
  H     -6.825960  -10.261910   -2.698080
  H     -9.383750  -15.178460   -1.554380
  H     -8.899090  -15.502090    1.455080
  H     -9.816860  -17.751600    2.422340
  H    -10.534080  -17.127320   -1.814310
  H    -12.258990  -21.423450    0.112810
  H    -11.505170  -22.083830    4.334260
  H    -13.154720  -23.670170    1.051050
  H    -12.528050  -24.089930    4.020640
  H    -14.245220  -25.494990    0.903870
  H    -15.308260  -29.116510    2.874570
  H    -14.189360  -28.304150    4.963970

 Total Charge           Charge          ....    0
 Multiplicity           Mult            ....    1
 Number of Electrons    NEL             ....  374
 Basis Dimension        Dim             ....  876

ORBITAL ENERGIES
----------------

  NO   OCC          E(Eh)            E(eV)
   0   2.0000     -24.786079      -674.4635
   1   2.0000     -24.784490      -674.4203
   2   2.0000     -24.780923      -674.3232
   3   2.0000     -24.779334      -674.2800
   4   2.0000     -24.777191      -674.2217
   5   2.0000     -24.776920      -674.2143
   6   2.0000     -24.772439      -674.0923
   7   2.0000     -24.769696      -674.0177
   8   2.0000     -14.465646      -393.6303
   9   2.0000     -14.465425      -393.6242
  10   2.0000     -10.354960      -281.7728
  11   2.0000     -10.353947      -281.7452
  12   2.0000     -10.353240      -281.7260
  13   2.0000     -10.351944      -281.6907
  14   2.0000     -10.350588      -281.6538
  15   2.0000     -10.349807      -281.6326
  16   2.0000     -10.345974      -281.5283
  17   2.0000     -10.339389      -281.3491
  18   2.0000     -10.314957      -280.6842
  19   2.0000     -10.313976      -280.6576
  20   2.0000     -10.303374      -280.3691
  21   2.0000     -10.302875      -280.3555
  22   2.0000     -10.297578      -280.2114
  23   2.0000     -10.297364      -280.2055
  24   2.0000     -10.294104      -280.1168
  25   2.0000     -10.293773      -280.1078
  26   2.0000     -10.291925      -280.0575
  27   2.0000     -10.291210      -280.0381
  28   2.0000     -10.291109      -280.0353
  29   2.0000     -10.290720      -280.0247
  30   2.0000     -10.284974      -279.8684
  31   2.0000     -10.284725      -279.8616
  32   2.0000     -10.284157      -279.8461
  33   2.0000     -10.283643      -279.8322
  34   2.0000     -10.282234      -279.7938
  35   2.0000     -10.281900      -279.7847
  36   2.0000     -10.280917      -279.7580
  37   2.0000     -10.280387      -279.7435
  38   2.0000     -10.280057      -279.7346
  39   2.0000     -10.279793      -279.7274
  40   2.0000     -10.279681      -279.7244
  41   2.0000     -10.278682      -279.6972
  42   2.0000     -10.278457      -279.6910
  43   2.0000     -10.277318      -279.6600
  44   2.0000     -10.273141      -279.5464
  45   2.0000     -10.272067      -279.5172
  46   2.0000     -10.269914      -279.4586
  47   2.0000     -10.267388      -279.3898
  48   2.0000     -10.264668      -279.3158
  49   2.0000     -10.259824      -279.1840
  50   2.0000     -10.256792      -279.1015
  51   2.0000     -10.255422      -279.0642
  52   2.0000     -10.255406      -279.0638
  53   2.0000     -10.251086      -278.9462
  54   2.0000      -1.297971       -35.3196
  55   2.0000      -1.296605       -35.2824
  56   2.0000      -1.292977       -35.1837
  57   2.0000      -1.292289       -35.1650
  58   2.0000      -1.291306       -35.1382
  59   2.0000      -1.287765       -35.0419
  60   2.0000      -1.286821       -35.0162
  61   2.0000      -1.284167       -34.9440
  62   2.0000      -1.097703       -29.8700
  63   2.0000      -1.061196       -28.8766
  64   2.0000      -0.981302       -26.7026
  65   2.0000      -0.980132       -26.6708
  66   2.0000      -0.967394       -26.3241
  67   2.0000      -0.966924       -26.3113
  68   2.0000      -0.961807       -26.1721
  69   2.0000      -0.951500       -25.8916
  70   2.0000      -0.906531       -24.6680
  71   2.0000      -0.902699       -24.5637
  72   2.0000      -0.897302       -24.4168
  73   2.0000      -0.873434       -23.7674
  74   2.0000      -0.872071       -23.7303
  75   2.0000      -0.866496       -23.5786
  76   2.0000      -0.853825       -23.2338
  77   2.0000      -0.840477       -22.8705
  78   2.0000      -0.836256       -22.7557
  79   2.0000      -0.830595       -22.6016
  80   2.0000      -0.828008       -22.5313
  81   2.0000      -0.815342       -22.1866
  82   2.0000      -0.799182       -21.7468
  83   2.0000      -0.790918       -21.5220
  84   2.0000      -0.787596       -21.4316
  85   2.0000      -0.774509       -21.0755
  86   2.0000      -0.767646       -20.8887
  87   2.0000      -0.746279       -20.3073
  88   2.0000      -0.734874       -19.9969
  89   2.0000      -0.725723       -19.7479
  90   2.0000      -0.716045       -19.4846
  91   2.0000      -0.702052       -19.1038
  92   2.0000      -0.700079       -19.0501
  93   2.0000      -0.697628       -18.9834
  94   2.0000      -0.690144       -18.7798
  95   2.0000      -0.685983       -18.6665
  96   2.0000      -0.675237       -18.3741
  97   2.0000      -0.666704       -18.1419
  98   2.0000      -0.661527       -18.0011
  99   2.0000      -0.658547       -17.9200
 100   2.0000      -0.654419       -17.8076
 101   2.0000      -0.651615       -17.7313
 102   2.0000      -0.649373       -17.6703
 103   2.0000      -0.630070       -17.1451
 104   2.0000      -0.627613       -17.0782
 105   2.0000      -0.625177       -17.0119
 106   2.0000      -0.622261       -16.9326
 107   2.0000      -0.616928       -16.7875
 108   2.0000      -0.615723       -16.7547
 109   2.0000      -0.613150       -16.6847
 110   2.0000      -0.609421       -16.5832
 111   2.0000      -0.607113       -16.5204
 112   2.0000      -0.600102       -16.3296
 113   2.0000      -0.593274       -16.1438
 114   2.0000      -0.592491       -16.1225
 115   2.0000      -0.576569       -15.6892
 116   2.0000      -0.569299       -15.4914
 117   2.0000      -0.561033       -15.2665
 118   2.0000      -0.554840       -15.0980
 119   2.0000      -0.554684       -15.0937
 120   2.0000      -0.554476       -15.0880
 121   2.0000      -0.552607       -15.0372
 122   2.0000      -0.548572       -14.9274
 123   2.0000      -0.546191       -14.8626
 124   2.0000      -0.545038       -14.8312
 125   2.0000      -0.542405       -14.7596
 126   2.0000      -0.542295       -14.7566
 127   2.0000      -0.541877       -14.7452
 128   2.0000      -0.540258       -14.7012
 129   2.0000      -0.539038       -14.6680
 130   2.0000      -0.537246       -14.6192
 131   2.0000      -0.536708       -14.6046
 132   2.0000      -0.532614       -14.4932
 133   2.0000      -0.528776       -14.3887
 134   2.0000      -0.525916       -14.3109
 135   2.0000      -0.525280       -14.2936
 136   2.0000      -0.522476       -14.2173
 137   2.0000      -0.519786       -14.1441
 138   2.0000      -0.513625       -13.9764
 139   2.0000      -0.512165       -13.9367
 140   2.0000      -0.509032       -13.8515
 141   2.0000      -0.506614       -13.7857
 142   2.0000      -0.500766       -13.6265
 143   2.0000      -0.499776       -13.5996
 144   2.0000      -0.495374       -13.4798
 145   2.0000      -0.494885       -13.4665
 146   2.0000      -0.483316       -13.1517
 147   2.0000      -0.478912       -13.0319
 148   2.0000      -0.472804       -12.8656
 149   2.0000      -0.469903       -12.7867
 150   2.0000      -0.467862       -12.7312
 151   2.0000      -0.467327       -12.7166
 152   2.0000      -0.464229       -12.6323
 153   2.0000      -0.463086       -12.6012
 154   2.0000      -0.460975       -12.5438
 155   2.0000      -0.456541       -12.4231
 156   2.0000      -0.454748       -12.3743
 157   2.0000      -0.451549       -12.2873
 158   2.0000      -0.450997       -12.2723
 159   2.0000      -0.450127       -12.2486
 160   2.0000      -0.448454       -12.2031
 161   2.0000      -0.438857       -11.9419
 162   2.0000      -0.437643       -11.9089
 163   2.0000      -0.436617       -11.8809
 164   2.0000      -0.434287       -11.8176
 165   2.0000      -0.430411       -11.7121
 166   2.0000      -0.425294       -11.5728
 167   2.0000      -0.425043       -11.5660
 168   2.0000      -0.422281       -11.4908
 169   2.0000      -0.408623       -11.1192
 170   2.0000      -0.404555       -11.0085
 171   2.0000      -0.397486       -10.8162
 172   2.0000      -0.388981       -10.5847
 173   2.0000      -0.380082       -10.3425
 174   2.0000      -0.353819        -9.6279
 175   2.0000      -0.341479        -9.2921
 176   2.0000      -0.327829        -8.9207
 177   2.0000      -0.313356        -8.5268
 178   2.0000      -0.310065        -8.4373
 179   2.0000      -0.301798        -8.2123
 180   2.0000      -0.298287        -8.1168
 181   2.0000      -0.298168        -8.1136
 182   2.0000      -0.289142        -7.8679
 183   2.0000      -0.272300        -7.4097
 184   2.0000      -0.264747        -7.2041
 185   2.0000      -0.251129        -6.8336
 186   2.0000      -0.213227        -5.8022
 187   0.0000      -0.103845        -2.8258
 188   0.0000      -0.086519        -2.3543
 189   0.0000      -0.023024        -0.6265
 190   0.0000      -0.010258        -0.2791
 191   0.0000       0.011890         0.3235

MULLIKEN ATOMIC CHARGES
-----------------------
   0 C :   -0.046433
   1 C :   -0.038555
   2 C :    0.224415
   3 F :   -0.193127
   4 C :    0.047484
   5 C :   -0.097612
   6 C :    0.305810
   7 F :   -0.200567
   8 C :    0.077125
   9 C :   -0.094558
  10 C :    0.004100
  11 C :    0.244637
  12 C :   -0.078439
  13 F :   -0.186567
  14 C :    0.017441
  15 C :   -0.111090
  16 C :    0.125977
  17 C :   -0.081997
  18 C :    0.257401
  19 F :   -0.177736
  20 C :   -0.025949
  21 C :    0.028260
  22 C :    0.112950
  23 N :   -0.036114
  24 C :    0.127943
  25 C :   -0.174669
  26 C :    0.114464
  27 N :   -0.037926
  28 C :    0.127071
  29 C :   -0.173851
  30 C :    0.008817
  31 C :   -0.015178
  32 C :    0.125618
  33 C :   -0.097570
  34 C :    0.016496
  35 C :    0.254913
  36 C :   -0.086065
  37 F :   -0.178377
  38 C :    0.011252
  39 C :   -0.090638
  40 C :    0.109068
  41 C :   -0.083790
  42 C :    0.249938
  43 F :   -0.181860
  44 C :    0.028222
  45 C :   -0.007392
  46 C :    0.032494
  47 C :   -0.091062
  48 C :    0.301465
  49 F :   -0.200255
  50 C :   -0.050472
  51 C :   -0.035171
  52 C :    0.243845
  53 F :   -0.196317
  54 H :    0.000518
  55 H :    0.000070
  56 H :   -0.008505
  57 H :   -0.016247
  58 H :   -0.014675
  59 H :   -0.024217
  60 H :   -0.021933
  61 H :   -0.027827
  62 H :   -0.024264
  63 H :    0.124854
  64 H :   -0.028998
  65 H :    0.122825
  66 H :   -0.030436
  67 H :   -0.032393
  68 H :   -0.021064
  69 H :   -0.020601
  70 H :   -0.025154
  71 H :   -0.019853
  72 H :   -0.018068
  73 H :   -0.022594
  74 H :   -0.010242
  75 H :   -0.010824
  76 H :    0.001060
  77 H :    0.000698
Sum of atomic charges:   -0.0000000

LOEWDIN ATOMIC CHARGES
----------------------
   0 C :   -0.041054
   1 C :   -0.037623
   2 C :    0.080551
   3 F :   -0.065764
   4 C :   -0.037647
   5 C :   -0.028956
   6 C :    0.077741
   7 F :   -0.074951
   8 C :   -0.005478
   9 C :   -0.053859
  10 C :   -0.010347
  11 C :    0.070383
  12 C :   -0.057186
  13 F :   -0.062288
  14 C :    0.009240
  15 C :   -0.078175
  16 C :    0.004103
  17 C :   -0.058285
  18 C :    0.081745
  19 F :   -0.053368
  20 C :   -0.034145
  21 C :   -0.001563
  22 C :    0.000451
  23 N :    0.071870
  24 C :   -0.011551
  25 C :   -0.086297
  26 C :    0.003752
  27 N :    0.069719
  28 C :   -0.013687
  29 C :   -0.083908
  30 C :   -0.023566
  31 C :   -0.018443
  32 C :    0.000625
  33 C :   -0.066890
  34 C :    0.000126
  35 C :    0.084886
  36 C :   -0.063504
  37 F :   -0.054265
  38 C :   -0.008892
  39 C :   -0.055696
  40 C :   -0.005959
  41 C :   -0.059789
  42 C :    0.079400
  43 F :   -0.057697
  44 C :   -0.006343
  45 C :   -0.014638
  46 C :   -0.044218
  47 C :   -0.033882
  48 C :    0.079053
  49 F :   -0.075372
  50 C :   -0.040707
  51 C :   -0.037712
  52 C :    0.082275
  53 F :   -0.071134
  54 H :    0.039752
  55 H :    0.040632
  56 H :    0.040835
  57 H :    0.020480
  58 H :    0.027705
  59 H :    0.016812
  60 H :    0.028364
  61 H :    0.026829
  62 H :    0.031246
  63 H :    0.091457
  64 H :    0.025990
  65 H :    0.090139
  66 H :    0.025354
  67 H :    0.026421
  68 H :    0.031894
  69 H :    0.021740
  70 H :    0.025515
  71 H :    0.021505
  72 H :    0.028885
  73 H :    0.029416
  74 H :    0.029145
  75 H :    0.037546
  76 H :    0.040089
  77 H :    0.041171

  Mayer bond orders larger than 0.100000
B(  0-C ,  1-C ) :   1.3290 B(  0-C ,  6-C ) :   1.3573 B(  0-C , 54-H ) :   0.9985
B(  1-C ,  2-C ) :   1.3834 B(  1-C , 55-H ) :   0.9891 B(  2-C ,  3-F ) :   1.0992
B(  2-C ,  4-C ) :   1.3188 B(  4-C ,  5-C ) :   1.3165 B(  4-C ,  8-C ) :   1.0054
B(  5-C ,  6-C ) :   1.3561 B(  5-C , 56-H ) :   1.0026 B(  6-C ,  7-F ) :   1.0801
B(  8-C ,  9-C ) :   1.6010 B(  8-C , 12-C ) :   1.0450 B(  9-C , 10-C ) :   1.1033
B(  9-C , 57-H ) :   1.0111 B( 10-C , 11-C ) :   1.0372 B( 10-C , 14-C ) :   1.4536
B( 11-C , 12-C ) :   1.6373 B( 11-C , 13-F ) :   1.1089 B( 12-C , 58-H ) :   1.0192
B( 14-C , 15-C ) :   1.1577 B( 14-C , 18-C ) :   1.0042 B( 15-C , 16-C ) :   1.5059
B( 15-C , 59-H ) :   1.0102 B( 16-C , 17-C ) :   1.0003 B( 16-C , 20-C ) :   1.1515
B( 17-C , 18-C ) :   1.6692 B( 17-C , 60-H ) :   1.0217 B( 18-C , 19-F ) :   1.1208
B( 20-C , 21-C ) :   1.6010 B( 20-C , 61-H ) :   0.9794 B( 21-C , 22-C ) :   1.1404
B( 21-C , 62-H ) :   0.9676 B( 22-C , 23-N ) :   1.1638 B( 22-C , 29-C ) :   1.3635
B( 23-N , 24-C ) :   1.1731 B( 23-N , 63-H ) :   0.9359 B( 24-C , 25-C ) :   1.2762
B( 24-C , 28-C ) :   1.2795 B( 25-C , 26-C ) :   1.3751 B( 25-C , 64-H ) :   1.0344
B( 26-C , 27-N ) :   1.1662 B( 26-C , 30-C ) :   1.1289 B( 27-N , 28-C ) :   1.1677
B( 27-N , 65-H ) :   0.9364 B( 28-C , 29-C ) :   1.2831 B( 29-C , 66-H ) :   1.0342
B( 30-C , 31-C ) :   1.5888 B( 30-C , 67-H ) :   0.9655 B( 31-C , 32-C ) :   1.1681
B( 31-C , 68-H ) :   0.9827 B( 32-C , 33-C ) :   1.4782 B( 32-C , 36-C ) :   1.0098
B( 33-C , 34-C ) :   1.1420 B( 33-C , 69-H ) :   1.0243 B( 34-C , 35-C ) :   1.0176
B( 34-C , 38-C ) :   1.4415 B( 35-C , 36-C ) :   1.6739 B( 35-C , 37-F ) :   1.1237
B( 36-C , 70-H ) :   1.0119 B( 38-C , 39-C ) :   1.1177 B( 38-C , 42-C ) :   1.0318
B( 39-C , 40-C ) :   1.5168 B( 39-C , 71-H ) :   1.0222 B( 40-C , 41-C ) :   1.0224
B( 40-C , 44-C ) :   1.1330 B( 41-C , 42-C ) :   1.6573 B( 41-C , 72-H ) :   1.0149
B( 42-C , 43-F ) :   1.1204 B( 44-C , 45-C ) :   1.6494 B( 44-C , 73-H ) :   0.9725
B( 45-C , 46-C ) :   1.0768 B( 45-C , 74-H ) :   0.9849 B( 46-C , 47-C ) :   1.2963
B( 46-C , 52-C ) :   1.3104 B( 47-C , 48-C ) :   1.3762 B( 47-C , 75-H ) :   0.9964
B( 48-C , 49-F ) :   1.0838 B( 48-C , 50-C ) :   1.3592 B( 50-C , 51-C ) :   1.3244
B( 50-C , 76-H ) :   0.9961 B( 51-C , 52-C ) :   1.3896 B( 51-C , 77-H ) :   0.9913
B( 52-C , 53-F ) :   1.0952

-----------------------------------------------------------------------------
         ABSORPTION SPECTRUM VIA TRANSITION ELECTRIC DIPOLE MOMENTS
-----------------------------------------------------------------------------
State   Energy  Wavelength   fosc         T2         TX        TY        TZ
        (cm-1)    (nm)                  (au**2)     (au)      (au)      (au)
-----------------------------------------------------------------------------
   0   10908.9    916.7   2.131189710  64.31572  -3.68851  -7.09068   0.65799
   1   14644.8    682.8   0.102466746   2.30343  -0.09436   0.62080  -1.38171
   2   17410.8    574.4   0.035824431   0.67739   0.16213   0.62649  -0.50854
   3   17900.0    558.7   0.008606947   0.15830   0.16243   0.25132   0.26220
   4   20240.9    494.0   0.032764599   0.53291  -0.31624  -0.61490   0.23408
   5   21396.0    467.4   0.518707205   7.98115  -1.34117  -2.47691   0.21754
   6   26274.7    380.6   0.307244733   3.84965   0.34875   1.44424  -1.28148
   7   27231.1    367.2   0.069776197   0.84356  -0.41498  -0.80726  -0.14027
   8   27538.3    363.1   0.647960251   7.74617   1.32260   2.44886  -0.00209
   9   28443.9    351.6   0.041929967   0.48530  -0.31890  -0.43029  -0.44549
  10   29476.4    339.3   0.041194004   0.46008   0.06990   0.09403  -0.66810
  11   29884.5    334.6   0.006839817   0.07535   0.10134   0.06806   0.24586
  12   30835.9    324.3   0.027043240   0.28872   0.10652  -0.20844   0.48366
  13   31212.6    320.4   0.001332012   0.01405  -0.06534  -0.08184   0.05552
  14   31484.6    317.6   0.005750927   0.06013   0.02928  -0.08619   0.22770
  15   32256.2    310.0   0.484825725   4.94821  -1.01792  -1.97717   0.05341
  16   32974.8    303.3   0.030407503   0.30358   0.29905   0.29637   0.35541
  17   33682.9    296.9   0.030551452   0.29861  -0.10641  -0.43758   0.30952
  18   34807.9    287.3   0.020236792   0.19140  -0.17310  -0.40067   0.02991
  19   36142.6    276.7   0.151577868   1.38068   0.43391   1.03320  -0.35340
  20   36952.0    270.6   0.013728771   0.12231  -0.16745  -0.28711  -0.10883
  21   37519.8    266.5   0.026988223   0.23680   0.22504   0.43136  -0.00942
  22   37740.4    265.0   0.038011392   0.33158   0.26349   0.50981  -0.04739
  23   37905.7    263.8   0.037026262   0.32157  -0.22284   0.00115  -0.52146
  24   38368.0    260.6   0.072566906   0.62265   0.37227   0.64742   0.25479
  25   39084.1    255.9   0.174313148   1.46827   0.58254   1.05334  -0.13928

FINAL SINGLE POINT ENERGY     -2596.072108732098

DIPOLE MOMENT
-------------
                                X             Y             Z
Electronic contribution:      8.08285      11.16913       5.28281
Nuclear contribution   :     -8.46950     -11.61589      -5.65568
                        -----------------------------------------
Total Dipole Moment    :     -0.38664      -0.44676      -0.37287
                        -----------------------------------------
Magnitude (a.u.)       :      0.69866
Magnitude (Debye)      :      1.77584

Rotational constants in cm-1:     0.007085     0.000201     0.000196
Rotational constants in MHz :   212.403113     6.019426     5.867638

                             ****ORCA TERMINATED NORMALLY****
TOTAL RUN TIME: 0 days 0 hours 5 minutes 13 seconds 287 msec
