                         Program Version 4.2.0 -  RELEASE  -
|  1> # ORCA input file
|  2> # SCF done       -159.535359128101          0.000709195582
|  3> ! CAM-B3LYP def2-SVP def2/J RIJCOSX Grid4 TightSCF
|  4> %maxcore 5000
|  5> %tddft
|  6>     Mode sTDDFT
|  7>     Ethresh 5.0
|  8>     maxcore 5000
|  9> end
| 10>
| 11> %pal
| 12>   nprocs 6
| 13>   end
| 14> * xyz 0 1
| 15>    C      -11.20080         4.34805        -6.04119
| 16>    C      -12.20644         3.46081        -6.34495
| 17>    C      -12.88881         3.43215        -7.57438
| 18>    N      -13.47672         3.35829        -8.55880
| 19>    C      -12.62095         2.43229        -5.47909
| 20>    N      -12.97121         1.56931        -4.80622
| 21>    C      -10.68776         5.39261        -6.91451
| 22>    C       -9.59014         6.02970        -6.27904
| 23>    C       -8.94424         7.11327        -6.82282
| 24>    C       -9.41024         7.60225        -8.04707
| 25>    C      -10.47464         6.93180        -8.69533
| 26>    C      -11.11764         5.82614        -8.15492
| 27>    S      -10.90688         7.71627       -10.18333
| 28>    C       -9.71505         8.95395        -9.88380
| 29>    C       -8.99859         8.76675        -8.75065
| 30>   Br       -9.58346        10.40644       -11.06112
| 31>    C       -9.36438         5.38448        -4.98345
| 32>    O       -8.47401         5.63134        -4.17302
| 33>    C      -10.43907         4.40650        -4.81579
| 34>    C      -10.66455         3.78166        -3.61327
| 35>    N       -9.82736         3.96927        -2.58161
| 36>    C       -9.96495         3.49897        -1.31472
| 37>    S      -11.38376         2.62980        -0.81365
| 38>    C      -10.65605         2.37645         0.74041
| 39>    N      -11.39070         1.67613         1.69986
| 40>    O      -10.86934         1.48551         2.78505
| 41>    O      -12.50840         1.30733         1.37684
| 42>    C       -9.39963         2.91623         0.85111
| 43>    C       -8.99124         3.58544        -0.31261
| 44>    C       -7.68327         4.18688        -0.48866
| 45>    C       -7.43038         5.32902        -1.15070
| 46>    C       -6.10963         5.71261        -1.55455
| 47>    C       -5.80815         6.75822        -2.34513
| 48>    C       -6.77806         7.82443        -2.73290
| 49>    C       -4.49103         6.73407        -3.08469
| 50>    N       -4.56932         5.66706        -4.07413
| 51>    C       -5.27254         5.79920        -5.22496
| 52>    C       -5.97306         4.77264        -5.78591
| 53>    C       -6.61609         4.78140        -7.03325
| 54>    C       -7.66483         3.92641        -7.42719
| 55>    C       -8.30997         2.88984        -6.73357
| 56>    C       -9.34705         2.22781        -7.33632
| 57>    C       -9.77429         2.57740        -8.62912
| 58>    C       -9.16698         3.59190        -9.32650
| 59>    C       -8.09617         4.28080        -8.74536
| 60>    C       -7.32041         5.37581        -9.22430
| 61>    C       -6.28627         5.60754        -8.20046
| 62>    C       -5.07309         6.13570        -8.39796
| 63>    C       -7.55441         5.98128       -10.44395
| 64>    C       -7.10885         7.16261       -11.02594
| 65>    C       -7.50293         7.58969       -12.30849
| 66>    C       -7.04892         8.82808       -12.67021
| 67>    C       -6.27738         9.45772       -11.67661
| 68>    S       -6.11018         8.40254       -10.28900
| 69>    C       -5.72050        10.72195       -11.69478
| 70>    C       -5.78312        11.67695       -12.73816
| 71>    C       -5.15412        12.84593       -12.46429
| 72>    C       -4.54174        12.89951       -11.17178
| 73>    S       -4.82651        11.36633       -10.33361
| 74>    C       -3.85322        13.91268       -10.62340
| 75>    H       -8.12000         7.58808        -6.31420
| 76>    H      -11.93779         5.36306        -8.67719
| 77>    H       -8.22172         9.42929        -8.41533
| 78>    H      -11.52470         3.14740        -3.44327
| 79>    H       -9.00367         4.55177        -2.79957
| 80>    H       -8.81438         2.84118         1.74965
| 81>    H       -6.86203         3.62728        -0.05815
| 82>    H       -8.24402         5.95345        -1.48849
| 83>    H       -5.32367         5.00946        -1.30124
| 84>    H       -7.45100         8.05980        -1.91305
| 85>    H       -7.37760         7.48168        -3.57684
| 86>    H       -6.25501         8.73226        -3.02531
| 87>    H       -3.65286         6.51264        -2.41905
| 88>    H       -4.29968         7.67527        -3.60151
| 89>    H       -4.64520         4.74854        -3.65256
| 90>    H       -5.23958         6.77830        -5.68117
| 91>    H       -6.09838         3.87727        -5.18798
| 92>    H       -7.98592         2.61537        -5.74001
| 93>    H       -9.84877         1.42242        -6.81898
| 94>    H      -10.59793         2.03760        -9.07203
| 95>    H       -9.51214         3.84439       -10.31809
| 96>    H       -4.78263         6.57725        -9.33285
| 97>    H       -4.31487         6.08476        -7.63522
| 98>    H       -8.28283         5.46770       -11.06355
| 99>    H       -8.12289         6.97266       -12.93601
|100>    H       -7.27161         9.30305       -13.60788
|101>    H       -6.29781        11.46701       -13.65834
|102>    H       -5.09824        13.68584       -13.13329
|103>    H       -3.70451        14.82979       -11.16503
|104>    H       -3.43285        13.84359        -9.63710
|105> *
|106>
|107>                          ****END OF INPUT****

CARTESIAN COORDINATES (ANGSTROEM)
---------------------------------
  C    -11.200800    4.348050   -6.041190
  C    -12.206440    3.460810   -6.344950
  C    -12.888810    3.432150   -7.574380
  N    -13.476720    3.358290   -8.558800
  C    -12.620950    2.432290   -5.479090
  N    -12.971210    1.569310   -4.806220
  C    -10.687760    5.392610   -6.914510
  C     -9.590140    6.029700   -6.279040
  C     -8.944240    7.113270   -6.822820
  C     -9.410240    7.602250   -8.047070
  C    -10.474640    6.931800   -8.695330
  C    -11.117640    5.826140   -8.154920
  S    -10.906880    7.716270  -10.183330
  C     -9.715050    8.953950   -9.883800
  C     -8.998590    8.766750   -8.750650
  Br    -9.583460   10.406440  -11.061120
  C     -9.364380    5.384480   -4.983450
  O     -8.474010    5.631340   -4.173020
  C    -10.439070    4.406500   -4.815790
  C    -10.664550    3.781660   -3.613270
  N     -9.827360    3.969270   -2.581610
  C     -9.964950    3.498970   -1.314720
  S    -11.383760    2.629800   -0.813650
  C    -10.656050    2.376450    0.740410
  N    -11.390700    1.676130    1.699860
  O    -10.869340    1.485510    2.785050
  O    -12.508400    1.307330    1.376840
  C     -9.399630    2.916230    0.851110
  C     -8.991240    3.585440   -0.312610
  C     -7.683270    4.186880   -0.488660
  C     -7.430380    5.329020   -1.150700
  C     -6.109630    5.712610   -1.554550
  C     -5.808150    6.758220   -2.345130
  C     -6.778060    7.824430   -2.732900
  C     -4.491030    6.734070   -3.084690
  N     -4.569320    5.667060   -4.074130
  C     -5.272540    5.799200   -5.224960
  C     -5.973060    4.772640   -5.785910
  C     -6.616090    4.781400   -7.033250
  C     -7.664830    3.926410   -7.427190
  C     -8.309970    2.889840   -6.733570
  C     -9.347050    2.227810   -7.336320
  C     -9.774290    2.577400   -8.629120
  C     -9.166980    3.591900   -9.326500
  C     -8.096170    4.280800   -8.745360
  C     -7.320410    5.375810   -9.224300
  C     -6.286270    5.607540   -8.200460
  C     -5.073090    6.135700   -8.397960
  C     -7.554410    5.981280  -10.443950
  C     -7.108850    7.162610  -11.025940
  C     -7.502930    7.589690  -12.308490
  C     -7.048920    8.828080  -12.670210
  C     -6.277380    9.457720  -11.676610
  S     -6.110180    8.402540  -10.289000
  C     -5.720500   10.721950  -11.694780
  C     -5.783120   11.676950  -12.738160
  C     -5.154120   12.845930  -12.464290
  C     -4.541740   12.899510  -11.171780
  S     -4.826510   11.366330  -10.333610
  C     -3.853220   13.912680  -10.623400
  H     -8.120000    7.588080   -6.314200
  H    -11.937790    5.363060   -8.677190
  H     -8.221720    9.429290   -8.415330
  H    -11.524700    3.147400   -3.443270
  H     -9.003670    4.551770   -2.799570
  H     -8.814380    2.841180    1.749650
  H     -6.862030    3.627280   -0.058150
  H     -8.244020    5.953450   -1.488490
  H     -5.323670    5.009460   -1.301240
  H     -7.451000    8.059800   -1.913050
  H     -7.377600    7.481680   -3.576840
  H     -6.255010    8.732260   -3.025310
  H     -3.652860    6.512640   -2.419050
  H     -4.299680    7.675270   -3.601510
  H     -4.645200    4.748540   -3.652560
  H     -5.239580    6.778300   -5.681170
  H     -6.098380    3.877270   -5.187980
  H     -7.985920    2.615370   -5.740010
  H     -9.848770    1.422420   -6.818980
  H    -10.597930    2.037600   -9.072030
  H     -9.512140    3.844390  -10.318090
  H     -4.782630    6.577250   -9.332850
  H     -4.314870    6.084760   -7.635220
  H     -8.282830    5.467700  -11.063550
  H     -8.122890    6.972660  -12.936010
  H     -7.271610    9.303050  -13.607880
  H     -6.297810   11.467010  -13.658340
  H     -5.098240   13.685840  -13.133290
  H     -3.704510   14.829790  -11.165030
  H     -3.432850   13.843590   -9.637100

 Total Charge           Charge          ....    0
 Multiplicity           Mult            ....    1
 Number of Electrons    NEL             ....  470
 Basis Dimension        Dim             .... 1024

ORBITAL ENERGIES
----------------

  NO   OCC          E(Eh)            E(eV)
   0   2.0000    -482.877842    -13139.7741
   1   2.0000     -88.991348     -2421.5777
   2   2.0000     -88.970970     -2421.0232
   3   2.0000     -88.936704     -2420.0907
   4   2.0000     -88.925376     -2419.7825
   5   2.0000     -62.555177     -1702.2129
   6   2.0000     -56.389167     -1534.4272
   7   2.0000     -56.386425     -1534.3526
   8   2.0000     -56.386411     -1534.3523
   9   2.0000     -19.238270      -523.4999
  10   2.0000     -19.237410      -523.4765
  11   2.0000     -19.235672      -523.4292
  12   2.0000     -14.649775      -398.6406
  13   2.0000     -14.495170      -394.4336
  14   2.0000     -14.449152      -393.1814
  15   2.0000     -14.416531      -392.2937
  16   2.0000     -14.412188      -392.1756
  17   2.0000     -10.380247      -282.4609
  18   2.0000     -10.374377      -282.3012
  19   2.0000     -10.369432      -282.1666
  20   2.0000     -10.352349      -281.7017
  21   2.0000     -10.347374      -281.5664
  22   2.0000     -10.343146      -281.4513
  23   2.0000     -10.336046      -281.2581
  24   2.0000     -10.328956      -281.0652
  25   2.0000     -10.326036      -280.9857
  26   2.0000     -10.321114      -280.8518
  27   2.0000     -10.319374      -280.8044
  28   2.0000     -10.316183      -280.7176
  29   2.0000     -10.312741      -280.6239
  30   2.0000     -10.307524      -280.4820
  31   2.0000     -10.304802      -280.4079
  32   2.0000     -10.304322      -280.3949
  33   2.0000     -10.303611      -280.3755
  34   2.0000     -10.301199      -280.3099
  35   2.0000     -10.299336      -280.2592
  36   2.0000     -10.297016      -280.1961
  37   2.0000     -10.295665      -280.1593
  38   2.0000     -10.295271      -280.1486
  39   2.0000     -10.295063      -280.1429
  40   2.0000     -10.294741      -280.1341
  41   2.0000     -10.293386      -280.0973
  42   2.0000     -10.293310      -280.0952
  43   2.0000     -10.291043      -280.0335
  44   2.0000     -10.289926      -280.0031
  45   2.0000     -10.289884      -280.0020
  46   2.0000     -10.289453      -279.9903
  47   2.0000     -10.289385      -279.9884
  48   2.0000     -10.280730      -279.7529
  49   2.0000     -10.277183      -279.6564
  50   2.0000     -10.275952      -279.6229
  51   2.0000     -10.275891      -279.6212
  52   2.0000     -10.273748      -279.5629
  53   2.0000     -10.273274      -279.5500
  54   2.0000     -10.272405      -279.5263
  55   2.0000     -10.272181      -279.5203
  56   2.0000     -10.272138      -279.5191
  57   2.0000     -10.272076      -279.5174
  58   2.0000     -10.271562      -279.5034
  59   2.0000     -10.268801      -279.4283
  60   2.0000     -10.268286      -279.4143
  61   2.0000     -10.267530      -279.3937
  62   2.0000     -10.266294      -279.3600
  63   2.0000     -10.253595      -279.0145
  64   2.0000      -8.784438      -239.0367
  65   2.0000      -8.086544      -220.0461
  66   2.0000      -8.066659      -219.5050
  67   2.0000      -8.032025      -218.5625
  68   2.0000      -8.022108      -218.2926
  69   2.0000      -6.620764      -180.1602
  70   2.0000      -6.606145      -179.7624
  71   2.0000      -6.605962      -179.7574
  72   2.0000      -6.056159      -164.7965
  73   2.0000      -6.051785      -164.6775
  74   2.0000      -6.048090      -164.5769
  75   2.0000      -6.036343      -164.2573
  76   2.0000      -6.032138      -164.1428
  77   2.0000      -6.027908      -164.0277
  78   2.0000      -6.001775      -163.3166
  79   2.0000      -5.997737      -163.2067
  80   2.0000      -5.993098      -163.0805
  81   2.0000      -5.991920      -163.0484
  82   2.0000      -5.988047      -162.9431
  83   2.0000      -5.982679      -162.7970
  84   2.0000      -2.736671       -74.4686
  85   2.0000      -2.732513       -74.3554
  86   2.0000      -2.732390       -74.3521
  87   2.0000      -2.720771       -74.0359
  88   2.0000      -2.720746       -74.0353
  89   2.0000      -1.318144       -35.8685
  90   2.0000      -1.148920       -31.2637
  91   2.0000      -1.137044       -30.9405
  92   2.0000      -1.103091       -30.0166
  93   2.0000      -1.051676       -28.6176
  94   2.0000      -1.021972       -27.8093
  95   2.0000      -1.011881       -27.5347
  96   2.0000      -1.009934       -27.4817
  97   2.0000      -0.993606       -27.0374
  98   2.0000      -0.989499       -26.9256
  99   2.0000      -0.984776       -26.7971
 100   2.0000      -0.978108       -26.6157
 101   2.0000      -0.955696       -26.0058
 102   2.0000      -0.940333       -25.5878
 103   2.0000      -0.936116       -25.4730
 104   2.0000      -0.924349       -25.1528
 105   2.0000      -0.916052       -24.9270
 106   2.0000      -0.906459       -24.6660
 107   2.0000      -0.896517       -24.3955
 108   2.0000      -0.888975       -24.1902
 109   2.0000      -0.883262       -24.0348
 110   2.0000      -0.879602       -23.9352
 111   2.0000      -0.866706       -23.5843
 112   2.0000      -0.856894       -23.3173
 113   2.0000      -0.850014       -23.1301
 114   2.0000      -0.848584       -23.0912
 115   2.0000      -0.841194       -22.8901
 116   2.0000      -0.833730       -22.6870
 117   2.0000      -0.830121       -22.5887
 118   2.0000      -0.826124       -22.4800
 119   2.0000      -0.808377       -21.9971
 120   2.0000      -0.798698       -21.7337
 121   2.0000      -0.797430       -21.6992
 122   2.0000      -0.785644       -21.3785
 123   2.0000      -0.780084       -21.2272
 124   2.0000      -0.762347       -20.7445
 125   2.0000      -0.754891       -20.5416
 126   2.0000      -0.749291       -20.3892
 127   2.0000      -0.744107       -20.2482
 128   2.0000      -0.727274       -19.7901
 129   2.0000      -0.718386       -19.5483
 130   2.0000      -0.715332       -19.4652
 131   2.0000      -0.696286       -18.9469
 132   2.0000      -0.693599       -18.8738
 133   2.0000      -0.687916       -18.7191
 134   2.0000      -0.673715       -18.3327
 135   2.0000      -0.671549       -18.2738
 136   2.0000      -0.666369       -18.1328
 137   2.0000      -0.656080       -17.8528
 138   2.0000      -0.651049       -17.7160
 139   2.0000      -0.645734       -17.5713
 140   2.0000      -0.642291       -17.4776
 141   2.0000      -0.634749       -17.2724
 142   2.0000      -0.631338       -17.1796
 143   2.0000      -0.630472       -17.1560
 144   2.0000      -0.625042       -17.0083
 145   2.0000      -0.618565       -16.8320
 146   2.0000      -0.618349       -16.8261
 147   2.0000      -0.608088       -16.5469
 148   2.0000      -0.605300       -16.4711
 149   2.0000      -0.601327       -16.3629
 150   2.0000      -0.598184       -16.2774
 151   2.0000      -0.593210       -16.1421
 152   2.0000      -0.588553       -16.0154
 153   2.0000      -0.584539       -15.9061
 154   2.0000      -0.581691       -15.8286
 155   2.0000      -0.573671       -15.6104
 156   2.0000      -0.566016       -15.4021
 157   2.0000      -0.562262       -15.2999
 158   2.0000      -0.558967       -15.2103
 159   2.0000      -0.556841       -15.1524
 160   2.0000      -0.554829       -15.0977
 161   2.0000      -0.552414       -15.0319
 162   2.0000      -0.548713       -14.9312
 163   2.0000      -0.545881       -14.8542
 164   2.0000      -0.540583       -14.7100
 165   2.0000      -0.538512       -14.6537
 166   2.0000      -0.533475       -14.5166
 167   2.0000      -0.528022       -14.3682
 168   2.0000      -0.522054       -14.2058
 169   2.0000      -0.520129       -14.1534
 170   2.0000      -0.518449       -14.1077
 171   2.0000      -0.515415       -14.0251
 172   2.0000      -0.510423       -13.8893
 173   2.0000      -0.507357       -13.8059
 174   2.0000      -0.504261       -13.7216
 175   2.0000      -0.501204       -13.6384
 176   2.0000      -0.500295       -13.6137
 177   2.0000      -0.496402       -13.5078
 178   2.0000      -0.494717       -13.4619
 179   2.0000      -0.491723       -13.3805
 180   2.0000      -0.488686       -13.2978
 181   2.0000      -0.488258       -13.2862
 182   2.0000      -0.482460       -13.1284
 183   2.0000      -0.480637       -13.0788
 184   2.0000      -0.477834       -13.0025
 185   2.0000      -0.473426       -12.8826
 186   2.0000      -0.470466       -12.8020
 187   2.0000      -0.468013       -12.7353
 188   2.0000      -0.466381       -12.6909
 189   2.0000      -0.464056       -12.6276
 190   2.0000      -0.459898       -12.5145
 191   2.0000      -0.455752       -12.4016
 192   2.0000      -0.455261       -12.3883
 193   2.0000      -0.453575       -12.3424
 194   2.0000      -0.450789       -12.2666
 195   2.0000      -0.448922       -12.2158
 196   2.0000      -0.444975       -12.1084
 197   2.0000      -0.443167       -12.0592
 198   2.0000      -0.439723       -11.9655
 199   2.0000      -0.436469       -11.8769
 200   2.0000      -0.436082       -11.8664
 201   2.0000      -0.427358       -11.6290
 202   2.0000      -0.425490       -11.5782
 203   2.0000      -0.424885       -11.5617
 204   2.0000      -0.420032       -11.4297
 205   2.0000      -0.418333       -11.3834
 206   2.0000      -0.413216       -11.2442
 207   2.0000      -0.411476       -11.1968
 208   2.0000      -0.409930       -11.1548
 209   2.0000      -0.408846       -11.1253
 210   2.0000      -0.406915       -11.0727
 211   2.0000      -0.400034       -10.8855
 212   2.0000      -0.391079       -10.6418
 213   2.0000      -0.386466       -10.5163
 214   2.0000      -0.385702       -10.4955
 215   2.0000      -0.378256       -10.2929
 216   2.0000      -0.377955       -10.2847
 217   2.0000      -0.370620       -10.0851
 218   2.0000      -0.366611        -9.9760
 219   2.0000      -0.365671        -9.9504
 220   2.0000      -0.360816        -9.8183
 221   2.0000      -0.355417        -9.6714
 222   2.0000      -0.354283        -9.6405
 223   2.0000      -0.341160        -9.2834
 224   2.0000      -0.328353        -8.9349
 225   2.0000      -0.325791        -8.8652
 226   2.0000      -0.316699        -8.6178
 227   2.0000      -0.314282        -8.5520
 228   2.0000      -0.308080        -8.3833
 229   2.0000      -0.304499        -8.2858
 230   2.0000      -0.296288        -8.0624
 231   2.0000      -0.286416        -7.7938
 232   2.0000      -0.268983        -7.3194
 233   2.0000      -0.244534        -6.6541
 234   2.0000      -0.183044        -4.9809
 235   0.0000      -0.087659        -2.3853
 236   0.0000      -0.084375        -2.2960
 237   0.0000      -0.069893        -1.9019
 238   0.0000      -0.043739        -1.1902
 239   0.0000      -0.034319        -0.9339

MULLIKEN ATOMIC CHARGES
-----------------------
   0 C :    0.347471
   1 C :   -0.357093
   2 C :   -0.189653
   3 N :    0.149521
   4 C :   -0.213785
   5 N :    0.146213
   6 C :   -0.012560
   7 C :    0.051670
   8 C :   -0.090822
   9 C :    0.144921
  10 C :   -0.105816
  11 C :   -0.000478
  12 S :    0.172624
  13 C :   -0.127897
  14 C :    0.066178
  15 Br:    0.033091
  16 C :    0.169492
  17 O :   -0.230672
  18 C :   -0.119416
  19 C :    0.016605
  20 N :   -0.006822
  21 C :   -0.119338
  22 S :    0.177218
  23 C :   -0.003399
  24 N :    0.276947
  25 O :   -0.251443
  26 O :   -0.259584
  27 C :    0.014982
  28 C :    0.110269
  29 C :   -0.056889
  30 C :    0.018893
  31 C :   -0.019352
  32 C :   -0.175903
  33 C :    0.078433
  34 C :    0.182591
  35 N :   -0.143261
  36 C :    0.053378
  37 C :   -0.053934
  38 C :    0.065414
  39 C :    0.045097
  40 C :   -0.043640
  41 C :    0.044263
  42 C :    0.006685
  43 C :   -0.014720
  44 C :    0.038207
  45 C :    0.099846
  46 C :   -0.041475
  47 C :   -0.013381
  48 C :   -0.091110
  49 C :   -0.046498
  50 C :    0.022454
  51 C :    0.026061
  52 C :   -0.041936
  53 S :    0.034494
  54 C :   -0.075970
  55 C :    0.027005
  56 C :    0.037642
  57 C :   -0.056388
  58 S :    0.047431
  59 C :   -0.042089
  60 H :   -0.030422
  61 H :   -0.012526
  62 H :   -0.003984
  63 H :    0.047357
  64 H :    0.170060
  65 H :    0.010485
  66 H :    0.004230
  67 H :    0.005291
  68 H :   -0.027855
  69 H :    0.029809
  70 H :    0.053289
  71 H :    0.007868
  72 H :    0.030507
  73 H :    0.012636
  74 H :    0.117828
  75 H :    0.007174
  76 H :   -0.030018
  77 H :   -0.038053
  78 H :   -0.009745
  79 H :   -0.000377
  80 H :   -0.029273
  81 H :    0.049053
  82 H :    0.031523
  83 H :   -0.028961
  84 H :   -0.019585
  85 H :   -0.027376
  86 H :   -0.019998
  87 H :   -0.019811
  88 H :    0.011330
  89 H :    0.009765
Sum of atomic charges:   -0.0000000

LOEWDIN ATOMIC CHARGES
----------------------
   0 C :    0.086798
   1 C :   -0.157218
   2 C :   -0.018690
   3 N :   -0.063597
   4 C :   -0.023704
   5 N :   -0.061620
   6 C :   -0.020763
   7 C :   -0.044277
   8 C :    0.020469
   9 C :   -0.024841
  10 C :   -0.143337
  11 C :    0.000538
  12 S :    0.427339
  13 C :   -0.266329
  14 C :   -0.065841
  15 Br:    0.156484
  16 C :    0.102774
  17 O :   -0.172178
  18 C :   -0.135684
  19 C :    0.106366
  20 N :    0.073097
  21 C :   -0.109231
  22 S :    0.472560
  23 C :   -0.206199
  24 N :    0.274251
  25 O :   -0.217196
  26 O :   -0.226562
  27 C :    0.001583
  28 C :   -0.091741
  29 C :   -0.036257
  30 C :   -0.017552
  31 C :   -0.056771
  32 C :   -0.019823
  33 C :   -0.059020
  34 C :    0.046586
  35 N :    0.007621
  36 C :    0.050578
  37 C :   -0.096508
  38 C :    0.008611
  39 C :   -0.046671
  40 C :   -0.017329
  41 C :   -0.033807
  42 C :   -0.015647
  43 C :   -0.018631
  44 C :   -0.000419
  45 C :   -0.073884
  46 C :   -0.017396
  47 C :    0.039384
  48 C :   -0.040951
  49 C :   -0.185315
  50 C :   -0.033489
  51 C :   -0.062746
  52 C :   -0.178685
  53 S :    0.380905
  54 C :   -0.202547
  55 C :   -0.027334
  56 C :   -0.050362
  57 C :   -0.136745
  58 S :    0.329994
  59 C :   -0.100356
  60 H :    0.035066
  61 H :    0.039624
  62 H :    0.032565
  63 H :    0.035948
  64 H :    0.085274
  65 H :    0.047177
  66 H :    0.031622
  67 H :    0.026590
  68 H :    0.019502
  69 H :    0.035091
  70 H :    0.038195
  71 H :    0.028137
  72 H :    0.033581
  73 H :    0.028054
  74 H :    0.074952
  75 H :    0.024142
  76 H :    0.023727
  77 H :    0.023162
  78 H :    0.029336
  79 H :    0.032843
  80 H :    0.026386
  81 H :    0.018601
  82 H :    0.027852
  83 H :    0.033462
  84 H :    0.029825
  85 H :    0.025931
  86 H :    0.029643
  87 H :    0.029452
  88 H :    0.024719
  89 H :    0.020855

  Mayer bond orders larger than 0.100000
B(  0-C ,  1-C ) :   1.6100 B(  0-C ,  6-C ) :   1.0215 B(  0-C , 18-C ) :   1.0819
B(  1-C ,  2-C ) :   1.1574 B(  1-C ,  4-C ) :   1.1508 B(  2-C ,  3-N ) :   2.9487
B(  4-C ,  5-N ) :   2.9668 B(  6-C ,  7-C ) :   1.2779 B(  6-C , 11-C ) :   1.3995
B(  7-C ,  8-C ) :   1.4033 B(  7-C , 16-C ) :   0.9767 B(  8-C ,  9-C ) :   1.2411
B(  8-C , 60-H ) :   1.0196 B(  9-C , 10-C ) :   1.3061 B(  9-C , 14-C ) :   1.1724
B( 10-C , 11-C ) :   1.3283 B( 10-C , 12-S ) :   1.0825 B( 11-C , 61-H ) :   0.9809
B( 12-S , 13-C ) :   1.0751 B( 13-C , 14-C ) :   1.6084 B( 13-C , 15-Br) :   1.0321
B( 14-C , 62-H ) :   0.9941 B( 16-C , 17-O ) :   1.9536 B( 16-C , 18-C ) :   1.0119
B( 17-O , 64-H ) :   0.1275 B( 18-C , 19-C ) :   1.4778 B( 19-C , 20-N ) :   1.3156
B( 19-C , 63-H ) :   0.9327 B( 20-N , 21-C ) :   1.1868 B( 20-N , 64-H ) :   0.8312
B( 21-C , 22-S ) :   1.1415 B( 21-C , 28-C ) :   1.4082 B( 22-S , 23-C ) :   1.0862
B( 23-C , 24-N ) :   0.9730 B( 23-C , 27-C ) :   1.4785 B( 24-N , 25-O ) :   1.5320
B( 24-N , 26-O ) :   1.5114 B( 25-O , 26-O ) :   0.2608 B( 27-C , 28-C ) :   1.2362
B( 27-C , 65-H ) :   1.0090 B( 28-C , 29-C ) :   1.0069 B( 29-C , 30-C ) :   1.7568
B( 29-C , 66-H ) :   0.9729 B( 30-C , 31-C ) :   1.1164 B( 30-C , 67-H ) :   0.9594
B( 31-C , 32-C ) :   1.7659 B( 31-C , 68-H ) :   0.9761 B( 32-C , 33-C ) :   1.0878
B( 32-C , 34-C ) :   1.0215 B( 33-C , 69-H ) :   0.9444 B( 33-C , 70-H ) :   0.9282
B( 33-C , 71-H ) :   0.9456 B( 34-C , 35-N ) :   1.0242 B( 34-C , 72-H ) :   0.9462
B( 34-C , 73-H ) :   0.9393 B( 35-N , 36-C ) :   1.2354 B( 35-N , 74-H ) :   0.9393
B( 36-C , 37-C ) :   1.5324 B( 36-C , 75-H ) :   0.9659 B( 37-C , 38-C ) :   1.2654
B( 37-C , 76-H ) :   0.9392 B( 38-C , 39-C ) :   1.3105 B( 38-C , 46-C ) :   1.0171
B( 39-C , 40-C ) :   1.2122 B( 39-C , 44-C ) :   1.1841 B( 40-C , 41-C ) :   1.5196
B( 40-C , 77-H ) :   0.9859 B( 41-C , 42-C ) :   1.2138 B( 41-C , 78-H ) :   0.9820
B( 42-C , 43-C ) :   1.5193 B( 42-C , 79-H ) :   0.9837 B( 43-C , 44-C ) :   1.2193
B( 43-C , 80-H ) :   0.9892 B( 44-C , 45-C ) :   1.2863 B( 45-C , 46-C ) :   0.9972
B( 45-C , 48-C ) :   1.2613 B( 46-C , 47-C ) :   1.8700 B( 47-C , 81-H ) :   0.9264
B( 47-C , 82-H ) :   0.9370 B( 48-C , 49-C ) :   1.4872 B( 48-C , 83-H ) :   0.9545
B( 49-C , 50-C ) :   1.1775 B( 49-C , 53-S ) :   1.0066 B( 50-C , 51-C ) :   1.5401
B( 50-C , 84-H ) :   1.0018 B( 51-C , 52-C ) :   1.1919 B( 51-C , 85-H ) :   0.9967
B( 52-C , 53-S ) :   1.0455 B( 52-C , 54-C ) :   1.5114 B( 54-C , 55-C ) :   1.1797
B( 54-C , 58-S ) :   1.0288 B( 55-C , 56-C ) :   1.6304 B( 55-C , 86-H ) :   0.9933
B( 56-C , 57-C ) :   1.0926 B( 56-C , 87-H ) :   0.9931 B( 57-C , 58-S ) :   1.0095
B( 57-C , 59-C ) :   1.8479 B( 59-C , 88-H ) :   0.9499 B( 59-C , 89-H ) :   0.9414

-----------------------------------------------------------------------------
         ABSORPTION SPECTRUM VIA TRANSITION ELECTRIC DIPOLE MOMENTS
-----------------------------------------------------------------------------
State   Energy  Wavelength   fosc         T2         TX        TY        TZ
        (cm-1)    (nm)                  (au**2)     (au)      (au)      (au)
-----------------------------------------------------------------------------
   0    5568.4   1795.8   0.110098512   6.50916   0.24040   1.70980  -1.87829
   1    7135.1   1401.5   0.039788851   1.83585   1.23735   0.19474  -0.51661
   2    9280.2   1077.6   0.052120368   1.84894   0.62464   1.00833  -0.66486
   3   16196.1    617.4   0.450944302   9.16615   0.52717   2.39392  -1.77691
   4   18403.7    543.4   0.226387188   4.04969  -0.96790  -1.74543   0.25752
   5   19304.0    518.0   0.364826618   6.22177   1.04034   2.18658  -0.59862
   6   20443.4    489.2   0.024536468   0.39512  -0.42685   0.36886   0.27724
   7   20944.7    477.4   0.088345357   1.38863  -0.39355  -1.00356   0.47603
   8   22217.6    450.1   0.372574483   5.52066   0.58869   0.10498   2.27224
   9   23029.9    434.2   0.155974611   2.22966   0.17656  -0.71519   1.29884
  10   24147.1    414.1   0.063410574   0.86451  -0.56966  -0.12772  -0.72366
  11   24494.5    408.3   0.065880148   0.88544   0.21865  -0.21409   0.88983
  12   25490.9    392.3   0.062275212   0.80428  -0.19063  -0.04037   0.87539
  13   26192.0    381.8   0.044338584   0.55730  -0.10008   0.73788  -0.05312
  14   27326.1    365.9   0.015711692   0.18929   0.17732   0.39689  -0.01793
  15   27688.4    361.2   0.132383492   1.57403  -0.45831  -1.08121   0.44155
  16   28254.4    353.9   0.049021433   0.57118  -0.38548   0.26654  -0.59291
  17   28870.8    346.4   0.020324249   0.23176  -0.06411  -0.17386   0.44432
  18   29440.7    339.7   0.008308372   0.09291  -0.01883  -0.20859  -0.22145
  19   29866.2    334.8   0.396274643   4.36809   0.58229   1.62271  -1.18145
  20   30412.5    328.8   0.032425720   0.35100   0.26450   0.51571   0.12285
  21   30603.7    326.8   0.152729947   1.64296  -0.56918  -0.81667  -0.80749
  22   30709.7    325.6   0.125631361   1.34678   0.36776  -0.16790   1.08782
  23   31232.9    320.2   0.253222623   2.66911  -0.04342   0.21571   1.61885
  24   31432.1    318.1   0.004473726   0.04686  -0.06973  -0.03537   0.20185
  25   31597.1    316.5   0.172955480   1.80203   0.44044   0.83234  -0.95669
  26   31819.7    314.3   0.040836464   0.42250   0.33472  -0.16973   0.53071
  27   32031.1    312.2   0.073752331   0.75802   0.83447   0.17719   0.17402
  28   32331.9    309.3   0.010662150   0.10856   0.32323  -0.02487  -0.05890
  29   32619.6    306.6   0.102948809   1.03901  -0.78204  -0.50759  -0.41202
  30   32754.7    305.3   0.001813511   0.01823  -0.11901  -0.01431   0.06212
  31   32850.8    304.4   0.064825471   0.64964  -0.44762  -0.63228  -0.22250
  32   33365.3    299.7   0.188707296   1.86195  -0.72446  -1.04498   0.49510
  33   33726.4    296.5   0.058875487   0.57470   0.27496   0.34329  -0.61745
  34   33752.1    296.3   0.095346673   0.92999  -0.66699  -0.62805  -0.30111
  35   33962.5    294.4   0.160818162   1.55888  -0.15822  -0.61377   1.07570
  36   34283.5    291.7   0.007151539   0.06867   0.08239   0.07806  -0.23620
  37   34517.3    289.7   0.015218957   0.14515   0.24682   0.00698   0.29015
  38   34669.3    288.4   0.103881636   0.98644   0.79322   0.59006   0.09522
  39   35650.4    280.5   0.061913258   0.57174   0.42075   0.60375  -0.17374
  40   35718.5    280.0   0.245222406   2.26017   1.02659   0.88560  -0.64961
  41   35805.6    279.3   0.050881007   0.46782  -0.30997  -0.41980   0.44217
  42   36044.6    277.4   0.049487516   0.45199  -0.51047  -0.20396  -0.38705
  43   36338.8    275.2   0.263447583   2.38671  -1.16281  -1.01178  -0.10432
  44   36542.7    273.7   0.070331573   0.63361   0.17645   0.60598  -0.48505
  45   36674.6    272.7   0.028458778   0.25546   0.11506  -0.43784   0.22477
  46   37007.3    270.2   0.060742007   0.54035  -0.56999  -0.44730  -0.12406
  47   37405.9    267.3   0.012902695   0.11356   0.24851   0.13895   0.18026
  48   37564.4    266.2   0.121577300   1.06550  -0.64324  -0.25261  -0.76677
  49   38086.0    262.6   0.077795753   0.67246   0.47367   0.66658  -0.06136
  50   38759.6    258.0   0.008611747   0.07315   0.01973   0.20195  -0.17881
  51   38954.4    256.7   0.006807800   0.05753   0.00029  -0.02774   0.23825
  52   39096.8    255.8   0.010408364   0.08764   0.04437  -0.05606   0.28728
  53   39396.9    253.8   0.034006381   0.28417   0.16396   0.23284  -0.45063
  54   39414.8    253.7   0.063927938   0.53396   0.10262  -0.01707   0.72328
  55   39703.4    251.9   0.075687180   0.62758   0.42520   0.52508  -0.41361
  56   39932.4    250.4   0.028719349   0.23677   0.20047   0.30798  -0.31895
  57   40226.8    248.6   0.104206001   0.85281  -0.61600  -0.65882  -0.19829

FINAL SINGLE POINT ENERGY     -6471.535753486072

DIPOLE MOMENT
-------------
                                X             Y             Z
Electronic contribution:    -48.55196      30.48781     -48.83649
Nuclear contribution   :     51.63516     -28.45983      48.78013
                        -----------------------------------------
Total Dipole Moment    :      3.08320       2.02799      -0.05636
                        -----------------------------------------
Magnitude (a.u.)       :      3.69081
Magnitude (Debye)      :      9.38129

Rotational constants in cm-1:     0.002253     0.000654     0.000573
Rotational constants in MHz :    67.528465    19.621262    17.189071

                             ****ORCA TERMINATED NORMALLY****
TOTAL RUN TIME: 0 days 0 hours 13 minutes 15 seconds 211 msec
