                         Program Version 4.2.0 -  RELEASE  -
|  1> # ORCA input file
|  2> # SCF done       -185.578639596731          0.000402204524
|  3> ! CAM-B3LYP def2-SVP def2/J RIJCOSX Grid4 TightSCF
|  4> %maxcore 5000
|  5> %tddft
|  6>     Mode sTDDFT
|  7>     Ethresh 5.0
|  8>     maxcore 5000
|  9> end
| 10>
| 11> %pal
| 12>   nprocs 6
| 13>   end
| 14> * xyz 0 1
| 15>    C       -6.42101         0.58498         7.79765
| 16>    C       -6.40074        -0.77605         7.58503
| 17>    C       -5.62926        -1.68154         8.33964
| 18>    N       -5.02810        -2.47734         8.91023
| 19>    C       -7.13646        -1.47975         6.61228
| 20>    N       -7.69547        -2.15071         5.86329
| 21>    C       -5.66939         1.28408         8.83854
| 22>    C       -5.96835         2.66664         8.76324
| 23>    C       -5.42032         3.59076         9.61719
| 24>    C       -4.53226         3.12982        10.59608
| 25>    C       -4.23933         1.74830        10.66355
| 26>    C       -4.79449         0.81263         9.79798
| 27>    S       -3.12087         1.39370        11.94584
| 28>    C       -3.06394         3.08443        12.36779
| 29>    C       -3.84067         3.87509        11.59013
| 30>   Br       -1.98434         3.64594        13.79574
| 31>    C       -6.92583         2.89775         7.65990
| 32>    O       -7.39427         3.96770         7.32310
| 33>    C       -7.18024         1.56890         7.07313
| 34>    C       -8.01835         1.32762         6.00337
| 35>    C       -8.77969         2.27632         5.33080
| 36>    C       -9.62807         1.92382         4.29573
| 37>    C      -10.50686         2.75741         3.57034
| 38>    C      -11.26415         2.09841         2.64166
| 39>    C      -11.00889         0.71495         2.58685
| 40>    S       -9.76884         0.27371         3.73595
| 41>    C      -11.60745        -0.26973         1.81572
| 42>    C      -12.69727        -0.18298         0.92473
| 43>    C      -13.06984        -1.38734         0.40457
| 44>    C      -12.29690        -2.48759         0.85661
| 45>    S      -11.05448        -1.91766         1.94628
| 46>    C      -12.44965        -3.78801         0.43542
| 47>    C      -11.73299        -4.94088         0.79851
| 48>    S      -11.72301        -6.24559        -0.36224
| 49>    C      -10.59910        -7.16251         0.58468
| 50>    C      -10.28128        -6.48424         1.77737
| 51>    C      -10.95041        -5.25504         1.91956
| 52>    C      -11.04801        -4.47877         3.16369
| 53>    C      -12.20033        -4.33859         3.80261
| 54>    O       -9.43762        -7.10049         2.63498
| 55>    C       -8.92937        -6.41940         3.76464
| 56>    C      -10.17676        -8.42058         0.11001
| 57>    C       -9.23073        -9.21825         0.67685
| 58>    C       -8.87137       -10.48759         0.17373
| 59>    S       -9.73665       -11.26335        -1.12067
| 60>    C       -8.70965       -12.66552        -1.06712
| 61>    C       -7.74736       -12.52402        -0.06021
| 62>    C       -7.82708       -11.29896         0.62671
| 63>    O       -6.96837       -10.98688         1.60989
| 64>    C       -6.78535       -13.50975         0.22329
| 65>    N       -6.01072       -14.32017         0.46080
| 66>    C       -8.91276       -13.83341        -1.82658
| 67>    C       -9.73179       -14.04711        -2.89681
| 68>    C      -10.41521       -13.15147        -3.80116
| 69>    C       -9.94834       -11.94050        -4.24546
| 70>    C      -10.62080       -11.13868        -5.18770
| 71>    N      -11.14498       -10.44125        -5.93398
| 72>    C       -8.69237       -11.41911        -3.87326
| 73>    N       -7.65739       -10.98756        -3.62789
| 74>    C      -11.53015       -13.89158        -4.38277
| 75>    C      -11.38166       -15.26271        -4.05321
| 76>    C      -10.19539       -15.43203        -3.18778
| 77>    O       -9.73146       -16.46094        -2.75695
| 78>    C      -12.25847       -16.22413        -4.49281
| 79>    C      -13.33750       -15.81099        -5.28207
| 80>    C      -13.48254       -14.43795        -5.59432
| 81>    C      -12.58957       -13.46568        -5.15945
| 82>    S      -14.89137       -14.14993        -6.56889
| 83>    C      -15.26005       -15.85439        -6.54768
| 84>    C      -14.37548       -16.60221        -5.84652
| 85>   Br      -16.77948       -16.48287        -7.44915
| 86>    H       -5.66859         4.63734         9.53513
| 87>    H       -4.53822        -0.22929         9.89172
| 88>    H       -3.92400         4.93973        11.71093
| 89>    H       -8.10856         0.30507         5.65623
| 90>    H       -8.72992         3.31184         5.63345
| 91>    H      -10.56360         3.81376         3.76393
| 92>    H      -11.99116         2.57089         2.00551
| 93>    H      -13.18175         0.75087         0.70368
| 94>    H      -13.88424        -1.52420        -0.28476
| 95>    H      -13.16899        -3.93424        -0.36216
| 96>    H      -10.14827        -4.03006         3.55965
| 97>    H      -13.11205        -4.78086         3.43548
| 98>    H      -12.26774        -3.77750         4.71802
| 99>    H       -8.25258        -7.12588         4.24430
|100>    H       -9.72383        -6.15076         4.46357
|101>    H       -8.36975        -5.52775         3.47403
|102>    H      -10.65516        -8.75942        -0.80091
|103>    H       -8.72132        -8.86958         1.56344
|104>    H       -7.14041       -10.09977         1.94978
|105>    H       -8.42077       -14.72229        -1.43968
|106>    H      -12.11836       -17.26228        -4.23592
|107>    H      -12.73988       -12.42991        -5.41612
|108>    H      -14.45023       -17.66789        -5.72966
|109> *
|110>
|111>                          ****END OF INPUT****

CARTESIAN COORDINATES (ANGSTROEM)
---------------------------------
  C     -6.421010    0.584980    7.797650
  C     -6.400740   -0.776050    7.585030
  C     -5.629260   -1.681540    8.339640
  N     -5.028100   -2.477340    8.910230
  C     -7.136460   -1.479750    6.612280
  N     -7.695470   -2.150710    5.863290
  C     -5.669390    1.284080    8.838540
  C     -5.968350    2.666640    8.763240
  C     -5.420320    3.590760    9.617190
  C     -4.532260    3.129820   10.596080
  C     -4.239330    1.748300   10.663550
  C     -4.794490    0.812630    9.797980
  S     -3.120870    1.393700   11.945840
  C     -3.063940    3.084430   12.367790
  C     -3.840670    3.875090   11.590130
  Br    -1.984340    3.645940   13.795740
  C     -6.925830    2.897750    7.659900
  O     -7.394270    3.967700    7.323100
  C     -7.180240    1.568900    7.073130
  C     -8.018350    1.327620    6.003370
  C     -8.779690    2.276320    5.330800
  C     -9.628070    1.923820    4.295730
  C    -10.506860    2.757410    3.570340
  C    -11.264150    2.098410    2.641660
  C    -11.008890    0.714950    2.586850
  S     -9.768840    0.273710    3.735950
  C    -11.607450   -0.269730    1.815720
  C    -12.697270   -0.182980    0.924730
  C    -13.069840   -1.387340    0.404570
  C    -12.296900   -2.487590    0.856610
  S    -11.054480   -1.917660    1.946280
  C    -12.449650   -3.788010    0.435420
  C    -11.732990   -4.940880    0.798510
  S    -11.723010   -6.245590   -0.362240
  C    -10.599100   -7.162510    0.584680
  C    -10.281280   -6.484240    1.777370
  C    -10.950410   -5.255040    1.919560
  C    -11.048010   -4.478770    3.163690
  C    -12.200330   -4.338590    3.802610
  O     -9.437620   -7.100490    2.634980
  C     -8.929370   -6.419400    3.764640
  C    -10.176760   -8.420580    0.110010
  C     -9.230730   -9.218250    0.676850
  C     -8.871370  -10.487590    0.173730
  S     -9.736650  -11.263350   -1.120670
  C     -8.709650  -12.665520   -1.067120
  C     -7.747360  -12.524020   -0.060210
  C     -7.827080  -11.298960    0.626710
  O     -6.968370  -10.986880    1.609890
  C     -6.785350  -13.509750    0.223290
  N     -6.010720  -14.320170    0.460800
  C     -8.912760  -13.833410   -1.826580
  C     -9.731790  -14.047110   -2.896810
  C    -10.415210  -13.151470   -3.801160
  C     -9.948340  -11.940500   -4.245460
  C    -10.620800  -11.138680   -5.187700
  N    -11.144980  -10.441250   -5.933980
  C     -8.692370  -11.419110   -3.873260
  N     -7.657390  -10.987560   -3.627890
  C    -11.530150  -13.891580   -4.382770
  C    -11.381660  -15.262710   -4.053210
  C    -10.195390  -15.432030   -3.187780
  O     -9.731460  -16.460940   -2.756950
  C    -12.258470  -16.224130   -4.492810
  C    -13.337500  -15.810990   -5.282070
  C    -13.482540  -14.437950   -5.594320
  C    -12.589570  -13.465680   -5.159450
  S    -14.891370  -14.149930   -6.568890
  C    -15.260050  -15.854390   -6.547680
  C    -14.375480  -16.602210   -5.846520
  Br   -16.779480  -16.482870   -7.449150
  H     -5.668590    4.637340    9.535130
  H     -4.538220   -0.229290    9.891720
  H     -3.924000    4.939730   11.710930
  H     -8.108560    0.305070    5.656230
  H     -8.729920    3.311840    5.633450
  H    -10.563600    3.813760    3.763930
  H    -11.991160    2.570890    2.005510
  H    -13.181750    0.750870    0.703680
  H    -13.884240   -1.524200   -0.284760
  H    -13.168990   -3.934240   -0.362160
  H    -10.148270   -4.030060    3.559650
  H    -13.112050   -4.780860    3.435480
  H    -12.267740   -3.777500    4.718020
  H     -8.252580   -7.125880    4.244300
  H     -9.723830   -6.150760    4.463570
  H     -8.369750   -5.527750    3.474030
  H    -10.655160   -8.759420   -0.800910
  H     -8.721320   -8.869580    1.563440
  H     -7.140410  -10.099770    1.949780
  H     -8.420770  -14.722290   -1.439680
  H    -12.118360  -17.262280   -4.235920
  H    -12.739880  -12.429910   -5.416120
  H    -14.450230  -17.667890   -5.729660

 Total Charge           Charge          ....    0
 Multiplicity           Mult            ....    1
 Number of Electrons    NEL             ....  580
 Basis Dimension        Dim             .... 1169

ORBITAL ENERGIES
----------------

  NO   OCC          E(Eh)            E(eV)
   0   2.0000    -482.887147    -13140.0273
   1   2.0000    -482.879482    -13139.8187
   2   2.0000     -88.981481     -2421.3092
   3   2.0000     -88.977506     -2421.2010
   4   2.0000     -88.973389     -2421.0890
   5   2.0000     -88.967752     -2420.9356
   6   2.0000     -88.967128     -2420.9186
   7   2.0000     -88.962258     -2420.7861
   8   2.0000     -62.564875     -1702.4768
   9   2.0000     -62.557207     -1702.2681
  10   2.0000     -56.398827     -1534.6901
  11   2.0000     -56.396106     -1534.6161
  12   2.0000     -56.396074     -1534.6152
  13   2.0000     -56.391149     -1534.4812
  14   2.0000     -56.388448     -1534.4077
  15   2.0000     -56.388412     -1534.4067
  16   2.0000     -19.273926      -524.4702
  17   2.0000     -19.272626      -524.4348
  18   2.0000     -19.215901      -522.8912
  19   2.0000     -19.203509      -522.5540
  20   2.0000     -14.419556      -392.3761
  21   2.0000     -14.414879      -392.2488
  22   2.0000     -14.409626      -392.1059
  23   2.0000     -14.409270      -392.0962
  24   2.0000     -14.402615      -391.9151
  25   2.0000     -10.367668      -282.1186
  26   2.0000     -10.366294      -282.0812
  27   2.0000     -10.360463      -281.9225
  28   2.0000     -10.360186      -281.9150
  29   2.0000     -10.353658      -281.7374
  30   2.0000     -10.351176      -281.6698
  31   2.0000     -10.346342      -281.5383
  32   2.0000     -10.344981      -281.5012
  33   2.0000     -10.338458      -281.3237
  34   2.0000     -10.336732      -281.2768
  35   2.0000     -10.336594      -281.2730
  36   2.0000     -10.330518      -281.1077
  37   2.0000     -10.328695      -281.0581
  38   2.0000     -10.328624      -281.0561
  39   2.0000     -10.328268      -281.0464
  40   2.0000     -10.328192      -281.0444
  41   2.0000     -10.328164      -281.0436
  42   2.0000     -10.326140      -280.9886
  43   2.0000     -10.325603      -280.9739
  44   2.0000     -10.325341      -280.9668
  45   2.0000     -10.324091      -280.9328
  46   2.0000     -10.321968      -280.8750
  47   2.0000     -10.318438      -280.7790
  48   2.0000     -10.317027      -280.7406
  49   2.0000     -10.316640      -280.7301
  50   2.0000     -10.316204      -280.7182
  51   2.0000     -10.313868      -280.6546
  52   2.0000     -10.311528      -280.5909
  53   2.0000     -10.310989      -280.5763
  54   2.0000     -10.310307      -280.5577
  55   2.0000     -10.309427      -280.5338
  56   2.0000     -10.309096      -280.5248
  57   2.0000     -10.308396      -280.5057
  58   2.0000     -10.308211      -280.5007
  59   2.0000     -10.307243      -280.4743
  60   2.0000     -10.305945      -280.4390
  61   2.0000     -10.305660      -280.4313
  62   2.0000     -10.303207      -280.3645
  63   2.0000     -10.302048      -280.3330
  64   2.0000     -10.301540      -280.3192
  65   2.0000     -10.300835      -280.3000
  66   2.0000     -10.298310      -280.2313
  67   2.0000     -10.298300      -280.2310
  68   2.0000     -10.297464      -280.2082
  69   2.0000     -10.296946      -280.1942
  70   2.0000     -10.295396      -280.1520
  71   2.0000     -10.295136      -280.1449
  72   2.0000     -10.293235      -280.0932
  73   2.0000     -10.291107      -280.0353
  74   2.0000     -10.289402      -279.9889
  75   2.0000     -10.281212      -279.7660
  76   2.0000     -10.281204      -279.7658
  77   2.0000     -10.279717      -279.7253
  78   2.0000     -10.278151      -279.6827
  79   2.0000      -8.794315      -239.3055
  80   2.0000      -8.786639      -239.0966
  81   2.0000      -8.076129      -219.7626
  82   2.0000      -8.073568      -219.6929
  83   2.0000      -8.069178      -219.5735
  84   2.0000      -8.063739      -219.4255
  85   2.0000      -8.063093      -219.4079
  86   2.0000      -8.058370      -219.2794
  87   2.0000      -6.630631      -180.4286
  88   2.0000      -6.622918      -180.2188
  89   2.0000      -6.616031      -180.0313
  90   2.0000      -6.615851      -180.0265
  91   2.0000      -6.608376      -179.8230
  92   2.0000      -6.608200      -179.8183
  93   2.0000      -6.045434      -164.5046
  94   2.0000      -6.043264      -164.4456
  95   2.0000      -6.041464      -164.3966
  96   2.0000      -6.038986      -164.3292
  97   2.0000      -6.038363      -164.3122
  98   2.0000      -6.038069      -164.3042
  99   2.0000      -6.034759      -164.2142
 100   2.0000      -6.034616      -164.2103
 101   2.0000      -6.033438      -164.1782
 102   2.0000      -6.032783      -164.1604
 103   2.0000      -6.031073      -164.1139
 104   2.0000      -6.029159      -164.0618
 105   2.0000      -6.028553      -164.0453
 106   2.0000      -6.027966      -164.0293
 107   2.0000      -6.024956      -163.9474
 108   2.0000      -6.024176      -163.9262
 109   2.0000      -6.023902      -163.9187
 110   2.0000      -6.019559      -163.8005
 111   2.0000      -2.746487       -74.7357
 112   2.0000      -2.742408       -74.6247
 113   2.0000      -2.742270       -74.6209
 114   2.0000      -2.738755       -74.5253
 115   2.0000      -2.734707       -74.4152
 116   2.0000      -2.734611       -74.4126
 117   2.0000      -2.730665       -74.3052
 118   2.0000      -2.730647       -74.3047
 119   2.0000      -2.723026       -74.0973
 120   2.0000      -2.723023       -74.0972
 121   2.0000      -1.174797       -31.9678
 122   2.0000      -1.172571       -31.9073
 123   2.0000      -1.131690       -30.7949
 124   2.0000      -1.116864       -30.3914
 125   2.0000      -1.026502       -27.9325
 126   2.0000      -1.018349       -27.7107
 127   2.0000      -1.017757       -27.6946
 128   2.0000      -1.013096       -27.5677
 129   2.0000      -1.012195       -27.5432
 130   2.0000      -1.005593       -27.3636
 131   2.0000      -1.004487       -27.3335
 132   2.0000      -0.995621       -27.0922
 133   2.0000      -0.992119       -26.9969
 134   2.0000      -0.991688       -26.9852
 135   2.0000      -0.987497       -26.8712
 136   2.0000      -0.984891       -26.8002
 137   2.0000      -0.978487       -26.6260
 138   2.0000      -0.945924       -25.7399
 139   2.0000      -0.934978       -25.4420
 140   2.0000      -0.933238       -25.3947
 141   2.0000      -0.916914       -24.9505
 142   2.0000      -0.910841       -24.7852
 143   2.0000      -0.909071       -24.7371
 144   2.0000      -0.899401       -24.4740
 145   2.0000      -0.898052       -24.4372
 146   2.0000      -0.895951       -24.3801
 147   2.0000      -0.888155       -24.1679
 148   2.0000      -0.878240       -23.8981
 149   2.0000      -0.876362       -23.8470
 150   2.0000      -0.868945       -23.6452
 151   2.0000      -0.867624       -23.6092
 152   2.0000      -0.866543       -23.5798
 153   2.0000      -0.853627       -23.2284
 154   2.0000      -0.840864       -22.8811
 155   2.0000      -0.840632       -22.8748
 156   2.0000      -0.832226       -22.6460
 157   2.0000      -0.828476       -22.5440
 158   2.0000      -0.820216       -22.3192
 159   2.0000      -0.811597       -22.0847
 160   2.0000      -0.804249       -21.8847
 161   2.0000      -0.786725       -21.4079
 162   2.0000      -0.776949       -21.1419
 163   2.0000      -0.763881       -20.7863
 164   2.0000      -0.756966       -20.5981
 165   2.0000      -0.748933       -20.3795
 166   2.0000      -0.741246       -20.1703
 167   2.0000      -0.728164       -19.8144
 168   2.0000      -0.719200       -19.5704
 169   2.0000      -0.708180       -19.2706
 170   2.0000      -0.704675       -19.1752
 171   2.0000      -0.700543       -19.0628
 172   2.0000      -0.693266       -18.8647
 173   2.0000      -0.687435       -18.7061
 174   2.0000      -0.685734       -18.6598
 175   2.0000      -0.680745       -18.5240
 176   2.0000      -0.674149       -18.3445
 177   2.0000      -0.669182       -18.2094
 178   2.0000      -0.661585       -18.0026
 179   2.0000      -0.660717       -17.9790
 180   2.0000      -0.655554       -17.8385
 181   2.0000      -0.648991       -17.6599
 182   2.0000      -0.639889       -17.4123
 183   2.0000      -0.635763       -17.3000
 184   2.0000      -0.631375       -17.1806
 185   2.0000      -0.626150       -17.0384
 186   2.0000      -0.622709       -16.9448
 187   2.0000      -0.617541       -16.8041
 188   2.0000      -0.613646       -16.6982
 189   2.0000      -0.613404       -16.6916
 190   2.0000      -0.601685       -16.3727
 191   2.0000      -0.591719       -16.1015
 192   2.0000      -0.590426       -16.0663
 193   2.0000      -0.585888       -15.9428
 194   2.0000      -0.584690       -15.9102
 195   2.0000      -0.580737       -15.8027
 196   2.0000      -0.576710       -15.6931
 197   2.0000      -0.573048       -15.5934
 198   2.0000      -0.563747       -15.3403
 199   2.0000      -0.557644       -15.1743
 200   2.0000      -0.555311       -15.1108
 201   2.0000      -0.547384       -14.8951
 202   2.0000      -0.544104       -14.8058
 203   2.0000      -0.541582       -14.7372
 204   2.0000      -0.540085       -14.6965
 205   2.0000      -0.538336       -14.6489
 206   2.0000      -0.536823       -14.6077
 207   2.0000      -0.535793       -14.5797
 208   2.0000      -0.531674       -14.4676
 209   2.0000      -0.529040       -14.3959
 210   2.0000      -0.526602       -14.3296
 211   2.0000      -0.525366       -14.2959
 212   2.0000      -0.521391       -14.1878
 213   2.0000      -0.519164       -14.1272
 214   2.0000      -0.518499       -14.1091
 215   2.0000      -0.515756       -14.0344
 216   2.0000      -0.512324       -13.9410
 217   2.0000      -0.511360       -13.9148
 218   2.0000      -0.507792       -13.8177
 219   2.0000      -0.505256       -13.7487
 220   2.0000      -0.500571       -13.6212
 221   2.0000      -0.500367       -13.6157
 222   2.0000      -0.499130       -13.5820
 223   2.0000      -0.498036       -13.5522
 224   2.0000      -0.495526       -13.4839
 225   2.0000      -0.487024       -13.2526
 226   2.0000      -0.485851       -13.2207
 227   2.0000      -0.483642       -13.1606
 228   2.0000      -0.482887       -13.1400
 229   2.0000      -0.482601       -13.1323
 230   2.0000      -0.480422       -13.0730
 231   2.0000      -0.477212       -12.9856
 232   2.0000      -0.476892       -12.9769
 233   2.0000      -0.471942       -12.8422
 234   2.0000      -0.466604       -12.6969
 235   2.0000      -0.462605       -12.5881
 236   2.0000      -0.459864       -12.5135
 237   2.0000      -0.456276       -12.4159
 238   2.0000      -0.452389       -12.3101
 239   2.0000      -0.451455       -12.2847
 240   2.0000      -0.451223       -12.2784
 241   2.0000      -0.449597       -12.2341
 242   2.0000      -0.449262       -12.2250
 243   2.0000      -0.445821       -12.1314
 244   2.0000      -0.445381       -12.1194
 245   2.0000      -0.444612       -12.0985
 246   2.0000      -0.442156       -12.0317
 247   2.0000      -0.440239       -11.9795
 248   2.0000      -0.439654       -11.9636
 249   2.0000      -0.437292       -11.8993
 250   2.0000      -0.435579       -11.8527
 251   2.0000      -0.434410       -11.8209
 252   2.0000      -0.432716       -11.7748
 253   2.0000      -0.430678       -11.7193
 254   2.0000      -0.429352       -11.6833
 255   2.0000      -0.426276       -11.5996
 256   2.0000      -0.425545       -11.5797
 257   2.0000      -0.421548       -11.4709
 258   2.0000      -0.419178       -11.4064
 259   2.0000      -0.417971       -11.3736
 260   2.0000      -0.415053       -11.2942
 261   2.0000      -0.412859       -11.2345
 262   2.0000      -0.411431       -11.1956
 263   2.0000      -0.410996       -11.1838
 264   2.0000      -0.404268       -11.0007
 265   2.0000      -0.398852       -10.8533
 266   2.0000      -0.398355       -10.8398
 267   2.0000      -0.389810       -10.6073
 268   2.0000      -0.383899       -10.4464
 269   2.0000      -0.378350       -10.2954
 270   2.0000      -0.376556       -10.2466
 271   2.0000      -0.373909       -10.1746
 272   2.0000      -0.369100       -10.0437
 273   2.0000      -0.367815       -10.0088
 274   2.0000      -0.359090        -9.7713
 275   2.0000      -0.351683        -9.5698
 276   2.0000      -0.346129        -9.4186
 277   2.0000      -0.336319        -9.1517
 278   2.0000      -0.335863        -9.1393
 279   2.0000      -0.324081        -8.8187
 280   2.0000      -0.320486        -8.7209
 281   2.0000      -0.319480        -8.6935
 282   2.0000      -0.317187        -8.6311
 283   2.0000      -0.309245        -8.4150
 284   2.0000      -0.306702        -8.3458
 285   2.0000      -0.298511        -8.1229
 286   2.0000      -0.295443        -8.0394
 287   2.0000      -0.285202        -7.7607
 288   2.0000      -0.259696        -7.0667
 289   2.0000      -0.225599        -6.1389
 290   0.0000      -0.120375        -3.2756
 291   0.0000      -0.101067        -2.7502
 292   0.0000      -0.067233        -1.8295
 293   0.0000      -0.060844        -1.6557
 294   0.0000      -0.046663        -1.2698

MULLIKEN ATOMIC CHARGES
-----------------------
   0 C :    0.333337
   1 C :   -0.370748
   2 C :   -0.195316
   3 N :    0.138232
   4 C :   -0.186875
   5 N :    0.117179
   6 C :    0.012501
   7 C :   -0.009808
   8 C :   -0.077137
   9 C :    0.119000
  10 C :   -0.092456
  11 C :   -0.026214
  12 S :    0.180457
  13 C :   -0.123275
  14 C :    0.035123
  15 Br:    0.016213
  16 C :    0.134289
  17 O :   -0.161395
  18 C :   -0.083921
  19 C :   -0.051249
  20 C :   -0.015234
  21 C :    0.005260
  22 C :    0.023051
  23 C :    0.047888
  24 C :   -0.047912
  25 S :    0.088405
  26 C :   -0.024491
  27 C :    0.026112
  28 C :    0.046807
  29 C :   -0.032308
  30 S :    0.102896
  31 C :    0.030021
  32 C :   -0.148962
  33 S :    0.149286
  34 C :   -0.139570
  35 C :    0.192344
  36 C :    0.015589
  37 C :   -0.097742
  38 C :    0.030562
  39 O :   -0.321492
  40 C :    0.172710
  41 C :    0.037266
  42 C :   -0.024095
  43 C :   -0.093292
  44 S :    0.153428
  45 C :   -0.049537
  46 C :   -0.058107
  47 C :    0.151452
  48 O :   -0.145565
  49 C :   -0.194279
  50 N :    0.162705
  51 C :    0.007961
  52 C :   -0.123970
  53 C :    0.242939
  54 C :   -0.321260
  55 C :   -0.175413
  56 N :    0.150607
  57 C :   -0.213768
  58 N :    0.181498
  59 C :    0.007090
  60 C :    0.003313
  61 C :    0.134932
  62 O :   -0.133934
  63 C :   -0.071701
  64 C :    0.110863
  65 C :   -0.085210
  66 C :   -0.024351
  67 S :    0.183720
  68 C :   -0.125710
  69 C :    0.041559
  70 Br:    0.024480
  71 H :   -0.014362
  72 H :   -0.009712
  73 H :   -0.004828
  74 H :    0.016711
  75 H :    0.015633
  76 H :    0.001063
  77 H :   -0.004147
  78 H :   -0.007035
  79 H :   -0.000615
  80 H :   -0.000011
  81 H :    0.044516
  82 H :    0.027424
  83 H :    0.035951
  84 H :    0.036254
  85 H :    0.051026
  86 H :    0.045075
  87 H :   -0.008199
  88 H :   -0.014134
  89 H :    0.192185
  90 H :    0.043075
  91 H :   -0.006409
  92 H :   -0.003581
  93 H :   -0.000658
Sum of atomic charges:   -0.0000000

LOEWDIN ATOMIC CHARGES
----------------------
   0 C :    0.075154
   1 C :   -0.161807
   2 C :   -0.020030
   3 N :   -0.070730
   4 C :   -0.015845
   5 N :   -0.084324
   6 C :   -0.018820
   7 C :   -0.048560
   8 C :    0.017485
   9 C :   -0.035303
  10 C :   -0.145968
  11 C :   -0.013281
  12 S :    0.428205
  13 C :   -0.274266
  14 C :   -0.071061
  15 Br:    0.131100
  16 C :    0.081218
  17 O :   -0.157306
  18 C :   -0.109758
  19 C :    0.046358
  20 C :   -0.072489
  21 C :   -0.102488
  22 C :   -0.043585
  23 C :   -0.006853
  24 C :   -0.194352
  25 S :    0.409022
  26 C :   -0.148374
  27 C :   -0.044341
  28 C :   -0.008379
  29 C :   -0.157659
  30 S :    0.441287
  31 C :   -0.050138
  32 C :   -0.166555
  33 S :    0.452553
  34 C :   -0.195697
  35 C :    0.038351
  36 C :   -0.084902
  37 C :   -0.051843
  38 C :   -0.018464
  39 O :   -0.092115
  40 C :    0.084426
  41 C :   -0.031381
  42 C :   -0.052253
  43 C :   -0.191329
  44 S :    0.490240
  45 C :   -0.149965
  46 C :   -0.089605
  47 C :    0.039345
  48 O :   -0.024055
  49 C :   -0.028471
  50 N :   -0.031932
  51 C :    0.047344
  52 C :   -0.089143
  53 C :    0.059835
  54 C :   -0.144418
  55 C :   -0.019862
  56 N :   -0.052287
  57 C :   -0.041113
  58 N :   -0.043119
  59 C :   -0.017257
  60 C :   -0.051587
  61 C :    0.082963
  62 O :   -0.135356
  63 C :    0.023883
  64 C :   -0.033288
  65 C :   -0.142915
  66 C :   -0.013869
  67 S :    0.431005
  68 C :   -0.271966
  69 C :   -0.069362
  70 Br:    0.137434
  71 H :    0.039113
  72 H :    0.039968
  73 H :    0.037930
  74 H :    0.028905
  75 H :    0.038929
  76 H :    0.038876
  77 H :    0.036037
  78 H :    0.034794
  79 H :    0.037580
  80 H :    0.038825
  81 H :    0.032202
  82 H :    0.026130
  83 H :    0.029997
  84 H :    0.029549
  85 H :    0.025949
  86 H :    0.024560
  87 H :    0.025223
  88 H :    0.025291
  89 H :    0.101261
  90 H :    0.058890
  91 H :    0.042483
  92 H :    0.040394
  93 H :    0.039732

  Mayer bond orders larger than 0.100000
B(  0-C ,  1-C ) :   1.5669 B(  0-C ,  6-C ) :   0.9895 B(  0-C , 18-C ) :   1.1260
B(  1-C ,  2-C ) :   1.1517 B(  1-C ,  4-C ) :   1.1585 B(  2-C ,  3-N ) :   2.9641
B(  4-C ,  5-N ) :   2.9587 B(  6-C ,  7-C ) :   1.2768 B(  6-C , 11-C ) :   1.4208
B(  7-C ,  8-C ) :   1.4313 B(  7-C , 16-C ) :   0.9332 B(  8-C ,  9-C ) :   1.2394
B(  8-C , 71-H ) :   1.0162 B(  9-C , 10-C ) :   1.3148 B(  9-C , 14-C ) :   1.1615
B( 10-C , 11-C ) :   1.3217 B( 10-C , 12-S ) :   1.0835 B( 11-C , 72-H ) :   0.9792
B( 12-S , 13-C ) :   1.0860 B( 13-C , 14-C ) :   1.6191 B( 13-C , 15-Br) :   1.0140
B( 14-C , 73-H ) :   1.0002 B( 16-C , 17-O ) :   2.1969 B( 16-C , 18-C ) :   0.9653
B( 18-C , 19-C ) :   1.4699 B( 19-C , 20-C ) :   1.2730 B( 19-C , 74-H ) :   0.9385
B( 20-C , 21-C ) :   1.4006 B( 20-C , 75-H ) :   0.9826 B( 21-C , 22-C ) :   1.1891
B( 21-C , 25-S ) :   1.0893 B( 22-C , 23-C ) :   1.5283 B( 22-C , 76-H ) :   1.0011
B( 23-C , 24-C ) :   1.2276 B( 23-C , 77-H ) :   0.9961 B( 24-C , 25-S ) :   1.0477
B( 24-C , 26-C ) :   1.4432 B( 26-C , 27-C ) :   1.2000 B( 26-C , 30-S ) :   1.0917
B( 27-C , 28-C ) :   1.5727 B( 27-C , 78-H ) :   0.9946 B( 28-C , 29-C ) :   1.1536
B( 28-C , 79-H ) :   0.9992 B( 29-C , 30-S ) :   1.0432 B( 29-C , 31-C ) :   1.5828
B( 31-C , 32-C ) :   1.1869 B( 31-C , 80-H ) :   0.9434 B( 32-C , 33-S ) :   1.1107
B( 32-C , 34-C ) :   0.1033 B( 32-C , 36-C ) :   1.4103 B( 33-S , 34-C ) :   1.1182
B( 34-C , 35-C ) :   1.3837 B( 34-C , 41-C ) :   1.1794 B( 35-C , 36-C ) :   1.2911
B( 35-C , 39-O ) :   1.1715 B( 36-C , 37-C ) :   1.0043 B( 37-C , 38-C ) :   2.0025
B( 37-C , 81-H ) :   0.9278 B( 38-C , 82-H ) :   0.9588 B( 38-C , 83-H ) :   0.9533
B( 39-O , 40-C ) :   0.9239 B( 40-C , 84-H ) :   0.9747 B( 40-C , 85-H ) :   0.9641
B( 40-C , 86-H ) :   0.9729 B( 41-C , 42-C ) :   1.6447 B( 41-C , 87-H ) :   0.9497
B( 42-C , 43-C ) :   1.1420 B( 42-C , 88-H ) :   0.9569 B( 43-C , 44-S ) :   1.1064
B( 43-C , 47-C ) :   1.3535 B( 44-S , 45-C ) :   1.1129 B( 45-C , 46-C ) :   1.4191
B( 45-C , 51-C ) :   1.1884 B( 46-C , 47-C ) :   1.3073 B( 46-C , 49-C ) :   1.1050
B( 47-C , 48-O ) :   1.3253 B( 48-O , 89-H ) :   0.9514 B( 49-C , 50-N ) :   3.0207
B( 51-C , 52-C ) :   1.6211 B( 51-C , 90-H ) :   0.9399 B( 52-C , 53-C ) :   1.0398
B( 52-C , 61-C ) :   0.9405 B( 53-C , 54-C ) :   1.6494 B( 53-C , 59-C ) :   1.0161
B( 54-C , 55-C ) :   1.1343 B( 54-C , 57-C ) :   1.1538 B( 55-C , 56-N ) :   2.9887
B( 57-C , 58-N ) :   3.0235 B( 59-C , 60-C ) :   1.2731 B( 59-C , 66-C ) :   1.4177
B( 60-C , 61-C ) :   0.9206 B( 60-C , 63-C ) :   1.4270 B( 61-C , 62-O ) :   2.2706
B( 63-C , 64-C ) :   1.2524 B( 63-C , 91-H ) :   1.0167 B( 64-C , 65-C ) :   1.3079
B( 64-C , 69-C ) :   1.1636 B( 65-C , 66-C ) :   1.3248 B( 65-C , 67-S ) :   1.0839
B( 66-C , 92-H ) :   0.9843 B( 67-S , 68-C ) :   1.0863 B( 68-C , 69-C ) :   1.6191
B( 68-C , 70-Br) :   1.0196 B( 69-C , 93-H ) :   1.0003

-----------------------------------------------------------------------------
         ABSORPTION SPECTRUM VIA TRANSITION ELECTRIC DIPOLE MOMENTS
-----------------------------------------------------------------------------
State   Energy  Wavelength   fosc         T2         TX        TY        TZ
        (cm-1)    (nm)                  (au**2)     (au)      (au)      (au)
-----------------------------------------------------------------------------
   0    9754.8   1025.1   1.485763686  50.14265   1.90755   5.28468   4.31000
   1   14930.9    669.8   0.191987662   4.23314   1.20861  -1.63891  -0.29391
   2   17706.2    564.8   0.170031369   3.16140  -1.20332   1.26924  -0.32010
   3   21134.0    473.2   0.536492565   8.35714  -1.36218   2.36932  -0.94230
   4   22246.6    449.5   0.290755086   4.30268   1.26460  -0.74871   1.46386
   5   23457.4    426.3   0.075004052   1.05264   0.64737  -0.79074  -0.09100
   6   24274.2    412.0   0.216291856   2.93340   0.70656   1.32368   0.82585
   7   24483.9    408.4   0.011497817   0.15460  -0.18566  -0.26074   0.22835
   8   24901.5    401.6   0.003863384   0.05108  -0.07791  -0.11537   0.17803
   9   25205.6    396.7   0.128655492   1.68038  -0.45255  -1.21255   0.07286
  10   26827.6    372.8   0.374929905   4.60092   1.43795  -0.63977   1.45737
  11   26973.8    370.7   0.005992749   0.07314   0.17688  -0.08186   0.18749
  12   27515.3    363.4   0.006866584   0.08216  -0.23270  -0.08998  -0.14110
  13   27787.7    359.9   0.124536025   1.47543  -0.75414   0.56472  -0.76668
  14   28156.7    355.2   0.033227589   0.38850  -0.38504  -0.01882  -0.48978
  15   28655.1    349.0   0.113412761   1.30297   0.85244   0.21719   0.72743
  16   28777.8    347.5   0.047392119   0.54216   0.35088  -0.21773   0.60962
  17   29780.1    335.8   0.077828340   0.86037  -0.66803   0.35538  -0.53649
  18   30195.9    331.2   0.067956060   0.74089  -0.70568   0.12882  -0.47572
  19   30571.2    327.1   0.074511719   0.80239  -0.63724  -0.14703  -0.61213
  20   30853.2    324.1   0.036360508   0.38798   0.18272  -0.27864   0.52626
  21   31568.8    316.8   0.031360875   0.32704  -0.08030  -0.56273  -0.06268
  22   31778.8    314.7   0.766138487   7.93681  -1.20171  -1.95335  -1.63619
  23   31817.4    314.3   0.158214984   1.63704  -0.99907   0.13867  -0.78718
  24   32021.5    312.3   0.182113459   1.87230   1.14229   0.72507   0.20431
  25   32457.5    308.1   0.020183169   0.20472   0.31550  -0.28553  -0.15379
  26   32695.9    305.8   0.000064007   0.00064   0.01925   0.01535   0.00619
  27   32888.9    304.1   0.033148760   0.33181   0.04925   0.25315  -0.51507
  28   33027.8    302.8   0.189484403   1.88873   1.07134   0.68972   0.51502
  29   33539.7    298.2   0.046186167   0.45334   0.58366   0.32367   0.08905
  30   34157.3    292.8   0.083076534   0.80070   0.81701  -0.06796   0.35858
  31   34368.5    291.0   0.029685055   0.28435  -0.47604   0.18318  -0.15550
  32   34395.9    290.7   0.152321343   1.45791  -0.85535  -0.69124  -0.49846
  33   34728.0    288.0   0.014680778   0.13917   0.15038   0.25981   0.22148
  34   35799.0    279.3   0.101199099   0.93064  -0.11901  -0.92207  -0.25742
  35   35952.6    278.1   0.016070040   0.14715   0.26883  -0.18042   0.20575
  36   36336.4    275.2   0.105393481   0.95488   0.08587   0.95089   0.20810
  37   36663.4    272.8   0.077267968   0.69381  -0.05754  -0.73560   0.38651
  38   37120.8    269.4   0.050308637   0.44617   0.34259   0.43696   0.37130
  39   37520.5    266.5   0.008961351   0.07863   0.11705  -0.17573   0.18451
  40   37896.9    263.9   0.035206388   0.30584   0.44891  -0.30176   0.11516
  41   37971.8    263.4   0.011945515   0.10357  -0.01388   0.31904   0.03988
  42   38245.6    261.5   0.061887129   0.53271  -0.45281  -0.44820  -0.35608
  43   38612.4    259.0   0.031898344   0.27197   0.03024  -0.51906   0.04031
  44   38677.3    258.5   0.006950389   0.05916   0.10353   0.21806  -0.02988
  45   38970.0    256.6   0.031402703   0.26528   0.15904  -0.20137   0.44659
  46   39051.8    256.1   0.146070928   1.23140  -0.70259   0.75040  -0.41792
  47   39155.5    255.4   0.006611162   0.05559   0.17414   0.15407   0.03904
  48   39332.2    254.2   0.072754297   0.60896  -0.63506  -0.03922  -0.45180
  49   39698.7    251.9   0.222384905   1.84419  -0.38336   1.10885  -0.68386
  50   40004.4    250.0   0.134126813   1.10378  -0.20989   1.02398  -0.10578
  51   40098.3    249.4   0.014942654   0.12268  -0.01141  -0.34526  -0.05785
  52   40296.5    248.2   0.141594163   1.15679  -0.15997  -0.99077  -0.38675

FINAL SINGLE POINT ENERGY    -10179.065861084793

DIPOLE MOMENT
-------------
                                X             Y             Z
Electronic contribution:      8.61328     -34.13210      10.24580
Nuclear contribution   :    -13.13784      36.81964     -10.56987
                        -----------------------------------------
Total Dipole Moment    :     -4.52456       2.68754      -0.32407
                        -----------------------------------------
Magnitude (a.u.)       :      5.27253
Magnitude (Debye)      :     13.40170

Rotational constants in cm-1:     0.001461     0.000149     0.000138
Rotational constants in MHz :    43.807825     4.471824     4.128770

                             ****ORCA TERMINATED NORMALLY****
TOTAL RUN TIME: 0 days 0 hours 10 minutes 38 seconds 177 msec
