                         Program Version 4.2.0 -  RELEASE  -
|  1> # ORCA input file
|  2> # SCF done       -197.119291481887          0.000382657752
|  3> ! CAM-B3LYP def2-SVP def2/J RIJCOSX Grid4 TightSCF
|  4> %maxcore 5000
|  5> %tddft
|  6>     Mode sTDDFT
|  7>     Ethresh 5.0
|  8>     maxcore 5000
|  9> end
| 10>
| 11> %pal
| 12>   nprocs 6
| 13>   end
| 14> * xyz 0 1
| 15>    C       -0.10626         3.02252         4.05901
| 16>    C        0.86905         2.49284         3.25519
| 17>    C        2.25111         2.71047         3.44327
| 18>    N        3.38689         2.84807         3.53681
| 19>    C        0.66962         1.63774         2.15000
| 20>    N        0.61599         0.93406         1.24341
| 21>    C        0.13688         3.85336         5.23035
| 22>    C       -1.09724         4.09195         5.87964
| 23>    C       -1.20259         4.85280         7.01878
| 24>    C       -0.03198         5.41172         7.54039
| 25>    C        1.19864         5.17088         6.88291
| 26>    C        1.30485         4.39770         5.73442
| 27>    S        2.51913         5.96311         7.68832
| 28>    C        1.41570         6.59846         8.87975
| 29>    C        0.12487         6.23679         8.68739
| 30>   Br        2.07146         7.68225        10.26257
| 31>    C       -2.18897         3.42940         5.13704
| 32>    O       -3.35565         3.42619         5.46034
| 33>    C       -1.54684         2.82373         3.94067
| 34>    C       -2.14185         2.29384         2.83573
| 35>    C       -3.50538         2.03293         2.51855
| 36>    C       -3.88202         1.77243         1.24917
| 37>    C       -5.35845         1.63297         1.12622
| 38>    C       -5.83282         1.42266         2.58149
| 39>    C       -4.69337         2.01246         3.43558
| 40>    C       -7.18553         2.14430         2.69020
| 41>    C       -7.08731         3.30095         1.67450
| 42>    C       -6.81619         4.50229         2.54418
| 43>    C       -7.01442         4.23236         3.82342
| 44>    C       -7.45307         2.81481         4.04616
| 45>    C       -6.00074         2.93921         0.70638
| 46>    C       -5.64229         3.71235        -0.33232
| 47>    C       -4.66871         3.39870        -1.32096
| 48>    C       -4.10501         4.32169        -2.14821
| 49>    C       -3.15017         4.09004        -3.17742
| 50>    C       -2.71095         5.21375        -3.79782
| 51>    C       -3.27841         6.41206        -3.29449
| 52>    S       -4.42521         6.05157        -2.02115
| 53>    C       -2.99080         7.70380        -3.67068
| 54>    C       -2.07217         8.14152        -4.65548
| 55>    C       -1.98093         9.49121        -4.76299
| 56>    C       -2.81873        10.21775        -3.86949
| 57>    S       -3.74373         9.08458        -2.89478
| 58>    C       -2.89649        11.57963        -3.80299
| 59>    C       -3.71361        12.38110        -2.96870
| 60>    C       -3.79494        13.73384        -3.07342
| 61>    C       -4.87418        14.20843        -2.16320
| 62>    C       -4.80127        13.15528        -1.05138
| 63>    C       -4.61848        11.87166        -1.85759
| 64>    C       -5.95989        13.54002        -0.14274
| 65>    C       -5.83792        15.09460        -0.16816
| 66>    C       -5.11149        15.38907         1.11703
| 67>    C       -5.06242        14.33505         1.91292
| 68>    C       -5.74315        13.13686         1.32130
| 69>    C       -5.09600        15.47936        -1.43228
| 70>    C       -4.77332        16.74386        -1.75564
| 71>    C       -4.13144        17.20399        -2.94341
| 72>    C       -4.19836        16.71924        -4.21245
| 73>    C       -5.05044        15.73080        -4.83221
| 74>    C       -6.35494        15.45382        -4.50769
| 75>    C       -7.14736        14.51203        -5.19303
| 76>    N       -7.82285        13.73380        -5.69967
| 77>    C       -7.07293        16.14223        -3.50913
| 78>    N       -7.71559        16.68113        -2.72543
| 79>    C       -4.33826        15.21436        -5.99577
| 80>    C       -3.21071        16.03818        -6.24008
| 81>    C       -3.13734        17.08125        -5.19293
| 82>    O       -2.34720        17.99281        -5.11115
| 83>    C       -2.33420        15.79802        -7.26978
| 84>    C       -2.56640        14.67799        -8.07634
| 85>    C       -3.68141        13.84967        -7.80713
| 86>    C       -4.58269        14.10491        -6.78093
| 87>    S       -3.75355        12.49903        -8.89803
| 88>    C       -2.30828        13.06283        -9.69637
| 89>    C       -1.79611        14.20127        -9.17323
| 90>   Br       -1.60861        12.08747       -11.13873
| 91>    H       -2.15976         5.01479         7.48920
| 92>    H        2.26477         4.24951         5.26928
| 93>    H       -0.68461         6.53977         9.32604
| 94>    H       -1.47747         2.05225         2.01369
| 95>    H       -3.21504         1.73740         0.40544
| 96>    H       -5.65515         0.82982         0.44455
| 97>    H       -5.94137         0.35967         2.80867
| 98>    H       -4.49648         1.42363         4.33001
| 99>    H       -4.91906         3.02991         3.75213
|100>    H       -7.98167         1.44600         2.42504
|101>    H       -8.02277         3.46662         1.12568
|102>    H       -6.51574         5.44342         2.11917
|103>    H       -6.90502         4.92200         4.64246
|104>    H       -8.51929         2.79134         4.28764
|105>    H       -6.91889         2.33574         4.86588
|106>    H       -6.12847         4.67502        -0.44392
|107>    H       -4.36298         2.36878        -1.43914
|108>    H       -2.82323         3.09338        -3.41697
|109>    H       -1.99050         5.22310        -4.59599
|110>    H       -1.50724         7.44717        -5.25119
|111>    H       -1.33468        10.00419        -5.45352
|112>    H       -2.27090        12.12410        -4.50112
|113>    H       -3.20401        14.33597        -3.73596
|114>    H       -5.83391        14.02739        -2.69645
|115>    H       -3.87342        13.32919        -0.49227
|116>    H       -5.56527        11.51245        -2.26975
|117>    H       -4.16139        11.06504        -1.28752
|118>    H       -6.91212        13.18954        -0.54345
|119>    H       -6.80916        15.60244        -0.16065
|120>    H       -4.71351        16.36679         1.32291
|121>    H       -4.61469        14.30162         2.89123
|122>    H       -6.69336        12.95621         1.83017
|123>    H       -5.14161        12.23087         1.41044
|124>    H       -4.95096        17.50995        -1.01030
|125>    H       -3.46022        18.04904        -2.81893
|126>    H       -1.48691        16.44345        -7.44060
|127>    H       -5.41457        13.44322        -6.60532
|128>    H       -0.91054        14.68600        -9.54174
|129> *
|130>
|131>                          ****END OF INPUT****

CARTESIAN COORDINATES (ANGSTROEM)
---------------------------------
  C     -0.106260    3.022520    4.059010
  C      0.869050    2.492840    3.255190
  C      2.251110    2.710470    3.443270
  N      3.386890    2.848070    3.536810
  C      0.669620    1.637740    2.150000
  N      0.615990    0.934060    1.243410
  C      0.136880    3.853360    5.230350
  C     -1.097240    4.091950    5.879640
  C     -1.202590    4.852800    7.018780
  C     -0.031980    5.411720    7.540390
  C      1.198640    5.170880    6.882910
  C      1.304850    4.397700    5.734420
  S      2.519130    5.963110    7.688320
  C      1.415700    6.598460    8.879750
  C      0.124870    6.236790    8.687390
  Br     2.071460    7.682250   10.262570
  C     -2.188970    3.429400    5.137040
  O     -3.355650    3.426190    5.460340
  C     -1.546840    2.823730    3.940670
  C     -2.141850    2.293840    2.835730
  C     -3.505380    2.032930    2.518550
  C     -3.882020    1.772430    1.249170
  C     -5.358450    1.632970    1.126220
  C     -5.832820    1.422660    2.581490
  C     -4.693370    2.012460    3.435580
  C     -7.185530    2.144300    2.690200
  C     -7.087310    3.300950    1.674500
  C     -6.816190    4.502290    2.544180
  C     -7.014420    4.232360    3.823420
  C     -7.453070    2.814810    4.046160
  C     -6.000740    2.939210    0.706380
  C     -5.642290    3.712350   -0.332320
  C     -4.668710    3.398700   -1.320960
  C     -4.105010    4.321690   -2.148210
  C     -3.150170    4.090040   -3.177420
  C     -2.710950    5.213750   -3.797820
  C     -3.278410    6.412060   -3.294490
  S     -4.425210    6.051570   -2.021150
  C     -2.990800    7.703800   -3.670680
  C     -2.072170    8.141520   -4.655480
  C     -1.980930    9.491210   -4.762990
  C     -2.818730   10.217750   -3.869490
  S     -3.743730    9.084580   -2.894780
  C     -2.896490   11.579630   -3.802990
  C     -3.713610   12.381100   -2.968700
  C     -3.794940   13.733840   -3.073420
  C     -4.874180   14.208430   -2.163200
  C     -4.801270   13.155280   -1.051380
  C     -4.618480   11.871660   -1.857590
  C     -5.959890   13.540020   -0.142740
  C     -5.837920   15.094600   -0.168160
  C     -5.111490   15.389070    1.117030
  C     -5.062420   14.335050    1.912920
  C     -5.743150   13.136860    1.321300
  C     -5.096000   15.479360   -1.432280
  C     -4.773320   16.743860   -1.755640
  C     -4.131440   17.203990   -2.943410
  C     -4.198360   16.719240   -4.212450
  C     -5.050440   15.730800   -4.832210
  C     -6.354940   15.453820   -4.507690
  C     -7.147360   14.512030   -5.193030
  N     -7.822850   13.733800   -5.699670
  C     -7.072930   16.142230   -3.509130
  N     -7.715590   16.681130   -2.725430
  C     -4.338260   15.214360   -5.995770
  C     -3.210710   16.038180   -6.240080
  C     -3.137340   17.081250   -5.192930
  O     -2.347200   17.992810   -5.111150
  C     -2.334200   15.798020   -7.269780
  C     -2.566400   14.677990   -8.076340
  C     -3.681410   13.849670   -7.807130
  C     -4.582690   14.104910   -6.780930
  S     -3.753550   12.499030   -8.898030
  C     -2.308280   13.062830   -9.696370
  C     -1.796110   14.201270   -9.173230
  Br    -1.608610   12.087470  -11.138730
  H     -2.159760    5.014790    7.489200
  H      2.264770    4.249510    5.269280
  H     -0.684610    6.539770    9.326040
  H     -1.477470    2.052250    2.013690
  H     -3.215040    1.737400    0.405440
  H     -5.655150    0.829820    0.444550
  H     -5.941370    0.359670    2.808670
  H     -4.496480    1.423630    4.330010
  H     -4.919060    3.029910    3.752130
  H     -7.981670    1.446000    2.425040
  H     -8.022770    3.466620    1.125680
  H     -6.515740    5.443420    2.119170
  H     -6.905020    4.922000    4.642460
  H     -8.519290    2.791340    4.287640
  H     -6.918890    2.335740    4.865880
  H     -6.128470    4.675020   -0.443920
  H     -4.362980    2.368780   -1.439140
  H     -2.823230    3.093380   -3.416970
  H     -1.990500    5.223100   -4.595990
  H     -1.507240    7.447170   -5.251190
  H     -1.334680   10.004190   -5.453520
  H     -2.270900   12.124100   -4.501120
  H     -3.204010   14.335970   -3.735960
  H     -5.833910   14.027390   -2.696450
  H     -3.873420   13.329190   -0.492270
  H     -5.565270   11.512450   -2.269750
  H     -4.161390   11.065040   -1.287520
  H     -6.912120   13.189540   -0.543450
  H     -6.809160   15.602440   -0.160650
  H     -4.713510   16.366790    1.322910
  H     -4.614690   14.301620    2.891230
  H     -6.693360   12.956210    1.830170
  H     -5.141610   12.230870    1.410440
  H     -4.950960   17.509950   -1.010300
  H     -3.460220   18.049040   -2.818930
  H     -1.486910   16.443450   -7.440600
  H     -5.414570   13.443220   -6.605320
  H     -0.910540   14.686000   -9.541740

 Total Charge           Charge          ....    0
 Multiplicity           Mult            ....    1
 Number of Electrons    NEL             ....  600
 Basis Dimension        Dim             .... 1306

ORBITAL ENERGIES
----------------

  NO   OCC          E(Eh)            E(eV)
   0   2.0000    -482.886901    -13140.0206
   1   2.0000    -482.885343    -13139.9782
   2   2.0000     -88.976606     -2421.1765
   3   2.0000     -88.974850     -2421.1288
   4   2.0000     -88.942823     -2420.2573
   5   2.0000     -88.940864     -2420.2039
   6   2.0000     -62.564634     -1702.4703
   7   2.0000     -62.563067     -1702.4276
   8   2.0000     -56.398585     -1534.6835
   9   2.0000     -56.397014     -1534.6408
  10   2.0000     -56.395865     -1534.6095
  11   2.0000     -56.395836     -1534.6087
  12   2.0000     -56.394303     -1534.5670
  13   2.0000     -56.394271     -1534.5661
  14   2.0000     -19.216120      -522.8972
  15   2.0000     -19.211952      -522.7838
  16   2.0000     -14.416044      -392.2805
  17   2.0000     -14.414560      -392.2401
  18   2.0000     -14.413145      -392.2016
  19   2.0000     -14.411406      -392.1543
  20   2.0000     -10.369161      -282.1592
  21   2.0000     -10.363153      -281.9957
  22   2.0000     -10.360299      -281.9181
  23   2.0000     -10.357806      -281.8502
  24   2.0000     -10.341802      -281.4147
  25   2.0000     -10.341200      -281.3984
  26   2.0000     -10.339052      -281.3399
  27   2.0000     -10.336402      -281.2678
  28   2.0000     -10.326801      -281.0065
  29   2.0000     -10.324798      -280.9520
  30   2.0000     -10.319297      -280.8023
  31   2.0000     -10.317741      -280.7600
  32   2.0000     -10.316156      -280.7169
  33   2.0000     -10.315010      -280.6857
  34   2.0000     -10.313698      -280.6500
  35   2.0000     -10.309495      -280.5356
  36   2.0000     -10.308936      -280.5204
  37   2.0000     -10.308702      -280.5141
  38   2.0000     -10.308553      -280.5100
  39   2.0000     -10.307227      -280.4739
  40   2.0000     -10.306630      -280.4577
  41   2.0000     -10.306527      -280.4549
  42   2.0000     -10.306222      -280.4466
  43   2.0000     -10.305947      -280.4391
  44   2.0000     -10.303995      -280.3859
  45   2.0000     -10.303238      -280.3654
  46   2.0000     -10.301766      -280.3253
  47   2.0000     -10.300353      -280.2869
  48   2.0000     -10.297980      -280.2223
  49   2.0000     -10.297949      -280.2214
  50   2.0000     -10.297421      -280.2071
  51   2.0000     -10.296203      -280.1739
  52   2.0000     -10.292438      -280.0715
  53   2.0000     -10.291150      -280.0364
  54   2.0000     -10.290812      -280.0272
  55   2.0000     -10.290754      -280.0257
  56   2.0000     -10.286837      -279.9191
  57   2.0000     -10.286537      -279.9109
  58   2.0000     -10.284373      -279.8520
  59   2.0000     -10.283853      -279.8379
  60   2.0000     -10.282726      -279.8072
  61   2.0000     -10.280841      -279.7559
  62   2.0000     -10.278473      -279.6915
  63   2.0000     -10.278381      -279.6890
  64   2.0000     -10.278337      -279.6878
  65   2.0000     -10.277858      -279.6747
  66   2.0000     -10.276284      -279.6319
  67   2.0000     -10.276235      -279.6306
  68   2.0000     -10.274123      -279.5731
  69   2.0000     -10.269719      -279.4532
  70   2.0000     -10.269200      -279.4391
  71   2.0000     -10.269160      -279.4380
  72   2.0000     -10.268964      -279.4327
  73   2.0000     -10.268730      -279.4264
  74   2.0000     -10.268159      -279.4108
  75   2.0000     -10.267069      -279.3812
  76   2.0000     -10.266391      -279.3627
  77   2.0000     -10.263882      -279.2944
  78   2.0000     -10.263502      -279.2841
  79   2.0000     -10.262078      -279.2453
  80   2.0000     -10.261435      -279.2279
  81   2.0000     -10.260505      -279.2025
  82   2.0000     -10.259626      -279.1786
  83   2.0000     -10.255461      -279.0653
  84   2.0000      -8.794077      -239.2990
  85   2.0000      -8.792501      -239.2561
  86   2.0000      -8.072619      -219.6671
  87   2.0000      -8.070776      -219.6170
  88   2.0000      -8.038581      -218.7409
  89   2.0000      -8.037114      -218.7010
  90   2.0000      -6.630400      -180.4223
  91   2.0000      -6.628802      -180.3789
  92   2.0000      -6.615810      -180.0253
  93   2.0000      -6.615591      -180.0194
  94   2.0000      -6.614216      -179.9820
  95   2.0000      -6.614052      -179.9775
  96   2.0000      -6.042318      -164.4198
  97   2.0000      -6.040491      -164.3701
  98   2.0000      -6.038034      -164.3033
  99   2.0000      -6.036183      -164.2529
 100   2.0000      -6.033817      -164.1885
 101   2.0000      -6.032005      -164.1392
 102   2.0000      -6.008429      -163.4977
 103   2.0000      -6.006883      -163.4556
 104   2.0000      -6.004329      -163.3861
 105   2.0000      -6.002952      -163.3486
 106   2.0000      -5.999402      -163.2520
 107   2.0000      -5.997871      -163.2104
 108   2.0000      -2.746228       -74.7287
 109   2.0000      -2.744643       -74.6855
 110   2.0000      -2.742174       -74.6183
 111   2.0000      -2.742052       -74.6150
 112   2.0000      -2.740604       -74.5756
 113   2.0000      -2.740447       -74.5714
 114   2.0000      -2.730430       -74.2988
 115   2.0000      -2.730411       -74.2983
 116   2.0000      -2.728863       -74.2561
 117   2.0000      -2.728852       -74.2558
 118   2.0000      -1.132307       -30.8117
 119   2.0000      -1.127025       -30.6679
 120   2.0000      -1.023616       -27.8540
 121   2.0000      -1.021313       -27.7913
 122   2.0000      -1.014050       -27.5937
 123   2.0000      -1.011143       -27.5146
 124   2.0000      -0.994050       -27.0495
 125   2.0000      -0.992906       -27.0183
 126   2.0000      -0.991521       -26.9807
 127   2.0000      -0.990087       -26.9416
 128   2.0000      -0.987936       -26.8831
 129   2.0000      -0.984927       -26.8012
 130   2.0000      -0.983270       -26.7561
 131   2.0000      -0.969934       -26.3933
 132   2.0000      -0.945387       -25.7253
 133   2.0000      -0.941327       -25.6148
 134   2.0000      -0.937250       -25.5039
 135   2.0000      -0.934223       -25.4215
 136   2.0000      -0.910350       -24.7719
 137   2.0000      -0.909022       -24.7358
 138   2.0000      -0.906481       -24.6666
 139   2.0000      -0.905528       -24.6407
 140   2.0000      -0.894131       -24.3305
 141   2.0000      -0.886825       -24.1317
 142   2.0000      -0.886014       -24.1097
 143   2.0000      -0.884317       -24.0635
 144   2.0000      -0.876620       -23.8540
 145   2.0000      -0.866746       -23.5854
 146   2.0000      -0.856000       -23.2929
 147   2.0000      -0.844495       -22.9799
 148   2.0000      -0.842920       -22.9370
 149   2.0000      -0.831631       -22.6298
 150   2.0000      -0.829578       -22.5740
 151   2.0000      -0.827759       -22.5245
 152   2.0000      -0.827317       -22.5124
 153   2.0000      -0.818352       -22.2685
 154   2.0000      -0.802686       -21.8422
 155   2.0000      -0.797722       -21.7071
 156   2.0000      -0.794412       -21.6171
 157   2.0000      -0.789443       -21.4818
 158   2.0000      -0.781609       -21.2687
 159   2.0000      -0.776101       -21.1188
 160   2.0000      -0.762736       -20.7551
 161   2.0000      -0.761468       -20.7206
 162   2.0000      -0.750838       -20.4313
 163   2.0000      -0.749956       -20.4073
 164   2.0000      -0.748065       -20.3559
 165   2.0000      -0.719439       -19.5769
 166   2.0000      -0.712030       -19.3753
 167   2.0000      -0.705399       -19.1949
 168   2.0000      -0.695115       -18.9150
 169   2.0000      -0.692485       -18.8435
 170   2.0000      -0.689720       -18.7682
 171   2.0000      -0.685605       -18.6563
 172   2.0000      -0.679711       -18.4959
 173   2.0000      -0.670530       -18.2461
 174   2.0000      -0.666134       -18.1264
 175   2.0000      -0.658517       -17.9192
 176   2.0000      -0.656785       -17.8720
 177   2.0000      -0.650762       -17.7081
 178   2.0000      -0.640565       -17.4307
 179   2.0000      -0.638646       -17.3784
 180   2.0000      -0.635178       -17.2841
 181   2.0000      -0.626554       -17.0494
 182   2.0000      -0.624594       -16.9961
 183   2.0000      -0.623152       -16.9568
 184   2.0000      -0.620569       -16.8865
 185   2.0000      -0.617311       -16.7979
 186   2.0000      -0.613398       -16.6914
 187   2.0000      -0.608212       -16.5503
 188   2.0000      -0.606054       -16.4916
 189   2.0000      -0.601293       -16.3620
 190   2.0000      -0.599683       -16.3182
 191   2.0000      -0.598778       -16.2936
 192   2.0000      -0.597947       -16.2710
 193   2.0000      -0.595619       -16.2076
 194   2.0000      -0.593068       -16.1382
 195   2.0000      -0.588199       -16.0057
 196   2.0000      -0.583588       -15.8802
 197   2.0000      -0.576649       -15.6914
 198   2.0000      -0.573683       -15.6107
 199   2.0000      -0.561313       -15.2741
 200   2.0000      -0.556078       -15.1317
 201   2.0000      -0.552424       -15.0322
 202   2.0000      -0.549876       -14.9629
 203   2.0000      -0.544248       -14.8097
 204   2.0000      -0.542239       -14.7551
 205   2.0000      -0.541755       -14.7419
 206   2.0000      -0.539519       -14.6811
 207   2.0000      -0.538702       -14.6588
 208   2.0000      -0.533114       -14.5068
 209   2.0000      -0.531564       -14.4646
 210   2.0000      -0.527505       -14.3541
 211   2.0000      -0.525852       -14.3092
 212   2.0000      -0.521514       -14.1911
 213   2.0000      -0.516446       -14.0532
 214   2.0000      -0.514468       -13.9994
 215   2.0000      -0.513443       -13.9715
 216   2.0000      -0.509606       -13.8671
 217   2.0000      -0.507994       -13.8232
 218   2.0000      -0.504390       -13.7252
 219   2.0000      -0.503450       -13.6996
 220   2.0000      -0.500121       -13.6090
 221   2.0000      -0.499012       -13.5788
 222   2.0000      -0.497920       -13.5491
 223   2.0000      -0.495717       -13.4891
 224   2.0000      -0.495334       -13.4787
 225   2.0000      -0.493574       -13.4308
 226   2.0000      -0.490746       -13.3539
 227   2.0000      -0.488294       -13.2872
 228   2.0000      -0.487059       -13.2536
 229   2.0000      -0.484795       -13.1919
 230   2.0000      -0.481706       -13.1079
 231   2.0000      -0.478907       -13.0317
 232   2.0000      -0.473611       -12.8876
 233   2.0000      -0.469780       -12.7834
 234   2.0000      -0.467169       -12.7123
 235   2.0000      -0.466497       -12.6940
 236   2.0000      -0.462746       -12.5920
 237   2.0000      -0.459767       -12.5109
 238   2.0000      -0.459296       -12.4981
 239   2.0000      -0.457095       -12.4382
 240   2.0000      -0.456382       -12.4188
 241   2.0000      -0.452260       -12.3066
 242   2.0000      -0.450046       -12.2464
 243   2.0000      -0.448086       -12.1930
 244   2.0000      -0.447637       -12.1808
 245   2.0000      -0.446827       -12.1588
 246   2.0000      -0.445775       -12.1302
 247   2.0000      -0.443549       -12.0696
 248   2.0000      -0.441987       -12.0271
 249   2.0000      -0.441518       -12.0143
 250   2.0000      -0.440088       -11.9754
 251   2.0000      -0.438235       -11.9250
 252   2.0000      -0.437371       -11.9015
 253   2.0000      -0.434656       -11.8276
 254   2.0000      -0.433727       -11.8023
 255   2.0000      -0.430909       -11.7256
 256   2.0000      -0.427635       -11.6366
 257   2.0000      -0.426920       -11.6171
 258   2.0000      -0.424844       -11.5606
 259   2.0000      -0.423645       -11.5280
 260   2.0000      -0.422979       -11.5099
 261   2.0000      -0.419165       -11.4061
 262   2.0000      -0.418259       -11.3814
 263   2.0000      -0.416215       -11.3258
 264   2.0000      -0.415293       -11.3007
 265   2.0000      -0.414049       -11.2669
 266   2.0000      -0.409225       -11.1356
 267   2.0000      -0.406964       -11.0741
 268   2.0000      -0.405099       -11.0233
 269   2.0000      -0.402160       -10.9433
 270   2.0000      -0.399654       -10.8751
 271   2.0000      -0.397286       -10.8107
 272   2.0000      -0.396816       -10.7979
 273   2.0000      -0.391939       -10.6652
 274   2.0000      -0.391512       -10.6536
 275   2.0000      -0.388450       -10.5703
 276   2.0000      -0.387929       -10.5561
 277   2.0000      -0.380998       -10.3675
 278   2.0000      -0.379015       -10.3135
 279   2.0000      -0.377385       -10.2692
 280   2.0000      -0.376329       -10.2404
 281   2.0000      -0.374848       -10.2001
 282   2.0000      -0.367859       -10.0100
 283   2.0000      -0.351891        -9.5754
 284   2.0000      -0.348869        -9.4932
 285   2.0000      -0.337645        -9.1878
 286   2.0000      -0.334582        -9.1044
 287   2.0000      -0.330090        -8.9822
 288   2.0000      -0.327525        -8.9124
 289   2.0000      -0.322232        -8.7684
 290   2.0000      -0.316374        -8.6090
 291   2.0000      -0.314614        -8.5611
 292   2.0000      -0.313819        -8.5394
 293   2.0000      -0.311329        -8.4717
 294   2.0000      -0.298354        -8.1186
 295   2.0000      -0.296433        -8.0664
 296   2.0000      -0.292210        -7.9514
 297   2.0000      -0.290204        -7.8969
 298   2.0000      -0.277466        -7.5502
 299   2.0000      -0.211970        -5.7680
 300   0.0000      -0.086734        -2.3602
 301   0.0000      -0.083063        -2.2603
 302   0.0000      -0.064561        -1.7568
 303   0.0000      -0.057328        -1.5600
 304   0.0000      -0.051854        -1.4110

MULLIKEN ATOMIC CHARGES
-----------------------
   0 C :    0.310516
   1 C :   -0.351747
   2 C :   -0.189014
   3 N :    0.148805
   4 C :   -0.193066
   5 N :    0.153151
   6 C :    0.013367
   7 C :   -0.009647
   8 C :   -0.073612
   9 C :    0.120755
  10 C :   -0.091338
  11 C :   -0.019201
  12 S :    0.186837
  13 C :   -0.122837
  14 C :    0.038822
  15 Br:    0.024169
  16 C :    0.149385
  17 O :   -0.146869
  18 C :   -0.070569
  19 C :   -0.008080
  20 C :   -0.111469
  21 C :   -0.027342
  22 C :    0.069794
  23 C :   -0.060535
  24 C :    0.228099
  25 C :   -0.065059
  26 C :    0.050740
  27 C :   -0.000754
  28 C :   -0.067510
  29 C :    0.163092
  30 C :   -0.064011
  31 C :   -0.010217
  32 C :   -0.039277
  33 C :   -0.017610
  34 C :    0.039636
  35 C :    0.023975
  36 C :   -0.048526
  37 S :    0.067357
  38 C :   -0.043216
  39 C :    0.035878
  40 C :    0.033897
  41 C :   -0.022055
  42 S :    0.052759
  43 C :   -0.032204
  44 C :   -0.100791
  45 C :   -0.006911
  46 C :    0.007765
  47 C :   -0.127385
  48 C :    0.276658
  49 C :   -0.029041
  50 C :    0.039498
  51 C :   -0.002621
  52 C :   -0.072086
  53 C :    0.174729
  54 C :   -0.000894
  55 C :   -0.038430
  56 C :    0.056733
  57 C :   -0.144702
  58 C :    0.255621
  59 C :   -0.370410
  60 C :   -0.190388
  61 N :    0.163316
  62 C :   -0.197257
  63 N :    0.177070
  64 C :   -0.001262
  65 C :    0.001927
  66 C :    0.138520
  67 O :   -0.140806
  68 C :   -0.077648
  69 C :    0.112090
  70 C :   -0.092015
  71 C :   -0.017625
  72 S :    0.184161
  73 C :   -0.127128
  74 C :    0.040314
  75 Br:    0.020299
  76 H :   -0.012152
  77 H :   -0.005641
  78 H :   -0.004092
  79 H :    0.003497
  80 H :    0.004032
  81 H :    0.021250
  82 H :   -0.007088
  83 H :    0.010253
  84 H :    0.040344
  85 H :   -0.012569
  86 H :    0.019333
  87 H :   -0.012001
  88 H :   -0.007721
  89 H :    0.014249
  90 H :    0.015082
  91 H :   -0.015244
  92 H :   -0.008846
  93 H :   -0.012253
  94 H :   -0.011497
  95 H :   -0.013354
  96 H :   -0.012029
  97 H :   -0.021907
  98 H :   -0.026614
  99 H :    0.054870
 100 H :    0.006665
 101 H :    0.008497
 102 H :    0.018420
 103 H :   -0.015375
 104 H :    0.035247
 105 H :   -0.008613
 106 H :   -0.009668
 107 H :    0.016728
 108 H :    0.005905
 109 H :   -0.005169
 110 H :    0.026779
 111 H :   -0.009481
 112 H :   -0.002898
 113 H :   -0.003509
Sum of atomic charges:   -0.0000000

LOEWDIN ATOMIC CHARGES
----------------------
   0 C :    0.078863
   1 C :   -0.142168
   2 C :   -0.017713
   3 N :   -0.055195
   4 C :   -0.023735
   5 N :   -0.053968
   6 C :   -0.021630
   7 C :   -0.050561
   8 C :    0.021420
   9 C :   -0.032127
  10 C :   -0.143137
  11 C :   -0.009606
  12 S :    0.432496
  13 C :   -0.271028
  14 C :   -0.070650
  15 Br:    0.137264
  16 C :    0.085422
  17 O :   -0.134421
  18 C :   -0.099082
  19 C :    0.080511
  20 C :   -0.035071
  21 C :    0.049890
  22 C :   -0.025807
  23 C :   -0.006709
  24 C :   -0.023352
  25 C :   -0.011671
  26 C :   -0.022248
  27 C :   -0.023328
  28 C :   -0.023640
  29 C :   -0.027112
  30 C :    0.004064
  31 C :   -0.057139
  32 C :   -0.058577
  33 C :   -0.143308
  34 C :   -0.031301
  35 C :   -0.032227
  36 C :   -0.176564
  37 S :    0.358297
  38 C :   -0.183276
  39 C :   -0.029500
  40 C :   -0.034159
  41 C :   -0.141575
  42 S :    0.374331
  43 C :   -0.062033
  44 C :   -0.018290
  45 C :   -0.026499
  46 C :   -0.035860
  47 C :   -0.005932
  48 C :   -0.027379
  49 C :   -0.011996
  50 C :   -0.012718
  51 C :   -0.022324
  52 C :   -0.024942
  53 C :   -0.025604
  54 C :    0.049684
  55 C :   -0.064247
  56 C :    0.073490
  57 C :   -0.098802
  58 C :    0.064660
  59 C :   -0.143982
  60 C :   -0.021897
  61 N :   -0.055516
  62 C :   -0.015834
  63 N :   -0.050210
  64 C :   -0.017432
  65 C :   -0.056640
  66 C :    0.083744
  67 O :   -0.141782
  68 C :    0.021541
  69 C :   -0.037086
  70 C :   -0.143907
  71 C :   -0.012409
  72 S :    0.430118
  73 C :   -0.274152
  74 C :   -0.070252
  75 Br:    0.133534
  76 H :    0.040169
  77 H :    0.041108
  78 H :    0.038721
  79 H :    0.047148
  80 H :    0.026180
  81 H :    0.035650
  82 H :    0.023599
  83 H :    0.029052
  84 H :    0.037138
  85 H :    0.021220
  86 H :    0.036788
  87 H :    0.020183
  88 H :    0.022635
  89 H :    0.030605
  90 H :    0.027518
  91 H :    0.022435
  92 H :    0.028354
  93 H :    0.033614
  94 H :    0.032098
  95 H :    0.032028
  96 H :    0.033129
  97 H :    0.034427
  98 H :    0.018708
  99 H :    0.051161
 100 H :    0.028471
 101 H :    0.033082
 102 H :    0.018455
 103 H :    0.021955
 104 H :    0.043154
 105 H :    0.020349
 106 H :    0.021275
 107 H :    0.031202
 108 H :    0.024767
 109 H :    0.036628
 110 H :    0.045947
 111 H :    0.041093
 112 H :    0.041247
 113 H :    0.038688

  Mayer bond orders larger than 0.100000
B(  0-C ,  1-C ) :   1.6305 B(  0-C ,  6-C ) :   1.0043 B(  0-C , 18-C ) :   1.0601
B(  1-C ,  2-C ) :   1.1430 B(  1-C ,  4-C ) :   1.1411 B(  2-C ,  3-N ) :   2.9708
B(  4-C ,  5-N ) :   2.9803 B(  6-C ,  7-C ) :   1.2783 B(  6-C , 11-C ) :   1.4024
B(  7-C ,  8-C ) :   1.4201 B(  7-C , 16-C ) :   0.9533 B(  8-C ,  9-C ) :   1.2462
B(  8-C , 76-H ) :   1.0173 B(  9-C , 10-C ) :   1.3026 B(  9-C , 14-C ) :   1.1621
B( 10-C , 11-C ) :   1.3364 B( 10-C , 12-S ) :   1.0861 B( 11-C , 77-H ) :   0.9795
B( 12-S , 13-C ) :   1.0857 B( 13-C , 14-C ) :   1.6189 B( 13-C , 15-Br) :   1.0187
B( 14-C , 78-H ) :   1.0003 B( 16-C , 17-O ) :   2.2121 B( 16-C , 18-C ) :   0.9174
B( 18-C , 19-C ) :   1.5777 B( 19-C , 20-C ) :   1.1536 B( 19-C , 79-H ) :   0.9415
B( 20-C , 21-C ) :   1.7053 B( 20-C , 24-C ) :   1.0260 B( 21-C , 22-C ) :   0.9748
B( 21-C , 80-H ) :   0.9897 B( 22-C , 23-C ) :   1.0460 B( 22-C , 30-C ) :   0.9891
B( 22-C , 81-H ) :   0.8813 B( 23-C , 24-C ) :   1.0274 B( 23-C , 25-C ) :   1.0262
B( 23-C , 82-H ) :   0.9008 B( 24-C , 83-H ) :   0.9191 B( 24-C , 84-H ) :   0.8774
B( 25-C , 26-C ) :   1.0392 B( 25-C , 29-C ) :   1.0832 B( 25-C , 85-H ) :   0.9019
B( 26-C , 27-C ) :   0.9889 B( 26-C , 30-C ) :   1.0117 B( 26-C , 86-H ) :   0.8830
B( 27-C , 28-C ) :   1.8738 B( 27-C , 87-H ) :   0.9930 B( 28-C , 29-C ) :   1.0278
B( 28-C , 88-H ) :   0.9868 B( 29-C , 89-H ) :   0.9149 B( 29-C , 90-H ) :   0.9273
B( 30-C , 31-C ) :   1.7956 B( 31-C , 32-C ) :   1.0695 B( 31-C , 91-H ) :   0.9586
B( 32-C , 33-C ) :   1.6457 B( 32-C , 92-H ) :   0.9723 B( 33-C , 34-C ) :   1.1176
B( 33-C , 37-S ) :   1.0220 B( 34-C , 35-C ) :   1.6168 B( 34-C , 93-H ) :   0.9988
B( 35-C , 36-C ) :   1.1685 B( 35-C , 94-H ) :   0.9939 B( 36-C , 37-S ) :   1.0395
B( 36-C , 38-C ) :   1.5398 B( 38-C , 39-C ) :   1.1708 B( 38-C , 42-S ) :   1.0283
B( 39-C , 40-C ) :   1.6145 B( 39-C , 95-H ) :   0.9925 B( 40-C , 41-C ) :   1.1219
B( 40-C , 96-H ) :   0.9993 B( 41-C , 42-S ) :   1.0257 B( 41-C , 43-C ) :   1.5993
B( 43-C , 44-C ) :   1.1243 B( 43-C , 97-H ) :   0.9698 B( 44-C , 45-C ) :   1.6966
B( 44-C , 48-C ) :   1.0170 B( 45-C , 46-C ) :   0.9557 B( 45-C , 98-H ) :   0.9958
B( 46-C , 47-C ) :   1.0112 B( 46-C , 54-C ) :   1.0454 B( 46-C , 99-H ) :   0.8157
B( 47-C , 48-C ) :   1.0391 B( 47-C , 49-C ) :   0.9928 B( 47-C ,100-H ) :   0.9257
B( 48-C ,101-H ) :   0.8748 B( 48-C ,102-H ) :   0.9148 B( 49-C , 50-C ) :   1.0619
B( 49-C , 53-C ) :   1.0621 B( 49-C ,103-H ) :   0.8871 B( 50-C , 51-C ) :   0.9712
B( 50-C , 54-C ) :   0.9999 B( 50-C ,104-H ) :   0.8666 B( 51-C , 52-C ) :   1.8995
B( 51-C ,105-H ) :   0.9903 B( 52-C , 53-C ) :   1.0198 B( 52-C ,106-H ) :   0.9895
B( 53-C ,107-H ) :   0.9177 B( 53-C ,108-H ) :   0.9331 B( 54-C , 55-C ) :   1.7638
B( 55-C , 56-C ) :   1.1165 B( 55-C ,109-H ) :   0.9402 B( 56-C , 57-C ) :   1.6782
B( 56-C ,110-H ) :   0.9316 B( 57-C , 58-C ) :   1.0507 B( 57-C , 66-C ) :   0.9368
B( 58-C , 59-C ) :   1.6352 B( 58-C , 64-C ) :   1.0082 B( 59-C , 60-C ) :   1.1322
B( 59-C , 62-C ) :   1.1752 B( 60-C , 61-N ) :   2.9944 B( 62-C , 63-N ) :   2.9862
B( 64-C , 65-C ) :   1.2717 B( 64-C , 71-C ) :   1.4157 B( 65-C , 66-C ) :   0.9145
B( 65-C , 68-C ) :   1.4255 B( 66-C , 67-O ) :   2.2761 B( 68-C , 69-C ) :   1.2501
B( 68-C ,111-H ) :   1.0170 B( 69-C , 70-C ) :   1.3076 B( 69-C , 74-C ) :   1.1625
B( 70-C , 71-C ) :   1.3252 B( 70-C , 72-S ) :   1.0838 B( 71-C ,112-H ) :   0.9860
B( 72-S , 73-C ) :   1.0841 B( 73-C , 74-C ) :   1.6218 B( 73-C , 75-Br) :   1.0164
B( 74-C ,113-H ) :   0.9999

-----------------------------------------------------------------------------
         ABSORPTION SPECTRUM VIA TRANSITION ELECTRIC DIPOLE MOMENTS
-----------------------------------------------------------------------------
State   Energy  Wavelength   fosc         T2         TX        TY        TZ
        (cm-1)    (nm)                  (au**2)     (au)      (au)      (au)
-----------------------------------------------------------------------------
   0   14239.3    702.3   0.431524170   9.97683  -0.16193   2.88726  -1.27056
   1   14799.0    675.7   0.002199544   0.04893  -0.10072  -0.15627  -0.11985
   2   19101.1    523.5   1.002391805  17.27642  -0.68456  -3.74226   1.67430
   3   21390.8    467.5   0.041371905   0.63673  -0.19798  -0.69679   0.33469
   4   22057.3    453.4   0.005716317   0.08532  -0.07592  -0.28145   0.01852
   5   26294.6    380.3   0.121434786   1.52038  -0.12135  -0.29390  -1.19133
   6   27391.9    365.1   0.402360991   4.83581   1.98660   0.45692   0.82489
   7   27576.1    362.6   0.072592272   0.86663   0.10125  -0.19374  -0.90490
   8   28551.0    350.3   0.350050099   4.03631   0.55403   1.19411   1.51772
   9   29053.7    344.2   0.145528294   1.64900  -1.16193   0.36857   0.40383
  10   29458.8    339.5   0.020808085   0.23254   0.37780   0.23735   0.18294
  11   29818.8    335.4   0.016231359   0.17920   0.16236   0.24974   0.30078
  12   30158.1    331.6   0.141517641   1.54484  -0.74821   0.60954   0.78325
  13   30379.0    329.2   0.048028792   0.52048   0.51531   0.26978   0.42679
  14   30593.1    326.9   0.039572050   0.42583   0.12114  -0.44381  -0.46280
  15   31286.9    319.6   0.008558076   0.09005   0.17251  -0.15439  -0.19093
  16   31795.1    314.5   0.028176913   0.29175  -0.50792   0.06406   0.17224
  17   32247.7    310.1   0.094774357   0.96754   0.12568   0.45071   0.86522
  18   32401.7    308.6   0.562081778   5.71094   0.19233  -1.13284  -2.09538
  19   32490.4    307.8   0.025938583   0.26283  -0.23480  -0.14951  -0.43051
  20   32901.7    303.9   0.351308371   3.51516  -1.14737  -0.88958  -1.18631
  21   33254.0    300.7   0.010615793   0.10510   0.03728  -0.22661  -0.22881
  22   33482.7    298.7   0.141901632   1.39522   0.26065   0.06979  -1.14996
  23   33637.2    297.3   0.018077539   0.17693   0.02512   0.16975   0.38403
  24   33661.2    297.1   0.011578281   0.11324  -0.04223  -0.20402  -0.26425
  25   34044.9    293.7   0.144402221   1.39636  -0.12373   0.72727   0.92310
  26   34074.1    293.5   0.254244131   2.45642  -0.56587   0.87360   1.17176
  27   34291.1    291.6   0.003337762   0.03204   0.08325  -0.14661  -0.06016
  28   34473.0    290.1   0.614060499   5.86418  -1.55534   0.21845   1.84320
  29   35687.6    280.2   0.298995183   2.75818  -1.02334   0.41997   1.23878
  30   36151.2    276.6   0.097540860   0.88826   0.59368  -0.24216  -0.69077
  31   36353.5    275.1   0.056547629   0.51209   0.63120   0.13829  -0.30749
  32   36484.3    274.1   0.008765679   0.07910  -0.04861  -0.18892  -0.20259
  33   36780.0    271.9   0.136033438   1.21761  -0.28333  -0.03625   1.06584
  34   37190.0    268.9   0.021377062   0.18923  -0.23811   0.16647   0.32377
  35   37669.0    265.5   0.084723860   0.74045  -0.35139   0.57163   0.53872
  36   37808.1    264.5   0.000985556   0.00858  -0.00838   0.03371  -0.08588
  37   38287.8    261.2   0.000500131   0.00430  -0.05089   0.03625   0.01991
  38   38370.3    260.6   0.059678339   0.51203  -0.07687  -0.68323   0.19830
  39   38575.8    259.2   0.011464930   0.09784   0.11606  -0.26337  -0.12252
  40   38683.4    258.5   0.000433322   0.00369  -0.00706   0.04850  -0.03586
  41   38720.2    258.3   0.000619882   0.00527   0.04313   0.05693   0.01300
  42   39259.3    254.7   0.181940812   1.52568   1.09998   0.45434   0.33061
  43   39405.1    253.8   0.050984376   0.42595   0.21243   0.53686   0.30432
  44   39427.7    253.6   0.081404953   0.67971   0.81663   0.06265   0.09435
  45   39506.0    253.1   0.041441585   0.34534  -0.02059   0.48203   0.33550

FINAL SINGLE POINT ENERGY     -9567.498206824188

DIPOLE MOMENT
-------------
                                X             Y             Z
Electronic contribution:    110.99173      34.96453     -16.00460
Nuclear contribution   :   -110.93883     -35.74130      16.99868
                        -----------------------------------------
Total Dipole Moment    :      0.05290      -0.77677       0.99408
                        -----------------------------------------
Magnitude (a.u.)       :      1.26268
Magnitude (Debye)      :      3.20948

Rotational constants in cm-1:     0.000759     0.000250     0.000226
Rotational constants in MHz :    22.758076     7.491959     6.782162

                             ****ORCA TERMINATED NORMALLY****
TOTAL RUN TIME: 0 days 0 hours 13 minutes 7 seconds 798 msec
