                         Program Version 4.2.0 -  RELEASE  -
|  1> # ORCA input file
|  2> # SCF done       -202.243158418275          0.000344865422
|  3> ! CAM-B3LYP def2-SVP def2/J RIJCOSX Grid4 TightSCF
|  4> %maxcore 5000
|  5> %tddft
|  6>     Mode sTDDFT
|  7>     Ethresh 5.0
|  8>     maxcore 5000
|  9> end
| 10>
| 11> %pal
| 12>   nprocs 6
| 13>   end
| 14> * xyz 0 1
| 15>    C       -1.30512         2.18824        -4.27082
| 16>    C       -1.38358         3.51069        -3.93523
| 17>    F       -0.84156         4.44009        -4.73055
| 18>    C       -2.03550         3.91346        -2.75122
| 19>    F       -2.09858         5.21592        -2.45008
| 20>    C       -2.59959         2.98740        -1.91914
| 21>    C       -2.53770         1.61672        -2.23845
| 22>    C       -1.87796         1.20826        -3.43497
| 23>    C       -1.80386        -0.16082        -3.77621
| 24>    C       -2.37456        -1.09188        -2.94779
| 25>    C       -3.03826        -0.67561        -1.75897
| 26>    C       -3.12159         0.64043        -1.40162
| 27>    C       -3.58301        -1.84871        -1.05067
| 28>    O       -4.18742        -1.84851        -0.00458
| 29>    C       -3.30143        -3.01039        -1.94881
| 30>    C       -2.45710        -2.54260        -3.04101
| 31>    C       -1.78857        -3.33880        -3.92770
| 32>    C       -0.95274        -2.84329        -4.95227
| 33>    N       -0.26787        -2.48949        -5.80175
| 34>    C       -1.80155        -4.75180        -3.89804
| 35>    N       -1.73903        -5.89708        -3.90683
| 36>    C       -3.92802        -4.20989        -1.91697
| 37>    C       -4.74511        -4.75867        -0.86632
| 38>    C       -4.58174        -4.58512         0.47293
| 39>    C       -5.43009        -5.27019         1.40256
| 40>    C       -5.29967        -5.10523         2.77024
| 41>    C       -6.16273        -5.74641         3.67511
| 42>    N       -6.88010        -6.26360         4.40802
| 43>    C       -4.31338        -4.27781         3.33415
| 44>    N       -3.50509        -3.61070         3.80311
| 45>    C       -6.42782        -6.12150         0.83064
| 46>    C       -6.51708        -6.23892        -0.52063
| 47>    O       -5.68892        -5.59498        -1.37134
| 48>    C       -7.51189        -7.00723        -1.21380
| 49>    O       -8.37772        -7.80264        -0.53806
| 50>    C       -7.81481        -7.04958        -2.55630
| 51>    C       -7.44321        -6.53646        -3.88649
| 52>    O       -6.57529        -5.77818        -4.22784
| 53>    N       -8.36856        -7.13808        -4.72985
| 54>    C       -9.30306        -7.97259        -4.10733
| 55>    O      -10.18115        -8.56767        -4.67321
| 56>    C       -8.93251        -7.90593        -2.69351
| 57>    C       -9.25549        -8.36019        -1.42263
| 58>    C      -10.27956        -9.22568        -0.98534
| 59>    C      -10.36961        -9.69233         0.29561
| 60>    C      -11.40628       -10.51220         0.75796
| 61>    C      -11.44030       -11.07224         2.01425
| 62>    C      -12.48696       -11.84756         2.57154
| 63>    C      -12.23695       -12.29381         3.83374
| 64>    C      -10.96757       -11.91651         4.32910
| 65>    S      -10.12003       -10.93825         3.16010
| 66>    C      -10.39047       -12.27581         5.53616
| 67>    C      -10.97625       -13.02186         6.58375
| 68>    C      -10.13187       -13.24995         7.62855
| 69>    C       -8.83477       -12.71159         7.45038
| 70>    S       -8.73784       -11.86457         5.92217
| 71>    C       -7.76777       -12.85250         8.31302
| 72>    C       -6.49035       -12.36861         8.03250
| 73>    C       -5.39069       -12.54350         8.84400
| 74>    C       -4.03972       -12.11292         8.57462
| 75>    C       -3.57470       -11.50519         7.43249
| 76>    C       -2.23307       -11.12098         7.23340
| 77>    N       -1.15720       -10.78884         7.00736
| 78>    C       -4.34121       -11.20583         6.28781
| 79>    N       -4.88494       -10.94680         5.30932
| 80>    C       -3.21902       -12.47845         9.72726
| 81>    C       -4.03525       -13.14574        10.67306
| 82>    C       -5.41779       -13.21803        10.16024
| 83>    O       -6.36654       -13.73082        10.72041
| 84>    C       -3.54934       -13.63102        11.86212
| 85>    C       -2.18914       -13.44913        12.13401
| 86>    C       -1.38174       -12.77753        11.18617
| 87>    C       -1.87463       -12.28628         9.98281
| 88>    S        0.26780       -12.66167        11.71993
| 89>    C       -0.14416       -13.50769        13.18798
| 90>    C       -1.44904       -13.85826        13.27696
| 91>   Br        1.18729       -13.84968        14.46395
| 92>    H       -0.80118         1.89711        -5.17920
| 93>    H       -3.09443         3.31170        -1.01714
| 94>    H       -1.30596        -0.44037        -4.69074
| 95>    H       -3.62737         0.93027        -0.49322
| 96>    H       -3.90479        -4.84095        -2.79840
| 97>    H       -3.80819        -3.93844         0.85045
| 98>    H       -7.11140        -6.66218         1.46479
| 99>    H       -8.36963        -6.98254        -5.72813
|100>    H      -10.99419        -9.52139        -1.73911
|101>    H       -9.59454        -9.41874         1.00051
|102>    H      -12.23490       -10.71918         0.09398
|103>    H      -13.39066       -12.04531         2.02295
|104>    H      -12.91787       -12.89422         4.40928
|105>    H      -11.99473       -13.36335         6.54257
|106>    H      -10.39129       -13.79832         8.51647
|107>    H       -7.92984       -13.39157         9.23560
|108>    H       -6.36558       -11.83244         7.09975
|109>    H       -4.19753       -14.13723        12.56021
|110>    H       -1.21693       -11.78156         9.29537
|111>    H       -1.87370       -14.38423        14.11244
|112> *
|113>
|114>                          ****END OF INPUT****

CARTESIAN COORDINATES (ANGSTROEM)
---------------------------------
  C     -1.305120    2.188240   -4.270820
  C     -1.383580    3.510690   -3.935230
  F     -0.841560    4.440090   -4.730550
  C     -2.035500    3.913460   -2.751220
  F     -2.098580    5.215920   -2.450080
  C     -2.599590    2.987400   -1.919140
  C     -2.537700    1.616720   -2.238450
  C     -1.877960    1.208260   -3.434970
  C     -1.803860   -0.160820   -3.776210
  C     -2.374560   -1.091880   -2.947790
  C     -3.038260   -0.675610   -1.758970
  C     -3.121590    0.640430   -1.401620
  C     -3.583010   -1.848710   -1.050670
  O     -4.187420   -1.848510   -0.004580
  C     -3.301430   -3.010390   -1.948810
  C     -2.457100   -2.542600   -3.041010
  C     -1.788570   -3.338800   -3.927700
  C     -0.952740   -2.843290   -4.952270
  N     -0.267870   -2.489490   -5.801750
  C     -1.801550   -4.751800   -3.898040
  N     -1.739030   -5.897080   -3.906830
  C     -3.928020   -4.209890   -1.916970
  C     -4.745110   -4.758670   -0.866320
  C     -4.581740   -4.585120    0.472930
  C     -5.430090   -5.270190    1.402560
  C     -5.299670   -5.105230    2.770240
  C     -6.162730   -5.746410    3.675110
  N     -6.880100   -6.263600    4.408020
  C     -4.313380   -4.277810    3.334150
  N     -3.505090   -3.610700    3.803110
  C     -6.427820   -6.121500    0.830640
  C     -6.517080   -6.238920   -0.520630
  O     -5.688920   -5.594980   -1.371340
  C     -7.511890   -7.007230   -1.213800
  O     -8.377720   -7.802640   -0.538060
  C     -7.814810   -7.049580   -2.556300
  C     -7.443210   -6.536460   -3.886490
  O     -6.575290   -5.778180   -4.227840
  N     -8.368560   -7.138080   -4.729850
  C     -9.303060   -7.972590   -4.107330
  O    -10.181150   -8.567670   -4.673210
  C     -8.932510   -7.905930   -2.693510
  C     -9.255490   -8.360190   -1.422630
  C    -10.279560   -9.225680   -0.985340
  C    -10.369610   -9.692330    0.295610
  C    -11.406280  -10.512200    0.757960
  C    -11.440300  -11.072240    2.014250
  C    -12.486960  -11.847560    2.571540
  C    -12.236950  -12.293810    3.833740
  C    -10.967570  -11.916510    4.329100
  S    -10.120030  -10.938250    3.160100
  C    -10.390470  -12.275810    5.536160
  C    -10.976250  -13.021860    6.583750
  C    -10.131870  -13.249950    7.628550
  C     -8.834770  -12.711590    7.450380
  S     -8.737840  -11.864570    5.922170
  C     -7.767770  -12.852500    8.313020
  C     -6.490350  -12.368610    8.032500
  C     -5.390690  -12.543500    8.844000
  C     -4.039720  -12.112920    8.574620
  C     -3.574700  -11.505190    7.432490
  C     -2.233070  -11.120980    7.233400
  N     -1.157200  -10.788840    7.007360
  C     -4.341210  -11.205830    6.287810
  N     -4.884940  -10.946800    5.309320
  C     -3.219020  -12.478450    9.727260
  C     -4.035250  -13.145740   10.673060
  C     -5.417790  -13.218030   10.160240
  O     -6.366540  -13.730820   10.720410
  C     -3.549340  -13.631020   11.862120
  C     -2.189140  -13.449130   12.134010
  C     -1.381740  -12.777530   11.186170
  C     -1.874630  -12.286280    9.982810
  S      0.267800  -12.661670   11.719930
  C     -0.144160  -13.507690   13.187980
  C     -1.449040  -13.858260   13.276960
  Br     1.187290  -13.849680   14.463950
  H     -0.801180    1.897110   -5.179200
  H     -3.094430    3.311700   -1.017140
  H     -1.305960   -0.440370   -4.690740
  H     -3.627370    0.930270   -0.493220
  H     -3.904790   -4.840950   -2.798400
  H     -3.808190   -3.938440    0.850450
  H     -7.111400   -6.662180    1.464790
  H     -8.369630   -6.982540   -5.728130
  H    -10.994190   -9.521390   -1.739110
  H     -9.594540   -9.418740    1.000510
  H    -12.234900  -10.719180    0.093980
  H    -13.390660  -12.045310    2.022950
  H    -12.917870  -12.894220    4.409280
  H    -11.994730  -13.363350    6.542570
  H    -10.391290  -13.798320    8.516470
  H     -7.929840  -13.391570    9.235600
  H     -6.365580  -11.832440    7.099750
  H     -4.197530  -14.137230   12.560210
  H     -1.216930  -11.781560    9.295370
  H     -1.873700  -14.384230   14.112440

 Total Charge           Charge          ....    0
 Multiplicity           Mult            ....    1
 Number of Electrons    NEL             ....  566
 Basis Dimension        Dim             .... 1208

ORBITAL ENERGIES
----------------

  NO   OCC          E(Eh)            E(eV)
   0   2.0000    -482.880211    -13139.8385
   1   2.0000     -88.969821     -2420.9919
   2   2.0000     -88.968693     -2420.9612
   3   2.0000     -88.965695     -2420.8796
   4   2.0000     -62.557924     -1702.2877
   5   2.0000     -56.391866     -1534.5007
   6   2.0000     -56.389165     -1534.4272
   7   2.0000     -56.389129     -1534.4262
   8   2.0000     -24.805092      -674.9809
   9   2.0000     -24.804732      -674.9711
  10   2.0000     -19.332278      -526.0580
  11   2.0000     -19.324269      -525.8401
  12   2.0000     -19.235036      -523.4119
  13   2.0000     -19.223256      -523.0914
  14   2.0000     -19.221488      -523.0433
  15   2.0000     -19.208571      -522.6918
  16   2.0000     -14.465777      -393.6338
  17   2.0000     -14.429044      -392.6343
  18   2.0000     -14.426364      -392.5613
  19   2.0000     -14.406393      -392.0179
  20   2.0000     -14.404297      -391.9608
  21   2.0000     -14.399821      -391.8390
  22   2.0000     -14.397791      -391.7838
  23   2.0000     -10.413745      -283.3724
  24   2.0000     -10.411281      -283.3053
  25   2.0000     -10.395083      -282.8646
  26   2.0000     -10.389481      -282.7122
  27   2.0000     -10.389071      -282.7010
  28   2.0000     -10.387307      -282.6530
  29   2.0000     -10.387126      -282.6481
  30   2.0000     -10.382118      -282.5118
  31   2.0000     -10.380870      -282.4778
  32   2.0000     -10.360314      -281.9185
  33   2.0000     -10.358714      -281.8749
  34   2.0000     -10.354985      -281.7735
  35   2.0000     -10.352443      -281.7043
  36   2.0000     -10.340378      -281.3760
  37   2.0000     -10.339639      -281.3559
  38   2.0000     -10.336806      -281.2788
  39   2.0000     -10.335168      -281.2342
  40   2.0000     -10.333698      -281.1942
  41   2.0000     -10.333021      -281.1758
  42   2.0000     -10.330971      -281.1200
  43   2.0000     -10.330433      -281.1054
  44   2.0000     -10.330421      -281.1050
  45   2.0000     -10.327772      -281.0330
  46   2.0000     -10.326143      -280.9886
  47   2.0000     -10.324721      -280.9499
  48   2.0000     -10.320201      -280.8270
  49   2.0000     -10.319832      -280.8169
  50   2.0000     -10.319224      -280.8004
  51   2.0000     -10.318050      -280.7684
  52   2.0000     -10.315796      -280.7071
  53   2.0000     -10.314051      -280.6596
  54   2.0000     -10.313537      -280.6456
  55   2.0000     -10.313484      -280.6442
  56   2.0000     -10.313331      -280.6400
  57   2.0000     -10.313101      -280.6337
  58   2.0000     -10.312170      -280.6084
  59   2.0000     -10.310293      -280.5573
  60   2.0000     -10.310119      -280.5526
  61   2.0000     -10.309418      -280.5335
  62   2.0000     -10.308871      -280.5186
  63   2.0000     -10.308307      -280.5033
  64   2.0000     -10.307767      -280.4886
  65   2.0000     -10.306709      -280.4598
  66   2.0000     -10.305959      -280.4394
  67   2.0000     -10.305430      -280.4250
  68   2.0000     -10.305259      -280.4204
  69   2.0000     -10.305027      -280.4140
  70   2.0000     -10.302870      -280.3554
  71   2.0000     -10.302422      -280.3432
  72   2.0000     -10.300622      -280.2942
  73   2.0000     -10.300116      -280.2804
  74   2.0000     -10.299836      -280.2728
  75   2.0000     -10.297042      -280.1968
  76   2.0000     -10.293424      -280.0983
  77   2.0000     -10.290581      -280.0209
  78   2.0000     -10.287788      -279.9449
  79   2.0000     -10.284632      -279.8591
  80   2.0000     -10.283783      -279.8360
  81   2.0000      -8.787348      -239.1159
  82   2.0000      -8.066114      -219.4901
  83   2.0000      -8.064769      -219.4535
  84   2.0000      -8.061833      -219.3736
  85   2.0000      -6.623621      -180.2379
  86   2.0000      -6.609088      -179.8424
  87   2.0000      -6.608916      -179.8377
  88   2.0000      -6.035760      -164.2414
  89   2.0000      -6.034452      -164.2058
  90   2.0000      -6.031733      -164.1318
  91   2.0000      -6.031443      -164.1239
  92   2.0000      -6.030192      -164.0899
  93   2.0000      -6.027401      -164.0139
  94   2.0000      -6.027131      -164.0066
  95   2.0000      -6.025962      -163.9748
  96   2.0000      -6.022926      -163.8921
  97   2.0000      -2.739507       -74.5458
  98   2.0000      -2.735422       -74.4346
  99   2.0000      -2.735264       -74.4303
 100   2.0000      -2.723736       -74.1166
 101   2.0000      -2.723722       -74.1162
 102   2.0000      -1.328373       -36.1469
 103   2.0000      -1.313429       -35.7402
 104   2.0000      -1.248792       -33.9814
 105   2.0000      -1.237615       -33.6772
 106   2.0000      -1.167094       -31.7582
 107   2.0000      -1.151580       -31.3361
 108   2.0000      -1.146482       -31.1974
 109   2.0000      -1.122316       -30.5398
 110   2.0000      -1.054776       -28.7019
 111   2.0000      -1.032718       -28.1017
 112   2.0000      -1.020038       -27.7567
 113   2.0000      -1.014935       -27.6178
 114   2.0000      -1.014603       -27.6088
 115   2.0000      -1.005849       -27.3705
 116   2.0000      -1.004474       -27.3331
 117   2.0000      -0.999799       -27.2059
 118   2.0000      -0.997396       -27.1405
 119   2.0000      -0.993747       -27.0412
 120   2.0000      -0.984174       -26.7807
 121   2.0000      -0.980569       -26.6826
 122   2.0000      -0.977306       -26.5939
 123   2.0000      -0.967210       -26.3191
 124   2.0000      -0.963134       -26.2082
 125   2.0000      -0.945377       -25.7250
 126   2.0000      -0.941567       -25.6214
 127   2.0000      -0.936859       -25.4932
 128   2.0000      -0.934503       -25.4291
 129   2.0000      -0.919003       -25.0073
 130   2.0000      -0.912168       -24.8214
 131   2.0000      -0.903133       -24.5755
 132   2.0000      -0.900385       -24.5007
 133   2.0000      -0.899087       -24.4654
 134   2.0000      -0.886787       -24.1307
 135   2.0000      -0.878234       -23.8980
 136   2.0000      -0.875900       -23.8344
 137   2.0000      -0.869705       -23.6659
 138   2.0000      -0.869254       -23.6536
 139   2.0000      -0.852448       -23.1963
 140   2.0000      -0.850303       -23.1379
 141   2.0000      -0.845496       -23.0071
 142   2.0000      -0.832830       -22.6625
 143   2.0000      -0.821769       -22.3615
 144   2.0000      -0.819059       -22.2877
 145   2.0000      -0.808763       -22.0076
 146   2.0000      -0.792108       -21.5544
 147   2.0000      -0.783027       -21.3073
 148   2.0000      -0.779657       -21.2155
 149   2.0000      -0.778461       -21.1830
 150   2.0000      -0.771674       -20.9983
 151   2.0000      -0.756724       -20.5915
 152   2.0000      -0.750395       -20.4193
 153   2.0000      -0.742695       -20.2098
 154   2.0000      -0.738030       -20.0828
 155   2.0000      -0.727483       -19.7958
 156   2.0000      -0.717999       -19.5377
 157   2.0000      -0.715931       -19.4815
 158   2.0000      -0.709115       -19.2960
 159   2.0000      -0.698657       -19.0114
 160   2.0000      -0.691924       -18.8282
 161   2.0000      -0.689554       -18.7637
 162   2.0000      -0.682920       -18.5832
 163   2.0000      -0.680636       -18.5210
 164   2.0000      -0.673344       -18.3226
 165   2.0000      -0.667008       -18.1502
 166   2.0000      -0.665895       -18.1199
 167   2.0000      -0.653367       -17.7790
 168   2.0000      -0.652001       -17.7418
 169   2.0000      -0.649873       -17.6839
 170   2.0000      -0.648135       -17.6367
 171   2.0000      -0.641205       -17.4481
 172   2.0000      -0.635394       -17.2900
 173   2.0000      -0.627756       -17.0821
 174   2.0000      -0.626079       -17.0365
 175   2.0000      -0.622254       -16.9324
 176   2.0000      -0.615997       -16.7621
 177   2.0000      -0.611128       -16.6296
 178   2.0000      -0.609177       -16.5766
 179   2.0000      -0.607184       -16.5223
 180   2.0000      -0.602641       -16.3987
 181   2.0000      -0.599159       -16.3039
 182   2.0000      -0.594376       -16.1738
 183   2.0000      -0.592707       -16.1284
 184   2.0000      -0.592403       -16.1201
 185   2.0000      -0.589341       -16.0368
 186   2.0000      -0.588560       -16.0155
 187   2.0000      -0.584465       -15.9041
 188   2.0000      -0.582374       -15.8472
 189   2.0000      -0.578333       -15.7372
 190   2.0000      -0.567840       -15.4517
 191   2.0000      -0.564628       -15.3643
 192   2.0000      -0.562565       -15.3082
 193   2.0000      -0.557918       -15.1817
 194   2.0000      -0.556349       -15.1390
 195   2.0000      -0.554032       -15.0760
 196   2.0000      -0.554017       -15.0756
 197   2.0000      -0.548881       -14.9358
 198   2.0000      -0.546078       -14.8595
 199   2.0000      -0.540169       -14.6988
 200   2.0000      -0.536906       -14.6099
 201   2.0000      -0.534942       -14.5565
 202   2.0000      -0.533215       -14.5095
 203   2.0000      -0.531764       -14.4700
 204   2.0000      -0.528762       -14.3884
 205   2.0000      -0.527851       -14.3636
 206   2.0000      -0.523694       -14.2504
 207   2.0000      -0.523101       -14.2343
 208   2.0000      -0.520313       -14.1584
 209   2.0000      -0.519025       -14.1234
 210   2.0000      -0.518600       -14.1118
 211   2.0000      -0.514072       -13.9886
 212   2.0000      -0.511473       -13.9179
 213   2.0000      -0.508914       -13.8483
 214   2.0000      -0.507995       -13.8232
 215   2.0000      -0.502737       -13.6802
 216   2.0000      -0.501534       -13.6474
 217   2.0000      -0.496989       -13.5238
 218   2.0000      -0.496102       -13.4996
 219   2.0000      -0.493423       -13.4267
 220   2.0000      -0.491441       -13.3728
 221   2.0000      -0.489674       -13.3247
 222   2.0000      -0.488869       -13.3028
 223   2.0000      -0.486631       -13.2419
 224   2.0000      -0.485810       -13.2196
 225   2.0000      -0.484363       -13.1802
 226   2.0000      -0.482636       -13.1332
 227   2.0000      -0.479451       -13.0465
 228   2.0000      -0.477536       -12.9944
 229   2.0000      -0.474285       -12.9060
 230   2.0000      -0.470690       -12.8081
 231   2.0000      -0.464730       -12.6460
 232   2.0000      -0.460125       -12.5206
 233   2.0000      -0.455872       -12.4049
 234   2.0000      -0.455755       -12.4017
 235   2.0000      -0.453791       -12.3483
 236   2.0000      -0.451260       -12.2794
 237   2.0000      -0.448515       -12.2047
 238   2.0000      -0.443442       -12.0667
 239   2.0000      -0.442775       -12.0485
 240   2.0000      -0.440305       -11.9813
 241   2.0000      -0.438781       -11.9398
 242   2.0000      -0.438564       -11.9339
 243   2.0000      -0.435441       -11.8489
 244   2.0000      -0.434185       -11.8148
 245   2.0000      -0.432930       -11.7806
 246   2.0000      -0.431462       -11.7407
 247   2.0000      -0.431139       -11.7319
 248   2.0000      -0.428368       -11.6565
 249   2.0000      -0.422880       -11.5072
 250   2.0000      -0.419764       -11.4223
 251   2.0000      -0.418866       -11.3979
 252   2.0000      -0.417458       -11.3596
 253   2.0000      -0.415725       -11.3125
 254   2.0000      -0.415427       -11.3043
 255   2.0000      -0.414244       -11.2722
 256   2.0000      -0.411535       -11.1984
 257   2.0000      -0.403528       -10.9806
 258   2.0000      -0.399907       -10.8820
 259   2.0000      -0.399383       -10.8678
 260   2.0000      -0.398089       -10.8325
 261   2.0000      -0.394282       -10.7289
 262   2.0000      -0.389198       -10.5906
 263   2.0000      -0.381272       -10.3749
 264   2.0000      -0.380741       -10.3605
 265   2.0000      -0.374077       -10.1792
 266   2.0000      -0.371070       -10.0973
 267   2.0000      -0.369713       -10.0604
 268   2.0000      -0.360144        -9.8000
 269   2.0000      -0.358885        -9.7658
 270   2.0000      -0.356259        -9.6943
 271   2.0000      -0.354887        -9.6570
 272   2.0000      -0.345047        -9.3892
 273   2.0000      -0.339060        -9.2263
 274   2.0000      -0.328240        -8.9319
 275   2.0000      -0.327282        -8.9058
 276   2.0000      -0.321502        -8.7485
 277   2.0000      -0.309315        -8.4169
 278   2.0000      -0.308264        -8.3883
 279   2.0000      -0.293502        -7.9866
 280   2.0000      -0.285812        -7.7773
 281   2.0000      -0.278216        -7.5706
 282   2.0000      -0.233856        -6.3635
 283   0.0000      -0.122044        -3.3210
 284   0.0000      -0.112532        -3.0622
 285   0.0000      -0.079189        -2.1549
 286   0.0000      -0.072554        -1.9743
 287   0.0000      -0.067166        -1.8277

MULLIKEN ATOMIC CHARGES
-----------------------
   0 C :   -0.105191
   1 C :    0.243977
   2 F :   -0.166634
   3 C :    0.239258
   4 F :   -0.168255
   5 C :   -0.101421
   6 C :    0.115219
   7 C :    0.114416
   8 C :   -0.080890
   9 C :    0.059617
  10 C :   -0.014994
  11 C :   -0.071277
  12 C :    0.157833
  13 O :   -0.127687
  14 C :   -0.060813
  15 C :    0.278161
  16 C :   -0.313796
  17 C :   -0.179739
  18 N :    0.158680
  19 C :   -0.204911
  20 N :    0.178430
  21 C :   -0.008656
  22 C :    0.181744
  23 C :   -0.052319
  24 C :    0.249192
  25 C :   -0.322564
  26 C :   -0.175380
  27 N :    0.134533
  28 C :   -0.169624
  29 N :    0.137107
  30 C :   -0.141542
  31 C :    0.189182
  32 O :   -0.206590
  33 C :    0.098159
  34 O :   -0.208446
  35 C :   -0.037458
  36 C :    0.180349
  37 O :   -0.134641
  38 N :   -0.167925
  39 C :    0.165694
  40 O :   -0.135452
  41 C :   -0.034488
  42 C :    0.114147
  43 C :   -0.042079
  44 C :    0.034137
  45 C :   -0.012878
  46 C :   -0.017236
  47 C :    0.047178
  48 C :    0.030036
  49 C :   -0.040596
  50 S :    0.121056
  51 C :   -0.045222
  52 C :    0.041524
  53 C :    0.036010
  54 C :   -0.000070
  55 S :    0.125745
  56 C :   -0.018128
  57 C :   -0.039333
  58 C :   -0.083523
  59 C :    0.326188
  60 C :   -0.354749
  61 C :   -0.185084
  62 N :    0.145431
  63 C :   -0.189827
  64 N :    0.141007
  65 C :    0.014232
  66 C :   -0.008813
  67 C :    0.140194
  68 O :   -0.161290
  69 C :   -0.076506
  70 C :    0.118651
  71 C :   -0.090490
  72 C :   -0.024018
  73 S :    0.184603
  74 C :   -0.122886
  75 C :    0.036444
  76 Br:    0.018992
  77 H :    0.008430
  78 H :    0.004805
  79 H :   -0.001769
  80 H :   -0.002045
  81 H :    0.061725
  82 H :    0.043217
  83 H :    0.035869
  84 H :    0.142796
  85 H :    0.016599
  86 H :    0.025773
  87 H :   -0.000846
  88 H :   -0.000638
  89 H :   -0.001407
  90 H :   -0.003871
  91 H :    0.003920
  92 H :    0.020238
  93 H :    0.019980
  94 H :   -0.013383
  95 H :   -0.007827
  96 H :   -0.005275
Sum of atomic charges:   -0.0000000

LOEWDIN ATOMIC CHARGES
----------------------
   0 C :   -0.028638
   1 C :    0.069706
   2 F :   -0.045040
   3 C :    0.070067
   4 F :   -0.045646
   5 C :   -0.030535
   6 C :   -0.007156
   7 C :   -0.003961
   8 C :    0.020145
   9 C :   -0.023050
  10 C :   -0.054920
  11 C :    0.037737
  12 C :    0.085024
  13 O :   -0.119224
  14 C :   -0.057473
  15 C :    0.070373
  16 C :   -0.117961
  17 C :   -0.016364
  18 N :   -0.039186
  19 C :   -0.026323
  20 N :   -0.032390
  21 C :    0.059330
  22 C :    0.069859
  23 C :    0.007838
  24 C :    0.048108
  25 C :   -0.157718
  26 C :   -0.027656
  27 N :   -0.060154
  28 C :   -0.028584
  29 N :   -0.057340
  30 C :   -0.034334
  31 C :    0.069804
  32 O :    0.012433
  33 C :    0.041777
  34 O :    0.020773
  35 C :   -0.070901
  36 C :    0.086285
  37 O :   -0.152222
  38 N :   -0.003634
  39 C :    0.085767
  40 O :   -0.153203
  41 C :   -0.100099
  42 C :    0.083271
  43 C :   -0.043698
  44 C :    0.004791
  45 C :   -0.049164
  46 C :   -0.131160
  47 C :   -0.022487
  48 C :   -0.021739
  49 C :   -0.160915
  50 S :    0.406903
  51 C :   -0.176488
  52 C :   -0.012371
  53 C :   -0.028477
  54 C :   -0.108654
  55 S :    0.419214
  56 C :   -0.058967
  57 C :    0.049710
  58 C :   -0.094549
  59 C :    0.071371
  60 C :   -0.145076
  61 C :   -0.018255
  62 N :   -0.059229
  63 C :   -0.020935
  64 N :   -0.056866
  65 C :   -0.018181
  66 C :   -0.050195
  67 C :    0.083503
  68 O :   -0.153622
  69 C :    0.019451
  70 C :   -0.034550
  71 C :   -0.144285
  72 C :   -0.011528
  73 S :    0.431140
  74 C :   -0.273197
  75 C :   -0.070887
  76 Br:    0.133286
  77 H :    0.048423
  78 H :    0.046885
  79 H :    0.041008
  80 H :    0.043591
  81 H :    0.059029
  82 H :    0.052155
  83 H :    0.052392
  84 H :    0.097258
  85 H :    0.047680
  86 H :    0.031261
  87 H :    0.038338
  88 H :    0.038522
  89 H :    0.036427
  90 H :    0.035875
  91 H :    0.040705
  92 H :    0.039965
  93 H :    0.033623
  94 H :    0.039611
  95 H :    0.040782
  96 H :    0.037989

  Mayer bond orders larger than 0.100000
B(  0-C ,  1-C ) :   1.4438 B(  0-C ,  5-C ) :   0.1078 B(  0-C ,  7-C ) :   1.1876
B(  0-C , 77-H ) :   1.0064 B(  1-C ,  2-F ) :   1.1392 B(  1-C ,  3-C ) :   1.1879
B(  3-C ,  4-F ) :   1.1362 B(  3-C ,  5-C ) :   1.4452 B(  5-C ,  6-C ) :   1.1918
B(  5-C , 78-H ) :   1.0066 B(  6-C ,  7-C ) :   1.2484 B(  6-C , 11-C ) :   1.1966
B(  7-C ,  8-C ) :   1.2236 B(  8-C ,  9-C ) :   1.4459 B(  8-C , 79-H ) :   0.9903
B(  9-C , 10-C ) :   1.2136 B(  9-C , 15-C ) :   1.0001 B( 10-C , 11-C ) :   1.4701
B( 10-C , 12-C ) :   0.9448 B( 11-C , 80-H ) :   1.0159 B( 12-C , 13-O ) :   2.2344
B( 12-C , 14-C ) :   0.9184 B( 14-C , 15-C ) :   1.0320 B( 14-C , 21-C ) :   1.6960
B( 15-C , 16-C ) :   1.6826 B( 16-C , 17-C ) :   1.1376 B( 16-C , 19-C ) :   1.1305
B( 17-C , 18-N ) :   2.9724 B( 19-C , 20-N ) :   3.0115 B( 21-C , 22-C ) :   1.0590
B( 21-C , 81-H ) :   0.9363 B( 22-C , 23-C ) :   1.5986 B( 22-C , 32-O ) :   1.0861
B( 23-C , 24-C ) :   1.1348 B( 23-C , 82-H ) :   0.9502 B( 24-C , 25-C ) :   1.5573
B( 24-C , 30-C ) :   1.0919 B( 25-C , 26-C ) :   1.1361 B( 25-C , 28-C ) :   1.1302
B( 26-C , 27-N ) :   3.0079 B( 28-C , 29-N ) :   3.0069 B( 30-C , 31-C ) :   1.5233
B( 30-C , 83-H ) :   0.9826 B( 31-C , 32-O ) :   1.1791 B( 31-C , 33-C ) :   1.0509
B( 33-C , 34-O ) :   1.1770 B( 33-C , 35-C ) :   1.4429 B( 34-O , 42-C ) :   1.1377
B( 35-C , 36-C ) :   0.8538 B( 35-C , 41-C ) :   1.2834 B( 36-C , 37-O ) :   2.2605
B( 36-C , 38-N ) :   1.0941 B( 38-N , 39-C ) :   1.0662 B( 38-N , 84-H ) :   0.9128
B( 39-C , 40-O ) :   2.2740 B( 39-C , 41-C ) :   0.8840 B( 41-C , 42-C ) :   1.3686
B( 42-C , 43-C ) :   1.1934 B( 43-C , 44-C ) :   1.5709 B( 43-C , 85-H ) :   0.9673
B( 44-C , 45-C ) :   1.1642 B( 44-C , 86-H ) :   0.9794 B( 45-C , 46-C ) :   1.5362
B( 45-C , 87-H ) :   0.9858 B( 46-C , 47-C ) :   1.1477 B( 46-C , 50-S ) :   1.0480
B( 47-C , 48-C ) :   1.5826 B( 47-C , 88-H ) :   1.0003 B( 48-C , 49-C ) :   1.1938
B( 48-C , 89-H ) :   0.9942 B( 49-C , 50-S ) :   1.0698 B( 49-C , 51-C ) :   1.4757
B( 51-C , 52-C ) :   1.2005 B( 51-C , 55-S ) :   1.0598 B( 52-C , 53-C ) :   1.5628
B( 52-C , 90-H ) :   0.9942 B( 53-C , 54-C ) :   1.1624 B( 53-C , 91-H ) :   1.0014
B( 54-C , 55-S ) :   1.0750 B( 54-C , 56-C ) :   1.4517 B( 56-C , 57-C ) :   1.2231
B( 56-C , 92-H ) :   0.9758 B( 57-C , 58-C ) :   1.5218 B( 57-C , 93-H ) :   0.9431
B( 58-C , 59-C ) :   1.0932 B( 58-C , 67-C ) :   0.9568 B( 59-C , 60-C ) :   1.6028
B( 59-C , 65-C ) :   0.9920 B( 60-C , 61-C ) :   1.1472 B( 60-C , 63-C ) :   1.1512
B( 61-C , 62-N ) :   2.9640 B( 63-C , 64-N ) :   2.9593 B( 65-C , 66-C ) :   1.2772
B( 65-C , 72-C ) :   1.4172 B( 66-C , 67-C ) :   0.9411 B( 66-C , 69-C ) :   1.4240
B( 67-C , 68-O ) :   2.1860 B( 69-C , 70-C ) :   1.2430 B( 69-C , 94-H ) :   1.0166
B( 70-C , 71-C ) :   1.3100 B( 70-C , 75-C ) :   1.1618 B( 71-C , 72-C ) :   1.3241
B( 71-C , 73-S ) :   1.0862 B( 72-C , 95-H ) :   0.9791 B( 73-S , 74-C ) :   1.0863
B( 74-C , 75-C ) :   1.6191 B( 74-C , 76-Br) :   1.0158 B( 75-C , 96-H ) :   1.0000

-----------------------------------------------------------------------------
         ABSORPTION SPECTRUM VIA TRANSITION ELECTRIC DIPOLE MOMENTS
-----------------------------------------------------------------------------
State   Energy  Wavelength   fosc         T2         TX        TY        TZ
        (cm-1)    (nm)                  (au**2)     (au)      (au)      (au)
-----------------------------------------------------------------------------
   0   11058.0    904.3   1.065159264  31.71124  -2.27468   2.22209  -4.64751
   1   16306.1    613.3   0.145382313   2.93520  -1.33147  -0.39699  -1.00238
   2   19652.5    508.8   0.133516875   2.23663   1.16266   0.71095  -0.61595
   3   20582.6    485.8   0.200635380   3.20910   0.58040   0.64685  -1.56647
   4   21497.8    465.2   0.656031106  10.04629   2.77019   1.48015   0.42603
   5   22633.1    441.8   0.049763983   0.72385  -0.51272  -0.36924  -0.56976
   6   23554.0    424.6   0.223529236   3.12424   0.56567  -0.20641   1.66182
   7   23839.9    419.5   0.491392884   6.78577  -1.22194  -1.14246   1.99685
   8   25034.7    399.4   0.162638046   2.13873   1.42439   0.30235  -0.13571
   9   25693.1    389.2   0.325605673   4.17206   1.78841   0.95212  -0.25911
  10   26006.1    384.5   0.001097624   0.01389  -0.07295  -0.08632   0.03350
  11   26299.3    380.2   0.047512035   0.59475  -0.14213   0.75237   0.09214
  12   26537.9    376.8   0.007177020   0.08903  -0.04267   0.09573   0.27937
  13   27400.5    365.0   0.001300925   0.01563   0.08414  -0.05070   0.07733
  14   27633.6    361.9   0.072285522   0.86117   0.30777   0.47186   0.73742
  15   28313.6    353.2   0.199905224   2.32437   0.10076  -0.68844   1.35656
  16   28622.2    349.4   0.089481583   1.02922  -0.34307   0.06368   0.95261
  17   28998.6    344.8   0.098838779   1.12209  -0.31560  -0.27659  -0.97261
  18   29227.0    342.1   0.070705292   0.79642  -0.15570   0.87600  -0.06928
  19   29750.5    336.1   0.121029760   1.33929   1.14845   0.13113   0.05625
  20   30539.1    327.4   0.064725626   0.69774   0.15981   0.71341  -0.40405
  21   31047.2    322.1   0.011646165   0.12349   0.00546   0.34195   0.08083
  22   31731.9    315.1   0.444178887   4.60827   1.11562  -0.05642   1.83316
  23   32252.7    310.1   0.171375592   1.74927   0.45101  -0.93043   0.82472
  24   32327.3    309.3   0.149892665   1.52646  -0.11668   1.01998  -0.68739
  25   32368.3    308.9   0.006659990   0.06774  -0.07219   0.17296  -0.18059
  26   32871.2    304.2   0.183671839   1.83951  -0.23442  -0.74887  -1.10624
  27   33147.1    301.7   0.019627113   0.19493   0.27934   0.09886   0.32731
  28   33251.0    300.7   0.254539619   2.52015   0.68739  -1.33634  -0.51172
  29   33733.0    296.4   0.642471264   6.27010  -0.65762  -2.41434   0.09261
  30   34172.2    292.6   0.013116743   0.12637   0.01841   0.28228  -0.21528
  31   34508.6    289.8   0.009505461   0.09068   0.28071  -0.02356  -0.10644
  32   34718.3    288.0   0.002648755   0.02512   0.03337   0.12621  -0.08985
  33   35197.1    284.1   0.034824105   0.32572  -0.43922  -0.27682   0.23703
  34   35415.0    282.4   0.011546415   0.10733   0.22783  -0.09521   0.21532
  35   35465.1    282.0   0.003099826   0.02877  -0.11907   0.11400   0.04001
  36   35774.1    279.5   0.013769441   0.12671  -0.19713  -0.12659  -0.26801
  37   36099.7    277.0   0.001635092   0.01491   0.04784   0.11182  -0.01094
  38   36186.2    276.3   0.006390957   0.05814   0.03813   0.07124  -0.22719
  39   36350.1    275.1   0.082255812   0.74497  -0.20194  -0.55853   0.62629
  40   36882.7    271.1   0.254377038   2.27055  -0.05356  -0.64148   1.36242
  41   37119.8    269.4   0.128285223   1.13775   0.15119   0.76369  -0.72916
  42   37148.6    269.2   0.053004387   0.46973  -0.30442  -0.11629   0.60294
  43   37286.6    268.2   0.054921558   0.48492   0.13914   0.09896   0.67510
  44   37384.0    267.5   0.211959580   1.86657  -0.19059   0.49172   1.26034
  45   37705.2    265.2   0.027389709   0.23915  -0.34653   0.27909   0.20290
  46   38208.9    261.7   0.085620098   0.73771   0.40150   0.46020   0.60392
  47   38548.1    259.4   0.161690879   1.38089  -0.83453  -0.13412   0.81637
  48   38711.6    258.3   0.003216232   0.02735  -0.01704  -0.01101  -0.16413
  49   38873.1    257.2   0.154865640   1.31154   0.65726   0.47053  -0.81127
  50   38973.5    256.6   0.018816724   0.15895   0.23977  -0.13936  -0.28641
  51   39101.0    255.7   0.003505134   0.02951   0.05071   0.06730  -0.14970
  52   39270.7    254.6   0.012396487   0.10392   0.31815  -0.03153   0.04134
  53   39789.5    251.3   0.100746821   0.83356  -0.17224   0.12057  -0.88846
  54   40064.9    249.6   0.042883972   0.35238   0.02526  -0.43272   0.40558
  55   40233.6    248.5   0.008497019   0.06953  -0.01172   0.01540   0.26297
  56   40322.0    248.0   0.079836855   0.65183   0.17360  -0.36717   0.69777

FINAL SINGLE POINT ENERGY     -7020.504839745379

DIPOLE MOMENT
-------------
                                X             Y             Z
Electronic contribution:     93.80286     -26.09250      99.99135
Nuclear contribution   :    -98.10468      25.09415    -100.23681
                        -----------------------------------------
Total Dipole Moment    :     -4.30182      -0.99835      -0.24546
                        -----------------------------------------
Magnitude (a.u.)       :      4.42297
Magnitude (Debye)      :     11.24229

Rotational constants in cm-1:     0.000711     0.000236     0.000188
Rotational constants in MHz :    21.312767     7.082174     5.645466

                             ****ORCA TERMINATED NORMALLY****
TOTAL RUN TIME: 0 days 0 hours 10 minutes 52 seconds 82 msec
