                         Program Version 4.2.0 -  RELEASE  -
|  1> # ORCA input file
|  2> # SCF done       -142.187894198887          0.000662603129
|  3> ! CAM-B3LYP def2-SVP def2/J RIJCOSX Grid4 TightSCF
|  4> %maxcore 5000
|  5> %tddft
|  6>     Mode sTDDFT
|  7>     Ethresh 5.0
|  8>     maxcore 5000
|  9> end
| 10>
| 11> %pal
| 12>   nprocs 6
| 13>   end
| 14> * xyz 0 1
| 15>    C        2.01864        -4.58359        -0.65701
| 16>    C        2.04734        -3.66658         0.36147
| 17>    C        1.11909        -3.81056         1.48826
| 18>    O        0.24755        -4.63900         1.54388
| 19>    O        1.31804        -2.92511         2.48843
| 20>    C        3.02770        -2.63708         0.12866
| 21>    C        3.68333        -2.83353        -1.05618
| 22>    S        3.14139        -4.24061        -1.88319
| 23>    N        3.20099        -1.60474         1.02390
| 24>    C        4.07780        -0.57844         1.01484
| 25>    S        5.35300        -0.43180        -0.15075
| 26>    C        5.96121         0.96851         0.68073
| 27>    N        7.08313         1.59519         0.14671
| 28>    O        7.51914         2.57711         0.72373
| 29>    O        7.55098         1.10804        -0.87274
| 30>    C        5.22450         1.28992         1.78756
| 31>    C        4.12399         0.43571         1.99278
| 32>    C        3.22650         0.64372         3.09283
| 33>    C        1.94390         0.22383         3.23608
| 34>    C        1.18349         0.48740         4.39581
| 35>    C       -0.09587         0.05060         4.60271
| 36>    C       -0.89905         0.26821         5.75162
| 37>    C       -2.12600        -0.31564         5.70205
| 38>    C       -2.37796        -1.03414         4.50998
| 39>    S       -0.99327        -0.92611         3.43944
| 40>    C       -3.50645        -1.74698         4.16965
| 41>    C       -4.67646        -1.92661         4.94661
| 42>    C       -5.62497        -2.69926         4.35703
| 43>    C       -5.26377        -3.17738         3.06668
| 44>    S       -3.65705        -2.59490         2.64142
| 45>    C       -5.96935        -3.96375         2.20576
| 46>    N       -7.19286        -4.48750         2.51000
| 47>    C       -8.03306        -5.17362         1.69323
| 48>    S       -9.15465        -6.28025         2.43489
| 49>    C       -9.73558        -6.72764         0.86032
| 50>    N      -10.77267        -7.65936         0.80889
| 51>    O      -11.19995        -7.98236        -0.28474
| 52>    O      -11.17550        -8.08421         1.88256
| 53>    C       -9.10395        -6.06651        -0.15767
| 54>    C       -8.13112        -5.15217         0.29384
| 55>    C       -7.42861        -4.23129        -0.55828
| 56>    C       -7.33678        -4.34180        -1.89774
| 57>    C       -6.66867        -3.39410        -2.72409
| 58>    C       -6.56789        -3.40175        -4.10938
| 59>    C       -7.16778        -4.41963        -4.97395
| 60>    O       -7.80623        -5.37963        -4.61024
| 61>    O       -6.93617        -4.18240        -6.27675
| 62>    C       -5.82185        -2.30415        -4.61082
| 63>    C       -5.36649        -1.48695        -3.63280
| 64>    S       -5.83108        -2.02059        -2.06430
| 65>    H        1.37548        -5.43908        -0.71320
| 66>    H        0.63610        -3.04234         3.17062
| 67>    H        4.44655        -2.24144        -1.51434
| 68>    H        2.62632        -1.68441         1.85849
| 69>    H        5.46255         2.13047         2.41410
| 70>    H        3.63994         1.25729         3.88359
| 71>    H        1.42831        -0.30237         2.44485
| 72>    H        1.64544         1.06012         5.18893
| 73>    H       -0.53562         0.85048         6.57976
| 74>    H       -2.85654        -0.25206         6.48822
| 75>    H       -4.78279        -1.47992         5.91867
| 76>    H       -6.57393        -2.92562         4.81132
| 77>    H       -5.55483        -4.22670         1.24641
| 78>    H       -7.46236        -4.45422         3.48544
| 79>    H       -9.36688        -6.21791        -1.18856
| 80>    H       -6.98275        -3.36964        -0.07837
| 81>    H       -7.76492        -5.18133        -2.42482
| 82>    H       -7.35245        -4.87731        -6.80974
| 83>    H       -5.64463        -2.15073        -5.65910
| 84>    H       -4.78134        -0.59417        -3.72795
| 85> *
| 86>
| 87>                          ****END OF INPUT****

CARTESIAN COORDINATES (ANGSTROEM)
---------------------------------
  C      2.018640   -4.583590   -0.657010
  C      2.047340   -3.666580    0.361470
  C      1.119090   -3.810560    1.488260
  O      0.247550   -4.639000    1.543880
  O      1.318040   -2.925110    2.488430
  C      3.027700   -2.637080    0.128660
  C      3.683330   -2.833530   -1.056180
  S      3.141390   -4.240610   -1.883190
  N      3.200990   -1.604740    1.023900
  C      4.077800   -0.578440    1.014840
  S      5.353000   -0.431800   -0.150750
  C      5.961210    0.968510    0.680730
  N      7.083130    1.595190    0.146710
  O      7.519140    2.577110    0.723730
  O      7.550980    1.108040   -0.872740
  C      5.224500    1.289920    1.787560
  C      4.123990    0.435710    1.992780
  C      3.226500    0.643720    3.092830
  C      1.943900    0.223830    3.236080
  C      1.183490    0.487400    4.395810
  C     -0.095870    0.050600    4.602710
  C     -0.899050    0.268210    5.751620
  C     -2.126000   -0.315640    5.702050
  C     -2.377960   -1.034140    4.509980
  S     -0.993270   -0.926110    3.439440
  C     -3.506450   -1.746980    4.169650
  C     -4.676460   -1.926610    4.946610
  C     -5.624970   -2.699260    4.357030
  C     -5.263770   -3.177380    3.066680
  S     -3.657050   -2.594900    2.641420
  C     -5.969350   -3.963750    2.205760
  N     -7.192860   -4.487500    2.510000
  C     -8.033060   -5.173620    1.693230
  S     -9.154650   -6.280250    2.434890
  C     -9.735580   -6.727640    0.860320
  N    -10.772670   -7.659360    0.808890
  O    -11.199950   -7.982360   -0.284740
  O    -11.175500   -8.084210    1.882560
  C     -9.103950   -6.066510   -0.157670
  C     -8.131120   -5.152170    0.293840
  C     -7.428610   -4.231290   -0.558280
  C     -7.336780   -4.341800   -1.897740
  C     -6.668670   -3.394100   -2.724090
  C     -6.567890   -3.401750   -4.109380
  C     -7.167780   -4.419630   -4.973950
  O     -7.806230   -5.379630   -4.610240
  O     -6.936170   -4.182400   -6.276750
  C     -5.821850   -2.304150   -4.610820
  C     -5.366490   -1.486950   -3.632800
  S     -5.831080   -2.020590   -2.064300
  H      1.375480   -5.439080   -0.713200
  H      0.636100   -3.042340    3.170620
  H      4.446550   -2.241440   -1.514340
  H      2.626320   -1.684410    1.858490
  H      5.462550    2.130470    2.414100
  H      3.639940    1.257290    3.883590
  H      1.428310   -0.302370    2.444850
  H      1.645440    1.060120    5.188930
  H     -0.535620    0.850480    6.579760
  H     -2.856540   -0.252060    6.488220
  H     -4.782790   -1.479920    5.918670
  H     -6.573930   -2.925620    4.811320
  H     -5.554830   -4.226700    1.246410
  H     -7.462360   -4.454220    3.485440
  H     -9.366880   -6.217910   -1.188560
  H     -6.982750   -3.369640   -0.078370
  H     -7.764920   -5.181330   -2.424820
  H     -7.352450   -4.877310   -6.809740
  H     -5.644630   -2.150730   -5.659100
  H     -4.781340   -0.594170   -3.727950

 Total Charge           Charge          ....    0
 Multiplicity           Mult            ....    1
 Number of Electrons    NEL             ....  400
 Basis Dimension        Dim             ....  824

ORBITAL ENERGIES
----------------

  NO   OCC          E(Eh)            E(eV)
   0   2.0000     -88.981467     -2421.3088
   1   2.0000     -88.979041     -2421.2428
   2   2.0000     -88.975734     -2421.1528
   3   2.0000     -88.963770     -2420.8273
   4   2.0000     -88.954241     -2420.5680
   5   2.0000     -88.951387     -2420.4903
   6   2.0000     -19.279986      -524.6351
   7   2.0000     -19.260975      -524.1178
   8   2.0000     -19.231941      -523.3277
   9   2.0000     -19.231897      -523.3265
  10   2.0000     -19.224900      -523.1361
  11   2.0000     -19.224386      -523.1222
  12   2.0000     -19.211933      -522.7833
  13   2.0000     -19.202713      -522.5324
  14   2.0000     -14.643599      -398.4726
  15   2.0000     -14.637057      -398.2946
  16   2.0000     -14.490729      -394.3128
  17   2.0000     -14.472231      -393.8094
  18   2.0000     -10.418110      -283.4912
  19   2.0000     -10.405399      -283.1453
  20   2.0000     -10.369984      -282.1816
  21   2.0000     -10.366950      -282.0990
  22   2.0000     -10.343482      -281.4605
  23   2.0000     -10.339341      -281.3478
  24   2.0000     -10.339071      -281.3404
  25   2.0000     -10.329236      -281.0728
  26   2.0000     -10.318802      -280.7889
  27   2.0000     -10.318089      -280.7695
  28   2.0000     -10.316597      -280.7289
  29   2.0000     -10.315058      -280.6870
  30   2.0000     -10.314626      -280.6752
  31   2.0000     -10.312110      -280.6068
  32   2.0000     -10.306569      -280.4560
  33   2.0000     -10.302137      -280.3354
  34   2.0000     -10.300948      -280.3031
  35   2.0000     -10.300753      -280.2977
  36   2.0000     -10.300740      -280.2974
  37   2.0000     -10.299616      -280.2668
  38   2.0000     -10.299094      -280.2526
  39   2.0000     -10.298952      -280.2487
  40   2.0000     -10.293859      -280.1101
  41   2.0000     -10.292558      -280.0747
  42   2.0000     -10.291133      -280.0360
  43   2.0000     -10.290481      -280.0182
  44   2.0000     -10.289352      -279.9875
  45   2.0000     -10.285894      -279.8934
  46   2.0000     -10.284302      -279.8501
  47   2.0000     -10.283237      -279.8211
  48   2.0000     -10.282232      -279.7938
  49   2.0000     -10.279421      -279.7173
  50   2.0000      -8.077395      -219.7971
  51   2.0000      -8.074137      -219.7084
  52   2.0000      -8.071956      -219.6491
  53   2.0000      -8.059640      -219.3140
  54   2.0000      -8.049986      -219.0513
  55   2.0000      -8.047734      -218.9900
  56   2.0000      -6.047129      -164.5507
  57   2.0000      -6.043809      -164.4604
  58   2.0000      -6.042756      -164.4317
  59   2.0000      -6.041126      -164.3874
  60   2.0000      -6.039301      -164.3377
  61   2.0000      -6.038641      -164.3198
  62   2.0000      -6.036711      -164.2673
  63   2.0000      -6.035709      -164.2400
  64   2.0000      -6.034471      -164.2063
  65   2.0000      -6.028845      -164.0532
  66   2.0000      -6.024572      -163.9369
  67   2.0000      -6.022066      -163.8688
  68   2.0000      -6.019680      -163.8038
  69   2.0000      -6.017708      -163.7502
  70   2.0000      -6.015773      -163.6975
  71   2.0000      -6.013681      -163.6406
  72   2.0000      -6.011006      -163.5678
  73   2.0000      -6.008144      -163.4899
  74   2.0000      -1.311860       -35.6975
  75   2.0000      -1.304680       -35.5022
  76   2.0000      -1.202473       -32.7210
  77   2.0000      -1.188341       -32.3364
  78   2.0000      -1.131028       -30.7768
  79   2.0000      -1.123531       -30.5728
  80   2.0000      -1.105349       -30.0781
  81   2.0000      -1.094118       -29.7725
  82   2.0000      -1.091280       -29.6952
  83   2.0000      -1.084081       -29.4993
  84   2.0000      -1.005927       -27.3727
  85   2.0000      -1.005309       -27.3558
  86   2.0000      -0.998651       -27.1747
  87   2.0000      -0.990505       -26.9530
  88   2.0000      -0.985278       -26.8108
  89   2.0000      -0.978358       -26.6225
  90   2.0000      -0.920910       -25.0592
  91   2.0000      -0.917397       -24.9637
  92   2.0000      -0.901619       -24.5343
  93   2.0000      -0.890876       -24.2420
  94   2.0000      -0.877608       -23.8809
  95   2.0000      -0.868450       -23.6317
  96   2.0000      -0.861132       -23.4326
  97   2.0000      -0.855922       -23.2908
  98   2.0000      -0.855431       -23.2775
  99   2.0000      -0.852737       -23.2042
 100   2.0000      -0.838466       -22.8158
 101   2.0000      -0.834534       -22.7088
 102   2.0000      -0.825880       -22.4733
 103   2.0000      -0.807625       -21.9766
 104   2.0000      -0.794459       -21.6183
 105   2.0000      -0.773959       -21.0605
 106   2.0000      -0.766095       -20.8465
 107   2.0000      -0.752448       -20.4752
 108   2.0000      -0.745101       -20.2752
 109   2.0000      -0.741770       -20.1846
 110   2.0000      -0.714233       -19.4353
 111   2.0000      -0.706992       -19.2382
 112   2.0000      -0.701649       -19.0929
 113   2.0000      -0.685813       -18.6619
 114   2.0000      -0.680584       -18.5196
 115   2.0000      -0.674744       -18.3607
 116   2.0000      -0.666763       -18.1435
 117   2.0000      -0.658941       -17.9307
 118   2.0000      -0.652416       -17.7531
 119   2.0000      -0.644085       -17.5264
 120   2.0000      -0.640618       -17.4321
 121   2.0000      -0.634526       -17.2663
 122   2.0000      -0.627918       -17.0865
 123   2.0000      -0.624850       -17.0030
 124   2.0000      -0.624546       -16.9948
 125   2.0000      -0.623217       -16.9586
 126   2.0000      -0.621060       -16.8999
 127   2.0000      -0.618286       -16.8244
 128   2.0000      -0.618100       -16.8193
 129   2.0000      -0.601681       -16.3726
 130   2.0000      -0.597576       -16.2609
 131   2.0000      -0.588224       -16.0064
 132   2.0000      -0.586253       -15.9527
 133   2.0000      -0.573149       -15.5962
 134   2.0000      -0.571311       -15.5462
 135   2.0000      -0.569415       -15.4946
 136   2.0000      -0.564589       -15.3633
 137   2.0000      -0.559055       -15.2127
 138   2.0000      -0.558384       -15.1944
 139   2.0000      -0.556463       -15.1421
 140   2.0000      -0.548007       -14.9120
 141   2.0000      -0.544641       -14.8204
 142   2.0000      -0.540029       -14.6949
 143   2.0000      -0.538046       -14.6410
 144   2.0000      -0.532727       -14.4962
 145   2.0000      -0.530936       -14.4475
 146   2.0000      -0.525426       -14.2976
 147   2.0000      -0.524801       -14.2806
 148   2.0000      -0.522061       -14.2060
 149   2.0000      -0.511979       -13.9317
 150   2.0000      -0.506792       -13.7905
 151   2.0000      -0.503079       -13.6895
 152   2.0000      -0.500932       -13.6311
 153   2.0000      -0.499089       -13.5809
 154   2.0000      -0.495953       -13.4956
 155   2.0000      -0.487890       -13.2762
 156   2.0000      -0.483664       -13.1612
 157   2.0000      -0.481107       -13.0916
 158   2.0000      -0.478428       -13.0187
 159   2.0000      -0.476139       -12.9564
 160   2.0000      -0.475605       -12.9419
 161   2.0000      -0.473968       -12.8973
 162   2.0000      -0.473290       -12.8789
 163   2.0000      -0.472205       -12.8494
 164   2.0000      -0.461414       -12.5557
 165   2.0000      -0.455668       -12.3993
 166   2.0000      -0.450688       -12.2639
 167   2.0000      -0.446942       -12.1619
 168   2.0000      -0.445426       -12.1207
 169   2.0000      -0.443154       -12.0588
 170   2.0000      -0.438017       -11.9191
 171   2.0000      -0.433440       -11.7945
 172   2.0000      -0.426982       -11.6188
 173   2.0000      -0.420992       -11.4558
 174   2.0000      -0.415873       -11.3165
 175   2.0000      -0.413806       -11.2602
 176   2.0000      -0.404382       -11.0038
 177   2.0000      -0.403781       -10.9875
 178   2.0000      -0.396205       -10.7813
 179   2.0000      -0.380888       -10.3645
 180   2.0000      -0.380153       -10.3445
 181   2.0000      -0.373691       -10.1687
 182   2.0000      -0.372284       -10.1304
 183   2.0000      -0.367954       -10.0125
 184   2.0000      -0.365837        -9.9549
 185   2.0000      -0.360351        -9.8056
 186   2.0000      -0.353928        -9.6309
 187   2.0000      -0.352727        -9.5982
 188   2.0000      -0.349402        -9.5077
 189   2.0000      -0.347566        -9.4577
 190   2.0000      -0.346460        -9.4277
 191   2.0000      -0.341186        -9.2841
 192   2.0000      -0.333169        -9.0660
 193   2.0000      -0.330481        -8.9928
 194   2.0000      -0.327863        -8.9216
 195   2.0000      -0.320691        -8.7264
 196   2.0000      -0.296416        -8.0659
 197   2.0000      -0.271772        -7.3953
 198   2.0000      -0.257493        -7.0067
 199   2.0000      -0.212539        -5.7835
 200   0.0000      -0.079568        -2.1651
 201   0.0000      -0.049804        -1.3552
 202   0.0000      -0.044505        -1.2111
 203   0.0000      -0.043865        -1.1936
 204   0.0000      -0.017670        -0.4808

MULLIKEN ATOMIC CHARGES
-----------------------
   0 C :   -0.087438
   1 C :   -0.031764
   2 C :    0.147801
   3 O :   -0.181591
   4 O :   -0.209827
   5 C :    0.142139
   6 C :   -0.224018
   7 S :    0.160807
   8 N :   -0.005804
   9 C :   -0.088092
  10 S :    0.125485
  11 C :   -0.003092
  12 N :    0.280548
  13 O :   -0.261845
  14 O :   -0.278105
  15 C :    0.010657
  16 C :    0.116786
  17 C :   -0.040801
  18 C :   -0.011950
  19 C :   -0.024017
  20 C :   -0.023175
  21 C :    0.041270
  22 C :    0.025885
  23 C :   -0.057838
  24 S :    0.030864
  25 C :   -0.045702
  26 C :    0.012809
  27 C :    0.022535
  28 C :   -0.076677
  29 S :    0.095282
  30 C :    0.059577
  31 N :   -0.026491
  32 C :   -0.112679
  33 S :    0.159656
  34 C :   -0.011259
  35 N :    0.281556
  36 O :   -0.248844
  37 O :   -0.272543
  38 C :    0.003801
  39 C :    0.101475
  40 C :   -0.051606
  41 C :    0.008747
  42 C :   -0.113919
  43 C :   -0.013533
  44 C :    0.141162
  45 O :   -0.204766
  46 O :   -0.174867
  47 C :    0.046485
  48 C :   -0.052767
  49 S :    0.108345
  50 H :    0.050205
  51 H :    0.202917
  52 H :    0.044882
  53 H :    0.151670
  54 H :    0.005955
  55 H :   -0.009344
  56 H :   -0.001679
  57 H :   -0.015390
  58 H :   -0.012937
  59 H :   -0.013857
  60 H :   -0.012150
  61 H :   -0.022130
  62 H :    0.030155
  63 H :    0.140702
  64 H :    0.022456
  65 H :    0.004576
  66 H :    0.019911
  67 H :    0.191029
  68 H :    0.002119
  69 H :    0.032248
Sum of atomic charges:   -0.0000000

LOEWDIN ATOMIC CHARGES
----------------------
   0 C :   -0.131573
   1 C :   -0.133772
   2 C :    0.088725
   3 O :   -0.172723
   4 O :   -0.041578
   5 C :   -0.003093
   6 C :   -0.247360
   7 S :    0.485190
   8 N :    0.037641
   9 C :   -0.084620
  10 S :    0.467724
  11 C :   -0.225193
  12 N :    0.274595
  13 O :   -0.227449
  14 O :   -0.244089
  15 C :    0.004690
  16 C :   -0.113010
  17 C :   -0.017040
  18 C :   -0.054010
  19 C :   -0.055817
  20 C :   -0.149982
  21 C :   -0.037562
  22 C :   -0.033275
  23 C :   -0.189861
  24 S :    0.360536
  25 C :   -0.177143
  26 C :   -0.025943
  27 C :   -0.048393
  28 C :   -0.193992
  29 S :    0.366985
  30 C :   -0.001751
  31 N :    0.041227
  32 C :   -0.103399
  33 S :    0.440763
  34 C :   -0.209306
  35 N :    0.274000
  36 O :   -0.215544
  37 O :   -0.238431
  38 C :    0.012320
  39 C :   -0.103448
  40 C :   -0.028008
  41 C :   -0.038671
  42 C :   -0.133347
  43 C :   -0.117723
  44 C :    0.089471
  45 O :   -0.189609
  46 O :   -0.039612
  47 C :   -0.041554
  48 C :   -0.178894
  49 S :    0.442984
  50 H :    0.037435
  51 H :    0.083024
  52 H :    0.011462
  53 H :    0.079526
  54 H :    0.044602
  55 H :    0.032733
  56 H :    0.014475
  57 H :    0.033140
  58 H :    0.033811
  59 H :    0.031614
  60 H :    0.033064
  61 H :    0.025951
  62 H :    0.037075
  63 H :    0.090513
  64 H :    0.050299
  65 H :    0.021277
  66 H :    0.037228
  67 H :    0.100867
  68 H :    0.035688
  69 H :    0.026143

  Mayer bond orders larger than 0.100000
B(  0-C ,  1-C ) :   1.5382 B(  0-C ,  7-S ) :   1.2442 B(  0-C , 50-H ) :   0.9648
B(  1-C ,  2-C ) :   0.9499 B(  1-C ,  5-C ) :   1.1906 B(  2-C ,  3-O ) :   2.1890
B(  2-C ,  4-O ) :   1.2011 B(  4-O , 51-H ) :   0.9057 B(  5-C ,  6-C ) :   1.5273
B(  5-C ,  8-N ) :   1.1417 B(  6-C ,  7-S ) :   1.1304 B(  6-C , 52-H ) :   0.9611
B(  8-N ,  9-C ) :   1.2561 B(  8-N , 53-H ) :   0.8537 B(  9-C , 10-S ) :   1.1418
B(  9-C , 16-C ) :   1.3272 B( 10-S , 11-C ) :   1.0602 B( 11-C , 12-N ) :   0.9904
B( 11-C , 15-C ) :   1.4633 B( 12-N , 13-O ) :   1.5240 B( 12-N , 14-O ) :   1.4983
B( 13-O , 14-O ) :   0.2493 B( 15-C , 16-C ) :   1.2439 B( 15-C , 54-H ) :   1.0082
B( 16-C , 17-C ) :   1.0758 B( 17-C , 18-C ) :   1.6587 B( 17-C , 55-H ) :   0.9726
B( 18-C , 19-C ) :   1.1485 B( 18-C , 56-H ) :   0.9571 B( 19-C , 20-C ) :   1.5886
B( 19-C , 57-H ) :   0.9849 B( 20-C , 21-C ) :   1.1341 B( 20-C , 24-S ) :   1.0055
B( 21-C , 22-C ) :   1.5992 B( 21-C , 58-H ) :   0.9979 B( 22-C , 23-C ) :   1.1862
B( 22-C , 59-H ) :   0.9914 B( 23-C , 24-S ) :   1.0202 B( 23-C , 25-C ) :   1.5255
B( 25-C , 26-C ) :   1.1846 B( 25-C , 29-S ) :   1.0487 B( 26-C , 27-C ) :   1.6434
B( 26-C , 60-H ) :   0.9920 B( 27-C , 28-C ) :   1.1182 B( 27-C , 61-H ) :   0.9843
B( 28-C , 29-S ) :   1.0192 B( 28-C , 30-C ) :   1.6185 B( 30-C , 31-N ) :   1.1572
B( 30-C , 62-H ) :   0.9427 B( 31-N , 32-C ) :   1.2011 B( 31-N , 63-H ) :   0.9061
B( 32-C , 33-S ) :   1.1285 B( 32-C , 39-C ) :   1.3685 B( 33-S , 34-C ) :   1.0730
B( 34-C , 35-N ) :   0.9778 B( 34-C , 38-C ) :   1.4881 B( 35-N , 36-O ) :   1.5315
B( 35-N , 37-O ) :   1.5009 B( 36-O , 37-O ) :   0.2564 B( 38-C , 39-C ) :   1.2346
B( 38-C , 64-H ) :   1.0029 B( 39-C , 40-C ) :   1.0733 B( 40-C , 41-C ) :   1.6824
B( 40-C , 65-H ) :   0.9682 B( 41-C , 42-C ) :   1.1585 B( 41-C , 66-H ) :   0.9565
B( 42-C , 43-C ) :   1.4808 B( 42-C , 49-S ) :   1.1549 B( 43-C , 44-C ) :   0.9669
B( 43-C , 47-C ) :   1.2253 B( 44-C , 45-O ) :   2.0869 B( 44-C , 46-O ) :   1.2956
B( 46-O , 67-H ) :   0.9418 B( 47-C , 48-C ) :   1.5916 B( 47-C , 68-H ) :   0.9957
B( 48-C , 49-S ) :   1.1375 B( 48-C , 69-H ) :   0.9712

-----------------------------------------------------------------------------
         ABSORPTION SPECTRUM VIA TRANSITION ELECTRIC DIPOLE MOMENTS
-----------------------------------------------------------------------------
State   Energy  Wavelength   fosc         T2         TX        TY        TZ
        (cm-1)    (nm)                  (au**2)     (au)      (au)      (au)
-----------------------------------------------------------------------------
   0   15022.9    665.7   1.478710217  32.40452  -5.08383  -2.36345  -0.98656
   1   22127.0    451.9   0.189085382   2.81327   0.99036   0.84314  -1.05905
   2   22889.9    436.9   0.096359878   1.38589  -0.10013  -0.83020  -0.82863
   3   23506.6    425.4   0.150171702   2.10317   1.12009   0.63533  -0.66702
   4   24305.9    411.4   0.440440883   5.96557   0.26733  -1.01166  -2.20695
   5   27220.1    367.4   0.021005277   0.25405   0.27926   0.16434  -0.38607
   6   27513.0    363.5   0.084117847   1.00653   0.63422   0.28778  -0.72214
   7   28552.7    350.2   0.137746131   1.58821  -0.07155   0.71741   1.03364
   8   30125.1    331.9   0.476846042   5.21104   1.33793   1.39556  -1.21384
   9   30970.0    322.9   0.415640556   4.41827  -1.51403  -1.45357   0.11462
  10   31555.0    316.9   0.000428367   0.00447  -0.04048   0.05209   0.01084
  11   32620.7    306.6   0.058060546   0.58595  -0.13630   0.34129   0.67149
  12   32918.7    303.8   0.138847026   1.38858   0.11223   0.79736  -0.86034
  13   33183.0    301.4   0.009270768   0.09198  -0.01396   0.06844   0.29512
  14   33936.9    294.7   0.005292881   0.05134   0.16945   0.14717   0.03116
  15   34901.9    286.5   0.042981824   0.40543  -0.16328  -0.43493  -0.43543
  16   35514.4    281.6   0.059575802   0.55226  -0.48852  -0.55922   0.02959
  17   35724.1    279.9   0.000969781   0.00894  -0.01916   0.02568   0.08894
  18   36382.1    274.9   0.211838542   1.91687   0.65792  -0.05673  -1.21688
  19   36605.8    273.2   0.064836797   0.58310  -0.27996  -0.31972   0.63443
  20   37334.1    267.9   0.039507899   0.34838   0.54434   0.19044  -0.12574
  21   37664.7    265.5   0.210381443   1.83886  -1.13227  -0.43901   0.60340
  22   38354.1    260.7   0.089679694   0.76976   0.70553   0.40635  -0.32692
  23   39875.8    250.8   0.051965730   0.42903   0.13299   0.51944   0.37619

FINAL SINGLE POINT ENERGY     -4437.948119853891

DIPOLE MOMENT
-------------
                                X             Y             Z
Electronic contribution:      3.24895      -9.41480      -8.25934
Nuclear contribution   :     -3.85553      10.32950       9.81825
                        -----------------------------------------
Total Dipole Moment    :     -0.60658       0.91470       1.55891
                        -----------------------------------------
Magnitude (a.u.)       :      1.90651
Magnitude (Debye)      :      4.84598

Rotational constants in cm-1:     0.002162     0.000579     0.000503
Rotational constants in MHz :    64.817087    17.345845    15.082302

                             ****ORCA TERMINATED NORMALLY****
TOTAL RUN TIME: 0 days 0 hours 5 minutes 10 seconds 902 msec
