                         Program Version 4.2.0 -  RELEASE  -
|  1> # ORCA input file
|  2> # SCF done       -185.263207757379          0.000755931294
|  3> ! CAM-B3LYP def2-SVP def2/J RIJCOSX Grid4 TightSCF
|  4> %maxcore 5000
|  5> %tddft
|  6>     Mode sTDDFT
|  7>     Ethresh 5.0
|  8>     maxcore 5000
|  9> end
| 10>
| 11> %pal
| 12>   nprocs 6
| 13>   end
| 14> * xyz 0 1
| 15>    C       -1.19670         1.06206         6.74591
| 16>    S       -2.29680         0.29905         5.48860
| 17>    C       -1.49361         1.17721         4.10659
| 18>    C       -0.07182         1.47474         4.58501
| 19>    C       -0.25321         2.00722         6.01569
| 20>    C        0.50493         2.55071         3.64715
| 21>    O        0.37637         3.73412         3.86403
| 22>    N        1.06693         2.05511         2.52843
| 23>    N        0.69725         0.24690         4.52401
| 24>    C        2.00100         0.17387         4.97724
| 25>    C        2.85396         1.19832         5.11415
| 26>    C        4.24924         1.07824         5.48957
| 27>    C        5.11035         2.14187         5.18351
| 28>    C        6.44825         2.05441         5.48558
| 29>    C        6.94224         0.93000         6.17047
| 30>    C        6.09718        -0.12047         6.49835
| 31>    C        4.76568        -0.04593         6.14321
| 32>    C        8.34259         1.14125         6.45263
| 33>    C        8.72419         2.39085         5.93132
| 34>    C        7.56380         3.03377         5.19975
| 35>    C        7.26200         4.45124         5.70538
| 36>    C        6.99328         4.48498         7.20509
| 37>    C        7.92898         3.04818         3.69564
| 38>    C        6.75963         3.28553         2.74815
| 39>    C       10.00789         2.84943         6.08550
| 40>    C       10.94910         2.06975         6.78838
| 41>    C       10.54914         0.82026         7.29363
| 42>    C        9.26395         0.35314         7.13046
| 43>    C       12.27572         2.58999         6.95770
| 44>    C       13.27913         2.02285         7.68263
| 45>    C       14.58186         2.52799         7.87797
| 46>    C       15.18797         3.64138         7.34891
| 47>    C       16.49936         4.07677         7.67529
| 48>    C       16.89111         5.22188         7.05194
| 49>    C       15.91355         5.75558         6.18369
| 50>    S       14.48703         4.74872         6.18066
| 51>    C       15.95575         6.91384         5.43193
| 52>    C       16.94827         7.91424         5.37969
| 53>    C       16.61593         8.97317         4.58954
| 54>    C       15.34418         8.86411         3.96731
| 55>    S       14.59831         7.34907         4.41416
| 56>    C       14.81587         9.77712         3.08558
| 57>    C       13.57863         9.73207         2.41990
| 58>    C       12.39976         9.02960         2.67720
| 59>    C       12.03176         8.46691         3.90388
| 60>    N       11.63615         8.09641         4.91729
| 61>    C       11.43048         9.20099         1.64776
| 62>    C       11.84669        10.10162         0.67927
| 63>    S       13.43826        10.70349         0.94728
| 64>    S       10.68003        10.43488        -0.56313
| 65>    C        9.61250         9.30853         0.21621
| 66>    C       10.12679         8.70902         1.35749
| 67>    C        9.22637         7.73173         1.86905
| 68>    C        9.48312         6.83368         2.91810
| 69>    N        9.65714         6.02282         3.71108
| 70>    C        8.06425         7.65024         1.12935
| 71>    S        8.03775         8.75883        -0.21110
| 72>    C        6.93047         6.74971         1.44618
| 73>    S        5.72147         7.62536         2.53022
| 74>    C        4.85995         8.26217         1.07121
| 75>    C        4.87726         7.15783         0.00199
| 76>    C        6.12329         6.26198         0.24361
| 77>    C        5.02659         7.79010        -1.39670
| 78>    O        5.46864         8.90019        -1.58170
| 79>    N        4.65971         6.96361        -2.39466
| 80>    N        3.66974         6.34732        -0.00235
| 81>    C        3.23699         5.74556         1.17952
| 82>    C        1.96386         5.50522         1.45656
| 83>    H       -0.66181         0.25038         7.23951
| 84>    H       -1.81526         1.57519         7.47907
| 85>    H       -2.03742         2.10080         3.90750
| 86>    H       -1.51694         0.53947         3.22496
| 87>    H       -0.67336         3.01151         5.95013
| 88>    H        0.70594         2.06647         6.53025
| 89>    H        1.25767         1.07083         2.45328
| 90>    H        1.50480         2.69584         1.88500
| 91>    H        0.13489        -0.56369         4.74976
| 92>    H        2.33041        -0.84219         5.14432
| 93>    H        2.52366         2.20471         4.89556
| 94>    H        4.70172         3.02229         4.70953
| 95>    H        6.47242        -0.98249         7.03042
| 96>    H        4.10567        -0.85926         6.40567
| 97>    H        6.39074         4.84502         5.17901
| 98>    H        8.11125         5.09458         5.47023
| 99>    H        6.14209         3.85541         7.45870
|100>    H        6.77709         5.50240         7.52201
|101>    H        7.85970         4.12895         7.75805
|102>    H        8.38780         2.08809         3.44413
|103>    H        8.68052         3.82661         3.55040
|104>    H        6.06480         2.44916         2.77250
|105>    H        7.13349         3.38620         1.72989
|106>    H        6.22056         4.19132         3.01414
|107>    H       10.30428         3.80780         5.68505
|108>    H       11.26232         0.20526         7.82052
|109>    H        8.97698        -0.60984         7.52725
|110>    H       12.45268         3.53816         6.47028
|111>    H       13.08261         1.09329         8.20019
|112>    H       15.20689         1.95856         8.55659
|113>    H       17.10839         3.53045         8.37462
|114>    H       17.84769         5.69338         7.18969
|115>    H       17.86755         7.83514         5.93234
|116>    H       17.23803         9.83740         4.43591
|117>    H       15.46449        10.59768         2.80500
|118>    H        7.31277         5.91840         2.04199
|119>    H        5.37665         9.15100         0.70409
|120>    H        3.84544         8.52662         1.36375
|121>    H        6.76150         6.24879        -0.64242
|122>    H        5.77930         5.24309         0.42341
|123>    H        4.29907         6.04618        -2.19773
|124>    H        4.74688         7.27671        -3.34729
|125>    H        2.90090         6.81171        -0.47349
|126>    H        4.02672         5.43664         1.84727
|127>    H        1.17430         5.82698         0.79672
|128>    H        1.66261         5.00696         2.35815
|129> *
|130>
|131>                          ****END OF INPUT****

CARTESIAN COORDINATES (ANGSTROEM)
---------------------------------
  C     -1.196700    1.062060    6.745910
  S     -2.296800    0.299050    5.488600
  C     -1.493610    1.177210    4.106590
  C     -0.071820    1.474740    4.585010
  C     -0.253210    2.007220    6.015690
  C      0.504930    2.550710    3.647150
  O      0.376370    3.734120    3.864030
  N      1.066930    2.055110    2.528430
  N      0.697250    0.246900    4.524010
  C      2.001000    0.173870    4.977240
  C      2.853960    1.198320    5.114150
  C      4.249240    1.078240    5.489570
  C      5.110350    2.141870    5.183510
  C      6.448250    2.054410    5.485580
  C      6.942240    0.930000    6.170470
  C      6.097180   -0.120470    6.498350
  C      4.765680   -0.045930    6.143210
  C      8.342590    1.141250    6.452630
  C      8.724190    2.390850    5.931320
  C      7.563800    3.033770    5.199750
  C      7.262000    4.451240    5.705380
  C      6.993280    4.484980    7.205090
  C      7.928980    3.048180    3.695640
  C      6.759630    3.285530    2.748150
  C     10.007890    2.849430    6.085500
  C     10.949100    2.069750    6.788380
  C     10.549140    0.820260    7.293630
  C      9.263950    0.353140    7.130460
  C     12.275720    2.589990    6.957700
  C     13.279130    2.022850    7.682630
  C     14.581860    2.527990    7.877970
  C     15.187970    3.641380    7.348910
  C     16.499360    4.076770    7.675290
  C     16.891110    5.221880    7.051940
  C     15.913550    5.755580    6.183690
  S     14.487030    4.748720    6.180660
  C     15.955750    6.913840    5.431930
  C     16.948270    7.914240    5.379690
  C     16.615930    8.973170    4.589540
  C     15.344180    8.864110    3.967310
  S     14.598310    7.349070    4.414160
  C     14.815870    9.777120    3.085580
  C     13.578630    9.732070    2.419900
  C     12.399760    9.029600    2.677200
  C     12.031760    8.466910    3.903880
  N     11.636150    8.096410    4.917290
  C     11.430480    9.200990    1.647760
  C     11.846690   10.101620    0.679270
  S     13.438260   10.703490    0.947280
  S     10.680030   10.434880   -0.563130
  C      9.612500    9.308530    0.216210
  C     10.126790    8.709020    1.357490
  C      9.226370    7.731730    1.869050
  C      9.483120    6.833680    2.918100
  N      9.657140    6.022820    3.711080
  C      8.064250    7.650240    1.129350
  S      8.037750    8.758830   -0.211100
  C      6.930470    6.749710    1.446180
  S      5.721470    7.625360    2.530220
  C      4.859950    8.262170    1.071210
  C      4.877260    7.157830    0.001990
  C      6.123290    6.261980    0.243610
  C      5.026590    7.790100   -1.396700
  O      5.468640    8.900190   -1.581700
  N      4.659710    6.963610   -2.394660
  N      3.669740    6.347320   -0.002350
  C      3.236990    5.745560    1.179520
  C      1.963860    5.505220    1.456560
  H     -0.661810    0.250380    7.239510
  H     -1.815260    1.575190    7.479070
  H     -2.037420    2.100800    3.907500
  H     -1.516940    0.539470    3.224960
  H     -0.673360    3.011510    5.950130
  H      0.705940    2.066470    6.530250
  H      1.257670    1.070830    2.453280
  H      1.504800    2.695840    1.885000
  H      0.134890   -0.563690    4.749760
  H      2.330410   -0.842190    5.144320
  H      2.523660    2.204710    4.895560
  H      4.701720    3.022290    4.709530
  H      6.472420   -0.982490    7.030420
  H      4.105670   -0.859260    6.405670
  H      6.390740    4.845020    5.179010
  H      8.111250    5.094580    5.470230
  H      6.142090    3.855410    7.458700
  H      6.777090    5.502400    7.522010
  H      7.859700    4.128950    7.758050
  H      8.387800    2.088090    3.444130
  H      8.680520    3.826610    3.550400
  H      6.064800    2.449160    2.772500
  H      7.133490    3.386200    1.729890
  H      6.220560    4.191320    3.014140
  H     10.304280    3.807800    5.685050
  H     11.262320    0.205260    7.820520
  H      8.976980   -0.609840    7.527250
  H     12.452680    3.538160    6.470280
  H     13.082610    1.093290    8.200190
  H     15.206890    1.958560    8.556590
  H     17.108390    3.530450    8.374620
  H     17.847690    5.693380    7.189690
  H     17.867550    7.835140    5.932340
  H     17.238030    9.837400    4.435910
  H     15.464490   10.597680    2.805000
  H      7.312770    5.918400    2.041990
  H      5.376650    9.151000    0.704090
  H      3.845440    8.526620    1.363750
  H      6.761500    6.248790   -0.642420
  H      5.779300    5.243090    0.423410
  H      4.299070    6.046180   -2.197730
  H      4.746880    7.276710   -3.347290
  H      2.900900    6.811710   -0.473490
  H      4.026720    5.436640    1.847270
  H      1.174300    5.826980    0.796720
  H      1.662610    5.006960    2.358150

 Total Charge           Charge          ....    0
 Multiplicity           Mult            ....    1
 Number of Electrons    NEL             ....  534
 Basis Dimension        Dim             .... 1210

ORBITAL ENERGIES
----------------

  NO   OCC          E(Eh)            E(eV)
   0   2.0000     -88.971420     -2421.0354
   1   2.0000     -88.970481     -2421.0099
   2   2.0000     -88.962977     -2420.8057
   3   2.0000     -88.939225     -2420.1594
   4   2.0000     -88.935260     -2420.0515
   5   2.0000     -88.915299     -2419.5083
   6   2.0000     -88.908059     -2419.3113
   7   2.0000     -19.190778      -522.2076
   8   2.0000     -19.181272      -521.9490
   9   2.0000     -14.437848      -392.8738
  10   2.0000     -14.426556      -392.5666
  11   2.0000     -14.423933      -392.4952
  12   2.0000     -14.422364      -392.4525
  13   2.0000     -14.399332      -391.8258
  14   2.0000     -14.382113      -391.3572
  15   2.0000     -10.379232      -282.4333
  16   2.0000     -10.369223      -282.1609
  17   2.0000     -10.328636      -281.0565
  18   2.0000     -10.320934      -280.8469
  19   2.0000     -10.320405      -280.8325
  20   2.0000     -10.319022      -280.7949
  21   2.0000     -10.318315      -280.7756
  22   2.0000     -10.318110      -280.7700
  23   2.0000     -10.315957      -280.7115
  24   2.0000     -10.308110      -280.4979
  25   2.0000     -10.306929      -280.4658
  26   2.0000     -10.306851      -280.4637
  27   2.0000     -10.301429      -280.3161
  28   2.0000     -10.300550      -280.2922
  29   2.0000     -10.298273      -280.2303
  30   2.0000     -10.297506      -280.2094
  31   2.0000     -10.296817      -280.1906
  32   2.0000     -10.296099      -280.1711
  33   2.0000     -10.293416      -280.0981
  34   2.0000     -10.292913      -280.0844
  35   2.0000     -10.290205      -280.0107
  36   2.0000     -10.288696      -279.9697
  37   2.0000     -10.288237      -279.9572
  38   2.0000     -10.287101      -279.9262
  39   2.0000     -10.283615      -279.8314
  40   2.0000     -10.282595      -279.8036
  41   2.0000     -10.282038      -279.7885
  42   2.0000     -10.278073      -279.6806
  43   2.0000     -10.276950      -279.6500
  44   2.0000     -10.275529      -279.6114
  45   2.0000     -10.275124      -279.6003
  46   2.0000     -10.266096      -279.3547
  47   2.0000     -10.265451      -279.3371
  48   2.0000     -10.263557      -279.2856
  49   2.0000     -10.261066      -279.2178
  50   2.0000     -10.260588      -279.2048
  51   2.0000     -10.257905      -279.1318
  52   2.0000     -10.255981      -279.0794
  53   2.0000     -10.255336      -279.0619
  54   2.0000     -10.254880      -279.0495
  55   2.0000     -10.254271      -279.0329
  56   2.0000     -10.252148      -278.9751
  57   2.0000     -10.250695      -278.9356
  58   2.0000     -10.250215      -278.9225
  59   2.0000     -10.249872      -278.9132
  60   2.0000     -10.249452      -278.9018
  61   2.0000     -10.248298      -278.8704
  62   2.0000     -10.247723      -278.8547
  63   2.0000     -10.243139      -278.7300
  64   2.0000     -10.242690      -278.7178
  65   2.0000     -10.235422      -278.5200
  66   2.0000     -10.235299      -278.5167
  67   2.0000     -10.223931      -278.2073
  68   2.0000      -8.065806      -219.4817
  69   2.0000      -8.065414      -219.4711
  70   2.0000      -8.058459      -219.2818
  71   2.0000      -8.034875      -218.6401
  72   2.0000      -8.031352      -218.5442
  73   2.0000      -8.010531      -217.9776
  74   2.0000      -8.004359      -217.8097
  75   2.0000      -6.035449      -164.2329
  76   2.0000      -6.035249      -164.2275
  77   2.0000      -6.031195      -164.1172
  78   2.0000      -6.030981      -164.1113
  79   2.0000      -6.028165      -164.0347
  80   2.0000      -6.027704      -164.0222
  81   2.0000      -6.026206      -163.9814
  82   2.0000      -6.023988      -163.9210
  83   2.0000      -6.019737      -163.8054
  84   2.0000      -6.004617      -163.3939
  85   2.0000      -6.001090      -163.2980
  86   2.0000      -6.000466      -163.2810
  87   2.0000      -5.996811      -163.1815
  88   2.0000      -5.995933      -163.1576
  89   2.0000      -5.992333      -163.0597
  90   2.0000      -5.981229      -162.7575
  91   2.0000      -5.977217      -162.6483
  92   2.0000      -5.975116      -162.5912
  93   2.0000      -5.970821      -162.4743
  94   2.0000      -5.969574      -162.4404
  95   2.0000      -5.963509      -162.2753
  96   2.0000      -1.132630       -30.8204
  97   2.0000      -1.121694       -30.5228
  98   2.0000      -1.036451       -28.2033
  99   2.0000      -1.035855       -28.1870
 100   2.0000      -1.024436       -27.8763
 101   2.0000      -0.995506       -27.0891
 102   2.0000      -0.991876       -26.9903
 103   2.0000      -0.988065       -26.8866
 104   2.0000      -0.980676       -26.6856
 105   2.0000      -0.980474       -26.6801
 106   2.0000      -0.968539       -26.3553
 107   2.0000      -0.966431       -26.2979
 108   2.0000      -0.963523       -26.2188
 109   2.0000      -0.946470       -25.7548
 110   2.0000      -0.932066       -25.3628
 111   2.0000      -0.925896       -25.1949
 112   2.0000      -0.921429       -25.0734
 113   2.0000      -0.904422       -24.6106
 114   2.0000      -0.890582       -24.2340
 115   2.0000      -0.880293       -23.9540
 116   2.0000      -0.872447       -23.7405
 117   2.0000      -0.865397       -23.5486
 118   2.0000      -0.859218       -23.3805
 119   2.0000      -0.847934       -23.0734
 120   2.0000      -0.845751       -23.0140
 121   2.0000      -0.839674       -22.8487
 122   2.0000      -0.833283       -22.6748
 123   2.0000      -0.827570       -22.5193
 124   2.0000      -0.821316       -22.3491
 125   2.0000      -0.816971       -22.2309
 126   2.0000      -0.814714       -22.1695
 127   2.0000      -0.814434       -22.1619
 128   2.0000      -0.812322       -22.1044
 129   2.0000      -0.811299       -22.0766
 130   2.0000      -0.805391       -21.9158
 131   2.0000      -0.796694       -21.6791
 132   2.0000      -0.785175       -21.3657
 133   2.0000      -0.773677       -21.0528
 134   2.0000      -0.754893       -20.5417
 135   2.0000      -0.747554       -20.3420
 136   2.0000      -0.734315       -19.9817
 137   2.0000      -0.722038       -19.6477
 138   2.0000      -0.709718       -19.3124
 139   2.0000      -0.706571       -19.2268
 140   2.0000      -0.699293       -19.0287
 141   2.0000      -0.695342       -18.9212
 142   2.0000      -0.688486       -18.7346
 143   2.0000      -0.681456       -18.5434
 144   2.0000      -0.676484       -18.4081
 145   2.0000      -0.669946       -18.2302
 146   2.0000      -0.669199       -18.2098
 147   2.0000      -0.665540       -18.1103
 148   2.0000      -0.663043       -18.0423
 149   2.0000      -0.656842       -17.8736
 150   2.0000      -0.653846       -17.7921
 151   2.0000      -0.653458       -17.7815
 152   2.0000      -0.645819       -17.5736
 153   2.0000      -0.639485       -17.4013
 154   2.0000      -0.635316       -17.2878
 155   2.0000      -0.629379       -17.1263
 156   2.0000      -0.627754       -17.0821
 157   2.0000      -0.621924       -16.9234
 158   2.0000      -0.616991       -16.7892
 159   2.0000      -0.615213       -16.7408
 160   2.0000      -0.609183       -16.5767
 161   2.0000      -0.608342       -16.5538
 162   2.0000      -0.605623       -16.4798
 163   2.0000      -0.598662       -16.2904
 164   2.0000      -0.595341       -16.2001
 165   2.0000      -0.578264       -15.7354
 166   2.0000      -0.576965       -15.7000
 167   2.0000      -0.572049       -15.5663
 168   2.0000      -0.566052       -15.4031
 169   2.0000      -0.560304       -15.2466
 170   2.0000      -0.555985       -15.1291
 171   2.0000      -0.551682       -15.0120
 172   2.0000      -0.548460       -14.9244
 173   2.0000      -0.544126       -14.8064
 174   2.0000      -0.539108       -14.6699
 175   2.0000      -0.531220       -14.4552
 176   2.0000      -0.530719       -14.4416
 177   2.0000      -0.529207       -14.4005
 178   2.0000      -0.524517       -14.2728
 179   2.0000      -0.521683       -14.1957
 180   2.0000      -0.519246       -14.1294
 181   2.0000      -0.517459       -14.0808
 182   2.0000      -0.516512       -14.0550
 183   2.0000      -0.512746       -13.9525
 184   2.0000      -0.508980       -13.8500
 185   2.0000      -0.506147       -13.7730
 186   2.0000      -0.503053       -13.6888
 187   2.0000      -0.501516       -13.6469
 188   2.0000      -0.500636       -13.6230
 189   2.0000      -0.498278       -13.5588
 190   2.0000      -0.495926       -13.4948
 191   2.0000      -0.495068       -13.4715
 192   2.0000      -0.493206       -13.4208
 193   2.0000      -0.491531       -13.3752
 194   2.0000      -0.489445       -13.3185
 195   2.0000      -0.487978       -13.2785
 196   2.0000      -0.484480       -13.1834
 197   2.0000      -0.482819       -13.1382
 198   2.0000      -0.478920       -13.0321
 199   2.0000      -0.478117       -13.0102
 200   2.0000      -0.475485       -12.9386
 201   2.0000      -0.466265       -12.6877
 202   2.0000      -0.462835       -12.5944
 203   2.0000      -0.460484       -12.5304
 204   2.0000      -0.459000       -12.4900
 205   2.0000      -0.457564       -12.4509
 206   2.0000      -0.455837       -12.4040
 207   2.0000      -0.454159       -12.3583
 208   2.0000      -0.452832       -12.3222
 209   2.0000      -0.450773       -12.2662
 210   2.0000      -0.448388       -12.2012
 211   2.0000      -0.446109       -12.1393
 212   2.0000      -0.443318       -12.0633
 213   2.0000      -0.442928       -12.0527
 214   2.0000      -0.442078       -12.0295
 215   2.0000      -0.441180       -12.0051
 216   2.0000      -0.439498       -11.9594
 217   2.0000      -0.436304       -11.8724
 218   2.0000      -0.435009       -11.8372
 219   2.0000      -0.433246       -11.7892
 220   2.0000      -0.431878       -11.7520
 221   2.0000      -0.431370       -11.7382
 222   2.0000      -0.427879       -11.6432
 223   2.0000      -0.427005       -11.6194
 224   2.0000      -0.424556       -11.5528
 225   2.0000      -0.421817       -11.4782
 226   2.0000      -0.418856       -11.3977
 227   2.0000      -0.416063       -11.3217
 228   2.0000      -0.414030       -11.2663
 229   2.0000      -0.411113       -11.1870
 230   2.0000      -0.410425       -11.1682
 231   2.0000      -0.406583       -11.0637
 232   2.0000      -0.405008       -11.0208
 233   2.0000      -0.401660       -10.9297
 234   2.0000      -0.400634       -10.9018
 235   2.0000      -0.399012       -10.8577
 236   2.0000      -0.397168       -10.8075
 237   2.0000      -0.390940       -10.6380
 238   2.0000      -0.389421       -10.5967
 239   2.0000      -0.385303       -10.4846
 240   2.0000      -0.381113       -10.3706
 241   2.0000      -0.379719       -10.3327
 242   2.0000      -0.374948       -10.2029
 243   2.0000      -0.371484       -10.1086
 244   2.0000      -0.365357        -9.9419
 245   2.0000      -0.362000        -9.8505
 246   2.0000      -0.357558        -9.7297
 247   2.0000      -0.355388        -9.6706
 248   2.0000      -0.352296        -9.5865
 249   2.0000      -0.345253        -9.3948
 250   2.0000      -0.342655        -9.3241
 251   2.0000      -0.339359        -9.2344
 252   2.0000      -0.330980        -9.0064
 253   2.0000      -0.327099        -8.9008
 254   2.0000      -0.319144        -8.6843
 255   2.0000      -0.310762        -8.4563
 256   2.0000      -0.308444        -8.3932
 257   2.0000      -0.301957        -8.2167
 258   2.0000      -0.298216        -8.1149
 259   2.0000      -0.296657        -8.0725
 260   2.0000      -0.290917        -7.9163
 261   2.0000      -0.284993        -7.7551
 262   2.0000      -0.276152        -7.5145
 263   2.0000      -0.268346        -7.3021
 264   2.0000      -0.262564        -7.1447
 265   2.0000      -0.234777        -6.3886
 266   2.0000      -0.201617        -5.4863
 267   0.0000      -0.077549        -2.1102
 268   0.0000      -0.020654        -0.5620
 269   0.0000      -0.009784        -0.2662
 270   0.0000       0.008994         0.2447
 271   0.0000       0.021262         0.5786

MULLIKEN ATOMIC CHARGES
-----------------------
   0 C :   -0.031822
   1 S :   -0.116433
   2 C :    0.044581
   3 C :   -0.257328
   4 C :    0.124710
   5 C :    0.052907
   6 O :   -0.216733
   7 N :   -0.044419
   8 N :   -0.120152
   9 C :    0.017503
  10 C :   -0.039095
  11 C :    0.133856
  12 C :   -0.126703
  13 C :    0.033134
  14 C :    0.097922
  15 C :   -0.051651
  16 C :   -0.025289
  17 C :    0.107302
  18 C :    0.006044
  19 C :   -0.131823
  20 C :    0.039175
  21 C :    0.030621
  22 C :    0.079345
  23 C :   -0.001395
  24 C :   -0.102999
  25 C :    0.116421
  26 C :   -0.016564
  27 C :   -0.051496
  28 C :   -0.001811
  29 C :    0.015597
  30 C :    0.006317
  31 C :   -0.027508
  32 C :    0.042366
  33 C :    0.020240
  34 C :   -0.020832
  35 S :    0.076610
  36 C :   -0.059533
  37 C :    0.041761
  38 C :    0.021078
  39 C :   -0.014388
  40 S :    0.110084
  41 C :   -0.017574
  42 C :   -0.098003
  43 C :   -0.010868
  44 C :   -0.307579
  45 N :    0.164495
  46 C :    0.099710
  47 C :   -0.228995
  48 S :    0.136956
  49 S :    0.173598
  50 C :   -0.236372
  51 C :    0.155640
  52 C :    0.014057
  53 C :   -0.264564
  54 N :    0.174386
  55 C :   -0.097630
  56 S :    0.183412
  57 C :   -0.225884
  58 S :   -0.008323
  59 C :    0.057978
  60 C :   -0.243181
  61 C :    0.230017
  62 C :    0.033386
  63 O :   -0.208641
  64 N :   -0.055415
  65 N :   -0.164985
  66 C :    0.030684
  67 C :   -0.096830
  68 H :    0.043206
  69 H :    0.050744
  70 H :    0.063061
  71 H :    0.041363
  72 H :    0.033855
  73 H :    0.027946
  74 H :    0.130420
  75 H :    0.123075
  76 H :    0.117805
  77 H :   -0.000817
  78 H :   -0.004595
  79 H :   -0.045365
  80 H :   -0.043871
  81 H :   -0.044086
  82 H :   -0.003275
  83 H :    0.028037
  84 H :    0.010111
  85 H :    0.007592
  86 H :    0.016436
  87 H :   -0.004342
  88 H :    0.014018
  89 H :    0.021492
  90 H :    0.007854
  91 H :    0.018609
  92 H :   -0.010613
  93 H :   -0.036355
  94 H :   -0.044427
  95 H :    0.003284
  96 H :   -0.023387
  97 H :   -0.016073
  98 H :   -0.011693
  99 H :   -0.016680
 100 H :   -0.014809
 101 H :   -0.015164
 102 H :   -0.019245
 103 H :    0.059219
 104 H :    0.070511
 105 H :    0.051156
 106 H :    0.026885
 107 H :    0.018572
 108 H :    0.125507
 109 H :    0.131228
 110 H :    0.111723
 111 H :    0.015345
 112 H :   -0.006319
 113 H :    0.042986
Sum of atomic charges:   -0.0000000

LOEWDIN ATOMIC CHARGES
----------------------
   0 C :   -0.123751
   1 S :    0.193981
   2 C :   -0.113189
   3 C :   -0.041559
   4 C :   -0.034812
   5 C :    0.058354
   6 O :   -0.204564
   7 N :    0.009407
   8 N :   -0.033129
   9 C :    0.017943
  10 C :   -0.105455
  11 C :   -0.013533
  12 C :   -0.030935
  13 C :    0.008407
  14 C :   -0.028693
  15 C :   -0.018527
  16 C :   -0.034323
  17 C :   -0.010504
  18 C :    0.004278
  19 C :   -0.031640
  20 C :   -0.019147
  21 C :   -0.056596
  22 C :   -0.011050
  23 C :   -0.064540
  24 C :   -0.006147
  25 C :   -0.033256
  26 C :   -0.013034
  27 C :   -0.025611
  28 C :    0.006155
  29 C :   -0.054011
  30 C :   -0.036088
  31 C :   -0.158069
  32 C :   -0.016100
  33 C :   -0.050679
  34 C :   -0.157488
  35 S :    0.405059
  36 C :   -0.194561
  37 C :   -0.022948
  38 C :   -0.046997
  39 C :   -0.126774
  40 S :    0.430256
  41 C :   -0.115098
  42 C :   -0.118672
  43 C :   -0.129523
  44 C :   -0.064254
  45 N :   -0.053867
  46 C :   -0.060958
  47 C :   -0.340202
  48 S :    0.421978
  49 S :    0.412714
  50 C :   -0.340649
  51 C :   -0.062427
  52 C :   -0.107269
  53 C :   -0.013053
  54 N :   -0.050129
  55 C :   -0.150081
  56 S :    0.486448
  57 C :   -0.132339
  58 S :    0.258650
  59 C :   -0.135328
  60 C :   -0.037249
  61 C :   -0.028171
  62 C :    0.050401
  63 O :   -0.207679
  64 N :    0.006363
  65 N :   -0.052534
  66 C :    0.011820
  67 C :   -0.135031
  68 H :    0.017907
  69 H :    0.026129
  70 H :    0.029800
  71 H :    0.022684
  72 H :    0.035252
  73 H :    0.035332
  74 H :    0.076028
  75 H :    0.078902
  76 H :    0.064172
  77 H :    0.023055
  78 H :    0.026901
  79 H :    0.022380
  80 H :    0.023600
  81 H :    0.018968
  82 H :    0.015596
  83 H :    0.027274
  84 H :    0.021016
  85 H :    0.023668
  86 H :    0.024036
  87 H :    0.023046
  88 H :    0.022962
  89 H :    0.024799
  90 H :    0.019762
  91 H :    0.014251
  92 H :    0.035398
  93 H :    0.022737
  94 H :    0.023734
  95 H :    0.015792
  96 H :    0.026085
  97 H :    0.034692
  98 H :    0.033425
  99 H :    0.030575
 100 H :    0.031887
 101 H :    0.031282
 102 H :    0.031134
 103 H :    0.041647
 104 H :    0.019779
 105 H :    0.030904
 106 H :    0.028854
 107 H :    0.037956
 108 H :    0.072604
 109 H :    0.082230
 110 H :    0.067472
 111 H :    0.017030
 112 H :    0.014243
 113 H :    0.023027

  Mayer bond orders larger than 0.100000
B(  0-C ,  1-S ) :   0.9815 B(  0-C ,  4-C ) :   1.0605 B(  0-C , 68-H ) :   0.9497
B(  0-C , 69-H ) :   0.9502 B(  1-S ,  2-C ) :   0.9947 B(  2-C ,  3-C ) :   0.9969
B(  2-C , 70-H ) :   0.9454 B(  2-C , 71-H ) :   0.9432 B(  3-C ,  4-C ) :   1.0323
B(  3-C ,  5-C ) :   0.8668 B(  3-C ,  8-N ) :   1.0108 B(  4-C , 72-H ) :   0.9216
B(  4-C , 73-H ) :   0.9308 B(  5-C ,  6-O ) :   2.0697 B(  5-C ,  7-N ) :   1.3185
B(  7-N , 74-H ) :   0.9263 B(  7-N , 75-H ) :   0.9332 B(  8-N ,  9-C ) :   1.1371
B(  8-N , 76-H ) :   0.9157 B(  9-C , 10-C ) :   1.7171 B(  9-C , 77-H ) :   0.9656
B( 10-C , 11-C ) :   1.0615 B( 10-C , 78-H ) :   0.9547 B( 11-C , 12-C ) :   1.2919
B( 11-C , 16-C ) :   1.3619 B( 12-C , 13-C ) :   1.3778 B( 12-C , 79-H ) :   1.0092
B( 13-C , 14-C ) :   1.3838 B( 13-C , 19-C ) :   0.9156 B( 14-C , 15-C ) :   1.3316
B( 14-C , 17-C ) :   1.0054 B( 15-C , 16-C ) :   1.3883 B( 15-C , 80-H ) :   0.9875
B( 16-C , 81-H ) :   0.9823 B( 17-C , 18-C ) :   1.3668 B( 17-C , 27-C ) :   1.3193
B( 18-C , 19-C ) :   0.9265 B( 18-C , 24-C ) :   1.3935 B( 19-C , 20-C ) :   1.0374
B( 19-C , 22-C ) :   1.0142 B( 20-C , 21-C ) :   1.1033 B( 20-C , 82-H ) :   0.9335
B( 20-C , 83-H ) :   0.9347 B( 21-C , 84-H ) :   0.9640 B( 21-C , 85-H ) :   0.9645
B( 21-C , 86-H ) :   0.9632 B( 22-C , 23-C ) :   1.1210 B( 22-C , 87-H ) :   0.9324
B( 22-C , 88-H ) :   0.9289 B( 23-C , 89-H ) :   0.9487 B( 23-C , 90-H ) :   0.9539
B( 23-C , 91-H ) :   0.9531 B( 24-C , 25-C ) :   1.2569 B( 24-C , 92-H ) :   1.0138
B( 25-C , 26-C ) :   1.3281 B( 25-C , 28-C ) :   1.1232 B( 26-C , 27-C ) :   1.4134
B( 26-C , 93-H ) :   0.9838 B( 27-C , 94-H ) :   0.9882 B( 28-C , 29-C ) :   1.5963
B( 28-C , 95-H ) :   0.9653 B( 29-C , 30-C ) :   1.2056 B( 29-C , 96-H ) :   0.9631
B( 30-C , 31-C ) :   1.5690 B( 30-C , 97-H ) :   0.9603 B( 31-C , 32-C ) :   1.1524
B( 31-C , 35-S ) :   1.0304 B( 32-C , 33-C ) :   1.5804 B( 32-C , 98-H ) :   0.9987
B( 33-C , 34-C ) :   1.1907 B( 33-C , 99-H ) :   0.9938 B( 34-C , 35-S ) :   1.0663
B( 34-C , 36-C ) :   1.4879 B( 36-C , 37-C ) :   1.1965 B( 36-C , 40-S ) :   1.0507
B( 37-C , 38-C ) :   1.5817 B( 37-C ,100-H ) :   0.9916 B( 38-C , 39-C ) :   1.1501
B( 38-C ,101-H ) :   0.9983 B( 39-C , 40-S ) :   1.0782 B( 39-C , 41-C ) :   1.5676
B( 41-C , 42-C ) :   1.2011 B( 41-C ,102-H ) :   0.9383 B( 42-C , 43-C ) :   1.4281
B( 42-C , 48-S ) :   1.1118 B( 43-C , 44-C ) :   1.1488 B( 43-C , 46-C ) :   1.2448
B( 44-C , 45-N ) :   2.9769 B( 46-C , 47-C ) :   1.4359 B( 46-C , 51-C ) :   1.0927
B( 47-C , 48-S ) :   1.0675 B( 47-C , 49-S ) :   1.0798 B( 49-S , 50-C ) :   1.0790
B( 50-C , 51-C ) :   1.4197 B( 50-C , 56-S ) :   1.0788 B( 51-C , 52-C ) :   1.2428
B( 52-C , 53-C ) :   1.1504 B( 52-C , 55-C ) :   1.5454 B( 53-C , 54-N ) :   2.8974
B( 55-C , 56-S ) :   1.1593 B( 55-C , 57-C ) :   0.9922 B( 57-C , 58-S ) :   1.0661
B( 57-C , 61-C ) :   1.0093 B( 57-C ,103-H ) :   0.8942 B( 58-S , 59-C ) :   0.9915
B( 59-C , 60-C ) :   1.0134 B( 59-C ,104-H ) :   0.9204 B( 59-C ,105-H ) :   0.9413
B( 60-C , 61-C ) :   0.9903 B( 60-C , 62-C ) :   0.8525 B( 60-C , 65-N ) :   1.0276
B( 61-C ,106-H ) :   0.9299 B( 61-C ,107-H ) :   0.8996 B( 62-C , 63-O ) :   2.1344
B( 62-C , 64-N ) :   1.3038 B( 64-N ,108-H ) :   0.9242 B( 64-N ,109-H ) :   0.9406
B( 65-N , 66-C ) :   1.0954 B( 65-N ,110-H ) :   0.9317 B( 66-C , 67-C ) :   1.9282
B( 66-C ,111-H ) :   0.9538 B( 67-C ,112-H ) :   0.9587 B( 67-C ,113-H ) :   0.9294

-----------------------------------------------------------------------------
         ABSORPTION SPECTRUM VIA TRANSITION ELECTRIC DIPOLE MOMENTS
-----------------------------------------------------------------------------
State   Energy  Wavelength   fosc         T2         TX        TY        TZ
        (cm-1)    (nm)                  (au**2)     (au)      (au)      (au)
-----------------------------------------------------------------------------
   0   13022.2    767.9   0.879214867  22.22723   1.28302   3.93353  -2.26018
   1   21634.7    462.2   0.303813411   4.62307  -1.89723   0.27616  -0.97331
   2   24264.5    412.1   1.104405061  14.98417   3.65394   0.07550   1.27561
   3   27800.2    359.7   0.523130883   6.19496  -2.34439  -0.60400  -0.57793
   4   27996.3    357.2   0.108165442   1.27193   1.07238   0.28146   0.20668
   5   28791.6    347.3   0.042067583   0.48101  -0.49991   0.07902  -0.47420
   6   30702.4    325.7   0.017369392   0.18625  -0.38203   0.08034  -0.18398
   7   30944.7    323.2   0.071239601   0.75790  -0.80988  -0.06156  -0.31338
   8   32526.3    307.4   0.020082493   0.20326   0.43782  -0.05344   0.09339
   9   32860.6    304.3   0.030272171   0.30328  -0.41178   0.26056  -0.25656
  10   32975.2    303.3   0.050516283   0.50434   0.43615  -0.45808   0.32291
  11   33514.1    298.4   0.091846493   0.90222  -0.67556   0.29424  -0.59939
  12   33835.8    295.5   0.155209851   1.51014   1.21302   0.11638   0.15869
  13   34480.6    290.0   0.009184867   0.08769   0.26658   0.12894   0.00230
  14   35265.1    283.6   0.016329282   0.15244   0.28658  -0.26516   0.00112
  15   35766.8    279.6   0.046885762   0.43156  -0.50095  -0.39806   0.14884
  16   35975.7    278.0   0.126655238   1.15902  -1.02219  -0.21590   0.25986
  17   36238.6    275.9   0.047428342   0.43087   0.57964   0.00437   0.30800
  18   36470.7    274.2   0.014498715   0.13088  -0.20122  -0.19571   0.22822
  19   36944.9    270.7   0.097182151   0.86598   0.11785  -0.71388   0.58520
  20   37177.6    269.0   0.023711235   0.20997  -0.39264   0.08049  -0.22208
  21   38158.6    262.1   0.003662863   0.03160  -0.09207  -0.13898   0.06171
  22   38228.4    261.6   0.017083856   0.14712   0.28335  -0.16831   0.19622
  23   39222.9    255.0   0.029497140   0.24758  -0.44580   0.08532  -0.20387
  24   39456.0    253.4   0.165850982   1.38382  -1.03551  -0.55591  -0.05014
  25   39870.2    250.8   0.017855509   0.14743   0.33795   0.16003  -0.08728

FINAL SINGLE POINT ENERGY     -5309.537874897530

DIPOLE MOMENT
-------------
                                X             Y             Z
Electronic contribution:     78.30447      61.54992     -25.61677
Nuclear contribution   :    -78.16685     -63.07419      23.56822
                        -----------------------------------------
Total Dipole Moment    :      0.13762      -1.52427      -2.04855
                        -----------------------------------------
Magnitude (a.u.)       :      2.55713
Magnitude (Debye)      :      6.49971

Rotational constants in cm-1:     0.001132     0.000510     0.000364
Rotational constants in MHz :    33.923283    15.301233    10.904138

                             ****ORCA TERMINATED NORMALLY****
TOTAL RUN TIME: 0 days 0 hours 12 minutes 15 seconds 697 msec
