                         Program Version 4.2.0 -  RELEASE  -
|  1> # ORCA input file
|  2> # SCF done       -150.248801027584          0.000359679627
|  3> ! CAM-B3LYP def2-SVP def2/J RIJCOSX Grid4 TightSCF
|  4> %maxcore 5000
|  5> %tddft
|  6>     Mode sTDDFT
|  7>     Ethresh 5.0
|  8>     maxcore 5000
|  9> end
| 10>
| 11> %pal
| 12>   nprocs 6
| 13>   end
| 14> * xyz 0 1
| 15>    C        1.57562         1.08383         0.35508
| 16>    S        0.75202        -0.41266         0.38193
| 17>    C        2.12362        -1.23084        -0.30042
| 18>    C        2.09778        -2.65087        -0.68954
| 19>    O        3.00834        -3.17108        -1.27482
| 20>    O        0.98594        -3.33732        -0.37953
| 21>    C        3.15945        -0.36438        -0.52297
| 22>    C        2.84103         0.96018        -0.14894
| 23>    O        3.76301         1.95591        -0.27892
| 24>    N        3.19906         3.26025        -0.23298
| 25>    C        3.85510         4.20837        -0.98199
| 26>    S        4.10079         5.77503        -0.27658
| 27>    C        4.90713         6.29324        -1.72092
| 28>    N        5.35109         7.61982        -1.78699
| 29>    O        5.93316         7.97037        -2.79573
| 30>    O        5.12142         8.32397        -0.81909
| 31>    C        5.00094         5.30598        -2.66169
| 32>    C        4.37906         4.09987        -2.27065
| 33>    C        4.34960         2.95082        -3.13676
| 34>    C        3.39484         1.99272        -3.17303
| 35>    C        3.50087         0.84641        -3.99178
| 36>    C        2.59830        -0.17696        -4.03591
| 37>    C        2.74993        -1.41209        -4.72128
| 38>    C        1.75198        -2.30468        -4.50159
| 39>    C        0.73417        -1.83088        -3.63825
| 40>    S        1.07059        -0.17625        -3.16389
| 41>    C       -0.35993        -2.52309        -3.17517
| 42>    C       -0.74409        -3.84657        -3.49925
| 43>    C       -1.86920        -4.27594        -2.87236
| 44>    C       -2.45068        -3.31683        -1.99855
| 45>    S       -1.49439        -1.83420        -2.02465
| 46>    C       -3.56630        -3.39176        -1.22139
| 47>    N       -4.37694        -4.48839        -1.16607
| 48>    C       -5.57560        -4.61293        -0.54205
| 49>    S       -6.15054        -6.22484        -0.21794
| 50>    C       -7.54242        -5.55872         0.57932
| 51>    N       -8.48805        -6.45021         1.08180
| 52>    O       -9.46731        -5.98613         1.64101
| 53>    O       -8.25973        -7.64028         0.92092
| 54>    C       -7.55039        -4.18901         0.59263
| 55>    C       -6.44213        -3.61954        -0.05903
| 56>    C       -6.26223        -2.20672        -0.27642
| 57>    C       -6.79049        -1.23698         0.49377
| 58>    C       -6.54148         0.15335         0.28467
| 59>    S       -7.39589         1.33141         1.22849
| 60>    C       -6.53912         2.64356         0.48485
| 61>    C       -6.74096         4.05835         0.82097
| 62>    O       -6.09135         4.92993         0.30647
| 63>    O       -7.68358         4.33661         1.73613
| 64>    C       -5.64070         2.17725        -0.44384
| 65>    C       -5.63565         0.77990        -0.56413
| 66>    O       -4.81679         0.08807        -1.39695
| 67>    H        1.06957         1.96975         0.68168
| 68>    H        0.31591        -2.79379         0.05923
| 69>    H        4.09997        -0.65768        -0.94884
| 70>    H        3.06848         3.54185         0.73694
| 71>    H        5.47464         5.45776        -3.61492
| 72>    H        5.17123         2.89093        -3.83840
| 73>    H        2.50901         2.07896        -2.55834
| 74>    H        4.39627         0.73793        -4.58954
| 75>    H        3.61564        -1.60402        -5.32952
| 76>    H        1.72695        -3.29710        -4.91241
| 77>    H       -0.17384        -4.44323        -4.18720
| 78>    H       -2.29082        -5.25580        -3.01289
| 79>    H       -3.83952        -2.55590        -0.60042
| 80>    H       -4.01769        -5.33291        -1.59411
| 81>    H       -8.35869        -3.62873         1.02525
| 82>    H       -5.67546        -1.92004        -1.13372
| 83>    H       -7.40978        -1.48037         1.34562
| 84>    H       -8.13495         3.54944         2.06988
| 85>    H       -5.01013         2.84056        -1.00991
| 86>    H       -4.23571         0.70420        -1.85991
| 87> *
| 88>
| 89>                          ****END OF INPUT****

CARTESIAN COORDINATES (ANGSTROEM)
---------------------------------
  C      1.575620    1.083830    0.355080
  S      0.752020   -0.412660    0.381930
  C      2.123620   -1.230840   -0.300420
  C      2.097780   -2.650870   -0.689540
  O      3.008340   -3.171080   -1.274820
  O      0.985940   -3.337320   -0.379530
  C      3.159450   -0.364380   -0.522970
  C      2.841030    0.960180   -0.148940
  O      3.763010    1.955910   -0.278920
  N      3.199060    3.260250   -0.232980
  C      3.855100    4.208370   -0.981990
  S      4.100790    5.775030   -0.276580
  C      4.907130    6.293240   -1.720920
  N      5.351090    7.619820   -1.786990
  O      5.933160    7.970370   -2.795730
  O      5.121420    8.323970   -0.819090
  C      5.000940    5.305980   -2.661690
  C      4.379060    4.099870   -2.270650
  C      4.349600    2.950820   -3.136760
  C      3.394840    1.992720   -3.173030
  C      3.500870    0.846410   -3.991780
  C      2.598300   -0.176960   -4.035910
  C      2.749930   -1.412090   -4.721280
  C      1.751980   -2.304680   -4.501590
  C      0.734170   -1.830880   -3.638250
  S      1.070590   -0.176250   -3.163890
  C     -0.359930   -2.523090   -3.175170
  C     -0.744090   -3.846570   -3.499250
  C     -1.869200   -4.275940   -2.872360
  C     -2.450680   -3.316830   -1.998550
  S     -1.494390   -1.834200   -2.024650
  C     -3.566300   -3.391760   -1.221390
  N     -4.376940   -4.488390   -1.166070
  C     -5.575600   -4.612930   -0.542050
  S     -6.150540   -6.224840   -0.217940
  C     -7.542420   -5.558720    0.579320
  N     -8.488050   -6.450210    1.081800
  O     -9.467310   -5.986130    1.641010
  O     -8.259730   -7.640280    0.920920
  C     -7.550390   -4.189010    0.592630
  C     -6.442130   -3.619540   -0.059030
  C     -6.262230   -2.206720   -0.276420
  C     -6.790490   -1.236980    0.493770
  C     -6.541480    0.153350    0.284670
  S     -7.395890    1.331410    1.228490
  C     -6.539120    2.643560    0.484850
  C     -6.740960    4.058350    0.820970
  O     -6.091350    4.929930    0.306470
  O     -7.683580    4.336610    1.736130
  C     -5.640700    2.177250   -0.443840
  C     -5.635650    0.779900   -0.564130
  O     -4.816790    0.088070   -1.396950
  H      1.069570    1.969750    0.681680
  H      0.315910   -2.793790    0.059230
  H      4.099970   -0.657680   -0.948840
  H      3.068480    3.541850    0.736940
  H      5.474640    5.457760   -3.614920
  H      5.171230    2.890930   -3.838400
  H      2.509010    2.078960   -2.558340
  H      4.396270    0.737930   -4.589540
  H      3.615640   -1.604020   -5.329520
  H      1.726950   -3.297100   -4.912410
  H     -0.173840   -4.443230   -4.187200
  H     -2.290820   -5.255800   -3.012890
  H     -3.839520   -2.555900   -0.600420
  H     -4.017690   -5.332910   -1.594110
  H     -8.358690   -3.628730    1.025250
  H     -5.675460   -1.920040   -1.133720
  H     -7.409780   -1.480370    1.345620
  H     -8.134950    3.549440    2.069880
  H     -5.010130    2.840560   -1.009910
  H     -4.235710    0.704200   -1.859910

 Total Charge           Charge          ....    0
 Multiplicity           Mult            ....    1
 Number of Electrons    NEL             ....  416
 Basis Dimension        Dim             ....  852

ORBITAL ENERGIES
----------------

  NO   OCC          E(Eh)            E(eV)
   0   2.0000     -88.987314     -2421.4679
   1   2.0000     -88.985223     -2421.4110
   2   2.0000     -88.981676     -2421.3145
   3   2.0000     -88.980692     -2421.2877
   4   2.0000     -88.957916     -2420.6680
   5   2.0000     -88.948964     -2420.4244
   6   2.0000     -19.308002      -525.3974
   7   2.0000     -19.276822      -524.5490
   8   2.0000     -19.266248      -524.2613
   9   2.0000     -19.265241      -524.2339
  10   2.0000     -19.237496      -523.4789
  11   2.0000     -19.236874      -523.4620
  12   2.0000     -19.234706      -523.4030
  13   2.0000     -19.233995      -523.3836
  14   2.0000     -19.200783      -522.4799
  15   2.0000     -19.200262      -522.4657
  16   2.0000     -14.649329      -398.6285
  17   2.0000     -14.646231      -398.5442
  18   2.0000     -14.515517      -394.9873
  19   2.0000     -14.493944      -394.4003
  20   2.0000     -10.411537      -283.3123
  21   2.0000     -10.410894      -283.2948
  22   2.0000     -10.374566      -282.3063
  23   2.0000     -10.366464      -282.0858
  24   2.0000     -10.356651      -281.8188
  25   2.0000     -10.356293      -281.8091
  26   2.0000     -10.343651      -281.4651
  27   2.0000     -10.341911      -281.4177
  28   2.0000     -10.338815      -281.3335
  29   2.0000     -10.321420      -280.8601
  30   2.0000     -10.319907      -280.8189
  31   2.0000     -10.318827      -280.7895
  32   2.0000     -10.318289      -280.7749
  33   2.0000     -10.317885      -280.7639
  34   2.0000     -10.314992      -280.6852
  35   2.0000     -10.314855      -280.6815
  36   2.0000     -10.311023      -280.5772
  37   2.0000     -10.310838      -280.5722
  38   2.0000     -10.308598      -280.5112
  39   2.0000     -10.302149      -280.3357
  40   2.0000     -10.300804      -280.2991
  41   2.0000     -10.300750      -280.2977
  42   2.0000     -10.299953      -280.2760
  43   2.0000     -10.298850      -280.2460
  44   2.0000     -10.298370      -280.2329
  45   2.0000     -10.297508      -280.2094
  46   2.0000     -10.293040      -280.0879
  47   2.0000     -10.290134      -280.0088
  48   2.0000     -10.286365      -279.9062
  49   2.0000     -10.284953      -279.8678
  50   2.0000     -10.282304      -279.7957
  51   2.0000     -10.281533      -279.7747
  52   2.0000      -8.083222      -219.9557
  53   2.0000      -8.081132      -219.8988
  54   2.0000      -8.077377      -219.7966
  55   2.0000      -8.076424      -219.7707
  56   2.0000      -8.053710      -219.1526
  57   2.0000      -8.044517      -218.9024
  58   2.0000      -6.052909      -164.7080
  59   2.0000      -6.050911      -164.6537
  60   2.0000      -6.048480      -164.5875
  61   2.0000      -6.046602      -164.5364
  62   2.0000      -6.046511      -164.5339
  63   2.0000      -6.045719      -164.5124
  64   2.0000      -6.044603      -164.4820
  65   2.0000      -6.042709      -164.4305
  66   2.0000      -6.042309      -164.4196
  67   2.0000      -6.041475      -164.3969
  68   2.0000      -6.039441      -164.3415
  69   2.0000      -6.038627      -164.3194
  70   2.0000      -6.023631      -163.9113
  71   2.0000      -6.019706      -163.8045
  72   2.0000      -6.014356      -163.6590
  73   2.0000      -6.014276      -163.6568
  74   2.0000      -6.010407      -163.5515
  75   2.0000      -6.005290      -163.4123
  76   2.0000      -1.318798       -35.8863
  77   2.0000      -1.314102       -35.7585
  78   2.0000      -1.220428       -33.2095
  79   2.0000      -1.188130       -32.3307
  80   2.0000      -1.187588       -32.3159
  81   2.0000      -1.169647       -31.8277
  82   2.0000      -1.137917       -30.9643
  83   2.0000      -1.133278       -30.8381
  84   2.0000      -1.100812       -29.9546
  85   2.0000      -1.100549       -29.9475
  86   2.0000      -1.096954       -29.8496
  87   2.0000      -1.042503       -28.3680
  88   2.0000      -1.008539       -27.4437
  89   2.0000      -1.004161       -27.3246
  90   2.0000      -1.001842       -27.2615
  91   2.0000      -0.998844       -27.1799
  92   2.0000      -0.977974       -26.6120
  93   2.0000      -0.977182       -26.5905
  94   2.0000      -0.924173       -25.1480
  95   2.0000      -0.920773       -25.0555
  96   2.0000      -0.904425       -24.6106
  97   2.0000      -0.890810       -24.2402
  98   2.0000      -0.879188       -23.9239
  99   2.0000      -0.871363       -23.7110
 100   2.0000      -0.861154       -23.4332
 101   2.0000      -0.855507       -23.2795
 102   2.0000      -0.850195       -23.1350
 103   2.0000      -0.846305       -23.0291
 104   2.0000      -0.837692       -22.7948
 105   2.0000      -0.831729       -22.6325
 106   2.0000      -0.828246       -22.5377
 107   2.0000      -0.822553       -22.3828
 108   2.0000      -0.797695       -21.7064
 109   2.0000      -0.780559       -21.2401
 110   2.0000      -0.770010       -20.9530
 111   2.0000      -0.745419       -20.2839
 112   2.0000      -0.742647       -20.2085
 113   2.0000      -0.734002       -19.9732
 114   2.0000      -0.724517       -19.7151
 115   2.0000      -0.713222       -19.4078
 116   2.0000      -0.708077       -19.2678
 117   2.0000      -0.703313       -19.1381
 118   2.0000      -0.694387       -18.8952
 119   2.0000      -0.688982       -18.7481
 120   2.0000      -0.679594       -18.4927
 121   2.0000      -0.674193       -18.3457
 122   2.0000      -0.659846       -17.9553
 123   2.0000      -0.655948       -17.8492
 124   2.0000      -0.648651       -17.6507
 125   2.0000      -0.644240       -17.5307
 126   2.0000      -0.637822       -17.3560
 127   2.0000      -0.635719       -17.2988
 128   2.0000      -0.631890       -17.1946
 129   2.0000      -0.630418       -17.1546
 130   2.0000      -0.627704       -17.0807
 131   2.0000      -0.627368       -17.0715
 132   2.0000      -0.623923       -16.9778
 133   2.0000      -0.615001       -16.7350
 134   2.0000      -0.611047       -16.6274
 135   2.0000      -0.607611       -16.5339
 136   2.0000      -0.599256       -16.3066
 137   2.0000      -0.591728       -16.1017
 138   2.0000      -0.583337       -15.8734
 139   2.0000      -0.580280       -15.7902
 140   2.0000      -0.576162       -15.6782
 141   2.0000      -0.568934       -15.4815
 142   2.0000      -0.567411       -15.4400
 143   2.0000      -0.559919       -15.2362
 144   2.0000      -0.553411       -15.0591
 145   2.0000      -0.550339       -14.9755
 146   2.0000      -0.547624       -14.9016
 147   2.0000      -0.543957       -14.8018
 148   2.0000      -0.540171       -14.6988
 149   2.0000      -0.537788       -14.6340
 150   2.0000      -0.533392       -14.5143
 151   2.0000      -0.529423       -14.4063
 152   2.0000      -0.526516       -14.3272
 153   2.0000      -0.523096       -14.2342
 154   2.0000      -0.522054       -14.2058
 155   2.0000      -0.514110       -13.9896
 156   2.0000      -0.509944       -13.8763
 157   2.0000      -0.506172       -13.7736
 158   2.0000      -0.505702       -13.7608
 159   2.0000      -0.501581       -13.6487
 160   2.0000      -0.500562       -13.6210
 161   2.0000      -0.497972       -13.5505
 162   2.0000      -0.491897       -13.3852
 163   2.0000      -0.485291       -13.2054
 164   2.0000      -0.482430       -13.1276
 165   2.0000      -0.478525       -13.0213
 166   2.0000      -0.475421       -12.9369
 167   2.0000      -0.473087       -12.8733
 168   2.0000      -0.467065       -12.7095
 169   2.0000      -0.466847       -12.7036
 170   2.0000      -0.463510       -12.6127
 171   2.0000      -0.458811       -12.4849
 172   2.0000      -0.458460       -12.4753
 173   2.0000      -0.452840       -12.3224
 174   2.0000      -0.450585       -12.2610
 175   2.0000      -0.447857       -12.1868
 176   2.0000      -0.446632       -12.1535
 177   2.0000      -0.442928       -12.0527
 178   2.0000      -0.441101       -12.0030
 179   2.0000      -0.440114       -11.9761
 180   2.0000      -0.430454       -11.7132
 181   2.0000      -0.412407       -11.2222
 182   2.0000      -0.410200       -11.1621
 183   2.0000      -0.407790       -11.0965
 184   2.0000      -0.405306       -11.0289
 185   2.0000      -0.397902       -10.8275
 186   2.0000      -0.395289       -10.7564
 187   2.0000      -0.385060       -10.4780
 188   2.0000      -0.382844       -10.4177
 189   2.0000      -0.381142       -10.3714
 190   2.0000      -0.375737       -10.2243
 191   2.0000      -0.375141       -10.2081
 192   2.0000      -0.365790        -9.9537
 193   2.0000      -0.363199        -9.8831
 194   2.0000      -0.357339        -9.7237
 195   2.0000      -0.357146        -9.7184
 196   2.0000      -0.352836        -9.6012
 197   2.0000      -0.351362        -9.5610
 198   2.0000      -0.348069        -9.4715
 199   2.0000      -0.342965        -9.3326
 200   2.0000      -0.331266        -9.0142
 201   2.0000      -0.326479        -8.8840
 202   2.0000      -0.320667        -8.7258
 203   2.0000      -0.316354        -8.6084
 204   2.0000      -0.301285        -8.1984
 205   2.0000      -0.283570        -7.7163
 206   2.0000      -0.264239        -7.1903
 207   2.0000      -0.215439        -5.8624
 208   0.0000      -0.079412        -2.1609
 209   0.0000      -0.055931        -1.5220
 210   0.0000      -0.053718        -1.4618
 211   0.0000      -0.048022        -1.3067
 212   0.0000      -0.029705        -0.8083

MULLIKEN ATOMIC CHARGES
-----------------------
   0 C :   -0.161720
   1 S :    0.108307
   2 C :   -0.186917
   3 C :    0.190185
   4 O :   -0.168772
   5 O :   -0.160264
   6 C :    0.032160
   7 C :    0.253272
   8 O :   -0.246563
   9 N :    0.050029
  10 C :   -0.127615
  11 S :    0.167566
  12 C :   -0.007607
  13 N :    0.277962
  14 O :   -0.248824
  15 O :   -0.264694
  16 C :    0.004515
  17 C :    0.131923
  18 C :   -0.047880
  19 C :    0.033891
  20 C :   -0.040585
  21 C :   -0.011728
  22 C :    0.047232
  23 C :    0.049507
  24 C :   -0.054586
  25 S :    0.050496
  26 C :   -0.048405
  27 C :    0.030214
  28 C :    0.026465
  29 C :   -0.075241
  30 S :    0.032326
  31 C :    0.055280
  32 N :   -0.018381
  33 C :   -0.109990
  34 S :    0.160786
  35 C :   -0.011521
  36 N :    0.279359
  37 O :   -0.256576
  38 O :   -0.271584
  39 C :    0.002356
  40 C :    0.095537
  41 C :   -0.057289
  42 C :    0.036638
  43 C :   -0.145495
  44 S :    0.109352
  45 C :   -0.172923
  46 C :    0.181455
  47 O :   -0.172883
  48 O :   -0.156161
  49 C :   -0.029578
  50 C :    0.170996
  51 O :   -0.187307
  52 H :    0.022517
  53 H :    0.182303
  54 H :    0.015488
  55 H :    0.145424
  56 H :    0.010552
  57 H :   -0.007044
  58 H :    0.006535
  59 H :   -0.014943
  60 H :   -0.012260
  61 H :   -0.013843
  62 H :   -0.007217
  63 H :   -0.022980
  64 H :    0.020851
  65 H :    0.139696
  66 H :    0.009473
  67 H :    0.030546
  68 H :   -0.015446
  69 H :    0.181315
  70 H :   -0.000951
  71 H :    0.193266
Sum of atomic charges:    0.0000000

LOEWDIN ATOMIC CHARGES
----------------------
   0 C :   -0.231048
   1 S :    0.441888
   2 C :   -0.234871
   3 C :    0.062672
   4 O :   -0.158904
   5 O :   -0.029980
   6 C :   -0.021998
   7 C :   -0.006008
   8 O :   -0.055611
   9 N :    0.063030
  10 C :   -0.128971
  11 S :    0.454320
  12 C :   -0.210084
  13 N :    0.274062
  14 O :   -0.214373
  15 O :   -0.230177
  16 C :    0.005115
  17 C :   -0.088266
  18 C :   -0.028928
  19 C :   -0.024580
  20 C :   -0.059518
  21 C :   -0.140262
  22 C :   -0.028286
  23 C :   -0.022251
  24 C :   -0.181558
  25 S :    0.367809
  26 C :   -0.179606
  27 C :   -0.014683
  28 C :   -0.050157
  29 C :   -0.192753
  30 S :    0.344137
  31 C :   -0.006869
  32 N :    0.044000
  33 C :   -0.098758
  34 S :    0.441865
  35 C :   -0.213035
  36 N :    0.273983
  37 O :   -0.222803
  38 O :   -0.237538
  39 C :    0.006264
  40 C :   -0.108562
  41 C :   -0.023231
  42 C :   -0.048059
  43 C :   -0.194295
  44 S :    0.431995
  45 C :   -0.237209
  46 C :    0.061934
  47 O :   -0.162077
  48 O :   -0.031487
  49 C :   -0.050059
  50 C :    0.012378
  51 O :   -0.045136
  52 H :    0.023871
  53 H :    0.068059
  54 H :    0.047005
  55 H :    0.072825
  56 H :    0.046406
  57 H :    0.030156
  58 H :    0.021765
  59 H :    0.033207
  60 H :    0.034721
  61 H :    0.033249
  62 H :    0.035957
  63 H :    0.026415
  64 H :    0.033990
  65 H :    0.091316
  66 H :    0.044488
  67 H :    0.031917
  68 H :    0.027093
  69 H :    0.081231
  70 H :    0.040418
  71 H :    0.102447

  Mayer bond orders larger than 0.100000
B(  0-C ,  1-S ) :   1.1428 B(  0-C ,  7-C ) :   1.5036 B(  0-C , 52-H ) :   0.9778
B(  1-S ,  2-C ) :   1.1346 B(  2-C ,  3-C ) :   0.9382 B(  2-C ,  6-C ) :   1.5220
B(  3-C ,  4-O ) :   2.2115 B(  3-C ,  5-O ) :   1.2343 B(  5-O , 53-H ) :   0.9418
B(  6-C ,  7-C ) :   1.2485 B(  6-C , 54-H ) :   1.0146 B(  7-C ,  8-O ) :   1.0509
B(  8-O ,  9-N ) :   0.9323 B(  9-N , 10-C ) :   1.1739 B(  9-N , 55-H ) :   0.9079
B( 10-C , 11-S ) :   1.1361 B( 10-C , 17-C ) :   1.4187 B( 11-S , 12-C ) :   1.0878
B( 12-C , 13-N ) :   0.9667 B( 12-C , 16-C ) :   1.4855 B( 13-N , 14-O ) :   1.5389
B( 13-N , 15-O ) :   1.5125 B( 14-O , 15-O ) :   0.2593 B( 16-C , 17-C ) :   1.2142
B( 16-C , 56-H ) :   1.0077 B( 17-C , 18-C ) :   1.0498 B( 18-C , 19-C ) :   1.7000
B( 18-C , 57-H ) :   0.9735 B( 19-C , 20-C ) :   1.1481 B( 19-C , 58-H ) :   0.9584
B( 20-C , 21-C ) :   1.5866 B( 20-C , 59-H ) :   0.9825 B( 21-C , 22-C ) :   1.1269
B( 21-C , 25-S ) :   1.0219 B( 22-C , 23-C ) :   1.6131 B( 22-C , 60-H ) :   0.9973
B( 23-C , 24-C ) :   1.1755 B( 23-C , 61-H ) :   0.9895 B( 24-C , 25-S ) :   1.0365
B( 24-C , 26-C ) :   1.5346 B( 26-C , 27-C ) :   1.1847 B( 26-C , 30-S ) :   1.0174
B( 27-C , 28-C ) :   1.6444 B( 27-C , 62-H ) :   0.9907 B( 28-C , 29-C ) :   1.1127
B( 28-C , 63-H ) :   0.9849 B( 29-C , 30-S ) :   1.0030 B( 29-C , 31-C ) :   1.6273
B( 31-C , 32-N ) :   1.1556 B( 31-C , 64-H ) :   0.9375 B( 32-N , 33-C ) :   1.2091
B( 32-N , 65-H ) :   0.9057 B( 33-C , 34-S ) :   1.1314 B( 33-C , 40-C ) :   1.3632
B( 34-S , 35-C ) :   1.0719 B( 35-C , 36-N ) :   0.9819 B( 35-C , 39-C ) :   1.4816
B( 36-N , 37-O ) :   1.5267 B( 36-N , 38-O ) :   1.5022 B( 37-O , 38-O ) :   0.2537
B( 39-C , 40-C ) :   1.2446 B( 39-C , 66-H ) :   1.0015 B( 40-C , 41-C ) :   1.0478
B( 41-C , 42-C ) :   1.7439 B( 41-C , 67-H ) :   0.9594 B( 42-C , 43-C ) :   1.1091
B( 42-C , 68-H ) :   0.9570 B( 43-C , 44-S ) :   1.1281 B( 43-C , 45-C ) :   0.1000
B( 43-C , 50-C ) :   1.4594 B( 44-S , 45-C ) :   1.1075 B( 45-C , 46-C ) :   0.9401
B( 45-C , 49-C ) :   1.5154 B( 46-C , 47-O ) :   2.1996 B( 46-C , 48-O ) :   1.2412
B( 48-O , 69-H ) :   0.9502 B( 49-C , 50-C ) :   1.2241 B( 49-C , 70-H ) :   1.0021
B( 50-C , 51-O ) :   1.1949 B( 51-O , 71-H ) :   0.9498

-----------------------------------------------------------------------------
         ABSORPTION SPECTRUM VIA TRANSITION ELECTRIC DIPOLE MOMENTS
-----------------------------------------------------------------------------
State   Energy  Wavelength   fosc         T2         TX        TY        TZ
        (cm-1)    (nm)                  (au**2)     (au)      (au)      (au)
-----------------------------------------------------------------------------
   0   15605.4    640.8   1.454366754  30.68131   4.62403   2.73397  -1.35094
   1   21178.6    472.2   0.035641742   0.55404   0.38291   0.39248  -0.50336
   2   21820.3    458.3   0.206461474   3.11496   0.30422   1.73531   0.10544
   3   22144.9    451.6   0.072147871   1.07257  -0.67417  -0.51171   0.59684
   4   23398.7    427.4   0.045975160   0.64686   0.21494   0.71174   0.30673
   5   25713.9    388.9   0.330980806   4.23751   0.37236  -1.71042  -1.08321
   6   27975.9    357.5   0.057262442   0.67385  -0.03611  -0.80647  -0.14882
   7   29576.5    338.1   0.476698838   5.30608   0.10831   2.19610   0.68664
   8   30502.1    327.8   0.262139541   2.82929  -0.60086  -1.26730   0.92855
   9   31525.5    317.2   0.006018722   0.06285  -0.09405  -0.22518   0.05745
  10   31896.4    313.5   0.010519348   0.10857  -0.08412   0.15199   0.27999
  11   32131.3    311.2   0.495761680   5.07949   0.98239   1.94077  -0.58977
  12   32539.2    307.3   0.112197564   1.13515   0.50751  -0.90089  -0.25684
  13   33635.0    297.3   0.018190091   0.17804   0.21517   0.35059  -0.09398
  14   34102.5    293.2   0.024479201   0.23631   0.13737  -0.15492  -0.43982
  15   34622.8    288.8   0.010372429   0.09863   0.17940   0.19367  -0.17009
  16   34879.9    286.7   0.001955327   0.01846  -0.13485   0.01373   0.00901
  17   35368.4    282.7   0.018779953   0.17481  -0.00728  -0.12616   0.39854
  18   36092.1    277.1   0.074204541   0.67685  -0.23638  -0.70033  -0.36127
  19   36311.8    275.4   0.149028674   1.35113  -0.56414  -1.01141  -0.09967
  20   36417.2    274.6   0.075073724   0.67867  -0.34573  -0.70502   0.24916
  21   37210.0    268.7   0.011675506   0.10330   0.02037  -0.30287   0.10562
  22   37584.9    266.1   0.015749727   0.13795  -0.27079   0.10408   0.23193
  23   37701.2    265.2   0.374867129   3.27339  -0.74714  -1.64732  -0.03859
  24   37993.0    263.2   0.031679839   0.27451   0.32389  -0.34660  -0.22241
  25   38409.7    260.4   0.000222041   0.00190  -0.03809  -0.00230  -0.02114
  26   38729.8    258.2   0.005868770   0.04989  -0.11235  -0.19254  -0.01386
  27   39267.2    254.7   0.009011049   0.07555   0.06819  -0.22435  -0.14341
  28   39988.3    250.1   0.015425938   0.12700   0.33005   0.01063  -0.13398

FINAL SINGLE POINT ENERGY     -4588.125394612449

DIPOLE MOMENT
-------------
                                X             Y             Z
Electronic contribution:     -6.73101       5.27412      12.05182
Nuclear contribution   :      7.04988      -6.75633     -12.63469
                        -----------------------------------------
Total Dipole Moment    :      0.31887      -1.48220      -0.58287
                        -----------------------------------------
Magnitude (a.u.)       :      1.62430
Magnitude (Debye)      :      4.12864

Rotational constants in cm-1:     0.001939     0.000647     0.000519
Rotational constants in MHz :    58.133341    19.386172    15.563636

                             ****ORCA TERMINATED NORMALLY****
TOTAL RUN TIME: 0 days 0 hours 5 minutes 48 seconds 443 msec
