                         Program Version 4.2.0 -  RELEASE  -
|  1> # ORCA input file
|  2> # SCF done       -190.143423202422          0.000459803891
|  3> ! CAM-B3LYP def2-SVP def2/J RIJCOSX Grid4 TightSCF
|  4> %maxcore 5000
|  5> %tddft
|  6>     Mode sTDDFT
|  7>     Ethresh 5.0
|  8>     maxcore 5000
|  9> end
| 10>
| 11> %pal
| 12>   nprocs 6
| 13>   end
| 14> * xyz 0 1
| 15>    C       -6.16871        -2.99455        -7.25908
| 16>    C       -7.50941        -3.25294        -7.24046
| 17>    C       -8.14331        -4.22353        -8.04746
| 18>    N       -8.71081        -4.99642        -8.67751
| 19>    C       -8.44800        -2.56710        -6.43789
| 20>    N       -9.26982        -2.04322        -5.83243
| 21>    C       -5.17824        -3.63473        -8.11129
| 22>    C       -3.91771        -3.01487        -7.91311
| 23>    C       -2.78793        -3.40102        -8.59397
| 24>    C       -2.90261        -4.45150        -9.50934
| 25>    C       -4.16409        -5.06918        -9.69733
| 26>    C       -5.30663        -4.67768        -9.01343
| 27>    S       -4.08032        -6.34679       -10.87173
| 28>    C       -2.37855        -6.03759       -11.09327
| 29>    C       -1.89479        -5.03042       -10.32707
| 30>   Br       -1.40202        -7.07317       -12.31254
| 31>    C       -4.04532        -1.94537        -6.90673
| 32>    O       -3.19230        -1.17294        -6.54163
| 33>    C       -5.46790        -1.99873        -6.44927
| 34>    C       -5.92240        -1.25403        -5.43187
| 35>    C       -5.01812        -0.35136        -4.69223
| 36>    N       -4.25450        -0.91735        -3.76296
| 37>    C       -3.40642        -0.11389        -3.13651
| 38>    C       -3.30892         1.23212        -3.42427
| 39>    C       -4.19409         1.74273        -4.38567
| 40>    N       -5.05951         0.92777        -5.00573
| 41>    C       -4.20150         3.13515        -4.73986
| 42>    C       -5.11932         3.66818        -5.57886
| 43>    C       -5.16440         5.01974        -5.98350
| 44>    S       -3.91908         6.14693        -5.56346
| 45>    C       -4.69035         7.47064        -6.37795
| 46>    C       -5.88070         7.04439        -6.98821
| 47>    C       -6.14750         5.65844        -6.75592
| 48>    C       -7.31080         5.07164        -7.28394
| 49>    C       -8.17035         5.82449        -8.03590
| 50>    S       -9.65746         5.13801        -8.72243
| 51>    C       -7.89290         7.19297        -8.31101
| 52>    O       -8.71487         7.94369        -9.08060
| 53>    C       -6.76678         7.78141        -7.79432
| 54>    C       -4.02489         8.72120        -6.30704
| 55>    C       -4.49570         9.95453        -6.60353
| 56>    C       -3.69594        11.14080        -6.50521
| 57>    C       -2.37061        11.21533        -6.31142
| 58>    C       -1.91217        12.63348        -6.21445
| 59>    C       -3.07295        13.43285        -6.84471
| 60>    C       -4.29337        12.52260        -6.61079
| 61>    C       -3.06268        14.79643        -6.14198
| 62>    C       -2.48548        14.50604        -4.74020
| 63>    C       -3.69822        14.56288        -3.84713
| 64>    C       -4.75314        15.04658        -4.47983
| 65>    C       -4.44881        15.41419        -5.90105
| 66>    C       -1.81105        13.16559        -4.80949
| 67>    C       -1.32375        12.56924        -3.70597
| 68>    C       -0.75883        11.27155        -3.54062
| 69>    C        0.00255        10.49278        -4.35360
| 70>    C        0.71897        10.74765        -5.58213
| 71>    C        1.22491        11.95336        -5.99433
| 72>    C        1.95531        12.13696        -7.18617
| 73>    N        2.52953        12.34598        -8.15789
| 74>    C        1.14482        13.13422        -5.22859
| 75>    N        1.12280        14.11713        -4.63688
| 76>    C        0.95178         9.45868        -6.22736
| 77>    C        0.56453         8.42563        -5.33686
| 78>    C        0.05228         9.02766        -4.08887
| 79>    O       -0.30762         8.45661        -3.08547
| 80>    C        0.65397         7.09508        -5.66521
| 81>    C        1.14986         6.76800        -6.93182
| 82>    C        1.53667         7.80631        -7.81253
| 83>    C        1.44552         9.15288        -7.48110
| 84>    S        2.12009         7.17796        -9.32361
| 85>    C        1.84148         5.55168        -8.75925
| 86>    C        1.33603         5.48022        -7.50516
| 87>   Br        2.24396         4.10294        -9.88002
| 88>    H       -1.84446        -2.90663        -8.42352
| 89>    H       -6.24327        -5.17989        -9.18978
| 90>    H       -0.86971        -4.70787       -10.33721
| 91>    H       -6.94886        -1.29175        -5.09544
| 92>    H       -2.78856        -0.58633        -2.38345
| 93>    H       -2.59787         1.87104        -2.92646
| 94>    H       -3.43514         3.75723        -4.29782
| 95>    H       -5.88016         3.00631        -5.96820
| 96>    H       -7.51603         4.02929        -7.09334
| 97>    H       -9.49784         3.92421        -8.20889
| 98>    H       -9.46890         7.42184        -9.38425
| 99>    H       -6.57787         8.80983        -8.04453
|100>    H       -3.01548         8.64992        -5.91953
|101>    H       -5.52360        10.09604        -6.89858
|102>    H       -1.70359        10.37857        -6.23715
|103>    H       -0.96036        12.80900        -6.73283
|104>    H       -2.92332        13.54803        -7.92088
|105>    H       -5.02306        12.58820        -7.41808
|106>    H       -4.79620        12.76763        -5.67233
|107>    H       -2.41698        15.47430        -6.70261
|108>    H       -1.75782        15.25641        -4.41043
|109>    H       -3.65570        14.24818        -2.81963
|110>    H       -5.73039        15.20111        -4.05528
|111>    H       -4.41440        16.50205        -6.00183
|112>    H       -5.19919        15.04454        -6.59983
|113>    H       -1.47622        13.09591        -2.77037
|114>    H       -1.02813        10.78382        -2.60605
|115>    H        0.34918         6.33001        -4.96867
|116>    H        1.74091         9.90962        -8.18892
|117>    H        1.10323         4.55885        -7.00336
|118> *
|119>
|120>                          ****END OF INPUT****

CARTESIAN COORDINATES (ANGSTROEM)
---------------------------------
  C     -6.168710   -2.994550   -7.259080
  C     -7.509410   -3.252940   -7.240460
  C     -8.143310   -4.223530   -8.047460
  N     -8.710810   -4.996420   -8.677510
  C     -8.448000   -2.567100   -6.437890
  N     -9.269820   -2.043220   -5.832430
  C     -5.178240   -3.634730   -8.111290
  C     -3.917710   -3.014870   -7.913110
  C     -2.787930   -3.401020   -8.593970
  C     -2.902610   -4.451500   -9.509340
  C     -4.164090   -5.069180   -9.697330
  C     -5.306630   -4.677680   -9.013430
  S     -4.080320   -6.346790  -10.871730
  C     -2.378550   -6.037590  -11.093270
  C     -1.894790   -5.030420  -10.327070
  Br    -1.402020   -7.073170  -12.312540
  C     -4.045320   -1.945370   -6.906730
  O     -3.192300   -1.172940   -6.541630
  C     -5.467900   -1.998730   -6.449270
  C     -5.922400   -1.254030   -5.431870
  C     -5.018120   -0.351360   -4.692230
  N     -4.254500   -0.917350   -3.762960
  C     -3.406420   -0.113890   -3.136510
  C     -3.308920    1.232120   -3.424270
  C     -4.194090    1.742730   -4.385670
  N     -5.059510    0.927770   -5.005730
  C     -4.201500    3.135150   -4.739860
  C     -5.119320    3.668180   -5.578860
  C     -5.164400    5.019740   -5.983500
  S     -3.919080    6.146930   -5.563460
  C     -4.690350    7.470640   -6.377950
  C     -5.880700    7.044390   -6.988210
  C     -6.147500    5.658440   -6.755920
  C     -7.310800    5.071640   -7.283940
  C     -8.170350    5.824490   -8.035900
  S     -9.657460    5.138010   -8.722430
  C     -7.892900    7.192970   -8.311010
  O     -8.714870    7.943690   -9.080600
  C     -6.766780    7.781410   -7.794320
  C     -4.024890    8.721200   -6.307040
  C     -4.495700    9.954530   -6.603530
  C     -3.695940   11.140800   -6.505210
  C     -2.370610   11.215330   -6.311420
  C     -1.912170   12.633480   -6.214450
  C     -3.072950   13.432850   -6.844710
  C     -4.293370   12.522600   -6.610790
  C     -3.062680   14.796430   -6.141980
  C     -2.485480   14.506040   -4.740200
  C     -3.698220   14.562880   -3.847130
  C     -4.753140   15.046580   -4.479830
  C     -4.448810   15.414190   -5.901050
  C     -1.811050   13.165590   -4.809490
  C     -1.323750   12.569240   -3.705970
  C     -0.758830   11.271550   -3.540620
  C      0.002550   10.492780   -4.353600
  C      0.718970   10.747650   -5.582130
  C      1.224910   11.953360   -5.994330
  C      1.955310   12.136960   -7.186170
  N      2.529530   12.345980   -8.157890
  C      1.144820   13.134220   -5.228590
  N      1.122800   14.117130   -4.636880
  C      0.951780    9.458680   -6.227360
  C      0.564530    8.425630   -5.336860
  C      0.052280    9.027660   -4.088870
  O     -0.307620    8.456610   -3.085470
  C      0.653970    7.095080   -5.665210
  C      1.149860    6.768000   -6.931820
  C      1.536670    7.806310   -7.812530
  C      1.445520    9.152880   -7.481100
  S      2.120090    7.177960   -9.323610
  C      1.841480    5.551680   -8.759250
  C      1.336030    5.480220   -7.505160
  Br     2.243960    4.102940   -9.880020
  H     -1.844460   -2.906630   -8.423520
  H     -6.243270   -5.179890   -9.189780
  H     -0.869710   -4.707870  -10.337210
  H     -6.948860   -1.291750   -5.095440
  H     -2.788560   -0.586330   -2.383450
  H     -2.597870    1.871040   -2.926460
  H     -3.435140    3.757230   -4.297820
  H     -5.880160    3.006310   -5.968200
  H     -7.516030    4.029290   -7.093340
  H     -9.497840    3.924210   -8.208890
  H     -9.468900    7.421840   -9.384250
  H     -6.577870    8.809830   -8.044530
  H     -3.015480    8.649920   -5.919530
  H     -5.523600   10.096040   -6.898580
  H     -1.703590   10.378570   -6.237150
  H     -0.960360   12.809000   -6.732830
  H     -2.923320   13.548030   -7.920880
  H     -5.023060   12.588200   -7.418080
  H     -4.796200   12.767630   -5.672330
  H     -2.416980   15.474300   -6.702610
  H     -1.757820   15.256410   -4.410430
  H     -3.655700   14.248180   -2.819630
  H     -5.730390   15.201110   -4.055280
  H     -4.414400   16.502050   -6.001830
  H     -5.199190   15.044540   -6.599830
  H     -1.476220   13.095910   -2.770370
  H     -1.028130   10.783820   -2.606050
  H      0.349180    6.330010   -4.968670
  H      1.740910    9.909620   -8.188920
  H      1.103230    4.558850   -7.003360

 Total Charge           Charge          ....    0
 Multiplicity           Mult            ....    1
 Number of Electrons    NEL             ....  578
 Basis Dimension        Dim             .... 1224

ORBITAL ENERGIES
----------------

  NO   OCC          E(Eh)            E(eV)
   0   2.0000    -482.890616    -13140.1217
   1   2.0000    -482.886537    -13140.0107
   2   2.0000     -88.981393     -2421.3068
   3   2.0000     -88.976937     -2421.1855
   4   2.0000     -88.964317     -2420.8421
   5   2.0000     -88.947348     -2420.3804
   6   2.0000     -62.568338     -1702.5710
   7   2.0000     -62.564256     -1702.4600
   8   2.0000     -56.402290     -1534.7843
   9   2.0000     -56.399565     -1534.7102
  10   2.0000     -56.399539     -1534.7095
  11   2.0000     -56.398208     -1534.6732
  12   2.0000     -56.395494     -1534.5994
  13   2.0000     -56.395455     -1534.5983
  14   2.0000     -19.253154      -523.9050
  15   2.0000     -19.222554      -523.0723
  16   2.0000     -19.215307      -522.8751
  17   2.0000     -14.423116      -392.4729
  18   2.0000     -14.422773      -392.4636
  19   2.0000     -14.417474      -392.3194
  20   2.0000     -14.414986      -392.2517
  21   2.0000     -14.405847      -392.0030
  22   2.0000     -14.402186      -391.9034
  23   2.0000     -10.372027      -282.2372
  24   2.0000     -10.365899      -282.0704
  25   2.0000     -10.365088      -282.0484
  26   2.0000     -10.359926      -281.9079
  27   2.0000     -10.351778      -281.6862
  28   2.0000     -10.348822      -281.6058
  29   2.0000     -10.345685      -281.5204
  30   2.0000     -10.344603      -281.4910
  31   2.0000     -10.343966      -281.4736
  32   2.0000     -10.340642      -281.3832
  33   2.0000     -10.332319      -281.1567
  34   2.0000     -10.327398      -281.0228
  35   2.0000     -10.325252      -280.9644
  36   2.0000     -10.325025      -280.9582
  37   2.0000     -10.324726      -280.9501
  38   2.0000     -10.320290      -280.8294
  39   2.0000     -10.317217      -280.7458
  40   2.0000     -10.316567      -280.7281
  41   2.0000     -10.315888      -280.7096
  42   2.0000     -10.315828      -280.7079
  43   2.0000     -10.315494      -280.6989
  44   2.0000     -10.314406      -280.6692
  45   2.0000     -10.312509      -280.6176
  46   2.0000     -10.311873      -280.6003
  47   2.0000     -10.310399      -280.5602
  48   2.0000     -10.308906      -280.5196
  49   2.0000     -10.307271      -280.4751
  50   2.0000     -10.307200      -280.4732
  51   2.0000     -10.306889      -280.4647
  52   2.0000     -10.305232      -280.4196
  53   2.0000     -10.303303      -280.3671
  54   2.0000     -10.302834      -280.3544
  55   2.0000     -10.302229      -280.3379
  56   2.0000     -10.299077      -280.2521
  57   2.0000     -10.297837      -280.2184
  58   2.0000     -10.297092      -280.1981
  59   2.0000     -10.294284      -280.1217
  60   2.0000     -10.293081      -280.0890
  61   2.0000     -10.289095      -279.9805
  62   2.0000     -10.287537      -279.9381
  63   2.0000     -10.287139      -279.9273
  64   2.0000     -10.286396      -279.9071
  65   2.0000     -10.283940      -279.8402
  66   2.0000     -10.279394      -279.7165
  67   2.0000     -10.279199      -279.7112
  68   2.0000     -10.276984      -279.6509
  69   2.0000     -10.274623      -279.5867
  70   2.0000     -10.273124      -279.5459
  71   2.0000     -10.272449      -279.5276
  72   2.0000     -10.271242      -279.4947
  73   2.0000     -10.270967      -279.4872
  74   2.0000     -10.270099      -279.4636
  75   2.0000     -10.267800      -279.4011
  76   2.0000     -10.266053      -279.3535
  77   2.0000     -10.265140      -279.3287
  78   2.0000     -10.264783      -279.3190
  79   2.0000     -10.263261      -279.2775
  80   2.0000     -10.262397      -279.2540
  81   2.0000      -8.797785      -239.3999
  82   2.0000      -8.793683      -239.2883
  83   2.0000      -8.077339      -219.7956
  84   2.0000      -8.072876      -219.6741
  85   2.0000      -8.059519      -219.3107
  86   2.0000      -8.043015      -218.8616
  87   2.0000      -6.634091      -180.5228
  88   2.0000      -6.630006      -180.4116
  89   2.0000      -6.619530      -180.1266
  90   2.0000      -6.619296      -180.1202
  91   2.0000      -6.615397      -180.0141
  92   2.0000      -6.615216      -180.0092
  93   2.0000      -6.047035      -164.5482
  94   2.0000      -6.042752      -164.4316
  95   2.0000      -6.042560      -164.4264
  96   2.0000      -6.038564      -164.3177
  97   2.0000      -6.038304      -164.3106
  98   2.0000      -6.034118      -164.1967
  99   2.0000      -6.028361      -164.0401
 100   2.0000      -6.024454      -163.9337
 101   2.0000      -6.022398      -163.8778
 102   2.0000      -6.013379      -163.6324
 103   2.0000      -6.009249      -163.5200
 104   2.0000      -6.003077      -163.3520
 105   2.0000      -2.749992       -74.8311
 106   2.0000      -2.745883       -74.7193
 107   2.0000      -2.745851       -74.7184
 108   2.0000      -2.745681       -74.7138
 109   2.0000      -2.741803       -74.6083
 110   2.0000      -2.741619       -74.6032
 111   2.0000      -2.734117       -74.3991
 112   2.0000      -2.734104       -74.3988
 113   2.0000      -2.730037       -74.2881
 114   2.0000      -2.730014       -74.2875
 115   2.0000      -1.151718       -31.3398
 116   2.0000      -1.138699       -30.9856
 117   2.0000      -1.130527       -30.7632
 118   2.0000      -1.079595       -29.3773
 119   2.0000      -1.029205       -28.0061
 120   2.0000      -1.024140       -27.8683
 121   2.0000      -1.019995       -27.7555
 122   2.0000      -1.014295       -27.6004
 123   2.0000      -1.001370       -27.2487
 124   2.0000      -0.998896       -27.1813
 125   2.0000      -0.995493       -27.0887
 126   2.0000      -0.995274       -27.0828
 127   2.0000      -0.990245       -26.9459
 128   2.0000      -0.982956       -26.7476
 129   2.0000      -0.977084       -26.5878
 130   2.0000      -0.949017       -25.8241
 131   2.0000      -0.945806       -25.7367
 132   2.0000      -0.943805       -25.6822
 133   2.0000      -0.933727       -25.4080
 134   2.0000      -0.919019       -25.0078
 135   2.0000      -0.914812       -24.8933
 136   2.0000      -0.911657       -24.8075
 137   2.0000      -0.909661       -24.7531
 138   2.0000      -0.904521       -24.6133
 139   2.0000      -0.892404       -24.2836
 140   2.0000      -0.889374       -24.2011
 141   2.0000      -0.887452       -24.1488
 142   2.0000      -0.884629       -24.0720
 143   2.0000      -0.880903       -23.9706
 144   2.0000      -0.867204       -23.5978
 145   2.0000      -0.854611       -23.2552
 146   2.0000      -0.845707       -23.0129
 147   2.0000      -0.841894       -22.9091
 148   2.0000      -0.835192       -22.7267
 149   2.0000      -0.830526       -22.5998
 150   2.0000      -0.825866       -22.4729
 151   2.0000      -0.807445       -21.9717
 152   2.0000      -0.801576       -21.8120
 153   2.0000      -0.795756       -21.6536
 154   2.0000      -0.787786       -21.4368
 155   2.0000      -0.784572       -21.3493
 156   2.0000      -0.767199       -20.8766
 157   2.0000      -0.764962       -20.8157
 158   2.0000      -0.764439       -20.8015
 159   2.0000      -0.750965       -20.4348
 160   2.0000      -0.740127       -20.1399
 161   2.0000      -0.733539       -19.9606
 162   2.0000      -0.717427       -19.5222
 163   2.0000      -0.715659       -19.4741
 164   2.0000      -0.711856       -19.3706
 165   2.0000      -0.703928       -19.1549
 166   2.0000      -0.697215       -18.9722
 167   2.0000      -0.696919       -18.9641
 168   2.0000      -0.688672       -18.7397
 169   2.0000      -0.687494       -18.7076
 170   2.0000      -0.672551       -18.3010
 171   2.0000      -0.670308       -18.2400
 172   2.0000      -0.666175       -18.1275
 173   2.0000      -0.660801       -17.9813
 174   2.0000      -0.654654       -17.8141
 175   2.0000      -0.642372       -17.4798
 176   2.0000      -0.631804       -17.1923
 177   2.0000      -0.630940       -17.1688
 178   2.0000      -0.630431       -17.1549
 179   2.0000      -0.625879       -17.0310
 180   2.0000      -0.620996       -16.8982
 181   2.0000      -0.617388       -16.8000
 182   2.0000      -0.612931       -16.6787
 183   2.0000      -0.610292       -16.6069
 184   2.0000      -0.602247       -16.3880
 185   2.0000      -0.598146       -16.2764
 186   2.0000      -0.597786       -16.2666
 187   2.0000      -0.591967       -16.1082
 188   2.0000      -0.590896       -16.0791
 189   2.0000      -0.585297       -15.9267
 190   2.0000      -0.581890       -15.8340
 191   2.0000      -0.577147       -15.7050
 192   2.0000      -0.572034       -15.5658
 193   2.0000      -0.568222       -15.4621
 194   2.0000      -0.565336       -15.3836
 195   2.0000      -0.556102       -15.1323
 196   2.0000      -0.554873       -15.0988
 197   2.0000      -0.549750       -14.9595
 198   2.0000      -0.547117       -14.8878
 199   2.0000      -0.545869       -14.8538
 200   2.0000      -0.544753       -14.8235
 201   2.0000      -0.539639       -14.6843
 202   2.0000      -0.535095       -14.5607
 203   2.0000      -0.534682       -14.5494
 204   2.0000      -0.529997       -14.4219
 205   2.0000      -0.522098       -14.2070
 206   2.0000      -0.520969       -14.1763
 207   2.0000      -0.519003       -14.1228
 208   2.0000      -0.518263       -14.1026
 209   2.0000      -0.515998       -14.0410
 210   2.0000      -0.515595       -14.0301
 211   2.0000      -0.513730       -13.9793
 212   2.0000      -0.509034       -13.8515
 213   2.0000      -0.508336       -13.8325
 214   2.0000      -0.506132       -13.7726
 215   2.0000      -0.504398       -13.7254
 216   2.0000      -0.503279       -13.6949
 217   2.0000      -0.500096       -13.6083
 218   2.0000      -0.499476       -13.5914
 219   2.0000      -0.497955       -13.5501
 220   2.0000      -0.492449       -13.4002
 221   2.0000      -0.490869       -13.3572
 222   2.0000      -0.488328       -13.2881
 223   2.0000      -0.486409       -13.2359
 224   2.0000      -0.484830       -13.1929
 225   2.0000      -0.481481       -13.1018
 226   2.0000      -0.476264       -12.9598
 227   2.0000      -0.472600       -12.8601
 228   2.0000      -0.470810       -12.8114
 229   2.0000      -0.468825       -12.7574
 230   2.0000      -0.463458       -12.6113
 231   2.0000      -0.460869       -12.5409
 232   2.0000      -0.458790       -12.4843
 233   2.0000      -0.455540       -12.3959
 234   2.0000      -0.454946       -12.3797
 235   2.0000      -0.453199       -12.3322
 236   2.0000      -0.451251       -12.2792
 237   2.0000      -0.450555       -12.2602
 238   2.0000      -0.448916       -12.2156
 239   2.0000      -0.447841       -12.1864
 240   2.0000      -0.445383       -12.1195
 241   2.0000      -0.444785       -12.1032
 242   2.0000      -0.444212       -12.0876
 243   2.0000      -0.440613       -11.9897
 244   2.0000      -0.436482       -11.8773
 245   2.0000      -0.435438       -11.8489
 246   2.0000      -0.434244       -11.8164
 247   2.0000      -0.431496       -11.7416
 248   2.0000      -0.430573       -11.7165
 249   2.0000      -0.427881       -11.6432
 250   2.0000      -0.426677       -11.6105
 251   2.0000      -0.425038       -11.5659
 252   2.0000      -0.421568       -11.4715
 253   2.0000      -0.419848       -11.4247
 254   2.0000      -0.419139       -11.4053
 255   2.0000      -0.417755       -11.3677
 256   2.0000      -0.416691       -11.3387
 257   2.0000      -0.415538       -11.3074
 258   2.0000      -0.408526       -11.1166
 259   2.0000      -0.407006       -11.0752
 260   2.0000      -0.403699       -10.9852
 261   2.0000      -0.400784       -10.9059
 262   2.0000      -0.394131       -10.7249
 263   2.0000      -0.391046       -10.6409
 264   2.0000      -0.389901       -10.6097
 265   2.0000      -0.388251       -10.5648
 266   2.0000      -0.379814       -10.3353
 267   2.0000      -0.379670       -10.3313
 268   2.0000      -0.379218       -10.3190
 269   2.0000      -0.375968       -10.2306
 270   2.0000      -0.374961       -10.2032
 271   2.0000      -0.372161       -10.1270
 272   2.0000      -0.364492        -9.9183
 273   2.0000      -0.351789        -9.5727
 274   2.0000      -0.350524        -9.5382
 275   2.0000      -0.337922        -9.1953
 276   2.0000      -0.334933        -9.1140
 277   2.0000      -0.333298        -9.0695
 278   2.0000      -0.321723        -8.7545
 279   2.0000      -0.320291        -8.7156
 280   2.0000      -0.317182        -8.6310
 281   2.0000      -0.316626        -8.6158
 282   2.0000      -0.313492        -8.5306
 283   2.0000      -0.299340        -8.1454
 284   2.0000      -0.298220        -8.1150
 285   2.0000      -0.296123        -8.0579
 286   2.0000      -0.294816        -8.0224
 287   2.0000      -0.284839        -7.7509
 288   2.0000      -0.229359        -6.2412
 289   0.0000      -0.089195        -2.4271
 290   0.0000      -0.082995        -2.2584
 291   0.0000      -0.071676        -1.9504
 292   0.0000      -0.055914        -1.5215
 293   0.0000      -0.055483        -1.5098

MULLIKEN ATOMIC CHARGES
-----------------------
   0 C :    0.324139
   1 C :   -0.342139
   2 C :   -0.187106
   3 N :    0.157500
   4 C :   -0.193451
   5 N :    0.165886
   6 C :    0.008829
   7 C :   -0.012868
   8 C :   -0.062122
   9 C :    0.114837
  10 C :   -0.090182
  11 C :   -0.015932
  12 S :    0.190174
  13 C :   -0.123594
  14 C :    0.041503
  15 Br:    0.029556
  16 C :    0.157988
  17 O :   -0.132935
  18 C :   -0.058842
  19 C :    0.005327
  20 C :   -0.034654
  21 N :   -0.095716
  22 C :    0.088961
  23 C :   -0.042936
  24 C :    0.068227
  25 N :   -0.073631
  26 C :   -0.038936
  27 C :    0.035749
  28 C :   -0.092051
  29 S :    0.146258
  30 C :   -0.124195
  31 C :    0.135844
  32 C :    0.125357
  33 C :   -0.067013
  34 C :   -0.071939
  35 S :   -0.006284
  36 C :    0.127514
  37 O :   -0.170014
  38 C :   -0.112452
  39 C :    0.068430
  40 C :    0.002118
  41 C :   -0.054656
  42 C :   -0.052913
  43 C :    0.037833
  44 C :   -0.065309
  45 C :    0.191706
  46 C :   -0.048488
  47 C :    0.045376
  48 C :   -0.000701
  49 C :   -0.076301
  50 C :    0.162432
  51 C :   -0.027898
  52 C :   -0.018337
  53 C :    0.050393
  54 C :   -0.162805
  55 C :    0.284010
  56 C :   -0.367893
  57 C :   -0.185933
  58 N :    0.160847
  59 C :   -0.204509
  60 N :    0.177787
  61 C :    0.012116
  62 C :   -0.005886
  63 C :    0.139121
  64 O :   -0.142788
  65 C :   -0.073634
  66 C :    0.114283
  67 C :   -0.090232
  68 C :   -0.019596
  69 S :    0.187101
  70 C :   -0.123243
  71 C :    0.041983
  72 Br:    0.023178
  73 H :   -0.008979
  74 H :   -0.004807
  75 H :   -0.001394
  76 H :    0.051299
  77 H :    0.004744
  78 H :   -0.008524
  79 H :   -0.021169
  80 H :    0.002182
  81 H :   -0.034899
  82 H :    0.082225
  83 H :    0.182552
  84 H :   -0.032343
  85 H :   -0.023923
  86 H :   -0.025391
  87 H :   -0.023718
  88 H :    0.041622
  89 H :   -0.002907
  90 H :    0.006420
  91 H :    0.017861
  92 H :   -0.006199
  93 H :    0.037122
  94 H :   -0.010005
  95 H :   -0.007965
  96 H :    0.019124
  97 H :    0.007813
  98 H :   -0.003533
  99 H :    0.031479
 100 H :   -0.012727
 101 H :   -0.005856
 102 H :   -0.002361
Sum of atomic charges:   -0.0000000

LOEWDIN ATOMIC CHARGES
----------------------
   0 C :    0.076877
   1 C :   -0.128911
   2 C :   -0.017860
   3 N :   -0.045867
   4 C :   -0.019275
   5 N :   -0.043507
   6 C :   -0.021996
   7 C :   -0.050429
   8 C :    0.024318
   9 C :   -0.029754
  10 C :   -0.142559
  11 C :   -0.007571
  12 S :    0.435350
  13 C :   -0.269375
  14 C :   -0.070205
  15 Br:    0.141521
  16 C :    0.088535
  17 O :   -0.124064
  18 C :   -0.069804
  19 C :    0.087517
  20 C :    0.022200
  21 N :   -0.098838
  22 C :    0.055808
  23 C :   -0.064089
  24 C :    0.044517
  25 N :   -0.091454
  26 C :   -0.064717
  27 C :    0.006779
  28 C :   -0.189594
  29 S :    0.479573
  30 C :   -0.168792
  31 C :   -0.040531
  32 C :   -0.038431
  33 C :   -0.041820
  34 C :   -0.170000
  35 S :    0.216568
  36 C :    0.036164
  37 O :   -0.046513
  38 C :   -0.052544
  39 C :   -0.032092
  40 C :   -0.029513
  41 C :   -0.022869
  42 C :   -0.025127
  43 C :   -0.026355
  44 C :   -0.003080
  45 C :   -0.021127
  46 C :   -0.012541
  47 C :   -0.019341
  48 C :   -0.021428
  49 C :   -0.025748
  50 C :   -0.026524
  51 C :    0.056074
  52 C :   -0.061319
  53 C :    0.077645
  54 C :   -0.103448
  55 C :    0.063989
  56 C :   -0.142244
  57 C :   -0.021235
  58 N :   -0.052936
  59 C :   -0.015374
  60 N :   -0.046256
  61 C :   -0.021226
  62 C :   -0.056684
  63 C :    0.082783
  64 O :   -0.142627
  65 C :    0.021904
  66 C :   -0.033455
  67 C :   -0.142861
  68 C :   -0.011855
  69 S :    0.432949
  70 C :   -0.271522
  71 C :   -0.069248
  72 Br:    0.136603
  73 H :    0.041956
  74 H :    0.041549
  75 H :    0.039659
  76 H :    0.051034
  77 H :    0.026263
  78 H :    0.032902
  79 H :    0.019889
  80 H :    0.035990
  81 H :    0.027651
  82 H :   -0.010682
  83 H :    0.075900
  84 H :    0.032476
  85 H :    0.026192
  86 H :    0.025606
  87 H :    0.013917
  88 H :    0.039096
  89 H :    0.026483
  90 H :    0.024650
  91 H :    0.032977
  92 H :    0.025283
  93 H :    0.045463
  94 H :    0.020264
  95 H :    0.022129
  96 H :    0.032264
  97 H :    0.024638
  98 H :    0.036961
  99 H :    0.047713
 100 H :    0.040413
 101 H :    0.040914
 102 H :    0.039315

  Mayer bond orders larger than 0.100000
B(  0-C ,  1-C ) :   1.6720 B(  0-C ,  6-C ) :   1.0205 B(  0-C , 18-C ) :   1.0035
B(  1-C ,  2-C ) :   1.1324 B(  1-C ,  4-C ) :   1.1484 B(  2-C ,  3-N ) :   2.9769
B(  4-C ,  5-N ) :   2.9836 B(  6-C ,  7-C ) :   1.2720 B(  6-C , 11-C ) :   1.3987
B(  7-C ,  8-C ) :   1.4224 B(  7-C , 16-C ) :   0.9419 B(  8-C ,  9-C ) :   1.2524
B(  8-C , 73-H ) :   1.0159 B(  9-C , 10-C ) :   1.2969 B(  9-C , 14-C ) :   1.1647
B( 10-C , 11-C ) :   1.3421 B( 10-C , 12-S ) :   1.0864 B( 11-C , 74-H ) :   0.9796
B( 12-S , 13-C ) :   1.0868 B( 13-C , 14-C ) :   1.6163 B( 13-C , 15-Br) :   1.0225
B( 14-C , 75-H ) :   0.9997 B( 16-C , 17-O ) :   2.2337 B( 16-C , 18-C ) :   0.9136
B( 18-C , 19-C ) :   1.8798 B( 19-C , 20-C ) :   0.9137 B( 19-C , 76-H ) :   0.9332
B( 20-C , 21-N ) :   1.4979 B( 20-C , 25-N ) :   1.5384 B( 21-N , 22-C ) :   1.5178
B( 22-C , 23-C ) :   1.3925 B( 22-C , 77-H ) :   0.9793 B( 23-C , 24-C ) :   1.3221
B( 23-C , 78-H ) :   0.9752 B( 24-C , 25-N ) :   1.4809 B( 24-C , 26-C ) :   1.1053
B( 26-C , 27-C ) :   1.6575 B( 26-C , 79-H ) :   0.9749 B( 27-C , 28-C ) :   1.1644
B( 27-C , 80-H ) :   0.9601 B( 28-C , 29-S ) :   1.1290 B( 28-C , 30-C ) :   0.1060
B( 28-C , 32-C ) :   1.3089 B( 29-S , 30-C ) :   1.1621 B( 30-C , 31-C ) :   1.3375
B( 30-C , 39-C ) :   1.1496 B( 31-C , 32-C ) :   1.2093 B( 31-C , 38-C ) :   1.1739
B( 32-C , 33-C ) :   1.2331 B( 33-C , 34-C ) :   1.5315 B( 33-C , 81-H ) :   0.9809
B( 34-C , 35-S ) :   1.0120 B( 34-C , 36-C ) :   1.1901 B( 35-S , 82-H ) :   0.9520
B( 36-C , 37-O ) :   1.2714 B( 36-C , 38-C ) :   1.5174 B( 37-O , 83-H ) :   0.9497
B( 38-C , 84-H ) :   1.0003 B( 39-C , 40-C ) :   1.6796 B( 39-C , 85-H ) :   0.9416
B( 40-C , 41-C ) :   1.1000 B( 40-C , 86-H ) :   0.9772 B( 41-C , 42-C ) :   1.7957
B( 41-C , 45-C ) :   1.0088 B( 42-C , 43-C ) :   0.9872 B( 42-C , 87-H ) :   0.9814
B( 43-C , 44-C ) :   1.0587 B( 43-C , 51-C ) :   1.0015 B( 43-C , 88-H ) :   0.8604
B( 44-C , 45-C ) :   1.0525 B( 44-C , 46-C ) :   1.0233 B( 44-C , 89-H ) :   0.9089
B( 45-C , 90-H ) :   0.9242 B( 45-C , 91-H ) :   0.8898 B( 46-C , 47-C ) :   1.0490
B( 46-C , 50-C ) :   1.0828 B( 46-C , 92-H ) :   0.8975 B( 47-C , 48-C ) :   0.9909
B( 47-C , 51-C ) :   1.0246 B( 47-C , 93-H ) :   0.8700 B( 48-C , 49-C ) :   1.8802
B( 48-C , 94-H ) :   0.9906 B( 49-C , 50-C ) :   1.0225 B( 49-C , 95-H ) :   0.9873
B( 50-C , 96-H ) :   0.9169 B( 50-C , 97-H ) :   0.9279 B( 51-C , 52-C ) :   1.7657
B( 52-C , 53-C ) :   1.1227 B( 52-C , 98-H ) :   0.9360 B( 53-C , 54-C ) :   1.6775
B( 53-C , 99-H ) :   0.9232 B( 54-C , 55-C ) :   1.0457 B( 54-C , 63-C ) :   0.9345
B( 55-C , 56-C ) :   1.6486 B( 55-C , 61-C ) :   1.0091 B( 56-C , 57-C ) :   1.1259
B( 56-C , 59-C ) :   1.1738 B( 57-C , 58-N ) :   2.9863 B( 59-C , 60-N ) :   2.9891
B( 61-C , 62-C ) :   1.2683 B( 61-C , 68-C ) :   1.4156 B( 62-C , 63-C ) :   0.9180
B( 62-C , 65-C ) :   1.4244 B( 63-C , 64-O ) :   2.2685 B( 65-C , 66-C ) :   1.2466
B( 65-C ,100-H ) :   1.0164 B( 66-C , 67-C ) :   1.3096 B( 66-C , 71-C ) :   1.1629
B( 67-C , 68-C ) :   1.3253 B( 67-C , 69-S ) :   1.0861 B( 68-C ,101-H ) :   0.9832
B( 69-S , 70-C ) :   1.0867 B( 70-C , 71-C ) :   1.6192 B( 70-C , 72-Br) :   1.0180
B( 71-C ,102-H ) :   1.0001

-----------------------------------------------------------------------------
         ABSORPTION SPECTRUM VIA TRANSITION ELECTRIC DIPOLE MOMENTS
-----------------------------------------------------------------------------
State   Energy  Wavelength   fosc         T2         TX        TY        TZ
        (cm-1)    (nm)                  (au**2)     (au)      (au)      (au)
-----------------------------------------------------------------------------
   0   17148.7    583.1   0.000443912   0.00852   0.06927   0.05029  -0.03456
   1   19109.6    523.3   0.005370985   0.09253  -0.00620  -0.28629   0.10260
   2   19113.5    523.2   0.863488972  14.87280  -0.46474  -3.73979   0.81900
   3   22448.7    445.5   0.020872350   0.30609  -0.24310   0.45821  -0.19245
   4   25346.4    394.5   0.000070902   0.00092   0.03033   0.00095   0.00042
   5   26879.3    372.0   0.377516230   4.62373   1.42302  -1.31889  -0.92698
   6   28755.8    347.8   0.074004376   0.84724   0.13786  -0.12810   0.90101
   7   28798.9    347.2   0.477235348   5.45546   1.89014  -1.02026  -0.91757
   8   28902.6    346.0   0.078884825   0.89853  -0.37687  -0.61762  -0.61240
   9   29598.3    337.9   0.205082244   2.28106   0.33433   1.41979   0.39176
  10   30070.3    332.6   0.000873341   0.00956   0.06778   0.06520  -0.02676
  11   30451.2    328.4   0.116790996   1.26264   0.75378  -0.81150  -0.18954
  12   30741.2    325.3   0.011042690   0.11826  -0.25655   0.00677   0.22889
  13   30852.0    324.1   0.056124590   0.59889   0.46339   0.06053  -0.61684
  14   31007.6    322.5   0.057414816   0.60958   0.74668  -0.06395   0.21898
  15   31559.7    316.9   0.005905794   0.06161   0.23516  -0.06793  -0.04112
  16   31718.6    315.3   0.476893602   4.94975  -1.86651   0.33240  -1.16421
  17   31786.9    314.6   0.033126003   0.34308   0.37753   0.43450  -0.10848
  18   31937.7    313.1   0.003766436   0.03882  -0.17027   0.00306  -0.09911
  19   32408.9    308.6   0.047872053   0.48629   0.54730  -0.19247  -0.38691
  20   32984.6    303.2   0.041728840   0.41649  -0.60273   0.20561  -0.10452
  21   33057.5    302.5   0.032808608   0.32673   0.52638  -0.22269   0.00816
  22   33389.9    299.5   0.183828021   1.81248  -0.93912   0.95824   0.11097
  23   33494.1    298.6   0.002817767   0.02770  -0.05880  -0.06822  -0.13994
  24   33791.0    295.9   0.003957384   0.03856   0.13585  -0.12566   0.06565
  25   34000.8    294.1   0.041083394   0.39779  -0.36443  -0.35454  -0.37321
  26   34626.4    288.8   0.526955781   5.01006  -1.99682  -0.89160   0.47732
  27   34694.7    288.2   0.814596141   7.72955   0.64944  -2.60083  -0.73721
  28   34729.8    287.9   0.222168255   2.10599   0.08876   1.44153   0.14176
  29   34929.6    286.3   0.003837041   0.03616   0.15449   0.11014   0.01284
  30   34984.6    285.8   0.007026910   0.06612   0.01655   0.00029   0.25661
  31   35235.5    283.8   0.254982223   2.38234   0.05480  -1.52953  -0.19970
  32   35373.7    282.7   0.059390860   0.55273  -0.52299   0.04562  -0.52643
  33   35489.9    281.8   0.025926287   0.24050   0.30656   0.09764  -0.37012
  34   36702.7    272.5   0.004287125   0.03845  -0.00651  -0.15205  -0.12366
  35   36858.9    271.3   0.032884866   0.29372  -0.21533   0.47990  -0.13054
  36   36922.8    270.8   0.106898933   0.95314   0.49112  -0.66849   0.51483
  37   37433.7    267.1   0.111225425   0.97818  -0.71376  -0.19524  -0.65620
  38   37879.2    264.0   0.003116313   0.02708  -0.15431   0.00441  -0.05704
  39   38450.1    260.1   0.001875478   0.01606   0.06442  -0.10745   0.01903
  40   38660.3    258.7   0.008774742   0.07472  -0.16572   0.18963  -0.10630
  41   38807.3    257.7   0.000875445   0.00743  -0.03766   0.06993  -0.03343
  42   38839.2    257.5   0.000044381   0.00038  -0.00794   0.01515  -0.00914
  43   39247.0    254.8   0.039618594   0.33233  -0.18142   0.09696   0.53853
  44   39341.7    254.2   0.000108891   0.00091   0.01462   0.02068  -0.01642
  45   39537.7    252.9   0.000237655   0.00198  -0.01738   0.04095   0.00020
  46   39862.1    250.9   0.033350286   0.27543   0.12983  -0.12044  -0.49403
  47   40211.7    248.7   0.000322438   0.00264   0.04137  -0.03046   0.00077

FINAL SINGLE POINT ENERGY     -9518.945847602543

DIPOLE MOMENT
-------------
                                X             Y             Z
Electronic contribution:     84.11859    -208.90267    -104.17827
Nuclear contribution   :    -83.79778     208.41948     103.43999
                        -----------------------------------------
Total Dipole Moment    :      0.32082      -0.48319      -0.73827
                        -----------------------------------------
Magnitude (a.u.)       :      0.93885
Magnitude (Debye)      :      2.38637

Rotational constants in cm-1:     0.001014     0.000284     0.000245
Rotational constants in MHz :    30.385970     8.501130     7.350635

                             ****ORCA TERMINATED NORMALLY****
TOTAL RUN TIME: 0 days 0 hours 10 minutes 42 seconds 354 msec
