                         Program Version 4.2.0 -  RELEASE  -
|  1> # ORCA input file
|  2> # SCF done       -186.048877546802          0.000656282884
|  3> ! CAM-B3LYP def2-SVP def2/J RIJCOSX Grid4 TightSCF
|  4> %maxcore 5000
|  5> %tddft
|  6>     Mode sTDDFT
|  7>     Ethresh 5.0
|  8>     maxcore 5000
|  9> end
| 10>
| 11> %pal
| 12>   nprocs 6
| 13>   end
| 14> * xyz 0 1
| 15>    C      -12.67831         1.95867        -4.35105
| 16>    C      -13.58424         1.75650        -3.34923
| 17>    C      -14.91404         2.23202        -3.37783
| 18>    N      -16.00167         2.59585        -3.34541
| 19>    C      -13.33910         1.02887        -2.16298
| 20>    N      -13.22682         0.45852        -1.17382
| 21>    C      -12.91885         2.68146        -5.59171
| 22>    C      -11.79107         2.54028        -6.43831
| 23>    C      -11.72447         3.11181        -7.68571
| 24>    C      -12.81096         3.88188        -8.10908
| 25>    C      -13.93212         4.02364        -7.25495
| 26>    C      -14.00864         3.43067        -6.00237
| 27>    S      -15.16094         5.01972        -7.97481
| 28>    C      -14.16414         5.23319        -9.38966
| 29>    C      -12.97402         4.58976        -9.33060
| 30>   Br      -14.78755         6.28682       -10.80943
| 31>    C      -10.77120         1.70904        -5.77112
| 32>    O       -9.78559         1.23014        -6.27427
| 33>    C      -11.29225         1.49285        -4.38145
| 34>    C      -10.57116         0.99237        -3.36353
| 35>    C       -9.12821         0.76816        -3.45518
| 36>    N       -8.64834        -0.36231        -2.94454
| 37>    C       -7.34170        -0.54881        -3.04659
| 38>    C       -6.50196         0.37466        -3.64327
| 39>    C       -7.09898         1.55471        -4.11357
| 40>    N       -8.41420         1.74125        -3.99569
| 41>    C       -6.32282         2.59403        -4.74229
| 42>    C       -6.86830         3.71303        -5.26404
| 43>    C       -6.09798         4.72910        -5.89221
| 44>    S       -4.37506         4.54372        -5.98365
| 45>    C       -4.17888         6.09729        -6.74753
| 46>    C       -5.42218         6.71853        -6.90883
| 47>    C       -6.49750         5.93927        -6.45728
| 48>    C       -7.92023         6.38924        -6.56811
| 49>    S       -9.02012         5.08987        -7.28491
| 50>    C       -8.05452         7.65915        -7.40406
| 51>    C       -6.96535         8.65656        -7.03926
| 52>    C       -5.59802         8.11149        -7.46508
| 53>    O       -4.55820         8.99084        -7.10016
| 54>    C       -2.91365         6.57987        -7.12400
| 55>    C       -1.71763         5.92981        -6.93911
| 56>    C       -0.42279         6.39519        -7.28653
| 57>    C        0.59176         5.54187        -6.96348
| 58>    C        0.15180         4.35084        -6.34758
| 59>    S       -1.58561         4.35110        -6.19440
| 60>    C        0.84513         3.25204        -5.86690
| 61>    C        2.22479         2.97950        -5.79889
| 62>    C        2.51682         1.77672        -5.21674
| 63>    C        1.38299         1.04199        -4.80302
| 64>    S       -0.07126         1.92601        -5.18694
| 65>    C        1.33994        -0.19649        -4.18559
| 66>    C        0.12810        -0.78711        -3.84569
| 67>    C       -0.16777        -1.98419        -3.23070
| 68>    C        0.60366        -3.14372        -2.87720
| 69>    C        1.77600        -3.58139        -3.44923
| 70>    C        2.45427        -4.75167        -3.05641
| 71>    N        3.06048        -5.68484        -2.77106
| 72>    C        2.39844        -2.99180        -4.56555
| 73>    N        2.93379        -2.59300        -5.50067
| 74>    C       -0.18666        -3.91599        -1.91500
| 75>    C       -1.48264        -3.34920        -1.83155
| 76>    C       -1.53634        -2.15081        -2.69082
| 77>    O       -2.49184        -1.42875        -2.89292
| 78>    C       -2.47233        -3.87561        -1.03916
| 79>    C       -2.16667        -5.01133        -0.28117
| 80>    C       -0.86611        -5.56054        -0.35823
| 81>    C        0.13376        -5.03178        -1.16754
| 82>    S       -0.69921        -6.95293         0.66811
| 83>    C       -2.35897        -6.78248         1.17557
| 84>    C       -3.00553        -5.73673         0.60915
| 85>   Br       -3.07989        -8.00020         2.40725
| 86>    H      -10.85362         2.97951        -8.30732
| 87>    H      -14.88403         3.56704        -5.38943
| 88>    H      -12.23782         4.61376       -10.11287
| 89>    H      -11.01773         0.76093        -2.40672
| 90>    H       -6.96651        -1.47643        -2.63429
| 91>    H       -5.44192         0.20121        -3.73287
| 92>    H       -5.25524         2.42502        -4.79859
| 93>    H       -7.93894         3.84033        -5.20024
| 94>    H       -8.34064         6.54177        -5.56847
| 95>    H       -8.24954         4.81921        -8.33620
| 96>    H       -9.04310         8.09141        -7.24562
| 97>    H       -7.96580         7.40678        -8.46375
| 98>    H       -6.96300         8.82643        -5.95843
| 99>    H       -7.13924         9.61266        -7.53381
|100>    H       -5.54559         8.07194        -8.56210
|101>    H       -4.57399         9.11423        -6.14374
|102>    H       -2.88774         7.55549        -7.58982
|103>    H       -0.28436         7.35064        -7.76129
|104>    H        1.63242         5.73617        -7.15231
|105>    H        2.96177         3.67007        -6.16878
|106>    H        3.51203         1.39335        -5.07832
|107>    H        2.28087        -0.67419        -3.96351
|108>    H       -0.75776        -0.17900        -4.01981
|109>    H       -3.45227        -3.42618        -1.00259
|110>    H        1.11028        -5.48595        -1.18739
|111>    H       -4.03113        -5.48518         0.80909
|112> *
|113>
|114>                          ****END OF INPUT****

CARTESIAN COORDINATES (ANGSTROEM)
---------------------------------
  C    -12.678310    1.958670   -4.351050
  C    -13.584240    1.756500   -3.349230
  C    -14.914040    2.232020   -3.377830
  N    -16.001670    2.595850   -3.345410
  C    -13.339100    1.028870   -2.162980
  N    -13.226820    0.458520   -1.173820
  C    -12.918850    2.681460   -5.591710
  C    -11.791070    2.540280   -6.438310
  C    -11.724470    3.111810   -7.685710
  C    -12.810960    3.881880   -8.109080
  C    -13.932120    4.023640   -7.254950
  C    -14.008640    3.430670   -6.002370
  S    -15.160940    5.019720   -7.974810
  C    -14.164140    5.233190   -9.389660
  C    -12.974020    4.589760   -9.330600
  Br   -14.787550    6.286820  -10.809430
  C    -10.771200    1.709040   -5.771120
  O     -9.785590    1.230140   -6.274270
  C    -11.292250    1.492850   -4.381450
  C    -10.571160    0.992370   -3.363530
  C     -9.128210    0.768160   -3.455180
  N     -8.648340   -0.362310   -2.944540
  C     -7.341700   -0.548810   -3.046590
  C     -6.501960    0.374660   -3.643270
  C     -7.098980    1.554710   -4.113570
  N     -8.414200    1.741250   -3.995690
  C     -6.322820    2.594030   -4.742290
  C     -6.868300    3.713030   -5.264040
  C     -6.097980    4.729100   -5.892210
  S     -4.375060    4.543720   -5.983650
  C     -4.178880    6.097290   -6.747530
  C     -5.422180    6.718530   -6.908830
  C     -6.497500    5.939270   -6.457280
  C     -7.920230    6.389240   -6.568110
  S     -9.020120    5.089870   -7.284910
  C     -8.054520    7.659150   -7.404060
  C     -6.965350    8.656560   -7.039260
  C     -5.598020    8.111490   -7.465080
  O     -4.558200    8.990840   -7.100160
  C     -2.913650    6.579870   -7.124000
  C     -1.717630    5.929810   -6.939110
  C     -0.422790    6.395190   -7.286530
  C      0.591760    5.541870   -6.963480
  C      0.151800    4.350840   -6.347580
  S     -1.585610    4.351100   -6.194400
  C      0.845130    3.252040   -5.866900
  C      2.224790    2.979500   -5.798890
  C      2.516820    1.776720   -5.216740
  C      1.382990    1.041990   -4.803020
  S     -0.071260    1.926010   -5.186940
  C      1.339940   -0.196490   -4.185590
  C      0.128100   -0.787110   -3.845690
  C     -0.167770   -1.984190   -3.230700
  C      0.603660   -3.143720   -2.877200
  C      1.776000   -3.581390   -3.449230
  C      2.454270   -4.751670   -3.056410
  N      3.060480   -5.684840   -2.771060
  C      2.398440   -2.991800   -4.565550
  N      2.933790   -2.593000   -5.500670
  C     -0.186660   -3.915990   -1.915000
  C     -1.482640   -3.349200   -1.831550
  C     -1.536340   -2.150810   -2.690820
  O     -2.491840   -1.428750   -2.892920
  C     -2.472330   -3.875610   -1.039160
  C     -2.166670   -5.011330   -0.281170
  C     -0.866110   -5.560540   -0.358230
  C      0.133760   -5.031780   -1.167540
  S     -0.699210   -6.952930    0.668110
  C     -2.358970   -6.782480    1.175570
  C     -3.005530   -5.736730    0.609150
  Br    -3.079890   -8.000200    2.407250
  H    -10.853620    2.979510   -8.307320
  H    -14.884030    3.567040   -5.389430
  H    -12.237820    4.613760  -10.112870
  H    -11.017730    0.760930   -2.406720
  H     -6.966510   -1.476430   -2.634290
  H     -5.441920    0.201210   -3.732870
  H     -5.255240    2.425020   -4.798590
  H     -7.938940    3.840330   -5.200240
  H     -8.340640    6.541770   -5.568470
  H     -8.249540    4.819210   -8.336200
  H     -9.043100    8.091410   -7.245620
  H     -7.965800    7.406780   -8.463750
  H     -6.963000    8.826430   -5.958430
  H     -7.139240    9.612660   -7.533810
  H     -5.545590    8.071940   -8.562100
  H     -4.573990    9.114230   -6.143740
  H     -2.887740    7.555490   -7.589820
  H     -0.284360    7.350640   -7.761290
  H      1.632420    5.736170   -7.152310
  H      2.961770    3.670070   -6.168780
  H      3.512030    1.393350   -5.078320
  H      2.280870   -0.674190   -3.963510
  H     -0.757760   -0.179000   -4.019810
  H     -3.452270   -3.426180   -1.002590
  H      1.110280   -5.485950   -1.187390
  H     -4.031130   -5.485180    0.809090

 Total Charge           Charge          ....    0
 Multiplicity           Mult            ....    1
 Number of Electrons    NEL             ....  582
 Basis Dimension        Dim             .... 1184

ORBITAL ENERGIES
----------------

  NO   OCC          E(Eh)            E(eV)
   0   2.0000    -482.889084    -13140.0800
   1   2.0000    -482.877946    -13139.7769
   2   2.0000     -88.978450     -2421.2267
   3   2.0000     -88.969537     -2420.9842
   4   2.0000     -88.966649     -2420.9056
   5   2.0000     -88.965723     -2420.8804
   6   2.0000     -88.960692     -2420.7435
   7   2.0000     -88.929917     -2419.9061
   8   2.0000     -62.566831     -1702.5300
   9   2.0000     -62.555680     -1702.2266
  10   2.0000     -56.400785     -1534.7434
  11   2.0000     -56.398056     -1534.6691
  12   2.0000     -56.398036     -1534.6686
  13   2.0000     -56.389622     -1534.4396
  14   2.0000     -56.386919     -1534.3661
  15   2.0000     -56.386884     -1534.3651
  16   2.0000     -19.234141      -523.3876
  17   2.0000     -19.215894      -522.8911
  18   2.0000     -19.202708      -522.5322
  19   2.0000     -14.419333      -392.3700
  20   2.0000     -14.417866      -392.3301
  21   2.0000     -14.408725      -392.0813
  22   2.0000     -14.408626      -392.0786
  23   2.0000     -14.402317      -391.9070
  24   2.0000     -14.401106      -391.8740
  25   2.0000     -10.367141      -282.1043
  26   2.0000     -10.362435      -281.9762
  27   2.0000     -10.352233      -281.6986
  28   2.0000     -10.349845      -281.6336
  29   2.0000     -10.347828      -281.5787
  30   2.0000     -10.345559      -281.5170
  31   2.0000     -10.345151      -281.5059
  32   2.0000     -10.343120      -281.4506
  33   2.0000     -10.336625      -281.2739
  34   2.0000     -10.330296      -281.1016
  35   2.0000     -10.328821      -281.0615
  36   2.0000     -10.328204      -281.0447
  37   2.0000     -10.327051      -281.0134
  38   2.0000     -10.326930      -281.0100
  39   2.0000     -10.325372      -280.9677
  40   2.0000     -10.325307      -280.9659
  41   2.0000     -10.324970      -280.9567
  42   2.0000     -10.321620      -280.8656
  43   2.0000     -10.321406      -280.8597
  44   2.0000     -10.319662      -280.8123
  45   2.0000     -10.318110      -280.7700
  46   2.0000     -10.317181      -280.7448
  47   2.0000     -10.315691      -280.7042
  48   2.0000     -10.311744      -280.5968
  49   2.0000     -10.310666      -280.5675
  50   2.0000     -10.309848      -280.5452
  51   2.0000     -10.309815      -280.5443
  52   2.0000     -10.309063      -280.5239
  53   2.0000     -10.308772      -280.5160
  54   2.0000     -10.307996      -280.4948
  55   2.0000     -10.305951      -280.4392
  56   2.0000     -10.305253      -280.4202
  57   2.0000     -10.304590      -280.4021
  58   2.0000     -10.303612      -280.3755
  59   2.0000     -10.303326      -280.3677
  60   2.0000     -10.301650      -280.3221
  61   2.0000     -10.300721      -280.2969
  62   2.0000     -10.299838      -280.2729
  63   2.0000     -10.297975      -280.2221
  64   2.0000     -10.297308      -280.2040
  65   2.0000     -10.297143      -280.1995
  66   2.0000     -10.295986      -280.1680
  67   2.0000     -10.294285      -280.1217
  68   2.0000     -10.294206      -280.1196
  69   2.0000     -10.291259      -280.0394
  70   2.0000     -10.291025      -280.0330
  71   2.0000     -10.288388      -279.9613
  72   2.0000     -10.288283      -279.9584
  73   2.0000     -10.284195      -279.8472
  74   2.0000     -10.283860      -279.8381
  75   2.0000     -10.282359      -279.7972
  76   2.0000     -10.282195      -279.7928
  77   2.0000     -10.281150      -279.7643
  78   2.0000     -10.278815      -279.7008
  79   2.0000      -8.796283      -239.3590
  80   2.0000      -8.785113      -239.0551
  81   2.0000      -8.074433      -219.7165
  82   2.0000      -8.064983      -219.4594
  83   2.0000      -8.062619      -219.3950
  84   2.0000      -8.062197      -219.3835
  85   2.0000      -8.057186      -219.2472
  86   2.0000      -8.024892      -218.3684
  87   2.0000      -6.632595      -180.4821
  88   2.0000      -6.621393      -180.1773
  89   2.0000      -6.618025      -180.0856
  90   2.0000      -6.617799      -180.0795
  91   2.0000      -6.606859      -179.7818
  92   2.0000      -6.606670      -179.7766
  93   2.0000      -6.044130      -164.4691
  94   2.0000      -6.039858      -164.3529
  95   2.0000      -6.035638      -164.2381
  96   2.0000      -6.034073      -164.1955
  97   2.0000      -6.032317      -164.1477
  98   2.0000      -6.031924      -164.1370
  99   2.0000      -6.030070      -164.0865
 100   2.0000      -6.028037      -164.0312
 101   2.0000      -6.027607      -164.0195
 102   2.0000      -6.027229      -164.0092
 103   2.0000      -6.026792      -163.9973
 104   2.0000      -6.023843      -163.9171
 105   2.0000      -6.023211      -163.8999
 106   2.0000      -6.022750      -163.8874
 107   2.0000      -6.018262      -163.7652
 108   2.0000      -5.995492      -163.1456
 109   2.0000      -5.991293      -163.0314
 110   2.0000      -5.984477      -162.8459
 111   2.0000      -2.748427       -74.7885
 112   2.0000      -2.744381       -74.6784
 113   2.0000      -2.744254       -74.6749
 114   2.0000      -2.737255       -74.4845
 115   2.0000      -2.733165       -74.3732
 116   2.0000      -2.733071       -74.3706
 117   2.0000      -2.732643       -74.3590
 118   2.0000      -2.732627       -74.3586
 119   2.0000      -2.721509       -74.0560
 120   2.0000      -2.721487       -74.0554
 121   2.0000      -1.132347       -30.8127
 122   2.0000      -1.125819       -30.6351
 123   2.0000      -1.115996       -30.3678
 124   2.0000      -1.083472       -29.4828
 125   2.0000      -1.025701       -27.9107
 126   2.0000      -1.018502       -27.7148
 127   2.0000      -1.016301       -27.6550
 128   2.0000      -1.011821       -27.5331
 129   2.0000      -1.007911       -27.4267
 130   2.0000      -1.001085       -27.2409
 131   2.0000      -0.996952       -27.1285
 132   2.0000      -0.991866       -26.9901
 133   2.0000      -0.991613       -26.9832
 134   2.0000      -0.981282       -26.7020
 135   2.0000      -0.980634       -26.6844
 136   2.0000      -0.977051       -26.5869
 137   2.0000      -0.946175       -25.7467
 138   2.0000      -0.945012       -25.7151
 139   2.0000      -0.932623       -25.3780
 140   2.0000      -0.923865       -25.1396
 141   2.0000      -0.914883       -24.8952
 142   2.0000      -0.911637       -24.8069
 143   2.0000      -0.906581       -24.6693
 144   2.0000      -0.897354       -24.4182
 145   2.0000      -0.890115       -24.2213
 146   2.0000      -0.888816       -24.1859
 147   2.0000      -0.883250       -24.0344
 148   2.0000      -0.875516       -23.8240
 149   2.0000      -0.873301       -23.7637
 150   2.0000      -0.867860       -23.6157
 151   2.0000      -0.867504       -23.6060
 152   2.0000      -0.846993       -23.0478
 153   2.0000      -0.842146       -22.9159
 154   2.0000      -0.839627       -22.8474
 155   2.0000      -0.836397       -22.7595
 156   2.0000      -0.831988       -22.6396
 157   2.0000      -0.820286       -22.3211
 158   2.0000      -0.817309       -22.2401
 159   2.0000      -0.795220       -21.6390
 160   2.0000      -0.785787       -21.3823
 161   2.0000      -0.783029       -21.3073
 162   2.0000      -0.769918       -20.9505
 163   2.0000      -0.761383       -20.7183
 164   2.0000      -0.752271       -20.4703
 165   2.0000      -0.743749       -20.2384
 166   2.0000      -0.735602       -20.0167
 167   2.0000      -0.728285       -19.8176
 168   2.0000      -0.724952       -19.7269
 169   2.0000      -0.708692       -19.2845
 170   2.0000      -0.705815       -19.2062
 171   2.0000      -0.696225       -18.9452
 172   2.0000      -0.691527       -18.8174
 173   2.0000      -0.689491       -18.7620
 174   2.0000      -0.684435       -18.6244
 175   2.0000      -0.676344       -18.4043
 176   2.0000      -0.673028       -18.3140
 177   2.0000      -0.662771       -18.0349
 178   2.0000      -0.659606       -17.9488
 179   2.0000      -0.656231       -17.8569
 180   2.0000      -0.650342       -17.6967
 181   2.0000      -0.647341       -17.6150
 182   2.0000      -0.640104       -17.4181
 183   2.0000      -0.632973       -17.2241
 184   2.0000      -0.626594       -17.0505
 185   2.0000      -0.620698       -16.8900
 186   2.0000      -0.617544       -16.8042
 187   2.0000      -0.615743       -16.7552
 188   2.0000      -0.612089       -16.6558
 189   2.0000      -0.606102       -16.4929
 190   2.0000      -0.602515       -16.3953
 191   2.0000      -0.592254       -16.1160
 192   2.0000      -0.589593       -16.0436
 193   2.0000      -0.584298       -15.8996
 194   2.0000      -0.582679       -15.8555
 195   2.0000      -0.571620       -15.5546
 196   2.0000      -0.568548       -15.4710
 197   2.0000      -0.565761       -15.3951
 198   2.0000      -0.559074       -15.2132
 199   2.0000      -0.552706       -15.0399
 200   2.0000      -0.550885       -14.9903
 201   2.0000      -0.547240       -14.8912
 202   2.0000      -0.541729       -14.7412
 203   2.0000      -0.540814       -14.7163
 204   2.0000      -0.539663       -14.6850
 205   2.0000      -0.537530       -14.6269
 206   2.0000      -0.531555       -14.4643
 207   2.0000      -0.531302       -14.4575
 208   2.0000      -0.527980       -14.3671
 209   2.0000      -0.527183       -14.3454
 210   2.0000      -0.524462       -14.2713
 211   2.0000      -0.522616       -14.2211
 212   2.0000      -0.519661       -14.1407
 213   2.0000      -0.515599       -14.0302
 214   2.0000      -0.514227       -13.9928
 215   2.0000      -0.511767       -13.9259
 216   2.0000      -0.511433       -13.9168
 217   2.0000      -0.510661       -13.8958
 218   2.0000      -0.508423       -13.8349
 219   2.0000      -0.506392       -13.7796
 220   2.0000      -0.501388       -13.6435
 221   2.0000      -0.497902       -13.5486
 222   2.0000      -0.497777       -13.5452
 223   2.0000      -0.496303       -13.5051
 224   2.0000      -0.494275       -13.4499
 225   2.0000      -0.490392       -13.3443
 226   2.0000      -0.486901       -13.2493
 227   2.0000      -0.486080       -13.2269
 228   2.0000      -0.485638       -13.2149
 229   2.0000      -0.484045       -13.1715
 230   2.0000      -0.481299       -13.0968
 231   2.0000      -0.480694       -13.0803
 232   2.0000      -0.474300       -12.9064
 233   2.0000      -0.473101       -12.8737
 234   2.0000      -0.470815       -12.8115
 235   2.0000      -0.462008       -12.5719
 236   2.0000      -0.460910       -12.5420
 237   2.0000      -0.459390       -12.5006
 238   2.0000      -0.453917       -12.3517
 239   2.0000      -0.451358       -12.2821
 240   2.0000      -0.449769       -12.2388
 241   2.0000      -0.449614       -12.2346
 242   2.0000      -0.446100       -12.1390
 243   2.0000      -0.445384       -12.1195
 244   2.0000      -0.443506       -12.0684
 245   2.0000      -0.442152       -12.0316
 246   2.0000      -0.440168       -11.9776
 247   2.0000      -0.437129       -11.8949
 248   2.0000      -0.436932       -11.8895
 249   2.0000      -0.433313       -11.7911
 250   2.0000      -0.431927       -11.7533
 251   2.0000      -0.429891       -11.6979
 252   2.0000      -0.429455       -11.6861
 253   2.0000      -0.427166       -11.6238
 254   2.0000      -0.423670       -11.5286
 255   2.0000      -0.420939       -11.4543
 256   2.0000      -0.418677       -11.3928
 257   2.0000      -0.416690       -11.3387
 258   2.0000      -0.412728       -11.2309
 259   2.0000      -0.411913       -11.2087
 260   2.0000      -0.409739       -11.1496
 261   2.0000      -0.405515       -11.0346
 262   2.0000      -0.399384       -10.8678
 263   2.0000      -0.396612       -10.7924
 264   2.0000      -0.391276       -10.6472
 265   2.0000      -0.388854       -10.5813
 266   2.0000      -0.385676       -10.4948
 267   2.0000      -0.381327       -10.3764
 268   2.0000      -0.378544       -10.3007
 269   2.0000      -0.378000       -10.2859
 270   2.0000      -0.377259       -10.2657
 271   2.0000      -0.368143       -10.0177
 272   2.0000      -0.367544       -10.0014
 273   2.0000      -0.366799        -9.9811
 274   2.0000      -0.360547        -9.8110
 275   2.0000      -0.354986        -9.6597
 276   2.0000      -0.345766        -9.4088
 277   2.0000      -0.338133        -9.2011
 278   2.0000      -0.335735        -9.1358
 279   2.0000      -0.329785        -8.9739
 280   2.0000      -0.327237        -8.9046
 281   2.0000      -0.323930        -8.8146
 282   2.0000      -0.321082        -8.7371
 283   2.0000      -0.315991        -8.5986
 284   2.0000      -0.312166        -8.4945
 285   2.0000      -0.310092        -8.4380
 286   2.0000      -0.305593        -8.3156
 287   2.0000      -0.295908        -8.0521
 288   2.0000      -0.284643        -7.7455
 289   2.0000      -0.275354        -7.4928
 290   2.0000      -0.227928        -6.2022
 291   0.0000      -0.115103        -3.1321
 292   0.0000      -0.088909        -2.4193
 293   0.0000      -0.067024        -1.8238
 294   0.0000      -0.055201        -1.5021
 295   0.0000      -0.050684        -1.3792

MULLIKEN ATOMIC CHARGES
-----------------------
   0 C :    0.299302
   1 C :   -0.344962
   2 C :   -0.186159
   3 N :    0.155536
   4 C :   -0.187543
   5 N :    0.165911
   6 C :    0.023719
   7 C :   -0.013362
   8 C :   -0.056281
   9 C :    0.124332
  10 C :   -0.087775
  11 C :   -0.030272
  12 S :    0.186051
  13 C :   -0.124835
  14 C :    0.041259
  15 Br:    0.023651
  16 C :    0.155531
  17 O :   -0.126576
  18 C :   -0.063600
  19 C :    0.030936
  20 C :   -0.051343
  21 N :   -0.075862
  22 C :    0.082176
  23 C :   -0.040252
  24 C :    0.057372
  25 N :   -0.056286
  26 C :   -0.015876
  27 C :    0.046503
  28 C :   -0.060506
  29 S :    0.079340
  30 C :   -0.102002
  31 C :   -0.065132
  32 C :    0.041479
  33 C :   -0.160911
  34 S :   -0.040653
  35 C :    0.099889
  36 C :    0.046758
  37 C :    0.220372
  38 O :   -0.298952
  39 C :    0.001655
  40 C :   -0.036196
  41 C :    0.051039
  42 C :    0.029365
  43 C :   -0.005374
  44 S :    0.058211
  45 C :   -0.054695
  46 C :    0.048854
  47 C :    0.028065
  48 C :   -0.015141
  49 S :    0.084669
  50 C :    0.008125
  51 C :   -0.000606
  52 C :   -0.111779
  53 C :    0.301519
  54 C :   -0.356182
  55 C :   -0.181126
  56 N :    0.137479
  57 C :   -0.211090
  58 N :    0.158266
  59 C :    0.000646
  60 C :   -0.000599
  61 C :    0.137451
  62 O :   -0.173953
  63 C :   -0.074979
  64 C :    0.114512
  65 C :   -0.091720
  66 C :   -0.021844
  67 S :    0.180905
  68 C :   -0.125169
  69 C :    0.038578
  70 Br:    0.017331
  71 H :   -0.016317
  72 H :   -0.005361
  73 H :   -0.005558
  74 H :    0.044250
  75 H :    0.010835
  76 H :    0.015762
  77 H :   -0.003506
  78 H :    0.013004
  79 H :    0.058329
  80 H :    0.055998
  81 H :    0.014995
  82 H :    0.002998
  83 H :   -0.004794
  84 H :    0.015462
  85 H :    0.012468
  86 H :    0.167910
  87 H :    0.012151
  88 H :   -0.000527
  89 H :   -0.006808
  90 H :   -0.003308
  91 H :    0.005617
  92 H :    0.004912
  93 H :    0.015395
  94 H :   -0.018514
  95 H :   -0.007360
  96 H :   -0.005226
Sum of atomic charges:   -0.0000000

LOEWDIN ATOMIC CHARGES
----------------------
   0 C :    0.075715
   1 C :   -0.129594
   2 C :   -0.017332
   3 N :   -0.047975
   4 C :   -0.021535
   5 N :   -0.039384
   6 C :   -0.021709
   7 C :   -0.048477
   8 C :    0.021129
   9 C :   -0.029242
  10 C :   -0.142904
  11 C :   -0.010311
  12 S :    0.431543
  13 C :   -0.270927
  14 C :   -0.069152
  15 Br:    0.137152
  16 C :    0.085177
  17 O :   -0.120848
  18 C :   -0.061480
  19 C :    0.072225
  20 C :    0.018504
  21 N :   -0.085265
  22 C :    0.054178
  23 C :   -0.046375
  24 C :    0.036449
  25 N :   -0.070737
  26 C :   -0.039611
  27 C :   -0.005237
  28 C :   -0.161184
  29 S :    0.452719
  30 C :   -0.172891
  31 C :   -0.069851
  32 C :   -0.074890
  33 C :   -0.117237
  34 S :    0.195643
  35 C :   -0.038810
  36 C :   -0.039887
  37 C :    0.063929
  38 O :   -0.113773
  39 C :   -0.040212
  40 C :   -0.164786
  41 C :   -0.007246
  42 C :   -0.043928
  43 C :   -0.149630
  44 S :    0.387238
  45 C :   -0.190935
  46 C :   -0.006100
  47 C :   -0.038265
  48 C :   -0.098881
  49 S :    0.402294
  50 C :   -0.070902
  51 C :    0.047519
  52 C :   -0.110392
  53 C :    0.069801
  54 C :   -0.152587
  55 C :   -0.019584
  56 N :   -0.064207
  57 C :   -0.022034
  58 N :   -0.062664
  59 C :   -0.015240
  60 C :   -0.051760
  61 C :    0.081984
  62 O :   -0.170732
  63 C :    0.017677
  64 C :   -0.036671
  65 C :   -0.144655
  66 C :   -0.015148
  67 S :    0.428631
  68 C :   -0.274415
  69 C :   -0.070824
  70 Br:    0.131688
  71 H :    0.034131
  72 H :    0.040941
  73 H :    0.038096
  74 H :    0.050285
  75 H :    0.028855
  76 H :    0.042040
  77 H :    0.021642
  78 H :    0.028305
  79 H :    0.036082
  80 H :   -0.031983
  81 H :    0.031150
  82 H :    0.021673
  83 H :    0.020353
  84 H :    0.030849
  85 H :    0.030613
  86 H :    0.077584
  87 H :    0.042942
  88 H :    0.038708
  89 H :    0.035244
  90 H :    0.036985
  91 H :    0.040891
  92 H :    0.037045
  93 H :    0.029080
  94 H :    0.037828
  95 H :    0.039987
  96 H :    0.037894

  Mayer bond orders larger than 0.100000
B(  0-C ,  1-C ) :   1.6642 B(  0-C ,  6-C ) :   1.0168 B(  0-C , 18-C ) :   1.0275
B(  1-C ,  2-C ) :   1.1356 B(  1-C ,  4-C ) :   1.1396 B(  2-C ,  3-N ) :   2.9774
B(  4-C ,  5-N ) :   2.9835 B(  6-C ,  7-C ) :   1.2742 B(  6-C , 11-C ) :   1.3949
B(  7-C ,  8-C ) :   1.4239 B(  7-C , 16-C ) :   0.9335 B(  8-C ,  9-C ) :   1.2561
B(  8-C , 71-H ) :   1.0074 B(  9-C , 10-C ) :   1.2984 B(  9-C , 14-C ) :   1.1641
B( 10-C , 11-C ) :   1.3420 B( 10-C , 12-S ) :   1.0834 B( 11-C , 72-H ) :   0.9801
B( 12-S , 13-C ) :   1.0853 B( 13-C , 14-C ) :   1.6186 B( 13-C , 15-Br) :   1.0186
B( 14-C , 73-H ) :   0.9999 B( 16-C , 17-O ) :   2.2608 B( 16-C , 18-C ) :   0.9065
B( 18-C , 19-C ) :   1.8009 B( 19-C , 20-C ) :   0.9646 B( 19-C , 74-H ) :   0.9355
B( 20-C , 21-N ) :   1.5154 B( 20-C , 25-N ) :   1.5199 B( 21-N , 22-C ) :   1.5244
B( 22-C , 23-C ) :   1.3915 B( 22-C , 75-H ) :   0.9789 B( 23-C , 24-C ) :   1.3146
B( 23-C , 76-H ) :   0.9770 B( 24-C , 25-N ) :   1.5075 B( 24-C , 26-C ) :   1.0899
B( 26-C , 27-C ) :   1.6779 B( 26-C , 77-H ) :   0.9686 B( 27-C , 28-C ) :   1.1401
B( 27-C , 78-H ) :   0.9621 B( 28-C , 29-S ) :   1.1247 B( 28-C , 32-C ) :   1.4339
B( 29-S , 30-C ) :   1.0968 B( 30-C , 31-C ) :   1.4385 B( 30-C , 39-C ) :   1.2176
B( 31-C , 32-C ) :   1.3791 B( 31-C , 37-C ) :   0.9561 B( 32-C , 33-C ) :   0.9545
B( 33-C , 34-S ) :   1.0444 B( 33-C , 35-C ) :   1.0269 B( 33-C , 79-H ) :   0.9003
B( 34-S , 80-H ) :   0.9539 B( 35-C , 36-C ) :   1.0541 B( 35-C , 81-H ) :   0.9274
B( 35-C , 82-H ) :   0.9380 B( 36-C , 37-C ) :   1.0780 B( 36-C , 83-H ) :   0.9320
B( 36-C , 84-H ) :   0.9286 B( 37-C , 38-O ) :   1.0097 B( 37-C , 85-H ) :   0.8877
B( 38-O , 86-H ) :   0.9756 B( 39-C , 40-C ) :   1.5270 B( 39-C , 87-H ) :   0.9583
B( 40-C , 41-C ) :   1.1554 B( 40-C , 44-S ) :   1.0298 B( 41-C , 42-C ) :   1.5727
B( 41-C , 88-H ) :   0.9990 B( 42-C , 43-C ) :   1.2000 B( 42-C , 89-H ) :   0.9952
B( 43-C , 44-S ) :   1.0718 B( 43-C , 45-C ) :   1.4589 B( 45-C , 46-C ) :   1.2258
B( 45-C , 49-S ) :   1.0444 B( 46-C , 47-C ) :   1.5355 B( 46-C , 90-H ) :   0.9964
B( 47-C , 48-C ) :   1.1846 B( 47-C , 91-H ) :   1.0010 B( 48-C , 49-S ) :   1.0874
B( 48-C , 50-C ) :   1.4826 B( 50-C , 51-C ) :   1.2275 B( 50-C , 92-H ) :   0.9676
B( 51-C , 52-C ) :   1.5275 B( 51-C , 93-H ) :   0.9231 B( 52-C , 53-C ) :   1.0751
B( 52-C , 61-C ) :   0.9754 B( 53-C , 54-C ) :   1.6040 B( 53-C , 59-C ) :   1.0000
B( 54-C , 55-C ) :   1.1316 B( 54-C , 57-C ) :   1.1767 B( 55-C , 56-N ) :   2.9736
B( 57-C , 58-N ) :   2.9952 B( 59-C , 60-C ) :   1.2744 B( 59-C , 66-C ) :   1.4230
B( 60-C , 61-C ) :   0.9282 B( 60-C , 63-C ) :   1.4314 B( 61-C , 62-O ) :   2.1995
B( 63-C , 64-C ) :   1.2442 B( 63-C , 94-H ) :   1.0156 B( 64-C , 65-C ) :   1.3153
B( 64-C , 69-C ) :   1.1610 B( 65-C , 66-C ) :   1.3191 B( 65-C , 67-S ) :   1.0842
B( 66-C , 95-H ) :   0.9806 B( 67-S , 68-C ) :   1.0857 B( 68-C , 69-C ) :   1.6216
B( 68-C , 70-Br) :   1.0145 B( 69-C , 96-H ) :   0.9997

-----------------------------------------------------------------------------
         ABSORPTION SPECTRUM VIA TRANSITION ELECTRIC DIPOLE MOMENTS
-----------------------------------------------------------------------------
State   Energy  Wavelength   fosc         T2         TX        TY        TZ
        (cm-1)    (nm)                  (au**2)     (au)      (au)      (au)
-----------------------------------------------------------------------------
   0   10708.0    933.9   0.891164666  27.39841   3.07137  -3.93440   1.57658
   1   19558.2    511.3   0.000759831   0.01279   0.11218  -0.01410  -0.00272
   2   20244.0    494.0   0.010484042   0.17049  -0.14068   0.34432  -0.17929
   3   21266.9    470.2   0.697658174  10.79978  -1.86829  -2.46623   1.10769
   4   23442.6    426.6   0.244082133   3.42772  -1.20681  -1.31565   0.49030
   5   24791.6    403.4   0.692052949   9.18989  -1.86354  -1.83802   1.52931
   6   26522.9    377.0   0.003595627   0.04463   0.09780  -0.16056   0.09636
   7   26704.3    374.5   0.009736623   0.12003   0.09302   0.28657  -0.17105
   8   27437.2    364.5   0.001723809   0.02068   0.11886   0.07984   0.01352
   9   27566.2    362.8   0.021272218   0.25405   0.21787  -0.28273   0.35587
  10   28143.1    355.3   0.006646572   0.07775  -0.13578   0.23174   0.07490
  11   28258.3    353.9   0.022829802   0.26597  -0.20819   0.06013  -0.46798
  12   28306.6    353.3   0.353311590   4.10909  -0.01136   1.12560  -1.68582
  13   28710.9    348.3   0.027974647   0.32077  -0.40729  -0.21171   0.33177
  14   29257.2    341.8   0.012724703   0.14318  -0.04897  -0.37488   0.01592
  15   29328.3    341.0   0.129433619   1.45290   0.55502  -0.92891   0.53101
  16   30245.2    330.6   0.044422379   0.48353   0.38230   0.13579  -0.56474
  17   30331.6    329.7   0.094846121   1.02944  -0.91649  -0.32593   0.28854
  18   30493.6    327.9   0.054098305   0.58405  -0.70466  -0.22063   0.19705
  19   30699.6    325.7   0.011553385   0.12389  -0.25504   0.16404  -0.17871
  20   31195.1    320.6   0.113016460   1.19270   0.48537   0.80539  -0.55540
  21   31420.3    318.3   0.011673774   0.12231   0.34573  -0.02814   0.04468
  22   31554.2    316.9   0.223280614   2.32953  -0.67999  -0.96918   0.96324
  23   31833.8    314.1   0.004116865   0.04257  -0.17434   0.02130   0.10830
  24   32067.5    311.8   0.307149911   3.15326  -1.19066  -0.51172   1.21397
  25   32656.1    306.2   0.054866179   0.55312   0.67699  -0.15216  -0.26766
  26   32895.0    304.0   0.034885512   0.34913   0.54391  -0.14998  -0.17551
  27   33278.2    300.5   0.003664064   0.03625  -0.02303  -0.18302   0.04712
  28   33706.1    296.7   0.016990811   0.16595   0.15778  -0.18142   0.32885
  29   33975.2    294.3   0.184847703   1.79113   1.31335  -0.04594  -0.25325
  30   34272.3    291.8   0.563193988   5.40991   0.36012   0.81214  -2.14957
  31   34653.6    288.6   0.003853195   0.03661  -0.18278  -0.02614  -0.05013
  32   34788.3    287.5   0.008708780   0.08241   0.19722   0.11310  -0.17529
  33   34854.9    286.9   0.251151970   2.37218   0.36264  -1.24126   0.83663
  34   34991.4    285.8   0.006441397   0.06060   0.23037   0.07816   0.03773
  35   35153.8    284.5   0.118620187   1.11087  -0.34238   0.64870  -0.75686
  36   35297.1    283.3   0.134112054   1.25085   1.01197  -0.45807  -0.13011
  37   36045.3    277.4   0.001706063   0.01558  -0.11561  -0.00715  -0.04653
  38   36864.2    271.3   0.007695811   0.06873  -0.18903   0.17907   0.03048
  39   37022.8    270.1   0.004967399   0.04417   0.04151  -0.16673   0.12104
  40   37250.0    268.5   0.020059205   0.17728  -0.19705   0.22435  -0.29685
  41   37374.7    267.6   0.118281075   1.04187   0.97505  -0.22748  -0.19852
  42   37818.6    264.4   0.057852903   0.50361   0.62790  -0.23686   0.23076
  43   37999.2    263.2   0.008379493   0.07260   0.14552  -0.05538  -0.21990
  44   38200.5    261.8   0.025540394   0.22011  -0.22316   0.26759  -0.31417
  45   38300.1    261.1   0.054247677   0.46629  -0.68102  -0.04881  -0.01072
  46   38398.4    260.4   0.033623055   0.28827   0.20787  -0.44063   0.22563
  47   38591.2    259.1   0.162465317   1.38595   1.05793  -0.22191  -0.46635
  48   38848.2    257.4   0.000963181   0.00816   0.04801  -0.07168  -0.02682
  49   38989.4    256.5   0.057383665   0.48453  -0.16518   0.61950  -0.27104
  50   39222.6    255.0   0.022020504   0.18483   0.24670  -0.33882   0.09577
  51   39573.8    252.7   0.101726964   0.84626   0.33109  -0.33791   0.78896
  52   39950.4    250.3   0.043397175   0.35761   0.20445   0.35228  -0.43785
  53   40108.2    249.3   0.184763723   1.51656   0.73875  -0.85520   0.48932
  54   40310.0    248.1   0.217048410   1.77263   1.16788  -0.56234   0.30407

FINAL SINGLE POINT ENERGY    -10160.489505975875

DIPOLE MOMENT
-------------
                                X             Y             Z
Electronic contribution:    -75.43566     -87.22830      27.20798
Nuclear contribution   :     76.00423      92.60418     -29.20733
                        -----------------------------------------
Total Dipole Moment    :      0.56857       5.37588      -1.99934
                        -----------------------------------------
Magnitude (a.u.)       :      5.76375
Magnitude (Debye)      :     14.65028

Rotational constants in cm-1:     0.000786     0.000293     0.000223
Rotational constants in MHz :    23.559052     8.783616     6.681404

                             ****ORCA TERMINATED NORMALLY****
TOTAL RUN TIME: 0 days 0 hours 9 minutes 43 seconds 113 msec
