                         Program Version 4.2.0 -  RELEASE  -
|  1> # ORCA input file
|  2> # SCF done       -191.113121241582          0.000884831069
|  3> ! CAM-B3LYP def2-SVP def2/J RIJCOSX Grid4 TightSCF
|  4> %maxcore 5000
|  5> %tddft
|  6>     Mode sTDDFT
|  7>     Ethresh 5.0
|  8>     maxcore 5000
|  9> end
| 10>
| 11> %pal
| 12>   nprocs 6
| 13>   end
| 14> * xyz 0 1
| 15>    C       -1.67268        -8.49425       -10.45293
| 16>    C       -0.55817        -9.04882       -11.01654
| 17>    F       -0.55878        -9.39560       -12.30914
| 18>    C        0.60482        -9.26248       -10.24793
| 19>    F        1.68194        -9.80659       -10.82774
| 20>    C        0.63660        -8.91786        -8.92592
| 21>    C       -0.49557        -8.34252        -8.31622
| 22>    C       -1.67279        -8.12753        -9.09154
| 23>    C       -2.82117        -7.55457        -8.50087
| 24>    C       -2.79450        -7.20713        -7.17456
| 25>    C       -1.61196        -7.41743        -6.41098
| 26>    C       -0.48695        -7.96897        -6.95497
| 27>    C       -1.81725        -6.94351        -5.03275
| 28>    O       -0.99283        -6.89840        -4.14874
| 29>    C       -3.21536        -6.41399        -4.99939
| 30>    C       -3.81275        -6.62131        -6.31199
| 31>    C       -5.11905        -6.39757        -6.64420
| 32>    C       -6.10442        -5.91948        -5.75179
| 33>    N       -6.95571        -5.55401        -5.07492
| 34>    C       -5.66297        -6.65090        -7.92278
| 35>    N       -6.15434        -6.83178        -8.94353
| 36>    C       -3.72968        -5.71032        -3.96622
| 37>    C       -3.13948        -5.67824        -2.64946
| 38>    C       -2.99672        -4.52305        -1.89348
| 39>    C       -3.33081        -3.23475        -2.30842
| 40>    N       -3.61413        -2.18168        -2.66870
| 41>    S       -2.24170        -4.81762        -0.35903
| 42>    C       -2.16023        -6.52696        -0.68231
| 43>    C       -2.67694        -6.81780        -1.94787
| 44>    C       -2.78649        -8.12353        -2.44805
| 45>    N       -2.90198        -9.18697        -2.86435
| 46>    C       -1.63678        -7.47565         0.21239
| 47>    C       -1.06925        -7.23628         1.43542
| 48>    C       -0.53957        -8.23002         2.30498
| 49>    C       -0.00232        -7.73973         3.45085
| 50>    C       -0.07533        -6.32824         3.55897
| 51>    S       -0.86534        -5.64984         2.14946
| 52>    C        0.39223        -5.53066         4.57813
| 53>    C        1.05294        -5.93557         5.76803
| 54>    C        1.40841        -4.90790         6.57555
| 55>    C        1.03593        -3.61916         6.08578
| 56>    S        0.23361        -3.79046         4.53162
| 57>    C        1.34540        -2.43620         6.68348
| 58>    C        0.95916        -1.12542         6.25800
| 59>    C        1.80230        -0.02700         6.40999
| 60>    C        3.09868        -0.06038         6.92170
| 61>    N        4.16464        -0.10306         7.34670
| 62>    S        1.11167         1.45030         5.83452
| 63>    C       -0.35949         0.63310         5.41201
| 64>    C       -0.27844        -0.72789         5.67472
| 65>    C       -1.42037        -1.53901         5.54387
| 66>    N       -2.38678        -2.15045         5.46359
| 67>    C       -1.46584         1.29693         4.80382
| 68>    C       -1.84495         2.58977         4.92503
| 69>    C       -2.74715         3.19350         3.89225
| 70>    O       -3.39766         2.59733         3.07177
| 71>    C       -2.59904         4.65089         4.06672
| 72>    C       -3.10350         5.65978         3.29650
| 73>    C       -2.81302         6.99808         3.64228
| 74>    C       -1.99533         7.26703         4.77947
| 75>    C       -1.70357         8.60510         5.11310
| 76>    C       -2.20319         9.62785         4.35674
| 77>    C       -3.01402         9.36095         3.23384
| 78>    C       -3.31315         8.07425         2.88310
| 79>    F       -3.48808        10.38269         2.51210
| 80>    F       -1.92665        10.89712         4.67514
| 81>    C       -1.49194         6.20346         5.56196
| 82>    C       -1.79656         4.91404         5.21479
| 83>    C       -1.46239         3.64344         5.84858
| 84>    C       -1.12259         3.47509         7.16284
| 85>    C       -1.07141         2.21260         7.79149
| 86>    N       -1.05147         1.20128         8.33325
| 87>    C       -0.87092         4.54455         8.04841
| 88>    N       -0.64131         5.38369         8.79573
| 89>    H       -2.55441        -8.33946       -11.05498
| 90>    H        1.53365        -9.08742        -8.35128
| 91>    H       -3.69384        -7.39912        -9.11445
| 92>    H        0.39508        -8.11914        -6.35131
| 93>    H       -4.62343        -5.11321        -4.09824
| 94>    H       -1.67990        -8.50490        -0.12162
| 95>    H       -0.57695        -9.27230         2.04283
| 96>    H        0.44461        -8.34529         4.21823
| 97>    H        1.24446        -6.97104         5.98390
| 98>    H        1.91702        -5.01439         7.51697
| 99>    H        2.00918        -2.47386         7.53796
|100>    H       -2.04439         0.69957         4.10382
|101>    H       -3.71628         5.43874         2.43596
|102>    H       -1.08849         8.82729         5.97110
|103>    H       -3.93444         7.88673         2.02141
|104>    H       -0.86850         6.43233         6.41176
|105> *
|106>
|107>                          ****END OF INPUT****

CARTESIAN COORDINATES (ANGSTROEM)
---------------------------------
  C     -1.672680   -8.494250  -10.452930
  C     -0.558170   -9.048820  -11.016540
  F     -0.558780   -9.395600  -12.309140
  C      0.604820   -9.262480  -10.247930
  F      1.681940   -9.806590  -10.827740
  C      0.636600   -8.917860   -8.925920
  C     -0.495570   -8.342520   -8.316220
  C     -1.672790   -8.127530   -9.091540
  C     -2.821170   -7.554570   -8.500870
  C     -2.794500   -7.207130   -7.174560
  C     -1.611960   -7.417430   -6.410980
  C     -0.486950   -7.968970   -6.954970
  C     -1.817250   -6.943510   -5.032750
  O     -0.992830   -6.898400   -4.148740
  C     -3.215360   -6.413990   -4.999390
  C     -3.812750   -6.621310   -6.311990
  C     -5.119050   -6.397570   -6.644200
  C     -6.104420   -5.919480   -5.751790
  N     -6.955710   -5.554010   -5.074920
  C     -5.662970   -6.650900   -7.922780
  N     -6.154340   -6.831780   -8.943530
  C     -3.729680   -5.710320   -3.966220
  C     -3.139480   -5.678240   -2.649460
  C     -2.996720   -4.523050   -1.893480
  C     -3.330810   -3.234750   -2.308420
  N     -3.614130   -2.181680   -2.668700
  S     -2.241700   -4.817620   -0.359030
  C     -2.160230   -6.526960   -0.682310
  C     -2.676940   -6.817800   -1.947870
  C     -2.786490   -8.123530   -2.448050
  N     -2.901980   -9.186970   -2.864350
  C     -1.636780   -7.475650    0.212390
  C     -1.069250   -7.236280    1.435420
  C     -0.539570   -8.230020    2.304980
  C     -0.002320   -7.739730    3.450850
  C     -0.075330   -6.328240    3.558970
  S     -0.865340   -5.649840    2.149460
  C      0.392230   -5.530660    4.578130
  C      1.052940   -5.935570    5.768030
  C      1.408410   -4.907900    6.575550
  C      1.035930   -3.619160    6.085780
  S      0.233610   -3.790460    4.531620
  C      1.345400   -2.436200    6.683480
  C      0.959160   -1.125420    6.258000
  C      1.802300   -0.027000    6.409990
  C      3.098680   -0.060380    6.921700
  N      4.164640   -0.103060    7.346700
  S      1.111670    1.450300    5.834520
  C     -0.359490    0.633100    5.412010
  C     -0.278440   -0.727890    5.674720
  C     -1.420370   -1.539010    5.543870
  N     -2.386780   -2.150450    5.463590
  C     -1.465840    1.296930    4.803820
  C     -1.844950    2.589770    4.925030
  C     -2.747150    3.193500    3.892250
  O     -3.397660    2.597330    3.071770
  C     -2.599040    4.650890    4.066720
  C     -3.103500    5.659780    3.296500
  C     -2.813020    6.998080    3.642280
  C     -1.995330    7.267030    4.779470
  C     -1.703570    8.605100    5.113100
  C     -2.203190    9.627850    4.356740
  C     -3.014020    9.360950    3.233840
  C     -3.313150    8.074250    2.883100
  F     -3.488080   10.382690    2.512100
  F     -1.926650   10.897120    4.675140
  C     -1.491940    6.203460    5.561960
  C     -1.796560    4.914040    5.214790
  C     -1.462390    3.643440    5.848580
  C     -1.122590    3.475090    7.162840
  C     -1.071410    2.212600    7.791490
  N     -1.051470    1.201280    8.333250
  C     -0.870920    4.544550    8.048410
  N     -0.641310    5.383690    8.795730
  H     -2.554410   -8.339460  -11.054980
  H      1.533650   -9.087420   -8.351280
  H     -3.693840   -7.399120   -9.114450
  H      0.395080   -8.119140   -6.351310
  H     -4.623430   -5.113210   -4.098240
  H     -1.679900   -8.504900   -0.121620
  H     -0.576950   -9.272300    2.042830
  H      0.444610   -8.345290    4.218230
  H      1.244460   -6.971040    5.983900
  H      1.917020   -5.014390    7.516970
  H      2.009180   -2.473860    7.537960
  H     -2.044390    0.699570    4.103820
  H     -3.716280    5.438740    2.435960
  H     -1.088490    8.827290    5.971100
  H     -3.934440    7.886730    2.021410
  H     -0.868500    6.432330    6.411760

 Total Charge           Charge          ....    0
 Multiplicity           Mult            ....    1
 Number of Electrons    NEL             ....  524
 Basis Dimension        Dim             .... 1132

ORBITAL ENERGIES
----------------

  NO   OCC          E(Eh)            E(eV)
   0   2.0000     -89.011356     -2422.1221
   1   2.0000     -88.996445     -2421.7164
   2   2.0000     -88.972119     -2421.0544
   3   2.0000     -88.968362     -2420.9522
   4   2.0000     -24.808130      -675.0635
   5   2.0000     -24.807669      -675.0510
   6   2.0000     -24.802957      -674.9228
   7   2.0000     -24.802221      -674.9027
   8   2.0000     -19.235411      -523.4221
   9   2.0000     -19.228424      -523.2320
  10   2.0000     -14.434772      -392.7901
  11   2.0000     -14.434376      -392.7793
  12   2.0000     -14.430276      -392.6678
  13   2.0000     -14.426227      -392.5576
  14   2.0000     -14.425487      -392.5375
  15   2.0000     -14.424344      -392.5063
  16   2.0000     -14.419916      -392.3859
  17   2.0000     -14.413723      -392.2173
  18   2.0000     -10.392645      -282.7982
  19   2.0000     -10.392312      -282.7892
  20   2.0000     -10.386816      -282.6396
  21   2.0000     -10.386552      -282.6324
  22   2.0000     -10.386245      -282.6241
  23   2.0000     -10.379815      -282.4491
  24   2.0000     -10.367069      -282.1023
  25   2.0000     -10.363049      -281.9929
  26   2.0000     -10.361524      -281.9514
  27   2.0000     -10.360161      -281.9143
  28   2.0000     -10.356126      -281.8045
  29   2.0000     -10.351100      -281.6678
  30   2.0000     -10.349165      -281.6151
  31   2.0000     -10.348231      -281.5897
  32   2.0000     -10.346294      -281.5370
  33   2.0000     -10.344038      -281.4756
  34   2.0000     -10.341222      -281.3990
  35   2.0000     -10.339193      -281.3437
  36   2.0000     -10.338902      -281.3358
  37   2.0000     -10.337661      -281.3021
  38   2.0000     -10.335949      -281.2555
  39   2.0000     -10.335688      -281.2484
  40   2.0000     -10.335320      -281.2384
  41   2.0000     -10.332262      -281.1551
  42   2.0000     -10.330907      -281.1183
  43   2.0000     -10.330508      -281.1074
  44   2.0000     -10.327521      -281.0261
  45   2.0000     -10.327050      -281.0133
  46   2.0000     -10.326443      -280.9968
  47   2.0000     -10.325675      -280.9759
  48   2.0000     -10.325175      -280.9623
  49   2.0000     -10.324328      -280.9393
  50   2.0000     -10.323981      -280.9298
  51   2.0000     -10.323370      -280.9132
  52   2.0000     -10.321160      -280.8530
  53   2.0000     -10.317778      -280.7610
  54   2.0000     -10.317538      -280.7545
  55   2.0000     -10.317127      -280.7433
  56   2.0000     -10.316815      -280.7348
  57   2.0000     -10.316498      -280.7262
  58   2.0000     -10.315156      -280.6897
  59   2.0000     -10.314671      -280.6765
  60   2.0000     -10.313631      -280.6482
  61   2.0000     -10.312160      -280.6081
  62   2.0000     -10.312018      -280.6043
  63   2.0000     -10.311535      -280.5911
  64   2.0000     -10.309676      -280.5405
  65   2.0000     -10.309643      -280.5396
  66   2.0000     -10.309444      -280.5342
  67   2.0000     -10.309349      -280.5316
  68   2.0000     -10.309195      -280.5275
  69   2.0000     -10.307149      -280.4718
  70   2.0000     -10.307064      -280.4695
  71   2.0000     -10.306268      -280.4478
  72   2.0000     -10.305499      -280.4269
  73   2.0000     -10.300491      -280.2906
  74   2.0000      -8.105904      -220.5729
  75   2.0000      -8.091213      -220.1731
  76   2.0000      -8.068329      -219.5504
  77   2.0000      -8.064730      -219.4525
  78   2.0000      -6.075266      -165.3164
  79   2.0000      -6.070939      -165.1987
  80   2.0000      -6.068088      -165.1211
  81   2.0000      -6.060657      -164.9189
  82   2.0000      -6.056256      -164.7991
  83   2.0000      -6.053208      -164.7162
  84   2.0000      -6.038114      -164.3054
  85   2.0000      -6.034551      -164.2085
  86   2.0000      -6.033952      -164.1922
  87   2.0000      -6.030420      -164.0961
  88   2.0000      -6.029194      -164.0627
  89   2.0000      -6.025407      -163.9597
  90   2.0000      -1.331561       -36.2336
  91   2.0000      -1.325924       -36.0802
  92   2.0000      -1.316627       -35.8272
  93   2.0000      -1.311020       -35.6747
  94   2.0000      -1.151927       -31.3455
  95   2.0000      -1.144959       -31.1559
  96   2.0000      -1.049823       -28.5671
  97   2.0000      -1.036979       -28.2176
  98   2.0000      -1.034920       -28.1616
  99   2.0000      -1.028227       -27.9795
 100   2.0000      -1.020166       -27.7601
 101   2.0000      -1.019797       -27.7501
 102   2.0000      -1.013275       -27.5726
 103   2.0000      -1.012199       -27.5433
 104   2.0000      -1.011485       -27.5239
 105   2.0000      -1.003024       -27.2937
 106   2.0000      -1.002801       -27.2876
 107   2.0000      -1.002073       -27.2678
 108   2.0000      -0.998466       -27.1696
 109   2.0000      -0.996735       -27.1225
 110   2.0000      -0.990504       -26.9530
 111   2.0000      -0.988717       -26.9043
 112   2.0000      -0.951266       -25.8853
 113   2.0000      -0.943363       -25.6702
 114   2.0000      -0.936843       -25.4928
 115   2.0000      -0.929701       -25.2985
 116   2.0000      -0.921138       -25.0654
 117   2.0000      -0.910974       -24.7889
 118   2.0000      -0.908851       -24.7311
 119   2.0000      -0.904835       -24.6218
 120   2.0000      -0.900270       -24.4976
 121   2.0000      -0.894786       -24.3484
 122   2.0000      -0.890680       -24.2366
 123   2.0000      -0.876800       -23.8589
 124   2.0000      -0.871476       -23.7141
 125   2.0000      -0.860426       -23.4134
 126   2.0000      -0.854349       -23.2480
 127   2.0000      -0.849368       -23.1125
 128   2.0000      -0.846803       -23.0427
 129   2.0000      -0.845131       -22.9972
 130   2.0000      -0.821481       -22.3536
 131   2.0000      -0.811447       -22.0806
 132   2.0000      -0.802602       -21.8399
 133   2.0000      -0.783594       -21.3227
 134   2.0000      -0.775821       -21.1112
 135   2.0000      -0.775021       -21.0894
 136   2.0000      -0.763216       -20.7682
 137   2.0000      -0.754721       -20.5370
 138   2.0000      -0.747181       -20.3318
 139   2.0000      -0.736316       -20.0362
 140   2.0000      -0.735540       -20.0151
 141   2.0000      -0.732386       -19.9292
 142   2.0000      -0.724664       -19.7191
 143   2.0000      -0.719246       -19.5717
 144   2.0000      -0.708186       -19.2707
 145   2.0000      -0.702321       -19.1111
 146   2.0000      -0.699176       -19.0256
 147   2.0000      -0.696168       -18.9437
 148   2.0000      -0.690060       -18.7775
 149   2.0000      -0.673553       -18.3283
 150   2.0000      -0.667826       -18.1725
 151   2.0000      -0.666981       -18.1495
 152   2.0000      -0.660239       -17.9660
 153   2.0000      -0.656309       -17.8591
 154   2.0000      -0.650911       -17.7122
 155   2.0000      -0.647659       -17.6237
 156   2.0000      -0.643854       -17.5202
 157   2.0000      -0.641164       -17.4469
 158   2.0000      -0.635007       -17.2794
 159   2.0000      -0.629360       -17.1258
 160   2.0000      -0.625883       -17.0311
 161   2.0000      -0.621739       -16.9184
 162   2.0000      -0.615760       -16.7557
 163   2.0000      -0.605760       -16.4836
 164   2.0000      -0.605020       -16.4634
 165   2.0000      -0.598372       -16.2825
 166   2.0000      -0.595758       -16.2114
 167   2.0000      -0.594378       -16.1739
 168   2.0000      -0.590210       -16.0604
 169   2.0000      -0.588850       -16.0234
 170   2.0000      -0.585336       -15.9278
 171   2.0000      -0.577876       -15.7248
 172   2.0000      -0.575541       -15.6613
 173   2.0000      -0.569912       -15.5081
 174   2.0000      -0.566433       -15.4134
 175   2.0000      -0.560074       -15.2404
 176   2.0000      -0.557019       -15.1573
 177   2.0000      -0.555379       -15.1126
 178   2.0000      -0.554387       -15.0856
 179   2.0000      -0.553059       -15.0495
 180   2.0000      -0.551677       -15.0119
 181   2.0000      -0.551005       -14.9936
 182   2.0000      -0.547275       -14.8921
 183   2.0000      -0.545344       -14.8396
 184   2.0000      -0.543046       -14.7770
 185   2.0000      -0.540091       -14.6966
 186   2.0000      -0.537458       -14.6250
 187   2.0000      -0.533010       -14.5039
 188   2.0000      -0.532175       -14.4812
 189   2.0000      -0.528388       -14.3782
 190   2.0000      -0.527429       -14.3521
 191   2.0000      -0.524894       -14.2831
 192   2.0000      -0.523557       -14.2467
 193   2.0000      -0.520975       -14.1765
 194   2.0000      -0.519848       -14.1458
 195   2.0000      -0.517912       -14.0931
 196   2.0000      -0.517197       -14.0737
 197   2.0000      -0.513074       -13.9614
 198   2.0000      -0.509711       -13.8700
 199   2.0000      -0.506339       -13.7782
 200   2.0000      -0.503455       -13.6997
 201   2.0000      -0.499044       -13.5797
 202   2.0000      -0.498543       -13.5660
 203   2.0000      -0.497462       -13.5366
 204   2.0000      -0.493138       -13.4190
 205   2.0000      -0.489578       -13.3221
 206   2.0000      -0.483524       -13.1573
 207   2.0000      -0.480544       -13.0763
 208   2.0000      -0.476833       -12.9753
 209   2.0000      -0.476290       -12.9605
 210   2.0000      -0.474158       -12.9025
 211   2.0000      -0.469757       -12.7827
 212   2.0000      -0.468500       -12.7485
 213   2.0000      -0.467466       -12.7204
 214   2.0000      -0.463439       -12.6108
 215   2.0000      -0.461829       -12.5670
 216   2.0000      -0.459967       -12.5163
 217   2.0000      -0.457740       -12.4557
 218   2.0000      -0.457229       -12.4418
 219   2.0000      -0.457095       -12.4382
 220   2.0000      -0.454021       -12.3545
 221   2.0000      -0.452698       -12.3185
 222   2.0000      -0.452105       -12.3024
 223   2.0000      -0.451354       -12.2820
 224   2.0000      -0.447429       -12.1752
 225   2.0000      -0.446766       -12.1571
 226   2.0000      -0.444218       -12.0878
 227   2.0000      -0.443765       -12.0754
 228   2.0000      -0.442255       -12.0344
 229   2.0000      -0.440525       -11.9873
 230   2.0000      -0.436405       -11.8752
 231   2.0000      -0.435817       -11.8592
 232   2.0000      -0.433916       -11.8075
 233   2.0000      -0.432241       -11.7619
 234   2.0000      -0.430684       -11.7195
 235   2.0000      -0.429709       -11.6930
 236   2.0000      -0.426617       -11.6088
 237   2.0000      -0.423824       -11.5328
 238   2.0000      -0.419733       -11.4215
 239   2.0000      -0.418847       -11.3974
 240   2.0000      -0.417347       -11.3566
 241   2.0000      -0.411174       -11.1886
 242   2.0000      -0.409078       -11.1316
 243   2.0000      -0.406244       -11.0545
 244   2.0000      -0.398330       -10.8391
 245   2.0000      -0.391986       -10.6665
 246   2.0000      -0.384107       -10.4521
 247   2.0000      -0.374384       -10.1875
 248   2.0000      -0.369212       -10.0468
 249   2.0000      -0.358348        -9.7512
 250   2.0000      -0.354729        -9.6527
 251   2.0000      -0.354176        -9.6376
 252   2.0000      -0.349571        -9.5123
 253   2.0000      -0.345962        -9.4141
 254   2.0000      -0.331053        -9.0084
 255   2.0000      -0.327001        -8.8982
 256   2.0000      -0.324651        -8.8342
 257   2.0000      -0.320502        -8.7213
 258   2.0000      -0.314405        -8.5554
 259   2.0000      -0.306042        -8.3278
 260   2.0000      -0.302325        -8.2267
 261   2.0000      -0.244546        -6.6544
 262   0.0000      -0.120592        -3.2815
 263   0.0000      -0.107527        -2.9260
 264   0.0000      -0.102761        -2.7963
 265   0.0000      -0.075541        -2.0556
 266   0.0000      -0.068050        -1.8517

MULLIKEN ATOMIC CHARGES
-----------------------
   0 C :   -0.109024
   1 C :    0.245533
   2 F :   -0.168069
   3 C :    0.241411
   4 F :   -0.169721
   5 C :   -0.104729
   6 C :    0.118343
   7 C :    0.117619
   8 C :   -0.087599
   9 C :    0.058779
  10 C :   -0.003879
  11 C :   -0.074358
  12 C :    0.155047
  13 O :   -0.132206
  14 C :   -0.070845
  15 C :    0.300398
  16 C :   -0.327926
  17 C :   -0.195333
  18 N :    0.175788
  19 C :   -0.178174
  20 N :    0.156832
  21 C :   -0.054385
  22 C :    0.226827
  23 C :   -0.290837
  24 C :   -0.184318
  25 N :    0.150817
  26 S :    0.208779
  27 C :   -0.034740
  28 C :   -0.044054
  29 C :   -0.262971
  30 N :    0.162020
  31 C :   -0.044126
  32 C :   -0.016699
  33 C :    0.031108
  34 C :    0.045054
  35 C :   -0.038237
  36 S :    0.083037
  37 C :   -0.052413
  38 C :    0.044250
  39 C :    0.044859
  40 C :   -0.009177
  41 S :    0.115700
  42 C :   -0.085931
  43 C :    0.233199
  44 C :   -0.286420
  45 C :   -0.186127
  46 N :    0.155232
  47 S :    0.253217
  48 C :   -0.114996
  49 C :   -0.016136
  50 C :   -0.257873
  51 N :    0.183575
  52 C :    0.034750
  53 C :   -0.119898
  54 C :    0.139598
  55 O :   -0.118625
  56 C :    0.011179
  57 C :   -0.074042
  58 C :    0.109375
  59 C :    0.111184
  60 C :   -0.105241
  61 C :    0.242650
  62 C :    0.241816
  63 C :   -0.099070
  64 F :   -0.166559
  65 F :   -0.166148
  66 C :   -0.075756
  67 C :    0.040467
  68 C :    0.244148
  69 C :   -0.307986
  70 C :   -0.190277
  71 N :    0.176521
  72 C :   -0.172943
  73 N :    0.167045
  74 H :    0.008742
  75 H :    0.001816
  76 H :   -0.003501
  77 H :   -0.006824
  78 H :    0.058336
  79 H :    0.016282
  80 H :    0.003677
  81 H :   -0.002609
  82 H :   -0.001988
  83 H :    0.004100
  84 H :    0.025015
  85 H :    0.054971
  86 H :   -0.000874
  87 H :    0.009919
  88 H :    0.004489
  89 H :    0.000140
Sum of atomic charges:   -0.0000000

LOEWDIN ATOMIC CHARGES
----------------------
   0 C :   -0.028574
   1 C :    0.068709
   2 F :   -0.046232
   3 C :    0.069349
   4 F :   -0.047100
   5 C :   -0.031695
   6 C :   -0.006992
   7 C :   -0.004120
   8 C :    0.019849
   9 C :   -0.021611
  10 C :   -0.050842
  11 C :    0.036814
  12 C :    0.090332
  13 O :   -0.124109
  14 C :   -0.060982
  15 C :    0.073187
  16 C :   -0.118980
  17 C :   -0.022957
  18 N :   -0.034022
  19 C :   -0.015821
  20 N :   -0.041269
  21 C :    0.071633
  22 C :   -0.007737
  23 C :   -0.214334
  24 C :   -0.059164
  25 N :   -0.036434
  26 S :    0.495083
  27 C :   -0.122412
  28 C :   -0.094190
  29 C :   -0.031247
  30 N :   -0.057946
  31 C :   -0.078425
  32 C :   -0.129663
  33 C :   -0.025507
  34 C :   -0.019541
  35 C :   -0.173728
  36 S :    0.381059
  37 C :   -0.162271
  38 C :   -0.018806
  39 C :   -0.017392
  40 C :   -0.121515
  41 S :    0.408636
  42 C :   -0.060988
  43 C :   -0.003181
  44 C :   -0.208294
  45 C :   -0.056472
  46 N :   -0.031535
  47 S :    0.532258
  48 C :   -0.138151
  49 C :   -0.080313
  50 C :   -0.050666
  51 N :   -0.025864
  52 C :    0.044004
  53 C :   -0.065574
  54 C :    0.085029
  55 O :   -0.119976
  56 C :   -0.056542
  57 C :    0.037300
  58 C :   -0.007430
  59 C :   -0.003768
  60 C :   -0.029382
  61 C :    0.070255
  62 C :    0.070135
  63 C :   -0.030349
  64 F :   -0.044542
  65 F :   -0.044100
  66 C :    0.017795
  67 C :   -0.022123
  68 C :    0.057463
  69 C :   -0.126294
  70 C :   -0.033462
  71 N :   -0.036089
  72 C :   -0.019577
  73 N :   -0.035280
  74 H :    0.048388
  75 H :    0.045802
  76 H :    0.040686
  77 H :    0.042064
  78 H :    0.054622
  79 H :    0.050508
  80 H :    0.040116
  81 H :    0.036786
  82 H :    0.037046
  83 H :    0.040386
  84 H :    0.048123
  85 H :    0.061731
  86 H :    0.043980
  87 H :    0.048595
  88 H :    0.046936
  89 H :    0.040910

  Mayer bond orders larger than 0.100000
B(  0-C ,  1-C ) :   1.4441 B(  0-C ,  5-C ) :   0.1081 B(  0-C ,  7-C ) :   1.1848
B(  0-C , 74-H ) :   1.0069 B(  1-C ,  2-F ) :   1.1381 B(  1-C ,  3-C ) :   1.1866
B(  3-C ,  4-F ) :   1.1349 B(  3-C ,  5-C ) :   1.4449 B(  5-C ,  6-C ) :   1.1906
B(  5-C , 75-H ) :   1.0069 B(  6-C ,  7-C ) :   1.2523 B(  6-C , 11-C ) :   1.1919
B(  7-C ,  8-C ) :   1.2252 B(  8-C ,  9-C ) :   1.4374 B(  8-C , 76-H ) :   0.9898
B(  9-C , 10-C ) :   1.2201 B(  9-C , 15-C ) :   1.0005 B( 10-C , 11-C ) :   1.4690
B( 10-C , 12-C ) :   0.9497 B( 11-C , 77-H ) :   1.0165 B( 12-C , 13-O ) :   2.2306
B( 12-C , 14-C ) :   0.9125 B( 14-C , 15-C ) :   1.0275 B( 14-C , 21-C ) :   1.7170
B( 15-C , 16-C ) :   1.6819 B( 16-C , 17-C ) :   1.1388 B( 16-C , 19-C ) :   1.1376
B( 17-C , 18-N ) :   2.9888 B( 19-C , 20-N ) :   2.9676 B( 21-C , 22-C ) :   1.0588
B( 21-C , 78-H ) :   0.9291 B( 22-C , 23-C ) :   1.4599 B( 22-C , 28-C ) :   1.2964
B( 23-C , 24-C ) :   1.2079 B( 23-C , 26-S ) :   1.1336 B( 24-C , 25-N ) :   2.9947
B( 26-S , 27-C ) :   1.1042 B( 27-C , 28-C ) :   1.4406 B( 27-C , 31-C ) :   1.2078
B( 28-C , 29-C ) :   1.1296 B( 29-C , 30-N ) :   3.0062 B( 31-C , 32-C ) :   1.5625
B( 31-C , 79-H ) :   0.9618 B( 32-C , 33-C ) :   1.1316 B( 32-C , 36-S ) :   1.0523
B( 33-C , 34-C ) :   1.6057 B( 33-C , 80-H ) :   1.0021 B( 34-C , 35-C ) :   1.1693
B( 34-C , 81-H ) :   0.9926 B( 35-C , 36-S ) :   1.0389 B( 35-C , 37-C ) :   1.5446
B( 37-C , 38-C ) :   1.1567 B( 37-C , 41-S ) :   1.0663 B( 38-C , 39-C ) :   1.6306
B( 38-C , 82-H ) :   0.9927 B( 39-C , 40-C ) :   1.1084 B( 39-C , 83-H ) :   0.9991
B( 40-C , 41-S ) :   1.0459 B( 40-C , 42-C ) :   1.6529 B( 42-C , 43-C ) :   1.0912
B( 42-C , 84-H ) :   0.9476 B( 43-C , 44-C ) :   1.4431 B( 43-C , 49-C ) :   1.2497
B( 44-C , 45-C ) :   1.2144 B( 44-C , 47-S ) :   1.1394 B( 44-C , 48-C ) :   0.1099
B( 45-C , 46-N ) :   2.9948 B( 47-S , 48-C ) :   1.1573 B( 48-C , 49-C ) :   1.4706
B( 48-C , 52-C ) :   1.0693 B( 49-C , 50-C ) :   1.1161 B( 50-C , 51-N ) :   3.0204
B( 52-C , 53-C ) :   1.7357 B( 52-C , 85-H ) :   0.9381 B( 53-C , 54-C ) :   0.9164
B( 53-C , 68-C ) :   1.0076 B( 54-C , 55-O ) :   2.2922 B( 54-C , 56-C ) :   0.9207
B( 56-C , 57-C ) :   1.4697 B( 56-C , 67-C ) :   1.2186 B( 57-C , 58-C ) :   1.2008
B( 57-C , 86-H ) :   1.0163 B( 58-C , 59-C ) :   1.2520 B( 58-C , 63-C ) :   1.1932
B( 59-C , 60-C ) :   1.1885 B( 59-C , 66-C ) :   1.2216 B( 60-C , 61-C ) :   1.4445
B( 60-C , 63-C ) :   0.1075 B( 60-C , 87-H ) :   1.0064 B( 61-C , 62-C ) :   1.1867
B( 61-C , 65-F ) :   1.1394 B( 62-C , 63-C ) :   1.4445 B( 62-C , 64-F ) :   1.1392
B( 63-C , 88-H ) :   1.0069 B( 66-C , 67-C ) :   1.4497 B( 66-C , 89-H ) :   0.9941
B( 67-C , 68-C ) :   1.0051 B( 68-C , 69-C ) :   1.6823 B( 69-C , 70-C ) :   1.1531
B( 69-C , 72-C ) :   1.1305 B( 70-C , 71-N ) :   3.0016 B( 72-C , 73-N ) :   2.9910

-----------------------------------------------------------------------------
         ABSORPTION SPECTRUM VIA TRANSITION ELECTRIC DIPOLE MOMENTS
-----------------------------------------------------------------------------
State   Energy  Wavelength   fosc         T2         TX        TY        TZ
        (cm-1)    (nm)                  (au**2)     (au)      (au)      (au)
-----------------------------------------------------------------------------
   0   13696.5    730.1   0.015707189   0.37754  -0.54964   0.26612  -0.06797
   1   15912.5    628.4   1.071545787  22.16910   1.61149   2.29622   3.78148
   2   17565.5    569.3   0.502805281   9.42356  -0.74588  -1.94491  -2.25489
   3   24350.8    410.7   0.163270767   2.20735  -0.97254   1.12133  -0.06433
   4   25002.4    400.0   0.051089687   0.67271   0.00944   0.57653  -0.58329
   5   25407.6    393.6   0.022276666   0.28864   0.28393  -0.04161   0.45420
   6   25864.9    386.6   0.238480223   3.03540   0.83934  -1.47020   0.41163
   7   26031.3    384.2   0.070986377   0.89775   0.50393  -0.29817   0.74491
   8   26118.9    382.9   0.050741079   0.63956   0.40205   0.26024   0.64046
   9   26878.9    372.0   0.075591904   0.92585   0.43127  -0.59157   0.62442
  10   27154.4    368.3   0.086638267   1.05038  -0.51095   0.25419   0.85129
  11   28213.1    354.4   0.125462417   1.46399  -0.23026   1.07222  -0.51120
  12   28792.1    347.3   0.303851460   3.47428   0.06075  -1.67594   0.81351
  13   28840.3    346.7   0.239188957   2.73034  -0.80319   1.44218   0.07297
  14   29137.8    343.2   0.165968919   1.87519   0.15341  -0.94491   0.97919
  15   29840.8    335.1   0.089803417   0.99073   0.13683   0.23278   0.95803
  16   30259.9    330.5   0.059086872   0.64283   0.15347  -0.62838   0.47373
  17   30815.8    324.5   0.132112410   1.41139   0.17446   0.96500   0.67061
  18   32037.3    312.1   0.124636996   1.28076  -0.80906   0.45095  -0.65025
  19   32112.0    311.4   0.015113512   0.15494   0.21325   0.22489   0.24268
  20   32618.1    306.6   0.015142123   0.15283  -0.01548  -0.37269   0.11700
  21   32859.1    304.3   0.328064321   3.28684   0.02727   1.55727  -0.92791
  22   33210.3    301.1   0.122709968   1.21642   0.27765  -0.77760   0.73121
  23   33393.6    299.5   0.047443799   0.46773   0.28314   0.10769  -0.61316
  24   33408.5    299.3   0.508182244   5.00770  -0.95492   1.59708  -1.24304
  25   33641.3    297.3   0.799518613   7.82406  -1.66720   1.19231   1.90339
  26   33775.6    296.1   0.073174490   0.71323   0.66929   0.11194  -0.50275
  27   33967.6    294.4   0.340308743   3.29826  -1.14749   1.40743   0.02578
  28   34028.5    293.9   0.150973211   1.46060  -0.95782   0.27154   0.68517
  29   34280.6    291.7   0.015922860   0.15291  -0.21946  -0.14167   0.29100
  30   34988.2    285.8   0.126198601   1.18743  -0.12940  -0.69818  -0.82658
  31   35257.4    283.6   0.062896641   0.58729   0.54148  -0.42783   0.33325
  32   35393.7    282.5   0.006666038   0.06200   0.11039   0.16904   0.14575
  33   35866.2    278.8   0.016552324   0.15193  -0.08282  -0.26190   0.27655
  34   36375.6    274.9   0.072753886   0.65845  -0.46430   0.45457  -0.48604
  35   36827.9    271.5   0.006398781   0.05720   0.07778   0.06333   0.21712
  36   36851.4    271.4   0.074753735   0.66781   0.70709  -0.18817   0.36390
  37   36914.0    270.9   0.026742803   0.23850  -0.19175   0.04154   0.44722
  38   37372.0    267.6   0.020356845   0.17932   0.00336  -0.13656  -0.40083
  39   37875.3    264.0   0.040141142   0.34891   0.44917  -0.24547   0.29478
  40   37952.8    263.5   0.002591116   0.02248   0.02812  -0.14518  -0.02466
  41   38143.6    262.2   0.113671410   0.98108  -0.66403   0.00911  -0.73489
  42   38657.0    258.7   0.026325803   0.22420  -0.06275   0.46924  -0.00854
  43   39044.1    256.1   0.023281693   0.19631   0.39782   0.04928   0.18872
  44   39242.9    254.8   0.033667096   0.28244   0.03819   0.51513   0.12499
  45   39324.0    254.3   0.208111028   1.74226  -0.53527  -0.98784  -0.69276
  46   39426.5    253.6   0.049707511   0.41506  -0.03984  -0.36079  -0.53226
  47   39606.7    252.5   0.001291911   0.01074  -0.04273   0.00754  -0.09411
  48   39823.8    251.1   0.002852626   0.02358   0.00471   0.05012   0.14508
  49   40020.3    249.9   0.089139999   0.73328  -0.10427  -0.28797  -0.79967

FINAL SINGLE POINT ENERGY     -4719.628335664066

DIPOLE MOMENT
-------------
                                X             Y             Z
Electronic contribution:     -1.73316      22.32766     -16.95935
Nuclear contribution   :      4.36796     -22.55406      17.76895
                        -----------------------------------------
Total Dipole Moment    :      2.63480      -0.22640       0.80960
                        -----------------------------------------
Magnitude (a.u.)       :      2.76566
Magnitude (Debye)      :      7.02976

Rotational constants in cm-1:     0.001068     0.000266     0.000229
Rotational constants in MHz :    32.015972     7.969082     6.858056

                             ****ORCA TERMINATED NORMALLY****
TOTAL RUN TIME: 0 days 0 hours 9 minutes 31 seconds 388 msec
