                         Program Version 4.2.0 -  RELEASE  -
|  1> # ORCA input file
|  2> # SCF done       -185.029834728188          0.000988664977
|  3> ! CAM-B3LYP def2-SVP def2/J RIJCOSX Grid4 TightSCF
|  4> %maxcore 5000
|  5> %tddft
|  6>     Mode sTDDFT
|  7>     Ethresh 5.0
|  8>     maxcore 5000
|  9> end
| 10>
| 11> %pal
| 12>   nprocs 6
| 13>   end
| 14> * xyz 0 1
| 15>    C       -4.88654        -2.85726        10.74108
| 16>    C       -3.82551        -2.00961        10.89237
| 17>    F       -3.60449        -1.41011        12.06853
| 18>    C       -2.95061        -1.75503         9.81603
| 19>    F       -1.91927        -0.91951         9.99369
| 20>    C       -3.14957        -2.35231         8.60320
| 21>    C       -4.23401        -3.23172         8.41562
| 22>    C       -5.11896        -3.49088         9.50304
| 23>    C       -6.20935        -4.37418         9.34053
| 24>    C       -6.40710        -4.98655         8.12921
| 25>    C       -5.52000        -4.71842         7.04891
| 26>    C       -4.46233        -3.86344         7.17425
| 27>    C       -5.93517        -5.48692         5.86611
| 28>    O       -5.49317        -5.39908         4.74296
| 29>    C       -7.10421        -6.30675         6.31172
| 30>    C       -7.41005        -5.95075         7.69179
| 31>    C       -8.40782        -6.47592         8.46317
| 32>    C       -9.32876        -7.45959         8.03897
| 33>    N      -10.09794        -8.26730         7.76999
| 34>    C       -8.64711        -6.10871         9.80630
| 35>    N       -8.89558        -5.84636        10.89494
| 36>    C       -7.77382        -7.15040         5.49697
| 37>    C       -7.24788        -7.58904         4.22342
| 38>    C       -7.95989        -7.61449         3.04215
| 39>    C       -9.27106        -7.16260         2.87733
| 40>    N      -10.35165        -6.79412         2.76037
| 41>    S       -7.01210        -8.16348         1.69176
| 42>    C       -5.67153        -8.45307         2.74579
| 43>    C       -5.91847        -8.08527         4.04986
| 44>    C       -5.01584        -8.13726         5.12882
| 45>    N       -4.34911        -8.08892         6.06074
| 46>    N       -4.51055        -8.97163         2.21571
| 47>    C       -4.23610        -8.91281         0.82303
| 48>    O       -5.03472        -8.48141         0.03005
| 49>    C       -2.90723        -9.46421         0.65220
| 50>    C       -2.43259        -9.89338         1.85166
| 51>    C       -3.50737        -9.66061         2.87600
| 52>    O       -3.52778       -10.02710         4.01922
| 53>    C       -1.23836       -10.53327         2.25612
| 54>    S       -1.29346       -11.46153         3.73213
| 55>    C        0.27858       -12.05968         3.44038
| 56>    C        0.85470       -11.57374         2.30185
| 57>    C        2.23108       -11.93248         1.85272
| 58>    C        0.00087       -10.66542         1.61523
| 59>    C        0.47602        -9.94383         0.46710
| 60>    C        0.10029        -8.70719         0.08419
| 61>    C        0.63521        -8.03598        -1.06257
| 62>    C        1.86033        -8.24393        -1.59503
| 63>    C        2.36633        -7.55959        -2.73948
| 64>    C        1.69625        -7.15614        -3.84892
| 65>    C        2.30422        -6.12897        -4.74374
| 66>    O        3.44364        -5.72863        -4.70985
| 67>    C        1.20664        -5.68182        -5.62340
| 68>    C        1.20520        -4.68023        -6.55146
| 69>    C        0.02301        -4.42042        -7.27981
| 70>    C       -1.14328        -5.19851        -7.02134
| 71>    C       -2.32021        -4.93366        -7.75049
| 72>    C       -2.33693        -3.94674        -8.69556
| 73>    C       -1.18264        -3.17803        -8.95088
| 74>    C       -0.02722        -3.40810        -8.25804
| 75>    F       -1.22882        -2.21683        -9.88150
| 76>    F       -3.45305        -3.69948        -9.39110
| 77>    C       -1.11263        -6.22778        -6.05355
| 78>    C        0.04980        -6.47410        -5.37187
| 79>    C        0.38422        -7.48585        -4.37309
| 80>    C       -0.30789        -8.65055        -4.17611
| 81>    C        0.14292        -9.72519        -3.38330
| 82>    N        0.45996       -10.65381        -2.78761
| 83>    C       -1.52846        -8.95584        -4.81531
| 84>    N       -2.52683        -9.25187        -5.29739
| 85>    H       -5.54521        -3.04176        11.57533
| 86>    H       -2.47137        -2.14773         7.78966
| 87>    H       -6.86080        -4.54732        10.18172
| 88>    H       -3.80484        -3.68116         6.33807
| 89>    H       -8.74166        -7.54674         5.77562
| 90>    H       -2.43411        -9.53302        -0.30795
| 91>    H        0.71789       -12.74865         4.13583
| 92>    H        2.66502       -12.66727         2.52495
| 93>    H        2.87110       -11.05136         1.84079
| 94>    H        2.20700       -12.35125         0.84767
| 95>    H        1.24109       -10.44832        -0.10643
| 96>    H       -0.66418        -8.17847         0.63577
| 97>    H        0.00825        -7.26353        -1.49337
| 98>    H        2.56223        -8.88500        -1.07952
| 99>    H        3.41486        -7.27691        -2.70999
|100>    H        2.09556        -4.09701        -6.73056
|101>    H       -3.21087        -5.51502        -7.56995
|102>    H        0.84707        -2.81123        -8.46551
|103>    H       -2.01246        -6.79307        -5.87047
|104> *
|105>
|106>                          ****END OF INPUT****

CARTESIAN COORDINATES (ANGSTROEM)
---------------------------------
  C     -4.886540   -2.857260   10.741080
  C     -3.825510   -2.009610   10.892370
  F     -3.604490   -1.410110   12.068530
  C     -2.950610   -1.755030    9.816030
  F     -1.919270   -0.919510    9.993690
  C     -3.149570   -2.352310    8.603200
  C     -4.234010   -3.231720    8.415620
  C     -5.118960   -3.490880    9.503040
  C     -6.209350   -4.374180    9.340530
  C     -6.407100   -4.986550    8.129210
  C     -5.520000   -4.718420    7.048910
  C     -4.462330   -3.863440    7.174250
  C     -5.935170   -5.486920    5.866110
  O     -5.493170   -5.399080    4.742960
  C     -7.104210   -6.306750    6.311720
  C     -7.410050   -5.950750    7.691790
  C     -8.407820   -6.475920    8.463170
  C     -9.328760   -7.459590    8.038970
  N    -10.097940   -8.267300    7.769990
  C     -8.647110   -6.108710    9.806300
  N     -8.895580   -5.846360   10.894940
  C     -7.773820   -7.150400    5.496970
  C     -7.247880   -7.589040    4.223420
  C     -7.959890   -7.614490    3.042150
  C     -9.271060   -7.162600    2.877330
  N    -10.351650   -6.794120    2.760370
  S     -7.012100   -8.163480    1.691760
  C     -5.671530   -8.453070    2.745790
  C     -5.918470   -8.085270    4.049860
  C     -5.015840   -8.137260    5.128820
  N     -4.349110   -8.088920    6.060740
  N     -4.510550   -8.971630    2.215710
  C     -4.236100   -8.912810    0.823030
  O     -5.034720   -8.481410    0.030050
  C     -2.907230   -9.464210    0.652200
  C     -2.432590   -9.893380    1.851660
  C     -3.507370   -9.660610    2.876000
  O     -3.527780  -10.027100    4.019220
  C     -1.238360  -10.533270    2.256120
  S     -1.293460  -11.461530    3.732130
  C      0.278580  -12.059680    3.440380
  C      0.854700  -11.573740    2.301850
  C      2.231080  -11.932480    1.852720
  C      0.000870  -10.665420    1.615230
  C      0.476020   -9.943830    0.467100
  C      0.100290   -8.707190    0.084190
  C      0.635210   -8.035980   -1.062570
  C      1.860330   -8.243930   -1.595030
  C      2.366330   -7.559590   -2.739480
  C      1.696250   -7.156140   -3.848920
  C      2.304220   -6.128970   -4.743740
  O      3.443640   -5.728630   -4.709850
  C      1.206640   -5.681820   -5.623400
  C      1.205200   -4.680230   -6.551460
  C      0.023010   -4.420420   -7.279810
  C     -1.143280   -5.198510   -7.021340
  C     -2.320210   -4.933660   -7.750490
  C     -2.336930   -3.946740   -8.695560
  C     -1.182640   -3.178030   -8.950880
  C     -0.027220   -3.408100   -8.258040
  F     -1.228820   -2.216830   -9.881500
  F     -3.453050   -3.699480   -9.391100
  C     -1.112630   -6.227780   -6.053550
  C      0.049800   -6.474100   -5.371870
  C      0.384220   -7.485850   -4.373090
  C     -0.307890   -8.650550   -4.176110
  C      0.142920   -9.725190   -3.383300
  N      0.459960  -10.653810   -2.787610
  C     -1.528460   -8.955840   -4.815310
  N     -2.526830   -9.251870   -5.297390
  H     -5.545210   -3.041760   11.575330
  H     -2.471370   -2.147730    7.789660
  H     -6.860800   -4.547320   10.181720
  H     -3.804840   -3.681160    6.338070
  H     -8.741660   -7.546740    5.775620
  H     -2.434110   -9.533020   -0.307950
  H      0.717890  -12.748650    4.135830
  H      2.665020  -12.667270    2.524950
  H      2.871100  -11.051360    1.840790
  H      2.207000  -12.351250    0.847670
  H      1.241090  -10.448320   -0.106430
  H     -0.664180   -8.178470    0.635770
  H      0.008250   -7.263530   -1.493370
  H      2.562230   -8.885000   -1.079520
  H      3.414860   -7.276910   -2.709990
  H      2.095560   -4.097010   -6.730560
  H     -3.210870   -5.515020   -7.569950
  H      0.847070   -2.811230   -8.465510
  H     -2.012460   -6.793070   -5.870470

 Total Charge           Charge          ....    0
 Multiplicity           Mult            ....    1
 Number of Electrons    NEL             ....  486
 Basis Dimension        Dim             .... 1083

ORBITAL ENERGIES
----------------

  NO   OCC          E(Eh)            E(eV)
   0   2.0000     -88.997201     -2421.7370
   1   2.0000     -88.975711     -2421.1522
   2   2.0000     -24.804955      -674.9771
   3   2.0000     -24.804211      -674.9569
   4   2.0000     -24.802074      -674.8987
   5   2.0000     -24.801019      -674.8700
   6   2.0000     -19.253368      -523.9108
   7   2.0000     -19.249743      -523.8121
   8   2.0000     -19.226509      -523.1799
   9   2.0000     -19.225753      -523.1593
  10   2.0000     -14.503439      -394.6586
  11   2.0000     -14.429510      -392.6469
  12   2.0000     -14.427029      -392.5794
  13   2.0000     -14.424014      -392.4974
  14   2.0000     -14.423805      -392.4917
  15   2.0000     -14.417422      -392.3180
  16   2.0000     -14.407870      -392.0581
  17   2.0000     -10.430261      -283.8218
  18   2.0000     -10.425663      -283.6967
  19   2.0000     -10.389004      -282.6992
  20   2.0000     -10.388317      -282.6805
  21   2.0000     -10.385642      -282.6077
  22   2.0000     -10.385586      -282.6062
  23   2.0000     -10.384837      -282.5858
  24   2.0000     -10.377614      -282.3892
  25   2.0000     -10.377339      -282.3818
  26   2.0000     -10.355935      -281.7993
  27   2.0000     -10.355264      -281.7811
  28   2.0000     -10.354598      -281.7629
  29   2.0000     -10.350016      -281.6383
  30   2.0000     -10.345215      -281.5076
  31   2.0000     -10.344226      -281.4807
  32   2.0000     -10.332218      -281.1539
  33   2.0000     -10.330800      -281.1154
  34   2.0000     -10.329787      -281.0878
  35   2.0000     -10.329461      -281.0789
  36   2.0000     -10.329024      -281.0670
  37   2.0000     -10.328082      -281.0414
  38   2.0000     -10.327869      -281.0356
  39   2.0000     -10.325797      -280.9792
  40   2.0000     -10.325081      -280.9597
  41   2.0000     -10.319258      -280.8013
  42   2.0000     -10.318955      -280.7930
  43   2.0000     -10.318753      -280.7875
  44   2.0000     -10.318011      -280.7674
  45   2.0000     -10.315905      -280.7101
  46   2.0000     -10.315493      -280.6988
  47   2.0000     -10.315136      -280.6891
  48   2.0000     -10.314860      -280.6816
  49   2.0000     -10.313381      -280.6414
  50   2.0000     -10.313118      -280.6342
  51   2.0000     -10.312192      -280.6090
  52   2.0000     -10.312098      -280.6064
  53   2.0000     -10.311856      -280.5999
  54   2.0000     -10.311197      -280.5819
  55   2.0000     -10.310786      -280.5708
  56   2.0000     -10.310486      -280.5626
  57   2.0000     -10.308528      -280.5093
  58   2.0000     -10.307702      -280.4868
  59   2.0000     -10.307364      -280.4776
  60   2.0000     -10.307205      -280.4733
  61   2.0000     -10.305849      -280.4364
  62   2.0000     -10.305236      -280.4197
  63   2.0000     -10.304959      -280.4122
  64   2.0000     -10.304071      -280.3880
  65   2.0000     -10.303389      -280.3695
  66   2.0000     -10.300760      -280.2979
  67   2.0000     -10.299220      -280.2560
  68   2.0000     -10.298283      -280.2305
  69   2.0000     -10.285203      -279.8746
  70   2.0000      -8.091451      -220.1796
  71   2.0000      -8.070650      -219.6136
  72   2.0000      -6.061143      -164.9321
  73   2.0000      -6.056429      -164.8038
  74   2.0000      -6.053147      -164.7145
  75   2.0000      -6.039887      -164.3537
  76   2.0000      -6.035324      -164.2295
  77   2.0000      -6.033201      -164.1717
  78   2.0000      -1.327957       -36.1355
  79   2.0000      -1.324746       -36.0482
  80   2.0000      -1.313032       -35.7294
  81   2.0000      -1.309821       -35.6420
  82   2.0000      -1.202283       -32.7158
  83   2.0000      -1.176492       -32.0140
  84   2.0000      -1.142352       -31.0850
  85   2.0000      -1.142132       -31.0790
  86   2.0000      -1.097001       -29.8509
  87   2.0000      -1.032684       -28.1008
  88   2.0000      -1.031888       -28.0791
  89   2.0000      -1.026696       -27.9378
  90   2.0000      -1.014596       -27.6086
  91   2.0000      -1.010532       -27.4980
  92   2.0000      -1.010001       -27.4835
  93   2.0000      -1.006683       -27.3932
  94   2.0000      -1.002104       -27.2686
  95   2.0000      -0.998938       -27.1825
  96   2.0000      -0.991429       -26.9782
  97   2.0000      -0.988941       -26.9105
  98   2.0000      -0.987171       -26.8623
  99   2.0000      -0.958686       -26.0872
 100   2.0000      -0.950768       -25.8717
 101   2.0000      -0.938555       -25.5394
 102   2.0000      -0.937062       -25.4988
 103   2.0000      -0.919148       -25.0113
 104   2.0000      -0.915941       -24.9240
 105   2.0000      -0.902491       -24.5580
 106   2.0000      -0.899387       -24.4736
 107   2.0000      -0.897788       -24.4301
 108   2.0000      -0.894105       -24.3298
 109   2.0000      -0.889701       -24.2100
 110   2.0000      -0.876071       -23.8391
 111   2.0000      -0.863756       -23.5040
 112   2.0000      -0.850448       -23.1419
 113   2.0000      -0.849455       -23.1148
 114   2.0000      -0.845287       -23.0014
 115   2.0000      -0.832176       -22.6447
 116   2.0000      -0.812817       -22.1179
 117   2.0000      -0.806602       -21.9487
 118   2.0000      -0.791323       -21.5330
 119   2.0000      -0.781406       -21.2631
 120   2.0000      -0.776277       -21.1236
 121   2.0000      -0.774285       -21.0694
 122   2.0000      -0.765669       -20.8349
 123   2.0000      -0.755837       -20.5674
 124   2.0000      -0.750657       -20.4264
 125   2.0000      -0.736688       -20.0463
 126   2.0000      -0.733991       -19.9729
 127   2.0000      -0.727193       -19.7879
 128   2.0000      -0.725054       -19.7297
 129   2.0000      -0.722568       -19.6621
 130   2.0000      -0.706921       -19.2363
 131   2.0000      -0.702482       -19.1155
 132   2.0000      -0.694309       -18.8931
 133   2.0000      -0.693243       -18.8641
 134   2.0000      -0.683834       -18.6081
 135   2.0000      -0.671818       -18.2811
 136   2.0000      -0.665335       -18.1047
 137   2.0000      -0.663775       -18.0622
 138   2.0000      -0.659929       -17.9576
 139   2.0000      -0.651552       -17.7296
 140   2.0000      -0.649715       -17.6796
 141   2.0000      -0.645941       -17.5769
 142   2.0000      -0.645303       -17.5596
 143   2.0000      -0.630878       -17.1671
 144   2.0000      -0.624562       -16.9952
 145   2.0000      -0.622651       -16.9432
 146   2.0000      -0.615683       -16.7536
 147   2.0000      -0.610152       -16.6031
 148   2.0000      -0.607592       -16.5334
 149   2.0000      -0.603941       -16.4341
 150   2.0000      -0.603137       -16.4122
 151   2.0000      -0.592808       -16.1311
 152   2.0000      -0.592306       -16.1175
 153   2.0000      -0.589127       -16.0310
 154   2.0000      -0.588416       -16.0116
 155   2.0000      -0.587070       -15.9750
 156   2.0000      -0.577856       -15.7243
 157   2.0000      -0.577043       -15.7021
 158   2.0000      -0.574957       -15.6454
 159   2.0000      -0.570079       -15.5126
 160   2.0000      -0.566330       -15.4106
 161   2.0000      -0.562314       -15.3014
 162   2.0000      -0.558527       -15.1983
 163   2.0000      -0.553783       -15.0692
 164   2.0000      -0.552163       -15.0251
 165   2.0000      -0.550727       -14.9860
 166   2.0000      -0.548298       -14.9199
 167   2.0000      -0.545739       -14.8503
 168   2.0000      -0.545452       -14.8425
 169   2.0000      -0.544503       -14.8167
 170   2.0000      -0.540619       -14.7110
 171   2.0000      -0.539778       -14.6881
 172   2.0000      -0.536901       -14.6098
 173   2.0000      -0.535901       -14.5826
 174   2.0000      -0.530033       -14.4229
 175   2.0000      -0.528200       -14.3731
 176   2.0000      -0.526919       -14.3382
 177   2.0000      -0.524598       -14.2750
 178   2.0000      -0.523921       -14.2566
 179   2.0000      -0.519539       -14.1374
 180   2.0000      -0.518387       -14.1060
 181   2.0000      -0.518270       -14.1029
 182   2.0000      -0.513809       -13.9814
 183   2.0000      -0.513030       -13.9603
 184   2.0000      -0.509677       -13.8690
 185   2.0000      -0.505861       -13.7652
 186   2.0000      -0.503086       -13.6897
 187   2.0000      -0.502383       -13.6705
 188   2.0000      -0.494351       -13.4520
 189   2.0000      -0.492529       -13.4024
 190   2.0000      -0.491181       -13.3657
 191   2.0000      -0.482246       -13.1226
 192   2.0000      -0.478189       -13.0122
 193   2.0000      -0.477255       -12.9868
 194   2.0000      -0.476354       -12.9622
 195   2.0000      -0.471567       -12.8320
 196   2.0000      -0.470692       -12.8082
 197   2.0000      -0.468021       -12.7355
 198   2.0000      -0.467680       -12.7262
 199   2.0000      -0.462986       -12.5985
 200   2.0000      -0.462430       -12.5834
 201   2.0000      -0.460719       -12.5368
 202   2.0000      -0.456146       -12.4124
 203   2.0000      -0.456083       -12.4107
 204   2.0000      -0.453977       -12.3533
 205   2.0000      -0.451470       -12.2851
 206   2.0000      -0.450766       -12.2660
 207   2.0000      -0.450319       -12.2538
 208   2.0000      -0.446929       -12.1616
 209   2.0000      -0.445042       -12.1102
 210   2.0000      -0.443360       -12.0644
 211   2.0000      -0.440313       -11.9815
 212   2.0000      -0.439362       -11.9557
 213   2.0000      -0.436925       -11.8893
 214   2.0000      -0.435066       -11.8387
 215   2.0000      -0.431488       -11.7414
 216   2.0000      -0.429810       -11.6957
 217   2.0000      -0.428570       -11.6620
 218   2.0000      -0.423924       -11.5355
 219   2.0000      -0.417058       -11.3487
 220   2.0000      -0.416743       -11.3401
 221   2.0000      -0.415127       -11.2962
 222   2.0000      -0.408344       -11.1116
 223   2.0000      -0.406636       -11.0651
 224   2.0000      -0.404376       -11.0036
 225   2.0000      -0.403258       -10.9732
 226   2.0000      -0.393278       -10.7016
 227   2.0000      -0.390834       -10.6351
 228   2.0000      -0.386913       -10.5284
 229   2.0000      -0.373690       -10.1686
 230   2.0000      -0.370131       -10.0718
 231   2.0000      -0.362326        -9.8594
 232   2.0000      -0.349387        -9.5073
 233   2.0000      -0.348282        -9.4772
 234   2.0000      -0.336653        -9.1608
 235   2.0000      -0.326242        -8.8775
 236   2.0000      -0.326034        -8.8718
 237   2.0000      -0.320446        -8.7198
 238   2.0000      -0.317919        -8.6510
 239   2.0000      -0.310798        -8.4573
 240   2.0000      -0.305668        -8.3176
 241   2.0000      -0.300802        -8.1852
 242   2.0000      -0.284891        -7.7523
 243   0.0000      -0.113556        -3.0900
 244   0.0000      -0.102036        -2.7765
 245   0.0000      -0.094459        -2.5704
 246   0.0000      -0.067360        -1.8330
 247   0.0000      -0.065167        -1.7733

MULLIKEN ATOMIC CHARGES
-----------------------
   0 C :   -0.106422
   1 C :    0.243773
   2 F :   -0.168582
   3 C :    0.238948
   4 F :   -0.170167
   5 C :   -0.104040
   6 C :    0.116105
   7 C :    0.115765
   8 C :   -0.086065
   9 C :    0.060029
  10 C :    0.005943
  11 C :   -0.069174
  12 C :    0.142371
  13 O :   -0.136224
  14 C :   -0.068591
  15 C :    0.311247
  16 C :   -0.330183
  17 C :   -0.191965
  18 N :    0.170058
  19 C :   -0.181068
  20 N :    0.159575
  21 C :   -0.052058
  22 C :    0.211553
  23 C :   -0.305878
  24 C :   -0.194144
  25 N :    0.157809
  26 S :    0.269687
  27 C :   -0.004872
  28 C :   -0.023415
  29 C :   -0.264285
  30 N :    0.171275
  31 N :   -0.229899
  32 C :    0.255534
  33 O :   -0.160546
  34 C :   -0.144687
  35 C :    0.048287
  36 C :    0.198646
  37 O :   -0.129942
  38 C :   -0.174296
  39 S :    0.202225
  40 C :   -0.099426
  41 C :   -0.095001
  42 C :    0.109939
  43 C :    0.149097
  44 C :   -0.015394
  45 C :   -0.019396
  46 C :    0.031727
  47 C :   -0.002449
  48 C :    0.039373
  49 C :   -0.122692
  50 C :    0.138227
  51 O :   -0.135479
  52 C :    0.013425
  53 C :   -0.077468
  54 C :    0.112124
  55 C :    0.107742
  56 C :   -0.103241
  57 C :    0.242756
  58 C :    0.239684
  59 C :   -0.102566
  60 F :   -0.169530
  61 F :   -0.167608
  62 C :   -0.076240
  63 C :    0.028984
  64 C :    0.277048
  65 C :   -0.339316
  66 C :   -0.188720
  67 N :    0.167469
  68 C :   -0.184310
  69 N :    0.163078
  70 H :    0.009274
  71 H :   -0.000035
  72 H :   -0.004645
  73 H :   -0.009431
  74 H :    0.056203
  75 H :    0.021510
  76 H :    0.028687
  77 H :    0.015886
  78 H :    0.033011
  79 H :    0.045219
  80 H :    0.016629
  81 H :    0.013707
  82 H :    0.017471
  83 H :    0.015787
  84 H :    0.034019
  85 H :   -0.006546
  86 H :    0.008980
  87 H :    0.001251
  88 H :   -0.001141
Sum of atomic charges:   -0.0000000

LOEWDIN ATOMIC CHARGES
----------------------
   0 C :   -0.028344
   1 C :    0.067989
   2 F :   -0.046907
   3 C :    0.069051
   4 F :   -0.047886
   5 C :   -0.032243
   6 C :   -0.006404
   7 C :   -0.003970
   8 C :    0.020152
   9 C :   -0.019998
  10 C :   -0.048175
  11 C :    0.037072
  12 C :    0.090324
  13 O :   -0.130785
  14 C :   -0.057597
  15 C :    0.074743
  16 C :   -0.119076
  17 C :   -0.020878
  18 N :   -0.034359
  19 C :   -0.015799
  20 N :   -0.041809
  21 C :    0.069521
  22 C :   -0.005080
  23 C :   -0.218849
  24 C :   -0.057333
  25 N :   -0.034249
  26 S :    0.533077
  27 C :   -0.082456
  28 C :   -0.107173
  29 C :   -0.033839
  30 N :   -0.056567
  31 N :   -0.037556
  32 C :    0.095971
  33 O :   -0.141250
  34 C :   -0.052466
  35 C :   -0.021982
  36 C :    0.097858
  37 O :   -0.103870
  38 C :   -0.187851
  39 S :    0.509842
  40 C :   -0.173159
  41 C :   -0.055706
  42 C :   -0.044860
  43 C :   -0.031126
  44 C :    0.013487
  45 C :   -0.026403
  46 C :    0.017433
  47 C :   -0.026133
  48 C :    0.070764
  49 C :   -0.087521
  50 C :    0.083107
  51 O :   -0.136726
  52 C :   -0.055178
  53 C :    0.032561
  54 C :   -0.008136
  55 C :   -0.005375
  56 C :   -0.028927
  57 C :    0.068426
  58 C :    0.069310
  59 C :   -0.032405
  60 F :   -0.046798
  61 F :   -0.045882
  62 C :    0.017285
  63 C :   -0.022688
  64 C :    0.068902
  65 C :   -0.137200
  66 C :   -0.010635
  67 N :   -0.050096
  68 C :   -0.021808
  69 N :   -0.046250
  70 H :    0.048450
  71 H :    0.045176
  72 H :    0.040460
  73 H :    0.041238
  74 H :    0.054076
  75 H :    0.044589
  76 H :    0.027786
  77 H :    0.036592
  78 H :    0.037555
  79 H :    0.040639
  80 H :    0.035175
  81 H :    0.032054
  82 H :    0.034523
  83 H :    0.037238
  84 H :    0.048981
  85 H :    0.041712
  86 H :    0.048451
  87 H :    0.045647
  88 H :    0.040547

  Mayer bond orders larger than 0.100000
B(  0-C ,  1-C ) :   1.4447 B(  0-C ,  5-C ) :   0.1085 B(  0-C ,  7-C ) :   1.1852
B(  0-C , 70-H ) :   1.0060 B(  1-C ,  2-F ) :   1.1378 B(  1-C ,  3-C ) :   1.1879
B(  3-C ,  4-F ) :   1.1350 B(  3-C ,  5-C ) :   1.4463 B(  5-C ,  6-C ) :   1.1897
B(  5-C , 71-H ) :   1.0062 B(  6-C ,  7-C ) :   1.2511 B(  6-C , 11-C ) :   1.1950
B(  7-C ,  8-C ) :   1.2265 B(  8-C ,  9-C ) :   1.4370 B(  8-C , 72-H ) :   0.9879
B(  9-C , 10-C ) :   1.2228 B(  9-C , 15-C ) :   0.9997 B( 10-C , 11-C ) :   1.4699
B( 10-C , 12-C ) :   0.9446 B( 11-C , 73-H ) :   1.0148 B( 12-C , 13-O ) :   2.2385
B( 12-C , 14-C ) :   0.9061 B( 14-C , 15-C ) :   1.0355 B( 14-C , 21-C ) :   1.7328
B( 15-C , 16-C ) :   1.6748 B( 16-C , 17-C ) :   1.1401 B( 16-C , 19-C ) :   1.1389
B( 17-C , 18-N ) :   2.9752 B( 19-C , 20-N ) :   2.9654 B( 21-C , 22-C ) :   1.0451
B( 21-C , 74-H ) :   0.9274 B( 22-C , 23-C ) :   1.4970 B( 22-C , 28-C ) :   1.2831
B( 23-C , 24-C ) :   1.2280 B( 23-C , 26-S ) :   1.0954 B( 24-C , 25-N ) :   3.0042
B( 26-S , 27-C ) :   1.1675 B( 27-C , 28-C ) :   1.4970 B( 27-C , 31-N ) :   1.0413
B( 28-C , 29-C ) :   1.1121 B( 29-C , 30-N ) :   3.0011 B( 31-N , 32-C ) :   0.9435
B( 31-N , 36-C ) :   1.0325 B( 32-C , 33-O ) :   2.1202 B( 32-C , 34-C ) :   0.9950
B( 34-C , 35-C ) :   1.6098 B( 34-C , 75-H ) :   1.0323 B( 35-C , 36-C ) :   0.8899
B( 35-C , 38-C ) :   1.1604 B( 36-C , 37-O ) :   2.1597 B( 38-C , 39-S ) :   1.1541
B( 38-C , 43-C ) :   1.4006 B( 39-S , 40-C ) :   1.1739 B( 40-C , 41-C ) :   1.5454
B( 40-C , 76-H ) :   0.9665 B( 41-C , 42-C ) :   1.0943 B( 41-C , 43-C ) :   1.2720
B( 42-C , 77-H ) :   0.9491 B( 42-C , 78-H ) :   0.9434 B( 42-C , 79-H ) :   0.9425
B( 43-C , 44-C ) :   1.1039 B( 44-C , 45-C ) :   1.7459 B( 44-C , 80-H ) :   0.9343
B( 45-C , 46-C ) :   1.1194 B( 45-C , 81-H ) :   0.9685 B( 46-C , 47-C ) :   1.7224
B( 46-C , 82-H ) :   0.9622 B( 47-C , 48-C ) :   1.1105 B( 47-C , 83-H ) :   0.9513
B( 48-C , 49-C ) :   1.7071 B( 48-C , 84-H ) :   0.9290 B( 49-C , 50-C ) :   0.9341
B( 49-C , 64-C ) :   1.0245 B( 50-C , 51-O ) :   2.2803 B( 50-C , 52-C ) :   0.9179
B( 52-C , 53-C ) :   1.4703 B( 52-C , 63-C ) :   1.2198 B( 53-C , 54-C ) :   1.1976
B( 53-C , 85-H ) :   1.0158 B( 54-C , 55-C ) :   1.2538 B( 54-C , 59-C ) :   1.1917
B( 55-C , 56-C ) :   1.1885 B( 55-C , 62-C ) :   1.2216 B( 56-C , 57-C ) :   1.4431
B( 56-C , 59-C ) :   0.1083 B( 56-C , 86-H ) :   1.0064 B( 57-C , 58-C ) :   1.1895
B( 57-C , 61-F ) :   1.1383 B( 58-C , 59-C ) :   1.4450 B( 58-C , 60-F ) :   1.1352
B( 59-C , 87-H ) :   1.0067 B( 62-C , 63-C ) :   1.4505 B( 62-C , 88-H ) :   0.9929
B( 63-C , 64-C ) :   0.9991 B( 64-C , 65-C ) :   1.6597 B( 65-C , 66-C ) :   1.1643
B( 65-C , 68-C ) :   1.1316 B( 66-C , 67-N ) :   2.9893 B( 68-C , 69-N ) :   2.9883

-----------------------------------------------------------------------------
         ABSORPTION SPECTRUM VIA TRANSITION ELECTRIC DIPOLE MOMENTS
-----------------------------------------------------------------------------
State   Energy  Wavelength   fosc         T2         TX        TY        TZ
        (cm-1)    (nm)                  (au**2)     (au)      (au)      (au)
-----------------------------------------------------------------------------
   0   19164.0    521.8   0.370569968   6.36588  -1.05107  -0.55717   2.22502
   1   23172.7    431.5   0.148099090   2.10402   1.12893  -0.39391   0.82120
   2   24555.8    407.2   0.041644213   0.55831  -0.23082   0.51929  -0.48515
   3   25802.0    387.6   0.175331091   2.23708   0.06051  -0.36728  -1.44863
   4   26403.3    378.7   0.011323374   0.14119   0.37537   0.00329   0.01662
   5   26500.0    377.4   0.093280570   1.15883  -0.10615   0.88162  -0.60854
   6   27194.6    367.7   0.124960855   1.51275  -0.84637  -0.72018  -0.52703
   7   27955.9    357.7   0.011937335   0.14058   0.31982   0.16710   0.10182
   8   28128.1    355.5   0.178935461   2.09427  -1.13174   0.52639  -0.73235
   9   28823.1    346.9   0.055088151   0.62921   0.63087   0.47377  -0.08216
  10   29043.1    344.3   0.007927458   0.08986  -0.14458   0.20935  -0.15852
  11   29963.7    333.7   0.098926214   1.08691   0.51961  -0.75936   0.49018
  12   30123.5    332.0   0.046525565   0.50847  -0.34371   0.60465  -0.15726
  13   30264.4    330.4   0.029715492   0.32324   0.07395   0.10760   0.55335
  14   30999.2    322.6   0.330268710   3.50745   0.47734   1.19622  -1.35965
  15   31506.6    317.4   0.163151697   1.70477  -0.43599   0.14699   1.22192
  16   31637.9    316.1   0.171103445   1.78044  -0.32434   0.79463  -1.02167
  17   32498.8    307.7   0.063235828   0.64058   0.44119  -0.28697   0.60297
  18   32829.3    304.6   0.008320053   0.08343   0.18649   0.21897   0.02657
  19   33256.2    300.7   0.482829357   4.77965   0.12082  -1.42046   1.65752
  20   33469.7    298.8   0.179539565   1.76597  -0.11673  -1.09166  -0.74874
  21   33762.4    296.2   0.855000223   8.33698  -1.86377  -2.10814  -0.64737
  22   34017.2    294.0   0.051825946   0.50156  -0.00169   0.67536  -0.21320
  23   34330.9    291.3   0.259169363   2.48527   0.95478  -0.66218   1.06545
  24   34428.0    290.5   0.092476247   0.88429  -0.31219  -0.77414   0.43305
  25   34548.9    289.4   0.157483582   1.50064  -0.95835  -0.75624   0.10152
  26   35009.1    285.6   0.012422504   0.11682   0.06033   0.24404   0.23156
  27   35923.3    278.4   0.004384197   0.04018   0.17790   0.08863  -0.02595
  28   36276.6    275.7   0.070464161   0.63947  -0.65046  -0.30117   0.35450
  29   36468.0    274.2   0.059726476   0.53918  -0.43892  -0.08155   0.58299
  30   36483.3    274.1   0.029844255   0.26930   0.30750   0.33363  -0.25186
  31   37540.0    266.4   0.103573007   0.90830  -0.20809   0.85986  -0.35446
  32   37615.9    265.8   0.066234967   0.57968   0.20089  -0.66119   0.31961
  33   37909.7    263.8   0.002030742   0.01764   0.02933   0.11818  -0.05299
  34   38112.7    262.4   0.015827038   0.13671  -0.00634  -0.10092  -0.35565
  35   38126.4    262.3   0.011548731   0.09972  -0.29760  -0.07371   0.07566
  36   38169.6    262.0   0.108158404   0.93286  -0.75091  -0.27414   0.54207
  37   38553.2    259.4   0.136212827   1.16314   0.99956  -0.26766   0.30394
  38   38582.2    259.2   0.052504907   0.44801  -0.62099   0.12869   0.21406
  39   38942.3    256.8   0.040172038   0.33961   0.46436  -0.26462  -0.23229
  40   38960.8    256.7   0.000824429   0.00697   0.02316  -0.06565  -0.04605
  41   39851.2    250.9   0.204005824   1.68530   0.70371  -0.48093   0.97919
  42   40156.7    249.0   0.485452028   3.97982  -0.19686  -0.75476  -1.83614

FINAL SINGLE POINT ENERGY     -3906.770278629073

DIPOLE MOMENT
-------------
                                X             Y             Z
Electronic contribution:    -33.49565      28.42190       8.01014
Nuclear contribution   :     37.95927     -27.99346      -9.45839
                        -----------------------------------------
Total Dipole Moment    :      4.46362       0.42844      -1.44825
                        -----------------------------------------
Magnitude (a.u.)       :      4.71220
Magnitude (Debye)      :     11.97747

Rotational constants in cm-1:     0.001180     0.000361     0.000349
Rotational constants in MHz :    35.375923    10.826617    10.467122

                             ****ORCA TERMINATED NORMALLY****
TOTAL RUN TIME: 0 days 0 hours 8 minutes 9 seconds 140 msec
