                         Program Version 4.2.0 -  RELEASE  -
|  1> # ORCA input file
|  2> # SCF done       -177.518855249519          0.000566345162
|  3> ! CAM-B3LYP def2-SVP def2/J RIJCOSX Grid4 TightSCF
|  4> %maxcore 5000
|  5> %tddft
|  6>     Mode sTDDFT
|  7>     Ethresh 5.0
|  8>     maxcore 5000
|  9> end
| 10>
| 11> %pal
| 12>   nprocs 6
| 13>   end
| 14> * xyz 0 1
| 15>    C        2.38964        -6.71545        -9.62828
| 16>    C        3.50909        -6.06523       -10.06735
| 17>    F        3.75924        -5.96493       -11.37911
| 18>    C        4.41332        -5.49411        -9.14978
| 19>    F        5.50437        -4.86333        -9.60647
| 20>    C        4.18417        -5.58034        -7.80503
| 21>    C        3.03981        -6.24284        -7.32150
| 22>    C        2.12443        -6.82181        -8.24795
| 23>    C        0.97205        -7.49589        -7.78413
| 24>    C        0.73901        -7.58368        -6.43551
| 25>    C        1.65863        -7.00061        -5.51869
| 26>    C        2.78368        -6.35068        -5.93716
| 27>    C        1.20405        -7.24478        -4.14048
| 28>    O        1.80854        -6.99650        -3.12063
| 29>    C       -0.06980        -8.00642        -4.26943
| 30>    C       -0.34401        -8.20249        -5.68252
| 31>    C       -1.46497        -8.78473        -6.21333
| 32>    C       -2.53768        -9.29611        -5.45291
| 33>    N       -3.44928        -9.71375        -4.89400
| 34>    C       -1.70257        -8.92245        -7.59679
| 35>    N       -1.94530        -9.06625        -8.70944
| 36>    C       -0.71858        -8.55723        -3.21573
| 37>    C       -0.54263        -8.14460        -1.84602
| 38>    C       -0.56548        -6.82516        -1.42957
| 39>    C       -0.69089        -5.71396        -2.25736
| 40>    N       -0.78838        -4.80892        -2.96001
| 41>    S       -0.51357        -6.66941         0.30754
| 42>    C       -0.42393        -8.39268         0.48052
| 43>    C       -0.46686        -9.04067        -0.74496
| 44>    C       -0.37032       -10.43373        -0.86860
| 45>    N       -0.27324       -11.57430        -0.95015
| 46>    N       -0.22629        -9.01843         1.66963
| 47>    C       -0.37547        -8.51719         2.94382
| 48>    S       -1.83609        -7.73661         3.45762
| 49>    C       -1.25482        -7.79012         5.09082
| 50>    N       -2.05963        -7.21350         6.08373
| 51>    O       -1.66528        -7.26549         7.23247
| 52>    O       -3.10146        -6.70082         5.71476
| 53>    C       -0.02235        -8.37296         5.22400
| 54>    C        0.51899        -8.76980         3.98631
| 55>    C        1.86958        -9.22120         3.74711
| 56>    C        2.51878        -8.77182         2.64228
| 57>    C        3.81793        -9.02771         2.17339
| 58>    C        4.28900        -8.34542         1.07332
| 59>    C        5.52785        -8.46229         0.40273
| 60>    C        5.67408        -7.61666        -0.66171
| 61>    C        4.56912        -6.77229        -0.87995
| 62>    S        3.31630        -7.10760         0.28636
| 63>    C        4.37799        -5.77234        -1.81903
| 64>    C        5.20243        -5.40208        -2.90181
| 65>    C        4.68361        -4.39123        -3.65659
| 66>    C        3.43073        -3.90252        -3.20624
| 67>    S        2.95573        -4.76899        -1.76086
| 68>    C        2.67499        -2.93850        -3.82820
| 69>    C        1.43703        -2.40971        -3.41716
| 70>    C        0.72342        -2.62132        -2.23037
| 71>    C       -0.46956        -1.86229        -2.27886
| 72>    C       -1.50218        -1.72943        -1.37646
| 73>    C       -2.56709        -0.88589        -1.72502
| 74>    C       -3.72868        -0.54027        -1.04784
| 75>    C       -4.48404         0.37047        -1.85047
| 76>    C       -3.78709         0.58376        -3.02733
| 77>    C       -2.58030        -0.18032        -2.99610
| 78>    C       -1.56015        -0.31436        -3.89874
| 79>    C       -0.48535        -1.16105        -3.55072
| 80>    C        0.67182        -1.49703        -4.22302
| 81>    C       -5.74972         0.97663        -1.51427
| 82>    C       -6.42660         0.77849        -0.38614
| 83>    H        1.70845        -7.14736       -10.34468
| 84>    H        4.88763        -5.14237        -7.11457
| 85>    H        0.30365        -7.93273        -8.50830
| 86>    H        3.46919        -5.92319        -5.22130
| 87>    H       -1.43450        -9.35563        -3.36755
| 88>    H        0.22605        -9.92599         1.61126
| 89>    H        0.47949        -8.46521         6.17001
| 90>    H        2.35663        -9.82646         4.49544
| 91>    H        1.97752        -8.06072         2.02869
| 92>    H        4.45156        -9.75378         2.65987
| 93>    H        6.27397        -9.16823         0.72258
| 94>    H        6.55303        -7.57332        -1.28056
| 95>    H        6.13437        -5.89884        -3.10609
| 96>    H        5.16559        -3.97186        -4.52380
| 97>    H        3.07542        -2.54864        -4.75712
| 98>    H        1.03109        -3.21861        -1.39451
| 99>    H       -1.49858        -2.25538        -0.43245
|100>    H       -4.01539        -0.89727        -0.07583
|101>    H       -4.09437         1.21930        -3.83782
|102>    H       -1.56410         0.20588        -4.84643
|103>    H        0.96751        -1.15137        -5.19796
|104>    H       -6.15021         1.64233        -2.26884
|105>    H       -6.07114         0.12403         0.39098
|106>    H       -7.36892         1.26483        -0.20326
|107> *
|108>
|109>                          ****END OF INPUT****

CARTESIAN COORDINATES (ANGSTROEM)
---------------------------------
  C      2.389640   -6.715450   -9.628280
  C      3.509090   -6.065230  -10.067350
  F      3.759240   -5.964930  -11.379110
  C      4.413320   -5.494110   -9.149780
  F      5.504370   -4.863330   -9.606470
  C      4.184170   -5.580340   -7.805030
  C      3.039810   -6.242840   -7.321500
  C      2.124430   -6.821810   -8.247950
  C      0.972050   -7.495890   -7.784130
  C      0.739010   -7.583680   -6.435510
  C      1.658630   -7.000610   -5.518690
  C      2.783680   -6.350680   -5.937160
  C      1.204050   -7.244780   -4.140480
  O      1.808540   -6.996500   -3.120630
  C     -0.069800   -8.006420   -4.269430
  C     -0.344010   -8.202490   -5.682520
  C     -1.464970   -8.784730   -6.213330
  C     -2.537680   -9.296110   -5.452910
  N     -3.449280   -9.713750   -4.894000
  C     -1.702570   -8.922450   -7.596790
  N     -1.945300   -9.066250   -8.709440
  C     -0.718580   -8.557230   -3.215730
  C     -0.542630   -8.144600   -1.846020
  C     -0.565480   -6.825160   -1.429570
  C     -0.690890   -5.713960   -2.257360
  N     -0.788380   -4.808920   -2.960010
  S     -0.513570   -6.669410    0.307540
  C     -0.423930   -8.392680    0.480520
  C     -0.466860   -9.040670   -0.744960
  C     -0.370320  -10.433730   -0.868600
  N     -0.273240  -11.574300   -0.950150
  N     -0.226290   -9.018430    1.669630
  C     -0.375470   -8.517190    2.943820
  S     -1.836090   -7.736610    3.457620
  C     -1.254820   -7.790120    5.090820
  N     -2.059630   -7.213500    6.083730
  O     -1.665280   -7.265490    7.232470
  O     -3.101460   -6.700820    5.714760
  C     -0.022350   -8.372960    5.224000
  C      0.518990   -8.769800    3.986310
  C      1.869580   -9.221200    3.747110
  C      2.518780   -8.771820    2.642280
  C      3.817930   -9.027710    2.173390
  C      4.289000   -8.345420    1.073320
  C      5.527850   -8.462290    0.402730
  C      5.674080   -7.616660   -0.661710
  C      4.569120   -6.772290   -0.879950
  S      3.316300   -7.107600    0.286360
  C      4.377990   -5.772340   -1.819030
  C      5.202430   -5.402080   -2.901810
  C      4.683610   -4.391230   -3.656590
  C      3.430730   -3.902520   -3.206240
  S      2.955730   -4.768990   -1.760860
  C      2.674990   -2.938500   -3.828200
  C      1.437030   -2.409710   -3.417160
  C      0.723420   -2.621320   -2.230370
  C     -0.469560   -1.862290   -2.278860
  C     -1.502180   -1.729430   -1.376460
  C     -2.567090   -0.885890   -1.725020
  C     -3.728680   -0.540270   -1.047840
  C     -4.484040    0.370470   -1.850470
  C     -3.787090    0.583760   -3.027330
  C     -2.580300   -0.180320   -2.996100
  C     -1.560150   -0.314360   -3.898740
  C     -0.485350   -1.161050   -3.550720
  C      0.671820   -1.497030   -4.223020
  C     -5.749720    0.976630   -1.514270
  C     -6.426600    0.778490   -0.386140
  H      1.708450   -7.147360  -10.344680
  H      4.887630   -5.142370   -7.114570
  H      0.303650   -7.932730   -8.508300
  H      3.469190   -5.923190   -5.221300
  H     -1.434500   -9.355630   -3.367550
  H      0.226050   -9.925990    1.611260
  H      0.479490   -8.465210    6.170010
  H      2.356630   -9.826460    4.495440
  H      1.977520   -8.060720    2.028690
  H      4.451560   -9.753780    2.659870
  H      6.273970   -9.168230    0.722580
  H      6.553030   -7.573320   -1.280560
  H      6.134370   -5.898840   -3.106090
  H      5.165590   -3.971860   -4.523800
  H      3.075420   -2.548640   -4.757120
  H      1.031090   -3.218610   -1.394510
  H     -1.498580   -2.255380   -0.432450
  H     -4.015390   -0.897270   -0.075830
  H     -4.094370    1.219300   -3.837820
  H     -1.564100    0.205880   -4.846430
  H      0.967510   -1.151370   -5.197960
  H     -6.150210    1.642330   -2.268840
  H     -6.071140    0.124030    0.390980
  H     -7.368920    1.264830   -0.203260

 Total Charge           Charge          ....    0
 Multiplicity           Mult            ....    1
 Number of Electrons    NEL             ....  490
 Basis Dimension        Dim             .... 1088

ORBITAL ENERGIES
----------------

  NO   OCC          E(Eh)            E(eV)
   0   2.0000     -89.005071     -2421.9511
   1   2.0000     -88.988588     -2421.5026
   2   2.0000     -88.947578     -2420.3867
   3   2.0000     -88.945878     -2420.3404
   4   2.0000     -24.806603      -675.0220
   5   2.0000     -24.804812      -674.9732
   6   2.0000     -19.241897      -523.5986
   7   2.0000     -19.241691      -523.5930
   8   2.0000     -19.228635      -523.2378
   9   2.0000     -14.653267      -398.7357
  10   2.0000     -14.491673      -394.3385
  11   2.0000     -14.427367      -392.5886
  12   2.0000     -14.426487      -392.5647
  13   2.0000     -14.422096      -392.4452
  14   2.0000     -14.420800      -392.4099
  15   2.0000     -10.392236      -282.7871
  16   2.0000     -10.390116      -282.7294
  17   2.0000     -10.389085      -282.7014
  18   2.0000     -10.379208      -282.4326
  19   2.0000     -10.364043      -282.0199
  20   2.0000     -10.357762      -281.8490
  21   2.0000     -10.353281      -281.7271
  22   2.0000     -10.349935      -281.6360
  23   2.0000     -10.349755      -281.6311
  24   2.0000     -10.336046      -281.2581
  25   2.0000     -10.334648      -281.2201
  26   2.0000     -10.328971      -281.0656
  27   2.0000     -10.327936      -281.0374
  28   2.0000     -10.327849      -281.0351
  29   2.0000     -10.323553      -280.9182
  30   2.0000     -10.321638      -280.8660
  31   2.0000     -10.319580      -280.8100
  32   2.0000     -10.318939      -280.7926
  33   2.0000     -10.318413      -280.7783
  34   2.0000     -10.316805      -280.7345
  35   2.0000     -10.316568      -280.7281
  36   2.0000     -10.314330      -280.6672
  37   2.0000     -10.311417      -280.5879
  38   2.0000     -10.310919      -280.5744
  39   2.0000     -10.309834      -280.5449
  40   2.0000     -10.308349      -280.5044
  41   2.0000     -10.308056      -280.4965
  42   2.0000     -10.307453      -280.4801
  43   2.0000     -10.306664      -280.4586
  44   2.0000     -10.305416      -280.4246
  45   2.0000     -10.301396      -280.3152
  46   2.0000     -10.299835      -280.2728
  47   2.0000     -10.298698      -280.2418
  48   2.0000     -10.294927      -280.1392
  49   2.0000     -10.294435      -280.1258
  50   2.0000     -10.290651      -280.0229
  51   2.0000     -10.289682      -279.9965
  52   2.0000     -10.287763      -279.9443
  53   2.0000     -10.285013      -279.8694
  54   2.0000     -10.284542      -279.8566
  55   2.0000     -10.284082      -279.8441
  56   2.0000     -10.283916      -279.8396
  57   2.0000     -10.277742      -279.6716
  58   2.0000     -10.276085      -279.6265
  59   2.0000     -10.272861      -279.5388
  60   2.0000     -10.271083      -279.4904
  61   2.0000     -10.267714      -279.3987
  62   2.0000     -10.267478      -279.3923
  63   2.0000     -10.265305      -279.3332
  64   2.0000     -10.264607      -279.3141
  65   2.0000     -10.264126      -279.3011
  66   2.0000     -10.263897      -279.2948
  67   2.0000     -10.256559      -279.0952
  68   2.0000      -8.100062      -220.4139
  69   2.0000      -8.084160      -219.9812
  70   2.0000      -8.042887      -218.8581
  71   2.0000      -8.042143      -218.8378
  72   2.0000      -6.069686      -165.1646
  73   2.0000      -6.065350      -165.0466
  74   2.0000      -6.061612      -164.9449
  75   2.0000      -6.053617      -164.7273
  76   2.0000      -6.049329      -164.6106
  77   2.0000      -6.045880      -164.5168
  78   2.0000      -6.012648      -163.6125
  79   2.0000      -6.011836      -163.5904
  80   2.0000      -6.008564      -163.5013
  81   2.0000      -6.007860      -163.4822
  82   2.0000      -6.003905      -163.3746
  83   2.0000      -6.003074      -163.3520
  84   2.0000      -1.328564       -36.1521
  85   2.0000      -1.323494       -36.0141
  86   2.0000      -1.313692       -35.7474
  87   2.0000      -1.144261       -31.1369
  88   2.0000      -1.142471       -31.0882
  89   2.0000      -1.104740       -30.0615
  90   2.0000      -1.033616       -28.1261
  91   2.0000      -1.029598       -28.0168
  92   2.0000      -1.013522       -27.5793
  93   2.0000      -1.009445       -27.4684
  94   2.0000      -1.004812       -27.3423
  95   2.0000      -1.003837       -27.3158
  96   2.0000      -0.999364       -27.1941
  97   2.0000      -0.993874       -27.0447
  98   2.0000      -0.990631       -26.9564
  99   2.0000      -0.986345       -26.8398
 100   2.0000      -0.976971       -26.5847
 101   2.0000      -0.960052       -26.1243
 102   2.0000      -0.943621       -25.6772
 103   2.0000      -0.927942       -25.2506
 104   2.0000      -0.921906       -25.0863
 105   2.0000      -0.905262       -24.6334
 106   2.0000      -0.903436       -24.5837
 107   2.0000      -0.899923       -24.4882
 108   2.0000      -0.897839       -24.4314
 109   2.0000      -0.887377       -24.1468
 110   2.0000      -0.876835       -23.8599
 111   2.0000      -0.867699       -23.6113
 112   2.0000      -0.863363       -23.4933
 113   2.0000      -0.855232       -23.2720
 114   2.0000      -0.854304       -23.2468
 115   2.0000      -0.848791       -23.0968
 116   2.0000      -0.843001       -22.9392
 117   2.0000      -0.833312       -22.6756
 118   2.0000      -0.823101       -22.3977
 119   2.0000      -0.808804       -22.0087
 120   2.0000      -0.802369       -21.8336
 121   2.0000      -0.797203       -21.6930
 122   2.0000      -0.786962       -21.4143
 123   2.0000      -0.777605       -21.1597
 124   2.0000      -0.766537       -20.8585
 125   2.0000      -0.757861       -20.6225
 126   2.0000      -0.750363       -20.4184
 127   2.0000      -0.740031       -20.1373
 128   2.0000      -0.737050       -20.0561
 129   2.0000      -0.726076       -19.7575
 130   2.0000      -0.721024       -19.6201
 131   2.0000      -0.713495       -19.4152
 132   2.0000      -0.705178       -19.1889
 133   2.0000      -0.698715       -19.0130
 134   2.0000      -0.692852       -18.8535
 135   2.0000      -0.686401       -18.6779
 136   2.0000      -0.675215       -18.3735
 137   2.0000      -0.669810       -18.2265
 138   2.0000      -0.668028       -18.1780
 139   2.0000      -0.663797       -18.0628
 140   2.0000      -0.654041       -17.7974
 141   2.0000      -0.651478       -17.7276
 142   2.0000      -0.643354       -17.5066
 143   2.0000      -0.642807       -17.4917
 144   2.0000      -0.639110       -17.3911
 145   2.0000      -0.634623       -17.2690
 146   2.0000      -0.631726       -17.1901
 147   2.0000      -0.625893       -17.0314
 148   2.0000      -0.623788       -16.9741
 149   2.0000      -0.621183       -16.9033
 150   2.0000      -0.613574       -16.6962
 151   2.0000      -0.609030       -16.5726
 152   2.0000      -0.606467       -16.5028
 153   2.0000      -0.602316       -16.3899
 154   2.0000      -0.598870       -16.2961
 155   2.0000      -0.595428       -16.2024
 156   2.0000      -0.593190       -16.1415
 157   2.0000      -0.590251       -16.0616
 158   2.0000      -0.581171       -15.8145
 159   2.0000      -0.579046       -15.7566
 160   2.0000      -0.577769       -15.7219
 161   2.0000      -0.573771       -15.6131
 162   2.0000      -0.563956       -15.3460
 163   2.0000      -0.562838       -15.3156
 164   2.0000      -0.561372       -15.2757
 165   2.0000      -0.554682       -15.0937
 166   2.0000      -0.552262       -15.0278
 167   2.0000      -0.548815       -14.9340
 168   2.0000      -0.547728       -14.9044
 169   2.0000      -0.544912       -14.8278
 170   2.0000      -0.540351       -14.7037
 171   2.0000      -0.535845       -14.5811
 172   2.0000      -0.534226       -14.5370
 173   2.0000      -0.531119       -14.4525
 174   2.0000      -0.527775       -14.3615
 175   2.0000      -0.523776       -14.2527
 176   2.0000      -0.522122       -14.2077
 177   2.0000      -0.516021       -14.0416
 178   2.0000      -0.512509       -13.9461
 179   2.0000      -0.509452       -13.8629
 180   2.0000      -0.507497       -13.8097
 181   2.0000      -0.506043       -13.7701
 182   2.0000      -0.501368       -13.6429
 183   2.0000      -0.499969       -13.6048
 184   2.0000      -0.498630       -13.5684
 185   2.0000      -0.495973       -13.4961
 186   2.0000      -0.493066       -13.4170
 187   2.0000      -0.491878       -13.3847
 188   2.0000      -0.486565       -13.2401
 189   2.0000      -0.481315       -13.0972
 190   2.0000      -0.478196       -13.0124
 191   2.0000      -0.478074       -13.0090
 192   2.0000      -0.473885       -12.8951
 193   2.0000      -0.472747       -12.8641
 194   2.0000      -0.471619       -12.8334
 195   2.0000      -0.469545       -12.7770
 196   2.0000      -0.467393       -12.7184
 197   2.0000      -0.462667       -12.5898
 198   2.0000      -0.461632       -12.5616
 199   2.0000      -0.459443       -12.5021
 200   2.0000      -0.459093       -12.4925
 201   2.0000      -0.457556       -12.4507
 202   2.0000      -0.454669       -12.3722
 203   2.0000      -0.453509       -12.3406
 204   2.0000      -0.451434       -12.2841
 205   2.0000      -0.448386       -12.2012
 206   2.0000      -0.441973       -12.0267
 207   2.0000      -0.441448       -12.0124
 208   2.0000      -0.438932       -11.9440
 209   2.0000      -0.438543       -11.9334
 210   2.0000      -0.436748       -11.8845
 211   2.0000      -0.434043       -11.8109
 212   2.0000      -0.432014       -11.7557
 213   2.0000      -0.430976       -11.7275
 214   2.0000      -0.425503       -11.5785
 215   2.0000      -0.421834       -11.4787
 216   2.0000      -0.420202       -11.4343
 217   2.0000      -0.419345       -11.4110
 218   2.0000      -0.418008       -11.3746
 219   2.0000      -0.415587       -11.3087
 220   2.0000      -0.406956       -11.0738
 221   2.0000      -0.402905       -10.9636
 222   2.0000      -0.395943       -10.7742
 223   2.0000      -0.393605       -10.7105
 224   2.0000      -0.391563       -10.6550
 225   2.0000      -0.388651       -10.5757
 226   2.0000      -0.381943       -10.3932
 227   2.0000      -0.372595       -10.1388
 228   2.0000      -0.370549       -10.0832
 229   2.0000      -0.369246       -10.0477
 230   2.0000      -0.363535        -9.8923
 231   2.0000      -0.354597        -9.6491
 232   2.0000      -0.351911        -9.5760
 233   2.0000      -0.343715        -9.3530
 234   2.0000      -0.339008        -9.2249
 235   2.0000      -0.331837        -9.0298
 236   2.0000      -0.327384        -8.9086
 237   2.0000      -0.320214        -8.7135
 238   2.0000      -0.318492        -8.6666
 239   2.0000      -0.307770        -8.3748
 240   2.0000      -0.297596        -8.0980
 241   2.0000      -0.277808        -7.5595
 242   2.0000      -0.265757        -7.2316
 243   2.0000      -0.249793        -6.7972
 244   2.0000      -0.208248        -5.6667
 245   0.0000      -0.107558        -2.9268
 246   0.0000      -0.098380        -2.6771
 247   0.0000      -0.080930        -2.2022
 248   0.0000      -0.069840        -1.9005
 249   0.0000      -0.064748        -1.7619

MULLIKEN ATOMIC CHARGES
-----------------------
   0 C :   -0.106334
   1 C :    0.242297
   2 F :   -0.169346
   3 C :    0.240904
   4 F :   -0.171334
   5 C :   -0.107466
   6 C :    0.130555
   7 C :    0.107143
   8 C :   -0.080222
   9 C :    0.050945
  10 C :    0.001546
  11 C :   -0.043536
  12 C :    0.157806
  13 O :   -0.128648
  14 C :   -0.075444
  15 C :    0.301677
  16 C :   -0.325488
  17 C :   -0.199277
  18 N :    0.177693
  19 C :   -0.178320
  20 N :    0.154911
  21 C :   -0.060682
  22 C :    0.270668
  23 C :   -0.307496
  24 C :   -0.194923
  25 N :    0.153935
  26 S :    0.212713
  27 C :   -0.048065
  28 C :   -0.070268
  29 C :   -0.276794
  30 N :    0.170567
  31 N :   -0.057201
  32 C :   -0.148647
  33 S :    0.201595
  34 C :   -0.010486
  35 N :    0.275673
  36 O :   -0.243359
  37 O :   -0.258312
  38 C :    0.013413
  39 C :    0.121779
  40 C :   -0.044618
  41 C :    0.000779
  42 C :   -0.010963
  43 C :   -0.010147
  44 C :    0.019134
  45 C :    0.041067
  46 C :   -0.043481
  47 S :    0.034832
  48 C :   -0.007335
  49 C :    0.020541
  50 C :    0.026629
  51 C :   -0.040918
  52 S :    0.077818
  53 C :    0.006565
  54 C :    0.045042
  55 C :    0.003290
  56 C :    0.064194
  57 C :    0.004637
  58 C :    0.046381
  59 C :   -0.020192
  60 C :    0.062238
  61 C :   -0.028041
  62 C :    0.060366
  63 C :   -0.001415
  64 C :    0.065534
  65 C :   -0.028372
  66 C :    0.010096
  67 C :   -0.023182
  68 H :    0.009089
  69 H :   -0.009994
  70 H :   -0.005622
  71 H :   -0.046490
  72 H :    0.061853
  73 H :    0.171850
  74 H :    0.011682
  75 H :   -0.007490
  76 H :    0.011759
  77 H :   -0.018667
  78 H :   -0.013113
  79 H :   -0.013218
  80 H :   -0.017143
  81 H :   -0.016051
  82 H :   -0.027940
  83 H :   -0.017005
  84 H :   -0.031364
  85 H :   -0.023304
  86 H :   -0.027918
  87 H :   -0.027646
  88 H :   -0.028093
  89 H :   -0.019586
  90 H :    0.009396
  91 H :    0.020365
Sum of atomic charges:    0.0000000

LOEWDIN ATOMIC CHARGES
----------------------
   0 C :   -0.027640
   1 C :    0.068060
   2 F :   -0.047220
   3 C :    0.068914
   4 F :   -0.049325
   5 C :   -0.035123
   6 C :   -0.007392
   7 C :   -0.004938
   8 C :    0.018815
   9 C :   -0.021231
  10 C :   -0.048925
  11 C :    0.035856
  12 C :    0.088390
  13 O :   -0.127796
  14 C :   -0.060683
  15 C :    0.073333
  16 C :   -0.120019
  17 C :   -0.022578
  18 N :   -0.034921
  19 C :   -0.015769
  20 N :   -0.041894
  21 C :    0.071209
  22 C :    0.004643
  23 C :   -0.213466
  24 C :   -0.051643
  25 N :   -0.035220
  26 S :    0.481602
  27 C :   -0.082453
  28 C :   -0.144574
  29 C :   -0.046087
  30 N :   -0.047179
  31 N :    0.020456
  32 C :   -0.152872
  33 S :    0.465745
  34 C :   -0.198666
  35 N :    0.273435
  36 O :   -0.209414
  37 O :   -0.224729
  38 C :   -0.002214
  39 C :   -0.069759
  40 C :   -0.062163
  41 C :   -0.018455
  42 C :   -0.087724
  43 C :   -0.119277
  44 C :   -0.052918
  45 C :   -0.016871
  46 C :   -0.193417
  47 S :    0.368987
  48 C :   -0.155545
  49 C :   -0.050000
  50 C :   -0.033175
  51 C :   -0.168335
  52 S :    0.417749
  53 C :   -0.027629
  54 C :   -0.073364
  55 C :    0.025186
  56 C :   -0.052066
  57 C :    0.077117
  58 C :   -0.060866
  59 C :    0.046608
  60 C :   -0.057516
  61 C :    0.014019
  62 C :   -0.056851
  63 C :    0.070597
  64 C :   -0.061139
  65 C :    0.044225
  66 C :   -0.021621
  67 C :   -0.052438
  68 H :    0.048554
  69 H :    0.042098
  70 H :    0.040360
  71 H :    0.040479
  72 H :    0.054601
  73 H :    0.107296
  74 H :    0.047179
  75 H :    0.029068
  76 H :    0.012197
  77 H :    0.030616
  78 H :    0.032864
  79 H :    0.032458
  80 H :    0.030389
  81 H :    0.028999
  82 H :    0.032515
  83 H :    0.008080
  84 H :    0.033014
  85 H :    0.025325
  86 H :    0.023956
  87 H :    0.034211
  88 H :    0.023875
  89 H :    0.029108
  90 H :    0.018307
  91 H :    0.024603

  Mayer bond orders larger than 0.100000
B(  0-C ,  1-C ) :   1.4420 B(  0-C ,  5-C ) :   0.1093 B(  0-C ,  7-C ) :   1.1886
B(  0-C , 68-H ) :   1.0070 B(  1-C ,  2-F ) :   1.1365 B(  1-C ,  3-C ) :   1.1885
B(  3-C ,  4-F ) :   1.1363 B(  3-C ,  5-C ) :   1.4444 B(  5-C ,  6-C ) :   1.1886
B(  5-C , 69-H ) :   1.0068 B(  6-C ,  7-C ) :   1.2453 B(  6-C , 11-C ) :   1.2000
B(  7-C ,  8-C ) :   1.2218 B(  8-C ,  9-C ) :   1.4401 B(  8-C , 70-H ) :   0.9900
B(  9-C , 10-C ) :   1.2091 B(  9-C , 15-C ) :   0.9998 B( 10-C , 11-C ) :   1.4807
B( 10-C , 12-C ) :   0.9508 B( 11-C , 71-H ) :   1.0090 B( 12-C , 13-O ) :   2.1978
B( 12-C , 14-C ) :   0.9236 B( 14-C , 15-C ) :   1.0298 B( 14-C , 21-C ) :   1.7065
B( 15-C , 16-C ) :   1.6721 B( 16-C , 17-C ) :   1.1437 B( 16-C , 19-C ) :   1.1407
B( 17-C , 18-N ) :   2.9856 B( 19-C , 20-N ) :   2.9642 B( 21-C , 22-C ) :   1.0471
B( 21-C , 72-H ) :   0.9286 B( 22-C , 23-C ) :   1.4992 B( 22-C , 28-C ) :   1.2634
B( 23-C , 24-C ) :   1.2643 B( 23-C , 26-S ) :   1.0870 B( 24-C , 25-N ) :   2.9211
B( 26-S , 27-C ) :   1.1296 B( 27-C , 28-C ) :   1.4206 B( 27-C , 31-N ) :   1.2437
B( 28-C , 29-C ) :   1.1078 B( 29-C , 30-N ) :   3.0180 B( 31-N , 32-C ) :   1.0958
B( 31-N , 73-H ) :   0.8941 B( 32-C , 33-S ) :   1.1181 B( 32-C , 39-C ) :   1.4314
B( 33-S , 34-C ) :   1.1136 B( 34-C , 35-N ) :   0.9582 B( 34-C , 38-C ) :   1.4920
B( 35-N , 36-O ) :   1.5443 B( 35-N , 37-O ) :   1.5188 B( 36-O , 37-O ) :   0.2642
B( 38-C , 39-C ) :   1.2170 B( 38-C , 74-H ) :   1.0060 B( 39-C , 40-C ) :   1.0591
B( 40-C , 41-C ) :   1.6549 B( 40-C , 75-H ) :   0.9772 B( 41-C , 42-C ) :   1.1761
B( 41-C , 76-H ) :   0.9570 B( 42-C , 43-C ) :   1.5338 B( 42-C , 77-H ) :   0.9887
B( 43-C , 44-C ) :   1.1587 B( 43-C , 47-S ) :   1.0499 B( 44-C , 45-C ) :   1.5588
B( 44-C , 78-H ) :   0.9987 B( 45-C , 46-C ) :   1.2182 B( 45-C , 79-H ) :   0.9935
B( 46-C , 47-S ) :   1.0364 B( 46-C , 48-C ) :   1.4720 B( 48-C , 49-C ) :   1.2051
B( 48-C , 52-S ) :   1.0737 B( 49-C , 50-C ) :   1.5511 B( 49-C , 80-H ) :   0.9950
B( 50-C , 51-C ) :   1.1519 B( 50-C , 81-H ) :   0.9977 B( 51-C , 52-S ) :   1.0457
B( 51-C , 53-C ) :   1.5469 B( 53-C , 54-C ) :   1.1568 B( 53-C , 82-H ) :   0.9679
B( 54-C , 55-C ) :   1.4150 B( 54-C , 65-C ) :   1.1306 B( 55-C , 56-C ) :   1.1422
B( 55-C , 83-H ) :   0.9895 B( 56-C , 57-C ) :   1.4163 B( 56-C , 64-C ) :   1.1388
B( 57-C , 58-C ) :   1.1559 B( 57-C , 84-H ) :   1.0025 B( 58-C , 59-C ) :   1.4128
B( 58-C , 62-C ) :   1.1255 B( 59-C , 60-C ) :   1.1615 B( 59-C , 85-H ) :   1.0078
B( 60-C , 61-C ) :   1.4905 B( 60-C , 66-C ) :   1.0838 B( 61-C , 62-C ) :   1.0947
B( 61-C , 86-H ) :   1.0165 B( 62-C , 63-C ) :   1.4633 B( 63-C , 64-C ) :   1.1222
B( 63-C , 87-H ) :   1.0038 B( 64-C , 65-C ) :   1.4335 B( 65-C , 88-H ) :   1.0135
B( 66-C , 67-C ) :   1.9341 B( 66-C , 89-H ) :   0.9666 B( 67-C , 90-H ) :   0.9530
B( 67-C , 91-H ) :   0.9494

-----------------------------------------------------------------------------
         ABSORPTION SPECTRUM VIA TRANSITION ELECTRIC DIPOLE MOMENTS
-----------------------------------------------------------------------------
State   Energy  Wavelength   fosc         T2         TX        TY        TZ
        (cm-1)    (nm)                  (au**2)     (au)      (au)      (au)
-----------------------------------------------------------------------------
   0    6894.5   1450.4   0.018860846   0.90060  -0.61197   0.63586  -0.34896
   1    7471.5   1338.4   0.018786364   0.82777  -0.34109   0.78353  -0.31227
   2   12962.1    771.5   0.566580872  14.39009  -0.99567   3.00473  -2.09053
   3   14864.3    672.8   0.111595712   2.47161  -0.55004   1.37603  -0.52498
   4   15599.9    641.0   0.004426310   0.09341  -0.14607   0.22629  -0.14446
   5   17277.8    578.8   0.243777725   4.64496   1.29612  -1.12534   1.30332
   6   17364.4    575.9   0.061046211   1.15737   0.52670  -0.92957   0.12596
   7   20886.0    478.8   0.041299295   0.65097  -0.24708   0.72932   0.24087
   8   21440.6    466.4   0.034801453   0.53436  -0.21958   0.65864   0.22878
   9   21665.1    461.6   0.026702875   0.40576  -0.41732   0.12105  -0.46578
  10   21895.3    456.7   0.002289701   0.03443  -0.15386   0.06071   0.08408
  11   23001.8    434.7   0.327453397   4.68665  -2.08135   0.55863   0.20631
  12   24282.9    411.8   0.168411884   2.28322   1.27474  -0.77044   0.25433
  13   24905.5    401.5   0.125454022   1.65831   0.86875  -0.45842  -0.83272
  14   25065.4    399.0   0.090209050   1.18482  -0.89532   0.08197  -0.61359
  15   25230.2    396.4   0.073913729   0.96445   0.95511  -0.21743  -0.07032
  16   25454.9    392.9   0.026546136   0.34333  -0.10265  -0.07466   0.57203
  17   25998.9    384.6   0.218459798   2.76625  -1.45702   0.67549  -0.43248
  18   26522.9    377.0   0.057700110   0.71619   0.66727   0.35856  -0.37733
  19   27077.1    369.3   0.913142821  11.10228  -1.98708   0.53717   2.62016
  20   27700.9    361.0   0.163024136   1.93746  -0.88448   0.10593   1.06955
  21   27888.8    358.6   0.126259828   1.49043  -0.21215   0.16766   1.19051
  22   28618.7    349.4   0.029278209   0.33680  -0.32726  -0.40228   0.26052
  23   28764.9    347.6   0.076904380   0.88016   0.91245  -0.20033   0.08644
  24   29029.8    344.5   0.049602314   0.56251   0.72224  -0.17800  -0.09592
  25   29542.9    338.5   0.052791723   0.58829  -0.08267   0.27526   0.71111
  26   30003.0    333.3   0.030868554   0.33871   0.53473  -0.14967  -0.17427
  27   30370.0    329.3   0.195922059   2.12380   0.81865  -0.07081  -1.20358
  28   30668.0    326.1   0.117855456   1.26514  -0.58492  -0.09298   0.95623
  29   30814.6    324.5   0.044117539   0.47134  -0.35135   0.21072   0.55090
  30   32074.1    311.8   0.048665555   0.49951   0.27000   0.18716  -0.62576
  31   32100.0    311.5   0.136603126   1.40098  -0.81787   0.32079   0.79320
  32   32247.0    310.1   0.037669454   0.38457   0.11588  -0.23984  -0.56002
  33   32398.2    308.7   0.086721963   0.88122   0.69918  -0.59231   0.20381
  34   32479.7    307.9   0.003371147   0.03417   0.10479  -0.01477  -0.15156
  35   32693.3    305.9   0.017720208   0.17844   0.35421  -0.21799  -0.07387
  36   32821.7    304.7   0.035395253   0.35503  -0.25688   0.29107  -0.45202
  37   33235.3    300.9   0.141655863   1.40317  -0.47310   0.37618   1.01874
  38   33380.6    299.6   0.336480695   3.31850  -0.90994  -0.36909   1.53437
  39   33662.3    297.1   0.011451507   0.11199  -0.16863   0.24530   0.15292
  40   33737.0    296.4   0.926729862   9.04320  -2.57463  -1.11514   1.08209
  41   34305.2    291.5   0.026377715   0.25314   0.42004   0.07773  -0.26582
  42   34561.8    289.3   0.041216801   0.39260   0.14558   0.05967  -0.60651
  43   34827.9    287.1   0.025749237   0.24340   0.18867   0.25349  -0.37887
  44   34965.8    286.0   0.240771640   2.26692   0.94696  -0.01127  -1.17050
  45   35335.8    283.0   0.019843752   0.18488  -0.42914   0.02547  -0.00840
  46   35388.4    282.6   0.022807986   0.21218   0.46050  -0.01059  -0.00306
  47   35757.1    279.7   0.001759615   0.01620  -0.04519   0.08660  -0.08160
  48   35970.5    278.0   0.031156151   0.28515  -0.42211   0.24392  -0.21789
  49   36108.9    276.9   0.059674672   0.54406  -0.34394  -0.45933   0.46345
  50   36287.2    275.6   0.023752146   0.21549   0.44734  -0.06214  -0.10729
  51   36391.3    274.8   0.018324840   0.16577  -0.27362   0.27475  -0.12418
  52   36506.1    273.9   0.045137617   0.40705  -0.29899  -0.16660   0.53842
  53   36752.0    272.1   0.003614697   0.03238  -0.00520   0.12488   0.12945
  54   36909.6    270.9   0.142655777   1.27240  -1.07452  -0.22050   0.26305
  55   37131.5    269.3   0.005573932   0.04942   0.21211   0.06539  -0.01233
  56   37267.6    268.3   0.002875396   0.02540   0.06419   0.00399  -0.14582
  57   37375.3    267.6   0.029095665   0.25628  -0.21047   0.26677  -0.37526
  58   37614.9    265.9   0.104578910   0.91529  -0.60375   0.35685  -0.65072
  59   37804.1    264.5   0.054731074   0.47662   0.46839  -0.18509  -0.47220
  60   38027.6    263.0   0.004193447   0.03630  -0.04850  -0.02023  -0.18314
  61   38327.9    260.9   0.113465349   0.97459   0.12786  -0.72817  -0.65423
  62   38550.3    259.4   0.022412757   0.19140   0.35921  -0.07097   0.23944
  63   38955.0    256.7   0.033519793   0.28328   0.26969  -0.11543   0.44410
  64   39111.4    255.7   0.011673015   0.09826   0.07453   0.20529  -0.22485
  65   39196.0    255.1   0.090585640   0.76084  -0.74327   0.06504   0.45184
  66   39375.8    254.0   0.079025731   0.66072  -0.46883  -0.07186   0.66011
  67   39603.9    252.5   0.022136208   0.18401  -0.14521   0.07883   0.39586
  68   39643.3    252.2   0.053656985   0.44559  -0.64051   0.10855  -0.15345
  69   40072.9    249.5   0.051305476   0.42149   0.11884  -0.39378  -0.50230
  70   40193.5    248.8   0.033075759   0.27091   0.08549  -0.12237  -0.49863
  71   40217.6    248.6   0.028814823   0.23587  -0.15030  -0.14065  -0.43989

FINAL SINGLE POINT ENERGY     -4376.425081301550

DIPOLE MOMENT
-------------
                                X             Y             Z
Electronic contribution:      8.05458     -26.85290     -19.70718
Nuclear contribution   :     -4.98234      28.01829      18.94145
                        -----------------------------------------
Total Dipole Moment    :      3.07224       1.16539      -0.76573
                        -----------------------------------------
Magnitude (a.u.)       :      3.37389
Magnitude (Debye)      :      8.57575

Rotational constants in cm-1:     0.001118     0.000720     0.000585
Rotational constants in MHz :    33.513758    21.595449    17.537418

                             ****ORCA TERMINATED NORMALLY****
TOTAL RUN TIME: 0 days 0 hours 12 minutes 32 seconds 626 msec
