                         Program Version 4.2.0 -  RELEASE  -
|  1> # ORCA input file
|  2> # SCF done       -174.216622313548          0.000557952416
|  3> ! CAM-B3LYP def2-SVP def2/J RIJCOSX Grid4 TightSCF
|  4> %maxcore 5000
|  5> %tddft
|  6>     Mode sTDDFT
|  7>     Ethresh 5.0
|  8>     maxcore 5000
|  9> end
| 10>
| 11> %pal
| 12>   nprocs 6
| 13>   end
| 14> * xyz 0 1
| 15>    C       11.49956        -5.27291         3.18093
| 16>    C       10.92101        -5.80264         4.26959
| 17>    C       10.66969        -5.16575         5.52809
| 18>    C       10.09444        -5.96675         6.45689
| 19>    C        9.84042        -7.28925         6.01292
| 20>    S       10.34611        -7.47840         4.34865
| 21>    C        9.29361        -8.33140         6.73777
| 22>    C        8.89377        -8.34363         8.08790
| 23>    C        8.41160        -9.55340         8.50032
| 24>    C        8.41024       -10.56208         7.51239
| 25>    S        9.02583        -9.90504         6.01633
| 26>    C        7.91318       -11.84141         7.74682
| 27>    C        7.81734       -12.99220         6.98431
| 28>    C        8.33150       -13.37401         5.74729
| 29>    C        8.00671       -14.59166         5.11777
| 30>    C        8.62454       -14.79718         3.91239
| 31>    C        9.48427       -13.75218         3.54398
| 32>    S        9.49446       -12.51163         4.77377
| 33>    C       10.23865       -13.60516         2.38572
| 34>    C       10.34519       -14.47163         1.28491
| 35>    C       11.14361       -13.99434         0.28305
| 36>    C       11.71306       -12.72646         0.54097
| 37>    S       11.20255       -12.17181         2.12382
| 38>    C       12.50657       -12.01293        -0.33012
| 39>    C       13.07547       -10.74766        -0.13104
| 40>    S       13.87146        -9.95360        -1.46756
| 41>    C       14.17911        -8.53501        -0.52196
| 42>    C       13.75368        -8.72452         0.80099
| 43>    C       13.13286        -9.95623         1.00862
| 44>    O       14.02532        -7.79622         1.73765
| 45>    C       13.74278        -8.12620         3.07860
| 46>    C       14.80886        -7.37456        -1.07509
| 47>    C       14.47886        -6.08940        -0.62730
| 48>    F       13.38809        -5.97915         0.16768
| 49>    C       15.15749        -4.94549        -1.02017
| 50>    O       14.89795        -3.68126        -0.61817
| 51>    C       13.97098        -3.42040         0.41751
| 52>    C       16.18530        -5.08412        -1.98782
| 53>    C       16.40885        -6.36141        -2.54103
| 54>    C       15.77514        -7.50725        -2.10794
| 55>    O       15.96804        -8.77295        -2.54354
| 56>    C       16.95849        -9.07403        -3.50411
| 57>    F       17.35377        -6.43096        -3.51061
| 58>    C       16.93109        -3.99081        -2.52489
| 59>    C       17.26715        -2.76784        -2.02537
| 60>    C       17.71910        -1.72203        -2.98546
| 61>    O       17.99406        -1.87872        -4.15388
| 62>    C       17.71343        -0.45810        -2.22291
| 63>    C       17.95179         0.81177        -2.66063
| 64>    C       17.86364         1.88495        -1.74465
| 65>    C       17.52449         1.61579        -0.38712
| 66>    C       17.43059         2.69007         0.51873
| 67>    C       17.66960         3.96220         0.07906
| 68>    C       18.00729         4.24712        -1.25023
| 69>    C       18.10085         3.21577        -2.14342
| 70>    F       17.58008         4.99023         0.94522
| 71>    C       17.29263         0.28681         0.03976
| 72>    C       17.39061        -0.73607        -0.86407
| 73>    C       17.24089        -2.18073        -0.70980
| 74>    C       17.27364        -2.85327         0.48690
| 75>    C       17.39907        -4.25063         0.59136
| 76>    N       17.52434        -5.38437         0.72450
| 77>    C       17.23532        -2.22889         1.74734
| 78>    N       17.16328        -1.78069         2.80294
| 79>    H       11.82931        -4.24852         3.18705
| 80>    H       11.65887        -5.83657         2.28067
| 81>    H       10.93751        -4.13619         5.68515
| 82>    H        9.84175        -5.65330         7.45421
| 83>    H        8.97697        -7.47902         8.72126
| 84>    H        8.06298        -9.75052         9.49936
| 85>    H        7.47907       -11.93467         8.73707
| 86>    H        7.22934       -13.77887         7.44570
| 87>    H        7.30986       -15.28238         5.55982
| 88>    H        8.46966       -15.66180         3.29264
| 89>    H        9.82956       -15.41443         1.24952
| 90>    H       11.33490       -14.51403        -0.63908
| 91>    H       12.68342       -12.46722        -1.29603
| 92>    H       12.75064       -10.27548         1.95856
| 93>    H       14.31078        -9.00586         3.39615
| 94>    H       12.67537        -8.30800         3.23090
| 95>    H       14.05054        -7.26195         3.66445
| 96>    H       14.07485        -2.35610         0.62843
| 97>    H       14.20248        -3.99461         1.31761
| 98>    H       12.94568        -3.62789         0.10413
| 99>    H       16.91062       -10.15512        -3.62511
|100>    H       17.95423        -8.78922        -3.15774
|101>    H       16.75269        -8.59214        -4.46233
|102>    H       17.26895        -4.13691        -3.54830
|103>    H       18.20460         0.99784        -3.69374
|104>    H       17.17653         2.50786         1.55133
|105>    H       18.18570         5.27062        -1.53953
|106>    H       18.35954         3.40986        -3.17354
|107>    H       17.03626         0.11351         1.07301
|108> *
|109>
|110>                          ****END OF INPUT****

CARTESIAN COORDINATES (ANGSTROEM)
---------------------------------
  C     11.499560   -5.272910    3.180930
  C     10.921010   -5.802640    4.269590
  C     10.669690   -5.165750    5.528090
  C     10.094440   -5.966750    6.456890
  C      9.840420   -7.289250    6.012920
  S     10.346110   -7.478400    4.348650
  C      9.293610   -8.331400    6.737770
  C      8.893770   -8.343630    8.087900
  C      8.411600   -9.553400    8.500320
  C      8.410240  -10.562080    7.512390
  S      9.025830   -9.905040    6.016330
  C      7.913180  -11.841410    7.746820
  C      7.817340  -12.992200    6.984310
  C      8.331500  -13.374010    5.747290
  C      8.006710  -14.591660    5.117770
  C      8.624540  -14.797180    3.912390
  C      9.484270  -13.752180    3.543980
  S      9.494460  -12.511630    4.773770
  C     10.238650  -13.605160    2.385720
  C     10.345190  -14.471630    1.284910
  C     11.143610  -13.994340    0.283050
  C     11.713060  -12.726460    0.540970
  S     11.202550  -12.171810    2.123820
  C     12.506570  -12.012930   -0.330120
  C     13.075470  -10.747660   -0.131040
  S     13.871460   -9.953600   -1.467560
  C     14.179110   -8.535010   -0.521960
  C     13.753680   -8.724520    0.800990
  C     13.132860   -9.956230    1.008620
  O     14.025320   -7.796220    1.737650
  C     13.742780   -8.126200    3.078600
  C     14.808860   -7.374560   -1.075090
  C     14.478860   -6.089400   -0.627300
  F     13.388090   -5.979150    0.167680
  C     15.157490   -4.945490   -1.020170
  O     14.897950   -3.681260   -0.618170
  C     13.970980   -3.420400    0.417510
  C     16.185300   -5.084120   -1.987820
  C     16.408850   -6.361410   -2.541030
  C     15.775140   -7.507250   -2.107940
  O     15.968040   -8.772950   -2.543540
  C     16.958490   -9.074030   -3.504110
  F     17.353770   -6.430960   -3.510610
  C     16.931090   -3.990810   -2.524890
  C     17.267150   -2.767840   -2.025370
  C     17.719100   -1.722030   -2.985460
  O     17.994060   -1.878720   -4.153880
  C     17.713430   -0.458100   -2.222910
  C     17.951790    0.811770   -2.660630
  C     17.863640    1.884950   -1.744650
  C     17.524490    1.615790   -0.387120
  C     17.430590    2.690070    0.518730
  C     17.669600    3.962200    0.079060
  C     18.007290    4.247120   -1.250230
  C     18.100850    3.215770   -2.143420
  F     17.580080    4.990230    0.945220
  C     17.292630    0.286810    0.039760
  C     17.390610   -0.736070   -0.864070
  C     17.240890   -2.180730   -0.709800
  C     17.273640   -2.853270    0.486900
  C     17.399070   -4.250630    0.591360
  N     17.524340   -5.384370    0.724500
  C     17.235320   -2.228890    1.747340
  N     17.163280   -1.780690    2.802940
  H     11.829310   -4.248520    3.187050
  H     11.658870   -5.836570    2.280670
  H     10.937510   -4.136190    5.685150
  H      9.841750   -5.653300    7.454210
  H      8.976970   -7.479020    8.721260
  H      8.062980   -9.750520    9.499360
  H      7.479070  -11.934670    8.737070
  H      7.229340  -13.778870    7.445700
  H      7.309860  -15.282380    5.559820
  H      8.469660  -15.661800    3.292640
  H      9.829560  -15.414430    1.249520
  H     11.334900  -14.514030   -0.639080
  H     12.683420  -12.467220   -1.296030
  H     12.750640  -10.275480    1.958560
  H     14.310780   -9.005860    3.396150
  H     12.675370   -8.308000    3.230900
  H     14.050540   -7.261950    3.664450
  H     14.074850   -2.356100    0.628430
  H     14.202480   -3.994610    1.317610
  H     12.945680   -3.627890    0.104130
  H     16.910620  -10.155120   -3.625110
  H     17.954230   -8.789220   -3.157740
  H     16.752690   -8.592140   -4.462330
  H     17.268950   -4.136910   -3.548300
  H     18.204600    0.997840   -3.693740
  H     17.176530    2.507860    1.551330
  H     18.185700    5.270620   -1.539530
  H     18.359540    3.409860   -3.173540
  H     17.036260    0.113510    1.073010

 Total Charge           Charge          ....    0
 Multiplicity           Mult            ....    1
 Number of Electrons    NEL             ....  482
 Basis Dimension        Dim             .... 1061

ORBITAL ENERGIES
----------------

  NO   OCC          E(Eh)            E(eV)
   0   2.0000     -88.943371     -2420.2722
   1   2.0000     -88.943287     -2420.2699
   2   2.0000     -88.943051     -2420.2635
   3   2.0000     -88.942912     -2420.2597
   4   2.0000     -88.940608     -2420.1970
   5   2.0000     -24.788233      -674.5221
   6   2.0000     -24.779661      -674.2889
   7   2.0000     -24.778365      -674.2536
   8   2.0000     -19.260218      -524.0972
   9   2.0000     -19.252033      -523.8744
  10   2.0000     -19.238031      -523.4934
  11   2.0000     -19.202942      -522.5386
  12   2.0000     -14.408541      -392.0763
  13   2.0000     -14.404331      -391.9618
  14   2.0000     -10.362713      -281.9838
  15   2.0000     -10.360451      -281.9222
  16   2.0000     -10.354491      -281.7600
  17   2.0000     -10.353268      -281.7267
  18   2.0000     -10.350910      -281.6626
  19   2.0000     -10.342101      -281.4229
  20   2.0000     -10.329983      -281.0931
  21   2.0000     -10.329118      -281.0696
  22   2.0000     -10.326420      -280.9962
  23   2.0000     -10.322412      -280.8871
  24   2.0000     -10.319034      -280.7952
  25   2.0000     -10.311634      -280.5938
  26   2.0000     -10.308541      -280.5097
  27   2.0000     -10.307959      -280.4938
  28   2.0000     -10.305875      -280.4371
  29   2.0000     -10.305599      -280.4296
  30   2.0000     -10.305484      -280.4265
  31   2.0000     -10.305240      -280.4198
  32   2.0000     -10.305223      -280.4194
  33   2.0000     -10.304749      -280.4065
  34   2.0000     -10.304371      -280.3962
  35   2.0000     -10.303990      -280.3858
  36   2.0000     -10.303637      -280.3762
  37   2.0000     -10.300774      -280.2983
  38   2.0000     -10.298416      -280.2342
  39   2.0000     -10.296704      -280.1876
  40   2.0000     -10.296266      -280.1756
  41   2.0000     -10.293141      -280.0906
  42   2.0000     -10.293028      -280.0875
  43   2.0000     -10.291330      -280.0413
  44   2.0000     -10.290997      -280.0323
  45   2.0000     -10.288901      -279.9752
  46   2.0000     -10.287702      -279.9426
  47   2.0000     -10.287454      -279.9359
  48   2.0000     -10.287291      -279.9314
  49   2.0000     -10.283168      -279.8192
  50   2.0000     -10.282407      -279.7985
  51   2.0000     -10.282254      -279.7944
  52   2.0000     -10.281979      -279.7869
  53   2.0000     -10.281957      -279.7863
  54   2.0000     -10.280813      -279.7551
  55   2.0000     -10.280009      -279.7333
  56   2.0000     -10.279951      -279.7317
  57   2.0000     -10.279880      -279.7298
  58   2.0000     -10.279855      -279.7291
  59   2.0000     -10.279290      -279.7137
  60   2.0000     -10.279130      -279.7094
  61   2.0000     -10.278119      -279.6818
  62   2.0000     -10.268642      -279.4240
  63   2.0000     -10.262035      -279.2442
  64   2.0000      -8.039208      -218.7580
  65   2.0000      -8.039147      -218.7563
  66   2.0000      -8.038936      -218.7506
  67   2.0000      -8.038054      -218.7266
  68   2.0000      -8.036658      -218.6886
  69   2.0000      -6.008881      -163.5100
  70   2.0000      -6.008831      -163.5086
  71   2.0000      -6.008645      -163.5035
  72   2.0000      -6.007453      -163.4711
  73   2.0000      -6.006442      -163.4436
  74   2.0000      -6.004767      -163.3980
  75   2.0000      -6.004645      -163.3947
  76   2.0000      -6.004443      -163.3892
  77   2.0000      -6.003386      -163.3604
  78   2.0000      -6.002508      -163.3365
  79   2.0000      -6.000353      -163.2779
  80   2.0000      -6.000277      -163.2758
  81   2.0000      -5.999982      -163.2678
  82   2.0000      -5.999907      -163.2658
  83   2.0000      -5.997386      -163.1972
  84   2.0000      -1.300965       -35.4011
  85   2.0000      -1.293968       -35.2107
  86   2.0000      -1.292367       -35.1671
  87   2.0000      -1.162695       -31.6385
  88   2.0000      -1.156625       -31.4734
  89   2.0000      -1.145134       -31.1607
  90   2.0000      -1.117764       -30.4159
  91   2.0000      -1.008313       -27.4376
  92   2.0000      -0.993163       -27.0253
  93   2.0000      -0.991629       -26.9836
  94   2.0000      -0.990172       -26.9440
  95   2.0000      -0.985391       -26.8138
  96   2.0000      -0.977426       -26.5971
  97   2.0000      -0.970351       -26.4046
  98   2.0000      -0.967115       -26.3165
  99   2.0000      -0.965956       -26.2850
 100   2.0000      -0.958402       -26.0794
 101   2.0000      -0.918683       -24.9986
 102   2.0000      -0.903496       -24.5854
 103   2.0000      -0.897555       -24.4237
 104   2.0000      -0.885810       -24.1041
 105   2.0000      -0.879650       -23.9365
 106   2.0000      -0.875129       -23.8135
 107   2.0000      -0.866445       -23.5772
 108   2.0000      -0.853851       -23.2345
 109   2.0000      -0.849665       -23.1206
 110   2.0000      -0.843037       -22.9402
 111   2.0000      -0.839363       -22.8402
 112   2.0000      -0.832641       -22.6573
 113   2.0000      -0.826599       -22.4929
 114   2.0000      -0.826155       -22.4808
 115   2.0000      -0.823082       -22.3972
 116   2.0000      -0.814648       -22.1677
 117   2.0000      -0.811447       -22.0806
 118   2.0000      -0.808584       -22.0027
 119   2.0000      -0.796936       -21.6857
 120   2.0000      -0.786161       -21.3925
 121   2.0000      -0.773036       -21.0354
 122   2.0000      -0.766529       -20.8583
 123   2.0000      -0.755196       -20.5499
 124   2.0000      -0.747263       -20.3341
 125   2.0000      -0.738725       -20.1017
 126   2.0000      -0.718903       -19.5624
 127   2.0000      -0.711361       -19.3571
 128   2.0000      -0.701822       -19.0975
 129   2.0000      -0.699454       -19.0331
 130   2.0000      -0.693696       -18.8764
 131   2.0000      -0.683178       -18.5902
 132   2.0000      -0.674003       -18.3406
 133   2.0000      -0.670194       -18.2369
 134   2.0000      -0.666940       -18.1484
 135   2.0000      -0.656918       -17.8756
 136   2.0000      -0.649380       -17.6705
 137   2.0000      -0.645623       -17.5683
 138   2.0000      -0.637072       -17.3356
 139   2.0000      -0.632925       -17.2228
 140   2.0000      -0.627087       -17.0639
 141   2.0000      -0.625577       -17.0228
 142   2.0000      -0.625115       -17.0103
 143   2.0000      -0.621221       -16.9043
 144   2.0000      -0.620693       -16.8899
 145   2.0000      -0.614680       -16.7263
 146   2.0000      -0.608963       -16.5707
 147   2.0000      -0.605564       -16.4782
 148   2.0000      -0.597735       -16.2652
 149   2.0000      -0.596936       -16.2434
 150   2.0000      -0.592034       -16.1101
 151   2.0000      -0.587361       -15.9829
 152   2.0000      -0.584808       -15.9134
 153   2.0000      -0.580574       -15.7982
 154   2.0000      -0.575412       -15.6578
 155   2.0000      -0.567802       -15.4507
 156   2.0000      -0.566731       -15.4215
 157   2.0000      -0.561852       -15.2888
 158   2.0000      -0.558182       -15.1889
 159   2.0000      -0.555784       -15.1236
 160   2.0000      -0.551831       -15.0161
 161   2.0000      -0.546590       -14.8735
 162   2.0000      -0.541465       -14.7340
 163   2.0000      -0.540790       -14.7156
 164   2.0000      -0.539623       -14.6839
 165   2.0000      -0.537820       -14.6348
 166   2.0000      -0.535327       -14.5670
 167   2.0000      -0.531853       -14.4725
 168   2.0000      -0.528145       -14.3715
 169   2.0000      -0.524396       -14.2696
 170   2.0000      -0.518313       -14.1040
 171   2.0000      -0.517174       -14.0730
 172   2.0000      -0.516423       -14.0526
 173   2.0000      -0.513244       -13.9661
 174   2.0000      -0.511970       -13.9314
 175   2.0000      -0.506936       -13.7944
 176   2.0000      -0.501586       -13.6488
 177   2.0000      -0.496965       -13.5231
 178   2.0000      -0.496091       -13.4993
 179   2.0000      -0.492760       -13.4087
 180   2.0000      -0.491848       -13.3839
 181   2.0000      -0.490875       -13.3574
 182   2.0000      -0.488795       -13.3008
 183   2.0000      -0.486535       -13.2393
 184   2.0000      -0.485629       -13.2146
 185   2.0000      -0.483845       -13.1661
 186   2.0000      -0.481142       -13.0925
 187   2.0000      -0.479510       -13.0481
 188   2.0000      -0.476666       -12.9707
 189   2.0000      -0.474942       -12.9238
 190   2.0000      -0.473829       -12.8936
 191   2.0000      -0.473117       -12.8742
 192   2.0000      -0.471550       -12.8315
 193   2.0000      -0.467518       -12.7218
 194   2.0000      -0.460144       -12.5212
 195   2.0000      -0.458269       -12.4701
 196   2.0000      -0.457081       -12.4378
 197   2.0000      -0.454121       -12.3573
 198   2.0000      -0.451258       -12.2793
 199   2.0000      -0.448403       -12.2017
 200   2.0000      -0.443172       -12.0593
 201   2.0000      -0.442215       -12.0333
 202   2.0000      -0.436514       -11.8781
 203   2.0000      -0.434060       -11.8114
 204   2.0000      -0.433582       -11.7984
 205   2.0000      -0.430633       -11.7181
 206   2.0000      -0.430267       -11.7081
 207   2.0000      -0.423770       -11.5314
 208   2.0000      -0.422144       -11.4871
 209   2.0000      -0.421374       -11.4662
 210   2.0000      -0.418913       -11.3992
 211   2.0000      -0.415988       -11.3196
 212   2.0000      -0.411391       -11.1945
 213   2.0000      -0.408627       -11.1193
 214   2.0000      -0.406979       -11.0745
 215   2.0000      -0.403864       -10.9897
 216   2.0000      -0.402967       -10.9653
 217   2.0000      -0.398088       -10.8325
 218   2.0000      -0.396751       -10.7961
 219   2.0000      -0.391136       -10.6434
 220   2.0000      -0.387815       -10.5530
 221   2.0000      -0.376868       -10.2551
 222   2.0000      -0.374037       -10.1781
 223   2.0000      -0.372572       -10.1382
 224   2.0000      -0.364581        -9.9207
 225   2.0000      -0.355767        -9.6809
 226   2.0000      -0.343766        -9.3544
 227   2.0000      -0.334121        -9.0919
 228   2.0000      -0.332792        -9.0557
 229   2.0000      -0.326096        -8.8735
 230   2.0000      -0.321542        -8.7496
 231   2.0000      -0.318874        -8.6770
 232   2.0000      -0.314951        -8.5703
 233   2.0000      -0.306007        -8.3269
 234   2.0000      -0.297582        -8.0976
 235   2.0000      -0.292830        -7.9683
 236   2.0000      -0.287378        -7.8199
 237   2.0000      -0.276764        -7.5311
 238   2.0000      -0.261524        -7.1164
 239   2.0000      -0.233941        -6.3659
 240   2.0000      -0.187699        -5.1075
 241   0.0000      -0.094895        -2.5822
 242   0.0000      -0.078300        -2.1307
 243   0.0000      -0.047308        -1.2873
 244   0.0000      -0.039150        -1.0653
 245   0.0000      -0.017625        -0.4796

MULLIKEN ATOMIC CHARGES
-----------------------
   0 C :   -0.036723
   1 C :   -0.069565
   2 C :    0.053561
   3 C :    0.029347
   4 C :   -0.070378
   5 S :    0.083456
   6 C :   -0.037343
   7 C :    0.023678
   8 C :    0.026210
   9 C :   -0.027459
  10 S :    0.085536
  11 C :   -0.013525
  12 C :   -0.014351
  13 C :   -0.029523
  14 C :    0.025251
  15 C :    0.024748
  16 C :   -0.037797
  17 S :    0.086793
  18 C :   -0.035165
  19 C :    0.025495
  20 C :    0.031935
  21 C :   -0.031357
  22 S :    0.058754
  23 C :    0.043904
  24 C :   -0.067065
  25 S :    0.160468
  26 C :   -0.189993
  27 C :    0.254366
  28 C :   -0.122538
  29 O :   -0.302130
  30 C :    0.174139
  31 C :    0.027446
  32 C :    0.130545
  33 F :   -0.187242
  34 C :    0.131479
  35 O :   -0.307524
  36 C :    0.180890
  37 C :   -0.034204
  38 C :    0.142445
  39 C :    0.148721
  40 O :   -0.318074
  41 C :    0.186421
  42 F :   -0.192138
  43 C :    0.003624
  44 C :   -0.102547
  45 C :    0.131063
  46 O :   -0.146926
  47 C :    0.012012
  48 C :   -0.081110
  49 C :    0.098310
  50 C :    0.102567
  51 C :   -0.098821
  52 C :    0.303295
  53 C :   -0.033490
  54 C :   -0.008207
  55 F :   -0.194178
  56 C :   -0.095143
  57 C :    0.042852
  58 C :    0.322511
  59 C :   -0.348225
  60 C :   -0.213886
  61 N :    0.175012
  62 C :   -0.187700
  63 N :    0.141516
  64 H :    0.017017
  65 H :    0.031824
  66 H :   -0.011160
  67 H :   -0.012764
  68 H :   -0.015066
  69 H :   -0.014601
  70 H :   -0.013270
  71 H :   -0.012176
  72 H :   -0.014237
  73 H :   -0.016464
  74 H :   -0.016582
  75 H :   -0.015277
  76 H :   -0.021613
  77 H :   -0.007585
  78 H :    0.023483
  79 H :    0.024284
  80 H :    0.041061
  81 H :    0.033533
  82 H :    0.040578
  83 H :    0.038192
  84 H :    0.033812
  85 H :    0.034139
  86 H :    0.028876
  87 H :    0.030677
  88 H :   -0.014571
  89 H :   -0.006140
  90 H :    0.000755
  91 H :   -0.010325
  92 H :   -0.010423
Sum of atomic charges:   -0.0000000

LOEWDIN ATOMIC CHARGES
----------------------
   0 C :   -0.074615
   1 C :   -0.139822
   2 C :   -0.033311
   3 C :   -0.027952
   4 C :   -0.179521
   5 S :    0.368780
   6 C :   -0.182810
   7 C :   -0.040775
   8 C :   -0.034658
   9 C :   -0.154774
  10 S :    0.389143
  11 C :   -0.070777
  12 C :   -0.065641
  13 C :   -0.159067
  14 C :   -0.033430
  15 C :   -0.043098
  16 C :   -0.178031
  17 S :    0.394085
  18 C :   -0.183296
  19 C :   -0.037698
  20 C :   -0.036931
  21 C :   -0.144343
  22 S :    0.392803
  23 C :   -0.077370
  24 C :   -0.159455
  25 S :    0.460018
  26 C :   -0.218878
  27 C :    0.036616
  28 C :   -0.114353
  29 O :   -0.087259
  30 C :    0.075398
  31 C :   -0.038482
  32 C :    0.051420
  33 F :   -0.054296
  34 C :    0.044478
  35 O :   -0.074707
  36 C :    0.076958
  37 C :   -0.083648
  38 C :    0.067080
  39 C :    0.018658
  40 O :   -0.101871
  41 C :    0.079863
  42 F :   -0.060359
  43 C :    0.077798
  44 C :   -0.091735
  45 C :    0.083448
  46 O :   -0.146922
  47 C :   -0.058600
  48 C :    0.032701
  49 C :   -0.020591
  50 C :    0.002802
  51 C :   -0.043990
  52 C :    0.092089
  53 C :   -0.040288
  54 C :    0.004029
  55 F :   -0.068391
  56 C :    0.003748
  57 C :   -0.014250
  58 C :    0.071119
  59 C :   -0.140210
  60 C :   -0.019220
  61 N :   -0.049888
  62 C :   -0.019629
  63 N :   -0.064145
  64 H :    0.027247
  65 H :    0.026937
  66 H :    0.033631
  67 H :    0.032601
  68 H :    0.030494
  69 H :    0.032021
  70 H :    0.037409
  71 H :    0.037557
  72 H :    0.031940
  73 H :    0.030708
  74 H :    0.031254
  75 H :    0.032200
  76 H :    0.032067
  77 H :    0.014181
  78 H :    0.017229
  79 H :    0.000117
  80 H :    0.029411
  81 H :    0.025281
  82 H :    0.021300
  83 H :    0.019599
  84 H :    0.026215
  85 H :    0.020189
  86 H :    0.016974
  87 H :    0.046403
  88 H :    0.038597
  89 H :    0.041718
  90 H :    0.040698
  91 H :    0.035059
  92 H :    0.037019

  Mayer bond orders larger than 0.100000
B(  0-C ,  1-C ) :   1.8458 B(  0-C , 64-H ) :   0.9471 B(  0-C , 65-H ) :   0.9376
B(  1-C ,  2-C ) :   1.0893 B(  1-C ,  5-S ) :   1.0119 B(  2-C ,  3-C ) :   1.6352
B(  2-C , 66-H ) :   0.9926 B(  3-C ,  4-C ) :   1.1768 B(  3-C , 67-H ) :   0.9915
B(  4-C ,  5-S ) :   1.0535 B(  4-C ,  6-C ) :   1.4958 B(  6-C ,  7-C ) :   1.2044
B(  6-C , 10-S ) :   1.0490 B(  7-C ,  8-C ) :   1.5505 B(  7-C , 68-H ) :   0.9929
B(  8-C ,  9-C ) :   1.1953 B(  8-C , 69-H ) :   0.9991 B(  9-C , 10-S ) :   1.0514
B(  9-C , 11-C ) :   1.4653 B( 11-C , 12-C ) :   1.3200 B( 11-C , 70-H ) :   0.9487
B( 12-C , 13-C ) :   1.4556 B( 12-C , 71-H ) :   0.9505 B( 13-C , 14-C ) :   1.2095
B( 13-C , 17-S ) :   1.0505 B( 14-C , 15-C ) :   1.5237 B( 14-C , 72-H ) :   0.9996
B( 15-C , 16-C ) :   1.2359 B( 15-C , 73-H ) :   0.9933 B( 16-C , 17-S ) :   1.0641
B( 16-C , 18-C ) :   1.4320 B( 18-C , 19-C ) :   1.2269 B( 18-C , 22-S ) :   1.0490
B( 19-C , 20-C ) :   1.5488 B( 19-C , 74-H ) :   0.9938 B( 20-C , 21-C ) :   1.1731
B( 20-C , 75-H ) :   0.9988 B( 21-C , 22-S ) :   1.0467 B( 21-C , 23-C ) :   1.5553
B( 23-C , 24-C ) :   1.1969 B( 23-C , 76-H ) :   0.9532 B( 24-C , 25-S ) :   1.1156
B( 24-C , 28-C ) :   1.3848 B( 25-S , 26-C ) :   1.1044 B( 26-C , 27-C ) :   1.4463
B( 26-C , 31-C ) :   1.0656 B( 27-C , 28-C ) :   1.2629 B( 27-C , 29-O ) :   1.1859
B( 28-C , 77-H ) :   0.9809 B( 29-O , 30-C ) :   0.9467 B( 30-C , 78-H ) :   0.9686
B( 30-C , 79-H ) :   0.9620 B( 30-C , 80-H ) :   0.9751 B( 31-C , 32-C ) :   1.3390
B( 31-C , 37-C ) :   0.1112 B( 31-C , 39-C ) :   1.2811 B( 32-C , 33-F ) :   1.1149
B( 32-C , 34-C ) :   1.2679 B( 34-C , 35-O ) :   1.2018 B( 34-C , 37-C ) :   1.2894
B( 35-O , 36-C ) :   0.9147 B( 36-C , 81-H ) :   0.9748 B( 36-C , 82-H ) :   0.9733
B( 36-C , 83-H ) :   0.9779 B( 37-C , 38-C ) :   1.2645 B( 37-C , 43-C ) :   1.1293
B( 38-C , 39-C ) :   1.3231 B( 38-C , 42-F ) :   1.1185 B( 39-C , 40-O ) :   1.1795
B( 40-O , 41-C ) :   0.9282 B( 41-C , 84-H ) :   0.9776 B( 41-C , 85-H ) :   0.9773
B( 41-C , 86-H ) :   0.9759 B( 43-C , 44-C ) :   1.6187 B( 43-C , 87-H ) :   0.9289
B( 44-C , 45-C ) :   0.9444 B( 44-C , 58-C ) :   1.0558 B( 45-C , 46-O ) :   2.2578
B( 45-C , 47-C ) :   0.9220 B( 47-C , 48-C ) :   1.4741 B( 47-C , 57-C ) :   1.2137
B( 48-C , 49-C ) :   1.1878 B( 48-C , 88-H ) :   1.0152 B( 49-C , 50-C ) :   1.2575
B( 49-C , 54-C ) :   1.2361 B( 50-C , 51-C ) :   1.2044 B( 50-C , 56-C ) :   1.1994
B( 51-C , 52-C ) :   1.4403 B( 51-C , 89-H ) :   1.0062 B( 52-C , 53-C ) :   1.2571
B( 52-C , 55-F ) :   1.0843 B( 53-C , 54-C ) :   1.4578 B( 53-C , 90-H ) :   0.9935
B( 54-C , 91-H ) :   0.9967 B( 56-C , 57-C ) :   1.4623 B( 56-C , 92-H ) :   0.9930
B( 57-C , 58-C ) :   1.0001 B( 58-C , 59-C ) :   1.6242 B( 59-C , 60-C ) :   1.1744
B( 59-C , 62-C ) :   1.1409 B( 60-C , 61-N ) :   3.0041 B( 62-C , 63-N ) :   2.9698

-----------------------------------------------------------------------------
         ABSORPTION SPECTRUM VIA TRANSITION ELECTRIC DIPOLE MOMENTS
-----------------------------------------------------------------------------
State   Energy  Wavelength   fosc         T2         TX        TY        TZ
        (cm-1)    (nm)                  (au**2)     (au)      (au)      (au)
-----------------------------------------------------------------------------
   0    7136.8   1401.2   0.276578718  12.75819  -1.97548   0.70999   2.88991
   1   12717.6    786.3   0.297776211   7.70835   1.00749   2.58690  -0.03579
   2   15095.4    662.5   0.359673499   7.84404  -1.12095  -2.55684   0.22379
   3   19378.4    516.0   1.641030665  27.87875  -2.48535  -4.42557   1.45469
   4   21077.6    474.4   0.144259261   2.25320   0.59921   0.83551  -1.09365
   5   21817.5    458.3   0.127801069   1.92844  -0.56589  -0.85827   0.93359
   6   22951.1    435.7   0.216626299   3.10731  -0.78042  -1.06925   1.16402
   7   23526.6    425.1   0.313877144   4.39213   1.07903   0.64177  -1.67808
   8   25243.4    396.1   0.159064938   2.07444   0.60306   0.44909  -1.22845
   9   27104.6    368.9   0.051295563   0.62304   0.36963   0.67612   0.17109
  10   27644.0    361.7   0.033961389   0.40445   0.45903   0.41758   0.13917
  11   27785.0    359.9   0.026005444   0.30813   0.02111   0.10343   0.54496
  12   28235.1    354.2   0.001622649   0.01892   0.06662  -0.11883   0.01899
  13   28487.0    351.0   0.003730993   0.04312  -0.07061   0.09227   0.17210
  14   28664.2    348.9   0.006111998   0.07020  -0.03379   0.25694  -0.05510
  15   28824.4    346.9   0.127030387   1.45085   0.05725  -0.86339  -0.83794
  16   29325.8    341.0   0.033547513   0.37661  -0.03165  -0.58335   0.18789
  17   29434.7    339.7   0.031539975   0.35276  -0.20723   0.45426   0.32165
  18   29935.5    334.1   0.166130404   1.82700  -0.24609   0.35475   1.28086
  19   30576.5    327.0   0.099074872   1.06672  -0.29024  -0.95134  -0.27828
  20   30629.6    326.5   0.016692662   0.17942   0.16467  -0.26196   0.28927
  21   30786.4    324.8   0.009676834   0.10348  -0.00421  -0.19869  -0.25295
  22   31976.9    312.7   0.056530186   0.58200  -0.10578   0.67740   0.33456
  23   32418.9    308.5   0.102655155   1.04246   0.03553   0.97025   0.31592
  24   32546.5    307.3   0.100549134   1.01707  -0.03599   0.86542  -0.51655
  25   33175.5    301.4   0.057812326   0.57369   0.19395  -0.06296  -0.72946
  26   33644.9    297.2   0.266550126   2.60816  -0.17895  -1.37434   0.82906
  27   33982.2    294.3   0.002279171   0.02208  -0.03650  -0.07506  -0.12294
  28   34420.4    290.5   0.008884497   0.08498   0.13870  -0.25078   0.05333
  29   34477.3    290.0   0.045752367   0.43687  -0.08296  -0.56838   0.32701
  30   34652.2    288.6   0.017122574   0.16267  -0.01018   0.20801   0.34540
  31   35124.1    284.7   0.227554920   2.13283  -0.37804  -1.35585   0.38934
  32   35317.9    283.1   0.431930121   4.02619   0.16322   1.99478  -0.14290
  33   35681.4    280.3   0.010113867   0.09331   0.13394  -0.26199  -0.08208
  34   36094.2    277.1   0.164814516   1.50326   0.51046   0.46077  -1.01508
  35   36347.0    275.1   0.037292360   0.33777  -0.22594  -0.53520  -0.01683
  36   37029.8    270.1   0.020677202   0.18383   0.00594   0.41979  -0.08703
  37   37344.4    267.8   0.022368824   0.19719  -0.01717  -0.24759   0.36824
  38   37683.5    265.4   0.017953367   0.15684  -0.08755  -0.38347  -0.04613
  39   38164.1    262.0   0.058726299   0.50659   0.08387   0.53814  -0.45821
  40   38449.5    260.1   0.046364401   0.39698  -0.00702  -0.57371   0.26037
  41   38876.9    257.2   0.034238944   0.28994  -0.16774   0.49573   0.12672
  42   39187.5    255.2   0.054108159   0.45456   0.12181   0.61035   0.25921
  43   39508.2    253.1   0.028410448   0.23674  -0.11084  -0.20119   0.42892
  44   39979.0    250.1   0.087473780   0.72031  -0.03852   0.55762   0.63866

FINAL SINGLE POINT ENERGY     -4619.621772152214

DIPOLE MOMENT
-------------
                                X             Y             Z
Electronic contribution:     18.49464      17.68201     -18.88478
Nuclear contribution   :    -20.33455     -18.58266      19.28986
                        -----------------------------------------
Total Dipole Moment    :     -1.83991      -0.90066       0.40508
                        -----------------------------------------
Magnitude (a.u.)       :      2.08819
Magnitude (Debye)      :      5.30777

Rotational constants in cm-1:     0.001849     0.000447     0.000368
Rotational constants in MHz :    55.429000    13.404192    11.042218

                             ****ORCA TERMINATED NORMALLY****
TOTAL RUN TIME: 0 days 0 hours 10 minutes 33 seconds 269 msec
