                         Program Version 4.2.0 -  RELEASE  -
|  1> # ORCA input file
|  2> # SCF done       -129.590719069428          0.000208505125
|  3> ! CAM-B3LYP def2-SVP def2/J RIJCOSX Grid4 TightSCF
|  4> %maxcore 5000
|  5> %tddft
|  6>     Mode sTDDFT
|  7>     Ethresh 5.0
|  8>     maxcore 5000
|  9> end
| 10>
| 11> %pal
| 12>   nprocs 6
| 13>   end
| 14> * xyz 0 1
| 15>    C        8.51043        -2.85708        -0.61310
| 16>    O        7.42072        -2.35959        -1.25209
| 17>    C        7.07333        -1.23087        -0.59838
| 18>    C        7.92093        -0.99407         0.44711
| 19>    C        8.86104        -2.06427         0.43475
| 20>    C        9.98118        -2.25264         1.39335
| 21>    N        5.96790        -0.58919        -1.10720
| 22>    C        5.35829         0.53196        -0.65827
| 23>    S        5.95610         1.42774         0.69270
| 24>    C        4.62225         2.53546         0.53605
| 25>    N        4.56256         3.59474         1.43466
| 26>    O        3.63298         4.37943         1.33669
| 27>    O        5.45789         3.66227         2.26614
| 28>    C        3.77652         2.21878        -0.49309
| 29>    C        4.17791         1.07205        -1.20384
| 30>    C        3.49184         0.52189        -2.33527
| 31>    C        2.22341         0.84842        -2.69287
| 32>    C        1.55454         0.32921        -3.81778
| 33>    C        0.24336         0.60099        -4.10951
| 34>    C       -0.50996         0.14163        -5.21955
| 35>    C       -1.80526         0.55914        -5.23117
| 36>    C       -2.15831         1.36680        -4.12586
| 37>    S       -0.77428         1.59818        -3.07857
| 38>    C       -3.38696         1.91334        -3.81999
| 39>    C       -4.59301         1.82187        -4.55349
| 40>    C       -5.64986         2.45153        -3.97415
| 41>    C       -5.34140         3.07972        -2.73683
| 42>    S       -3.63711         2.84556        -2.35726
| 43>    C       -6.14025         3.77169        -1.87525
| 44>    N       -7.47283         3.97329        -2.07585
| 45>    C       -8.33209         4.67796        -1.29321
| 46>    S      -10.02558         4.27879        -1.39782
| 47>    C      -10.36446         5.43810        -0.15092
| 48>    N      -11.69128         5.61096         0.22790
| 49>    O      -11.93288         6.41967         1.11036
| 50>    O      -12.52497         4.93055        -0.35555
| 51>    C       -9.24207         6.08238         0.30214
| 52>    C       -8.06312         5.67734        -0.34771
| 53>    C       -6.77389         6.28960        -0.13370
| 54>    C       -6.41484         6.93685         0.98966
| 55>    C       -5.13925         7.55470         1.17085
| 56>    O       -4.20497         7.50239         0.18439
| 57>    C       -3.11887         8.14505         0.63180
| 58>    C       -3.31905         8.62117         1.89252
| 59>    C       -4.63165         8.24318         2.25845
| 60>    C       -5.31849         8.53173         3.54636
| 61>    H        8.92769        -3.76338        -1.00148
| 62>    H        7.90237        -0.18276         1.14228
| 63>    H       10.61056        -1.36528         1.41677
| 64>    H       10.58489        -3.10965         1.10907
| 65>    H        9.59265        -2.41289         2.39780
| 66>    H        5.54324        -1.05794        -1.89750
| 67>    H        2.91343         2.81471        -0.72468
| 68>    H        4.02293        -0.20254        -2.94026
| 69>    H        1.65970         1.53645        -2.07805
| 70>    H        2.09519        -0.32332        -4.49071
| 71>    H       -0.06579        -0.48401        -5.97380
| 72>    H       -2.51625         0.30401        -5.99662
| 73>    H       -4.64545         1.29386        -5.48874
| 74>    H       -6.63562         2.47915        -4.40550
| 75>    H       -5.72610         4.16951        -0.96378
| 76>    H       -7.89791         3.44851        -2.83019
| 77>    H       -9.29172         6.84939         1.05272
| 78>    H       -6.06893         6.24863        -0.95142
| 79>    H       -7.08049         6.99664         1.83737
| 80>    H       -2.27349         8.19603        -0.02556
| 81>    H       -2.62067         9.17044         2.49007
| 82>    H       -4.65102         9.07177         4.21209
| 83>    H       -5.62535         7.60756         4.03462
| 84>    H       -6.20921         9.13677         3.38042
| 85> *
| 86>
| 87>                          ****END OF INPUT****

CARTESIAN COORDINATES (ANGSTROEM)
---------------------------------
  C      8.510430   -2.857080   -0.613100
  O      7.420720   -2.359590   -1.252090
  C      7.073330   -1.230870   -0.598380
  C      7.920930   -0.994070    0.447110
  C      8.861040   -2.064270    0.434750
  C      9.981180   -2.252640    1.393350
  N      5.967900   -0.589190   -1.107200
  C      5.358290    0.531960   -0.658270
  S      5.956100    1.427740    0.692700
  C      4.622250    2.535460    0.536050
  N      4.562560    3.594740    1.434660
  O      3.632980    4.379430    1.336690
  O      5.457890    3.662270    2.266140
  C      3.776520    2.218780   -0.493090
  C      4.177910    1.072050   -1.203840
  C      3.491840    0.521890   -2.335270
  C      2.223410    0.848420   -2.692870
  C      1.554540    0.329210   -3.817780
  C      0.243360    0.600990   -4.109510
  C     -0.509960    0.141630   -5.219550
  C     -1.805260    0.559140   -5.231170
  C     -2.158310    1.366800   -4.125860
  S     -0.774280    1.598180   -3.078570
  C     -3.386960    1.913340   -3.819990
  C     -4.593010    1.821870   -4.553490
  C     -5.649860    2.451530   -3.974150
  C     -5.341400    3.079720   -2.736830
  S     -3.637110    2.845560   -2.357260
  C     -6.140250    3.771690   -1.875250
  N     -7.472830    3.973290   -2.075850
  C     -8.332090    4.677960   -1.293210
  S    -10.025580    4.278790   -1.397820
  C    -10.364460    5.438100   -0.150920
  N    -11.691280    5.610960    0.227900
  O    -11.932880    6.419670    1.110360
  O    -12.524970    4.930550   -0.355550
  C     -9.242070    6.082380    0.302140
  C     -8.063120    5.677340   -0.347710
  C     -6.773890    6.289600   -0.133700
  C     -6.414840    6.936850    0.989660
  C     -5.139250    7.554700    1.170850
  O     -4.204970    7.502390    0.184390
  C     -3.118870    8.145050    0.631800
  C     -3.319050    8.621170    1.892520
  C     -4.631650    8.243180    2.258450
  C     -5.318490    8.531730    3.546360
  H      8.927690   -3.763380   -1.001480
  H      7.902370   -0.182760    1.142280
  H     10.610560   -1.365280    1.416770
  H     10.584890   -3.109650    1.109070
  H      9.592650   -2.412890    2.397800
  H      5.543240   -1.057940   -1.897500
  H      2.913430    2.814710   -0.724680
  H      4.022930   -0.202540   -2.940260
  H      1.659700    1.536450   -2.078050
  H      2.095190   -0.323320   -4.490710
  H     -0.065790   -0.484010   -5.973800
  H     -2.516250    0.304010   -5.996620
  H     -4.645450    1.293860   -5.488740
  H     -6.635620    2.479150   -4.405500
  H     -5.726100    4.169510   -0.963780
  H     -7.897910    3.448510   -2.830190
  H     -9.291720    6.849390    1.052720
  H     -6.068930    6.248630   -0.951420
  H     -7.080490    6.996640    1.837370
  H     -2.273490    8.196030   -0.025560
  H     -2.620670    9.170440    2.490070
  H     -4.651020    9.071770    4.212090
  H     -5.625350    7.607560    4.034620
  H     -6.209210    9.136770    3.380420

 Total Charge           Charge          ....    0
 Multiplicity           Mult            ....    1
 Number of Electrons    NEL             ....  356
 Basis Dimension        Dim             ....  780

ORBITAL ENERGIES
----------------

  NO   OCC          E(Eh)            E(eV)
   0   2.0000     -88.976579     -2421.1758
   1   2.0000     -88.976190     -2421.1652
   2   2.0000     -88.943719     -2420.2816
   3   2.0000     -88.940033     -2420.1813
   4   2.0000     -19.293164      -524.9937
   5   2.0000     -19.280518      -524.6496
   6   2.0000     -19.227031      -523.1941
   7   2.0000     -19.226347      -523.1755
   8   2.0000     -19.221988      -523.0569
   9   2.0000     -19.221568      -523.0454
  10   2.0000     -14.638508      -398.3340
  11   2.0000     -14.634005      -398.2115
  12   2.0000     -14.485534      -394.1714
  13   2.0000     -14.481655      -394.0659
  14   2.0000     -10.373944      -282.2894
  15   2.0000     -10.364179      -282.0236
  16   2.0000     -10.363766      -282.0124
  17   2.0000     -10.333846      -281.1982
  18   2.0000     -10.332247      -281.1547
  19   2.0000     -10.327138      -281.0157
  20   2.0000     -10.315310      -280.6938
  21   2.0000     -10.312696      -280.6227
  22   2.0000     -10.312477      -280.6168
  23   2.0000     -10.311236      -280.5830
  24   2.0000     -10.307620      -280.4846
  25   2.0000     -10.305102      -280.4161
  26   2.0000     -10.304254      -280.3930
  27   2.0000     -10.301958      -280.3305
  28   2.0000     -10.297452      -280.2079
  29   2.0000     -10.294459      -280.1265
  30   2.0000     -10.293426      -280.0984
  31   2.0000     -10.292414      -280.0708
  32   2.0000     -10.288420      -279.9621
  33   2.0000     -10.286819      -279.9186
  34   2.0000     -10.284266      -279.8491
  35   2.0000     -10.282161      -279.7918
  36   2.0000     -10.281046      -279.7615
  37   2.0000     -10.279013      -279.7062
  38   2.0000     -10.277246      -279.6581
  39   2.0000     -10.274639      -279.5871
  40   2.0000     -10.274633      -279.5870
  41   2.0000     -10.269524      -279.4480
  42   2.0000     -10.269001      -279.4337
  43   2.0000     -10.266936      -279.3775
  44   2.0000     -10.266156      -279.3563
  45   2.0000     -10.258885      -279.1585
  46   2.0000      -8.072535      -219.6649
  47   2.0000      -8.071253      -219.6300
  48   2.0000      -8.040104      -218.7824
  49   2.0000      -8.036328      -218.6796
  50   2.0000      -6.042255      -164.4181
  51   2.0000      -6.041015      -164.3844
  52   2.0000      -6.037938      -164.3007
  53   2.0000      -6.036469      -164.2607
  54   2.0000      -6.033748      -164.1866
  55   2.0000      -6.032688      -164.1578
  56   2.0000      -6.010097      -163.5431
  57   2.0000      -6.006075      -163.4336
  58   2.0000      -6.006028      -163.4323
  59   2.0000      -6.002169      -163.3273
  60   2.0000      -6.000514      -163.2823
  61   2.0000      -5.997122      -163.1900
  62   2.0000      -1.305474       -35.5238
  63   2.0000      -1.301266       -35.4093
  64   2.0000      -1.215703       -33.0810
  65   2.0000      -1.198072       -32.6012
  66   2.0000      -1.124394       -30.5963
  67   2.0000      -1.119909       -30.4743
  68   2.0000      -1.088453       -29.6183
  69   2.0000      -1.079978       -29.3877
  70   2.0000      -0.999749       -27.2046
  71   2.0000      -0.992345       -27.0031
  72   2.0000      -0.991242       -26.9731
  73   2.0000      -0.970505       -26.4088
  74   2.0000      -0.916005       -24.9258
  75   2.0000      -0.914943       -24.8969
  76   2.0000      -0.908112       -24.7110
  77   2.0000      -0.900260       -24.4973
  78   2.0000      -0.895464       -24.3668
  79   2.0000      -0.886607       -24.1258
  80   2.0000      -0.871697       -23.7201
  81   2.0000      -0.862461       -23.4688
  82   2.0000      -0.851685       -23.1755
  83   2.0000      -0.847069       -23.0499
  84   2.0000      -0.842446       -22.9241
  85   2.0000      -0.825559       -22.4646
  86   2.0000      -0.818328       -22.2678
  87   2.0000      -0.811362       -22.0783
  88   2.0000      -0.799848       -21.7650
  89   2.0000      -0.789300       -21.4779
  90   2.0000      -0.783802       -21.3283
  91   2.0000      -0.766052       -20.8453
  92   2.0000      -0.760248       -20.6874
  93   2.0000      -0.737637       -20.0721
  94   2.0000      -0.712187       -19.3796
  95   2.0000      -0.709694       -19.3117
  96   2.0000      -0.696648       -18.9568
  97   2.0000      -0.683583       -18.6012
  98   2.0000      -0.678380       -18.4597
  99   2.0000      -0.674787       -18.3619
 100   2.0000      -0.666448       -18.1350
 101   2.0000      -0.660293       -17.9675
 102   2.0000      -0.644408       -17.5352
 103   2.0000      -0.640536       -17.4299
 104   2.0000      -0.632450       -17.2098
 105   2.0000      -0.627821       -17.0839
 106   2.0000      -0.622502       -16.9391
 107   2.0000      -0.619565       -16.8592
 108   2.0000      -0.618498       -16.8302
 109   2.0000      -0.615184       -16.7400
 110   2.0000      -0.613932       -16.7059
 111   2.0000      -0.613007       -16.6808
 112   2.0000      -0.608362       -16.5544
 113   2.0000      -0.598288       -16.2803
 114   2.0000      -0.594685       -16.1822
 115   2.0000      -0.583043       -15.8654
 116   2.0000      -0.580841       -15.8055
 117   2.0000      -0.570197       -15.5158
 118   2.0000      -0.567554       -15.4439
 119   2.0000      -0.565471       -15.3872
 120   2.0000      -0.559770       -15.2321
 121   2.0000      -0.556230       -15.1358
 122   2.0000      -0.549118       -14.9423
 123   2.0000      -0.545525       -14.8445
 124   2.0000      -0.543049       -14.7771
 125   2.0000      -0.540388       -14.7047
 126   2.0000      -0.528178       -14.3725
 127   2.0000      -0.520788       -14.1714
 128   2.0000      -0.514828       -14.0092
 129   2.0000      -0.510111       -13.8808
 130   2.0000      -0.507193       -13.8014
 131   2.0000      -0.505152       -13.7459
 132   2.0000      -0.502517       -13.6742
 133   2.0000      -0.495380       -13.4800
 134   2.0000      -0.494002       -13.4425
 135   2.0000      -0.492477       -13.4010
 136   2.0000      -0.489692       -13.3252
 137   2.0000      -0.489520       -13.3205
 138   2.0000      -0.488082       -13.2814
 139   2.0000      -0.484832       -13.1930
 140   2.0000      -0.473339       -12.8802
 141   2.0000      -0.471309       -12.8250
 142   2.0000      -0.468311       -12.7434
 143   2.0000      -0.465939       -12.6788
 144   2.0000      -0.465272       -12.6607
 145   2.0000      -0.461696       -12.5634
 146   2.0000      -0.455488       -12.3945
 147   2.0000      -0.453681       -12.3453
 148   2.0000      -0.447616       -12.1802
 149   2.0000      -0.445558       -12.1243
 150   2.0000      -0.439727       -11.9656
 151   2.0000      -0.437679       -11.9098
 152   2.0000      -0.435740       -11.8571
 153   2.0000      -0.430372       -11.7110
 154   2.0000      -0.423970       -11.5368
 155   2.0000      -0.423337       -11.5196
 156   2.0000      -0.409429       -11.1411
 157   2.0000      -0.397432       -10.8147
 158   2.0000      -0.396363       -10.7856
 159   2.0000      -0.375776       -10.2254
 160   2.0000      -0.375570       -10.2198
 161   2.0000      -0.371099       -10.0981
 162   2.0000      -0.367412        -9.9978
 163   2.0000      -0.362693        -9.8694
 164   2.0000      -0.355364        -9.6699
 165   2.0000      -0.350931        -9.5493
 166   2.0000      -0.348644        -9.4871
 167   2.0000      -0.342596        -9.3225
 168   2.0000      -0.341587        -9.2950
 169   2.0000      -0.339223        -9.2307
 170   2.0000      -0.337052        -9.1717
 171   2.0000      -0.324135        -8.8202
 172   2.0000      -0.320108        -8.7106
 173   2.0000      -0.308220        -8.3871
 174   2.0000      -0.282928        -7.6989
 175   2.0000      -0.257151        -6.9974
 176   2.0000      -0.245499        -6.6804
 177   2.0000      -0.203177        -5.5287
 178   0.0000      -0.074125        -2.0170
 179   0.0000      -0.044122        -1.2006
 180   0.0000      -0.041572        -1.1312
 181   0.0000      -0.018063        -0.4915
 182   0.0000      -0.001509        -0.0411

MULLIKEN ATOMIC CHARGES
-----------------------
   0 C :    0.059712
   1 O :   -0.213486
   2 C :    0.196336
   3 C :   -0.156793
   4 C :   -0.067079
   5 C :    0.120085
   6 N :   -0.001768
   7 C :   -0.090162
   8 S :    0.138681
   9 C :   -0.010716
  10 N :    0.279534
  11 O :   -0.262501
  12 O :   -0.279374
  13 C :    0.011843
  14 C :    0.130275
  15 C :   -0.056302
  16 C :    0.006808
  17 C :   -0.020648
  18 C :   -0.014571
  19 C :    0.031358
  20 C :    0.027259
  21 C :   -0.048905
  22 S :    0.056658
  23 C :   -0.048320
  24 C :    0.013256
  25 C :    0.017678
  26 C :   -0.072470
  27 S :    0.088279
  28 C :    0.057345
  29 N :   -0.019857
  30 C :   -0.115965
  31 S :    0.154082
  32 C :   -0.011368
  33 N :    0.281910
  34 O :   -0.260290
  35 O :   -0.274889
  36 C :   -0.004297
  37 C :    0.107645
  38 C :   -0.049896
  39 C :   -0.034720
  40 C :    0.104556
  41 O :   -0.198464
  42 C :    0.148209
  43 C :   -0.043375
  44 C :   -0.121249
  45 C :    0.116582
  46 H :   -0.006814
  47 H :   -0.002664
  48 H :    0.027623
  49 H :    0.009796
  50 H :    0.030394
  51 H :    0.145610
  52 H :    0.008382
  53 H :   -0.035722
  54 H :    0.001641
  55 H :   -0.023296
  56 H :   -0.016584
  57 H :   -0.016450
  58 H :   -0.013699
  59 H :   -0.024152
  60 H :    0.030351
  61 H :    0.137651
  62 H :    0.008838
  63 H :    0.012833
  64 H :   -0.010218
  65 H :    0.010559
  66 H :   -0.017507
  67 H :    0.012570
  68 H :    0.029751
  69 H :    0.030484
Sum of atomic charges:   -0.0000000

LOEWDIN ATOMIC CHARGES
----------------------
   0 C :    0.005348
   1 O :   -0.009125
   2 C :    0.061870
   3 C :   -0.125803
   4 C :   -0.059717
   5 C :   -0.042469
   6 N :    0.029574
   7 C :   -0.094484
   8 S :    0.469364
   9 C :   -0.220781
  10 N :    0.274409
  11 O :   -0.229197
  12 O :   -0.245852
  13 C :    0.005530
  14 C :   -0.109301
  15 C :   -0.040843
  16 C :   -0.027345
  17 C :   -0.068462
  18 C :   -0.140457
  19 C :   -0.042302
  20 C :   -0.030344
  21 C :   -0.189342
  22 S :    0.360582
  23 C :   -0.175780
  24 C :   -0.028056
  25 C :   -0.049511
  26 C :   -0.196012
  27 S :    0.366036
  28 C :    0.000650
  29 N :    0.043375
  30 C :   -0.105086
  31 S :    0.437378
  32 C :   -0.214159
  33 N :    0.274766
  34 O :   -0.226069
  35 O :   -0.241324
  36 C :    0.005455
  37 C :   -0.101540
  38 C :   -0.040796
  39 C :   -0.031431
  40 C :    0.002219
  41 O :    0.012549
  42 C :    0.042901
  43 C :   -0.077131
  44 C :   -0.060225
  45 C :   -0.047538
  46 H :    0.019287
  47 H :    0.019424
  48 H :    0.037031
  49 H :    0.032889
  50 H :    0.037902
  51 H :    0.099799
  52 H :    0.043984
  53 H :    0.018922
  54 H :    0.021647
  55 H :    0.029380
  56 H :    0.031774
  57 H :    0.030537
  58 H :    0.032388
  59 H :    0.025091
  60 H :    0.038442
  61 H :    0.090082
  62 H :    0.043932
  63 H :    0.031387
  64 H :    0.033212
  65 H :    0.023042
  66 H :    0.028984
  67 H :    0.035247
  68 H :    0.036829
  69 H :    0.037261

  Mayer bond orders larger than 0.100000
B(  0-C ,  1-O ) :   1.0785 B(  0-C ,  4-C ) :   1.6103 B(  0-C , 46-H ) :   1.0126
B(  1-O ,  2-C ) :   1.1710 B(  2-C ,  3-C ) :   1.5322 B(  2-C ,  6-N ) :   1.0814
B(  3-C ,  4-C ) :   1.1893 B(  3-C , 47-H ) :   1.0135 B(  4-C ,  5-C ) :   1.0808
B(  5-C , 48-H ) :   0.9527 B(  5-C , 49-H ) :   0.9556 B(  5-C , 50-H ) :   0.9523
B(  6-N ,  7-C ) :   1.2422 B(  6-N , 51-H ) :   0.8883 B(  7-C ,  8-S ) :   1.1397
B(  7-C , 14-C ) :   1.3331 B(  8-S ,  9-C ) :   1.0590 B(  9-C , 10-N ) :   0.9938
B(  9-C , 13-C ) :   1.4692 B( 10-N , 11-O ) :   1.5200 B( 10-N , 12-O ) :   1.4965
B( 11-O , 12-O ) :   0.2479 B( 13-C , 14-C ) :   1.2530 B( 13-C , 52-H ) :   0.9995
B( 14-C , 15-C ) :   1.0527 B( 15-C , 16-C ) :   1.6895 B( 15-C , 53-H ) :   0.9741
B( 16-C , 17-C ) :   1.1423 B( 16-C , 54-H ) :   0.9696 B( 17-C , 18-C ) :   1.5719
B( 17-C , 55-H ) :   0.9840 B( 18-C , 19-C ) :   1.1383 B( 18-C , 22-S ) :   1.0324
B( 19-C , 20-C ) :   1.5923 B( 19-C , 56-H ) :   0.9987 B( 20-C , 21-C ) :   1.1913
B( 20-C , 57-H ) :   0.9923 B( 21-C , 22-S ) :   1.0350 B( 21-C , 23-C ) :   1.5120
B( 23-C , 24-C ) :   1.1917 B( 23-C , 27-S ) :   1.0505 B( 24-C , 25-C ) :   1.6342
B( 24-C , 58-H ) :   0.9920 B( 25-C , 26-C ) :   1.1207 B( 25-C , 59-H ) :   0.9861
B( 26-C , 27-S ) :   1.0188 B( 26-C , 28-C ) :   1.6136 B( 28-C , 29-N ) :   1.1648
B( 28-C , 60-H ) :   0.9411 B( 29-N , 30-C ) :   1.1976 B( 29-N , 61-H ) :   0.9069
B( 30-C , 31-S ) :   1.1270 B( 30-C , 37-C ) :   1.3712 B( 31-S , 32-C ) :   1.0743
B( 32-C , 33-N ) :   0.9873 B( 32-C , 36-C ) :   1.4705 B( 33-N , 34-O ) :   1.5220
B( 33-N , 35-O ) :   1.4985 B( 34-O , 35-O ) :   0.2522 B( 36-C , 37-C ) :   1.2503
B( 36-C , 62-H ) :   1.0027 B( 37-C , 38-C ) :   1.0324 B( 38-C , 39-C ) :   1.7178
B( 38-C , 63-H ) :   0.9740 B( 39-C , 40-C ) :   1.1472 B( 39-C , 64-H ) :   0.9581
B( 40-C , 41-O ) :   1.1426 B( 40-C , 44-C ) :   1.4859 B( 41-O , 42-C ) :   1.1496
B( 42-C , 43-C ) :   1.5312 B( 42-C , 65-H ) :   1.0042 B( 43-C , 44-C ) :   1.2539
B( 43-C , 66-H ) :   1.0065 B( 44-C , 45-C ) :   1.0971 B( 45-C , 67-H ) :   0.9503
B( 45-C , 68-H ) :   0.9481 B( 45-C , 69-H ) :   0.9486

-----------------------------------------------------------------------------
         ABSORPTION SPECTRUM VIA TRANSITION ELECTRIC DIPOLE MOMENTS
-----------------------------------------------------------------------------
State   Energy  Wavelength   fosc         T2         TX        TY        TZ
        (cm-1)    (nm)                  (au**2)     (au)      (au)      (au)
-----------------------------------------------------------------------------
   0   14541.1    687.7   1.577321582  35.71081   5.55359  -2.11571  -0.62630
   1   21280.3    469.9   0.213172708   3.29784   0.78754  -1.24963  -1.05643
   2   22199.7    450.5   0.036515491   0.54151   0.25466  -0.56033   0.40334
   3   23419.9    427.0   0.205842049   2.89351  -0.61232  -0.54566  -1.49024
   4   25769.8    388.1   0.357440842   4.56635   1.53800   0.75967   1.27428
   5   26161.6    382.2   0.116499012   1.46600  -0.34676  -0.49218  -1.05048
   6   28848.5    346.6   0.063561825   0.72535  -0.50988  -0.14585  -0.66641
   7   29270.7    341.6   0.112534660   1.26569   1.11331   0.05684  -0.15163
   8   29363.8    340.6   0.386080062   4.32853   0.95264  -1.77160  -0.53146
   9   31244.8    320.1   0.018287048   0.19268  -0.17059   0.11399   0.38805
  10   31442.0    318.0   0.135367743   1.41736  -0.31715   0.53295   1.01624
  11   33563.7    297.9   0.000055057   0.00054   0.00543  -0.00450  -0.02214
  12   34190.8    292.5   0.005954969   0.05734   0.03234  -0.01687  -0.23666
  13   34608.1    288.9   0.068693061   0.65345   0.08888  -0.54693  -0.58857
  14   34994.2    285.8   0.116491505   1.09591   0.63206   0.81042   0.19906
  15   35482.9    281.8   0.206541191   1.91630  -1.19657  -0.65463  -0.23658
  16   35697.4    280.1   0.466937093   4.30624  -1.76083  -0.56723  -0.94019
  17   36398.5    274.7   0.009427878   0.08527  -0.16482  -0.23106   0.06869
  18   37484.4    266.8   0.176540618   1.55049  -1.17118   0.06058  -0.41852
  19   38446.9    260.1   0.006450005   0.05523   0.19194   0.04802   0.12682
  20   38980.8    256.5   0.001948040   0.01645  -0.08783  -0.05053  -0.07865
  21   39451.3    253.5   0.275221018   2.29665   1.21272   0.40061   0.81577
  22   39991.7    250.1   0.046339422   0.38147  -0.22987  -0.42598  -0.38363

FINAL SINGLE POINT ENERGY     -3493.837683842775

DIPOLE MOMENT
-------------
                                X             Y             Z
Electronic contribution:    -23.29398       2.31817      -6.96492
Nuclear contribution   :     25.22167      -4.51099       4.79608
                        -----------------------------------------
Total Dipole Moment    :      1.92769      -2.19282      -2.16884
                        -----------------------------------------
Magnitude (a.u.)       :      3.63707
Magnitude (Debye)      :      9.24471

Rotational constants in cm-1:     0.002966     0.000523     0.000461
Rotational constants in MHz :    88.933110    15.666132    13.822087

                             ****ORCA TERMINATED NORMALLY****
TOTAL RUN TIME: 0 days 0 hours 4 minutes 19 seconds 726 msec
