                         Program Version 4.2.0 -  RELEASE  -
|  1> # ORCA input file
|  2> # SCF done       -203.559248859895          0.000994839775
|  3> ! CAM-B3LYP def2-SVP def2/J RIJCOSX Grid4 TightSCF
|  4> %maxcore 5000
|  5> %tddft
|  6>     Mode sTDDFT
|  7>     Ethresh 5.0
|  8>     maxcore 5000
|  9> end
| 10>
| 11> %pal
| 12>   nprocs 6
| 13>   end
| 14> * xyz 0 1
| 15>    C       -4.22033       -16.80966         4.61793
| 16>    O       -3.38296       -16.31945         5.33284
| 17>    C       -5.06762       -17.97635         4.94939
| 18>    C       -5.92157       -18.27623         3.87508
| 19>    C       -6.80824       -19.33726         3.98471
| 20>    C       -6.82216       -20.07694         5.16088
| 21>    C       -5.96460       -19.77148         6.22225
| 22>    C       -5.07691       -18.70935         6.11850
| 23>   Br       -6.00489       -20.79406         7.80890
| 24>   Br       -8.03269       -21.52023         5.30749
| 25>    C       -5.66994       -17.33314         2.78926
| 26>    C       -6.27944       -17.36290         1.56638
| 27>    C       -7.26162       -18.31156         1.19845
| 28>    N       -8.06687       -19.04613         0.84195
| 29>    C       -6.03348       -16.49019         0.48150
| 30>    N       -5.90256       -15.84869        -0.46059
| 31>    C       -4.64504       -16.39665         3.24528
| 32>    C       -4.21085       -15.32202         2.53824
| 33>    C       -3.22684       -14.35009         2.87352
| 34>    O       -2.47369       -14.37540         4.00180
| 35>    C       -1.68200       -13.29606         3.92289
| 36>    C       -1.99225       -12.62492         2.69961
| 37>    N       -2.97022       -13.33768         2.08417
| 38>    C       -1.34264       -11.45623         2.31131
| 39>    C       -0.38509       -11.00881         3.19819
| 40>    C       -0.09723       -11.70321         4.41251
| 41>    C       -0.72377       -12.85785         4.82098
| 42>    O        0.88491       -11.01101         5.05049
| 43>    C        1.13927        -9.96136         4.22358
| 44>    N        0.43866        -9.90603         3.14029
| 45>    N        2.08694        -9.07268         4.59876
| 46>    C        2.82114        -9.15245         5.74311
| 47>    S        2.60866       -10.36186         6.93800
| 48>    C        3.92720        -9.75892         7.90252
| 49>    C        4.45230        -8.59465         7.32924
| 50>    C        3.82225        -8.23999         6.09656
| 51>    N        4.19315        -7.15927         5.38996
| 52>    C        5.15226        -6.44279         5.91397
| 53>    C        5.71946        -6.74065         7.17779
| 54>    N        5.38047        -7.78778         7.87866
| 55>    C        4.46770       -10.36291         9.07072
| 56>    C        3.75629       -11.00683        10.11060
| 57>    C        2.31742       -11.28154        10.05237
| 58>    O        1.57698       -11.17258         9.11470
| 59>    S        1.74914       -11.87469        11.64156
| 60>    C        3.40657       -11.89320        12.32680
| 61>    O        3.62116       -12.21992        13.45559
| 62>    C        4.36187       -11.41035        11.30627
| 63>    C        5.73610       -11.25234        11.55242
| 64>    C        6.44190       -10.64435        10.50327
| 65>    C        5.85719       -10.25582         9.31094
| 66>    C        6.96298        -9.94145         8.37295
| 67>    O        6.96431        -9.79134         7.19057
| 68>    O        8.13081        -9.97542         9.10274
| 69>    C        7.90339       -10.40571        10.38008
| 70>    O        8.76824       -10.53276        11.18960
| 71>    C        6.47141       -11.76210        12.68752
| 72>    C        6.30087       -13.00836        13.16664
| 73>    C        7.16219       -13.59890        14.13348
| 74>    C        7.33621       -14.93234        14.31316
| 75>    C        7.98597       -15.45632        15.54902
| 76>    O        8.61957       -14.82811        16.35923
| 77>    C        7.63030       -16.89226        15.58207
| 78>    C        6.94081       -17.23664        14.40361
| 79>    C        6.87231       -16.06467        13.53196
| 80>    C        6.61769       -16.09648        12.18764
| 81>    C        6.77831       -15.01705        11.29056
| 82>    N        6.91071       -14.20723        10.48748
| 83>    C        6.23723       -17.26847        11.49429
| 84>    N        5.90777       -18.18464        10.88806
| 85>    C        6.47367       -18.52936        14.23320
| 86>    C        6.71043       -19.46099        15.23748
| 87>    C        7.40893       -19.11469        16.39757
| 88>    C        7.87315       -17.81753        16.57619
| 89>   Br        7.72691       -20.40498        17.73871
| 90>   Br        6.06230       -21.22091        15.01264
| 91>    H       -7.48607       -19.60516         3.19097
| 92>    H       -4.40946       -18.45946         6.92869
| 93>    H       -4.64467       -15.11298         1.56948
| 94>    H       -1.57170       -10.94676         1.39298
| 95>    H       -0.49777       -13.36623         5.74147
| 96>    H        2.27463        -8.29623         3.97601
| 97>    H        5.47585        -5.58062         5.34954
| 98>    H        6.45457        -6.08364         7.62070
| 99>    H        7.31738       -11.17183        13.01217
|100>    H        5.50392       -13.62749        12.77987
|101>    H        7.70155       -12.94420        14.80819
|102>    H        5.92445       -18.82994        13.35550
|103>    H        8.40988       -17.53842        17.46963
|104> *
|105>
|106>                          ****END OF INPUT****

CARTESIAN COORDINATES (ANGSTROEM)
---------------------------------
  C     -4.220330  -16.809660    4.617930
  O     -3.382960  -16.319450    5.332840
  C     -5.067620  -17.976350    4.949390
  C     -5.921570  -18.276230    3.875080
  C     -6.808240  -19.337260    3.984710
  C     -6.822160  -20.076940    5.160880
  C     -5.964600  -19.771480    6.222250
  C     -5.076910  -18.709350    6.118500
  Br    -6.004890  -20.794060    7.808900
  Br    -8.032690  -21.520230    5.307490
  C     -5.669940  -17.333140    2.789260
  C     -6.279440  -17.362900    1.566380
  C     -7.261620  -18.311560    1.198450
  N     -8.066870  -19.046130    0.841950
  C     -6.033480  -16.490190    0.481500
  N     -5.902560  -15.848690   -0.460590
  C     -4.645040  -16.396650    3.245280
  C     -4.210850  -15.322020    2.538240
  C     -3.226840  -14.350090    2.873520
  O     -2.473690  -14.375400    4.001800
  C     -1.682000  -13.296060    3.922890
  C     -1.992250  -12.624920    2.699610
  N     -2.970220  -13.337680    2.084170
  C     -1.342640  -11.456230    2.311310
  C     -0.385090  -11.008810    3.198190
  C     -0.097230  -11.703210    4.412510
  C     -0.723770  -12.857850    4.820980
  O      0.884910  -11.011010    5.050490
  C      1.139270   -9.961360    4.223580
  N      0.438660   -9.906030    3.140290
  N      2.086940   -9.072680    4.598760
  C      2.821140   -9.152450    5.743110
  S      2.608660  -10.361860    6.938000
  C      3.927200   -9.758920    7.902520
  C      4.452300   -8.594650    7.329240
  C      3.822250   -8.239990    6.096560
  N      4.193150   -7.159270    5.389960
  C      5.152260   -6.442790    5.913970
  C      5.719460   -6.740650    7.177790
  N      5.380470   -7.787780    7.878660
  C      4.467700  -10.362910    9.070720
  C      3.756290  -11.006830   10.110600
  C      2.317420  -11.281540   10.052370
  O      1.576980  -11.172580    9.114700
  S      1.749140  -11.874690   11.641560
  C      3.406570  -11.893200   12.326800
  O      3.621160  -12.219920   13.455590
  C      4.361870  -11.410350   11.306270
  C      5.736100  -11.252340   11.552420
  C      6.441900  -10.644350   10.503270
  C      5.857190  -10.255820    9.310940
  C      6.962980   -9.941450    8.372950
  O      6.964310   -9.791340    7.190570
  O      8.130810   -9.975420    9.102740
  C      7.903390  -10.405710   10.380080
  O      8.768240  -10.532760   11.189600
  C      6.471410  -11.762100   12.687520
  C      6.300870  -13.008360   13.166640
  C      7.162190  -13.598900   14.133480
  C      7.336210  -14.932340   14.313160
  C      7.985970  -15.456320   15.549020
  O      8.619570  -14.828110   16.359230
  C      7.630300  -16.892260   15.582070
  C      6.940810  -17.236640   14.403610
  C      6.872310  -16.064670   13.531960
  C      6.617690  -16.096480   12.187640
  C      6.778310  -15.017050   11.290560
  N      6.910710  -14.207230   10.487480
  C      6.237230  -17.268470   11.494290
  N      5.907770  -18.184640   10.888060
  C      6.473670  -18.529360   14.233200
  C      6.710430  -19.460990   15.237480
  C      7.408930  -19.114690   16.397570
  C      7.873150  -17.817530   16.576190
  Br     7.726910  -20.404980   17.738710
  Br     6.062300  -21.220910   15.012640
  H     -7.486070  -19.605160    3.190970
  H     -4.409460  -18.459460    6.928690
  H     -4.644670  -15.112980    1.569480
  H     -1.571700  -10.946760    1.392980
  H     -0.497770  -13.366230    5.741470
  H      2.274630   -8.296230    3.976010
  H      5.475850   -5.580620    5.349540
  H      6.454570   -6.083640    7.620700
  H      7.317380  -11.171830   13.012170
  H      5.503920  -13.627490   12.779870
  H      7.701550  -12.944200   14.808190
  H      5.924450  -18.829940   13.355500
  H      8.409880  -17.538420   17.469630

 Total Charge           Charge          ....    0
 Multiplicity           Mult            ....    1
 Number of Electrons    NEL             ....  632
 Basis Dimension        Dim             .... 1209

ORBITAL ENERGIES
----------------

  NO   OCC          E(Eh)            E(eV)
   0   2.0000    -482.882576    -13139.9029
   1   2.0000    -482.882476    -13139.9002
   2   2.0000    -482.881532    -13139.8745
   3   2.0000    -482.880693    -13139.8517
   4   2.0000     -88.996157     -2421.7085
   5   2.0000     -88.961540     -2420.7666
   6   2.0000     -62.560187     -1702.3492
   7   2.0000     -62.560101     -1702.3469
   8   2.0000     -62.559160     -1702.3213
   9   2.0000     -62.558292     -1702.2977
  10   2.0000     -56.394139     -1534.5625
  11   2.0000     -56.394053     -1534.5602
  12   2.0000     -56.393127     -1534.5350
  13   2.0000     -56.392260     -1534.5114
  14   2.0000     -56.391483     -1534.4903
  15   2.0000     -56.391401     -1534.4880
  16   2.0000     -56.391385     -1534.4876
  17   2.0000     -56.391292     -1534.4851
  18   2.0000     -56.390450     -1534.4621
  19   2.0000     -56.390351     -1534.4595
  20   2.0000     -56.389583     -1534.4386
  21   2.0000     -56.389481     -1534.4358
  22   2.0000     -19.327249      -525.9212
  23   2.0000     -19.310615      -525.4685
  24   2.0000     -19.292824      -524.9844
  25   2.0000     -19.255608      -523.9717
  26   2.0000     -19.251899      -523.8708
  27   2.0000     -19.242608      -523.6180
  28   2.0000     -19.235774      -523.4320
  29   2.0000     -19.230690      -523.2937
  30   2.0000     -19.229688      -523.2664
  31   2.0000     -14.502961      -394.6456
  32   2.0000     -14.447054      -393.1243
  33   2.0000     -14.439645      -392.9227
  34   2.0000     -14.431129      -392.6910
  35   2.0000     -14.429723      -392.6527
  36   2.0000     -14.429676      -392.6515
  37   2.0000     -14.429502      -392.6467
  38   2.0000     -14.428130      -392.6094
  39   2.0000     -14.419462      -392.3735
  40   2.0000     -10.435655      -283.9686
  41   2.0000     -10.432639      -283.8865
  42   2.0000     -10.431221      -283.8480
  43   2.0000     -10.416927      -283.4590
  44   2.0000     -10.416015      -283.4342
  45   2.0000     -10.386309      -282.6258
  46   2.0000     -10.383363      -282.5457
  47   2.0000     -10.381475      -282.4943
  48   2.0000     -10.376802      -282.3671
  49   2.0000     -10.362851      -281.9875
  50   2.0000     -10.362335      -281.9735
  51   2.0000     -10.361493      -281.9506
  52   2.0000     -10.360986      -281.9367
  53   2.0000     -10.360479      -281.9230
  54   2.0000     -10.360473      -281.9228
  55   2.0000     -10.360078      -281.9120
  56   2.0000     -10.358819      -281.8778
  57   2.0000     -10.357435      -281.8401
  58   2.0000     -10.355874      -281.7977
  59   2.0000     -10.348203      -281.5889
  60   2.0000     -10.338400      -281.3222
  61   2.0000     -10.336700      -281.2759
  62   2.0000     -10.334946      -281.2282
  63   2.0000     -10.334567      -281.2179
  64   2.0000     -10.333998      -281.2024
  65   2.0000     -10.333761      -281.1959
  66   2.0000     -10.332908      -281.1727
  67   2.0000     -10.331361      -281.1306
  68   2.0000     -10.330548      -281.1085
  69   2.0000     -10.330438      -281.1055
  70   2.0000     -10.329844      -281.0894
  71   2.0000     -10.329800      -281.0882
  72   2.0000     -10.329402      -281.0773
  73   2.0000     -10.327720      -281.0315
  74   2.0000     -10.327435      -281.0238
  75   2.0000     -10.326946      -281.0105
  76   2.0000     -10.325791      -280.9791
  77   2.0000     -10.324909      -280.9551
  78   2.0000     -10.323296      -280.9112
  79   2.0000     -10.319711      -280.8136
  80   2.0000     -10.319194      -280.7995
  81   2.0000     -10.318932      -280.7924
  82   2.0000     -10.318012      -280.7674
  83   2.0000     -10.317757      -280.7604
  84   2.0000     -10.314880      -280.6822
  85   2.0000     -10.312267      -280.6111
  86   2.0000     -10.312223      -280.6098
  87   2.0000     -10.312014      -280.6042
  88   2.0000     -10.310326      -280.5582
  89   2.0000     -10.307395      -280.4785
  90   2.0000     -10.306979      -280.4672
  91   2.0000     -10.294560      -280.1292
  92   2.0000      -8.789511      -239.1748
  93   2.0000      -8.789433      -239.1726
  94   2.0000      -8.788489      -239.1470
  95   2.0000      -8.787609      -239.1230
  96   2.0000      -8.089389      -220.1235
  97   2.0000      -8.060888      -219.3479
  98   2.0000      -6.625653      -180.2932
  99   2.0000      -6.625580      -180.2912
 100   2.0000      -6.624681      -180.2667
 101   2.0000      -6.623780      -180.2422
 102   2.0000      -6.611640      -179.9119
 103   2.0000      -6.611567      -179.9099
 104   2.0000      -6.610834      -179.8899
 105   2.0000      -6.610743      -179.8875
 106   2.0000      -6.610590      -179.8833
 107   2.0000      -6.609786      -179.8614
 108   2.0000      -6.609714      -179.8595
 109   2.0000      -6.608912      -179.8376
 110   2.0000      -6.058720      -164.8662
 111   2.0000      -6.054063      -164.7394
 112   2.0000      -6.051843      -164.6790
 113   2.0000      -6.029757      -164.0780
 114   2.0000      -6.026496      -163.9893
 115   2.0000      -6.021894      -163.8641
 116   2.0000      -2.741583       -74.6023
 117   2.0000      -2.741490       -74.5997
 118   2.0000      -2.740571       -74.5747
 119   2.0000      -2.739713       -74.5514
 120   2.0000      -2.737783       -74.4989
 121   2.0000      -2.737736       -74.4976
 122   2.0000      -2.737160       -74.4819
 123   2.0000      -2.737074       -74.4796
 124   2.0000      -2.736787       -74.4718
 125   2.0000      -2.736180       -74.4552
 126   2.0000      -2.735885       -74.4472
 127   2.0000      -2.735275       -74.4306
 128   2.0000      -2.726019       -74.1787
 129   2.0000      -2.726010       -74.1785
 130   2.0000      -2.725952       -74.1769
 131   2.0000      -2.725923       -74.1761
 132   2.0000      -2.724960       -74.1499
 133   2.0000      -2.724951       -74.1497
 134   2.0000      -2.724076       -74.1259
 135   2.0000      -2.724068       -74.1257
 136   2.0000      -1.261593       -34.3297
 137   2.0000      -1.246160       -33.9097
 138   2.0000      -1.243091       -33.8262
 139   2.0000      -1.180619       -32.1263
 140   2.0000      -1.175491       -31.9867
 141   2.0000      -1.167900       -31.7802
 142   2.0000      -1.147505       -31.2252
 143   2.0000      -1.146889       -31.2084
 144   2.0000      -1.130135       -30.7525
 145   2.0000      -1.111134       -30.2355
 146   2.0000      -1.090614       -29.6771
 147   2.0000      -1.042811       -28.3763
 148   2.0000      -1.036982       -28.2177
 149   2.0000      -1.035842       -28.1867
 150   2.0000      -1.034088       -28.1390
 151   2.0000      -1.026618       -27.9357
 152   2.0000      -1.018957       -27.7272
 153   2.0000      -1.017864       -27.6975
 154   2.0000      -1.017826       -27.6965
 155   2.0000      -1.008562       -27.4444
 156   2.0000      -1.006806       -27.3966
 157   2.0000      -0.992298       -27.0018
 158   2.0000      -0.986922       -26.8555
 159   2.0000      -0.986574       -26.8460
 160   2.0000      -0.966957       -26.3122
 161   2.0000      -0.960911       -26.1477
 162   2.0000      -0.945362       -25.7246
 163   2.0000      -0.930304       -25.3149
 164   2.0000      -0.929993       -25.3064
 165   2.0000      -0.922411       -25.1001
 166   2.0000      -0.920747       -25.0548
 167   2.0000      -0.916749       -24.9460
 168   2.0000      -0.915560       -24.9137
 169   2.0000      -0.894590       -24.3430
 170   2.0000      -0.882757       -24.0210
 171   2.0000      -0.882285       -24.0082
 172   2.0000      -0.871718       -23.7206
 173   2.0000      -0.867017       -23.5927
 174   2.0000      -0.860837       -23.4246
 175   2.0000      -0.860006       -23.4020
 176   2.0000      -0.857716       -23.3396
 177   2.0000      -0.846066       -23.0226
 178   2.0000      -0.828637       -22.5484
 179   2.0000      -0.806770       -21.9533
 180   2.0000      -0.804160       -21.8823
 181   2.0000      -0.793190       -21.5838
 182   2.0000      -0.783154       -21.3107
 183   2.0000      -0.778527       -21.1848
 184   2.0000      -0.774822       -21.0840
 185   2.0000      -0.772191       -21.0124
 186   2.0000      -0.766512       -20.8579
 187   2.0000      -0.761565       -20.7232
 188   2.0000      -0.756455       -20.5842
 189   2.0000      -0.739366       -20.1192
 190   2.0000      -0.728855       -19.8332
 191   2.0000      -0.725820       -19.7506
 192   2.0000      -0.720996       -19.6193
 193   2.0000      -0.716351       -19.4929
 194   2.0000      -0.711543       -19.3621
 195   2.0000      -0.701896       -19.0996
 196   2.0000      -0.697536       -18.9809
 197   2.0000      -0.696907       -18.9638
 198   2.0000      -0.690691       -18.7946
 199   2.0000      -0.679273       -18.4840
 200   2.0000      -0.676487       -18.4082
 201   2.0000      -0.668071       -18.1791
 202   2.0000      -0.662766       -18.0348
 203   2.0000      -0.654469       -17.8090
 204   2.0000      -0.647358       -17.6155
 205   2.0000      -0.641540       -17.4572
 206   2.0000      -0.635197       -17.2846
 207   2.0000      -0.632855       -17.2209
 208   2.0000      -0.630704       -17.1623
 209   2.0000      -0.626430       -17.0460
 210   2.0000      -0.625023       -17.0078
 211   2.0000      -0.620439       -16.8830
 212   2.0000      -0.617731       -16.8093
 213   2.0000      -0.615180       -16.7399
 214   2.0000      -0.608286       -16.5523
 215   2.0000      -0.602500       -16.3949
 216   2.0000      -0.598411       -16.2836
 217   2.0000      -0.592255       -16.1161
 218   2.0000      -0.589223       -16.0336
 219   2.0000      -0.587479       -15.9861
 220   2.0000      -0.585550       -15.9336
 221   2.0000      -0.584139       -15.8952
 222   2.0000      -0.578444       -15.7403
 223   2.0000      -0.570556       -15.5256
 224   2.0000      -0.569446       -15.4954
 225   2.0000      -0.564487       -15.3605
 226   2.0000      -0.560454       -15.2507
 227   2.0000      -0.559146       -15.2151
 228   2.0000      -0.556236       -15.1359
 229   2.0000      -0.555426       -15.1139
 230   2.0000      -0.555031       -15.1032
 231   2.0000      -0.553706       -15.0671
 232   2.0000      -0.553010       -15.0482
 233   2.0000      -0.552468       -15.0334
 234   2.0000      -0.552316       -15.0293
 235   2.0000      -0.548969       -14.9382
 236   2.0000      -0.542024       -14.7492
 237   2.0000      -0.539690       -14.6857
 238   2.0000      -0.537380       -14.6229
 239   2.0000      -0.532739       -14.4966
 240   2.0000      -0.530638       -14.4394
 241   2.0000      -0.528497       -14.3811
 242   2.0000      -0.526903       -14.3378
 243   2.0000      -0.522040       -14.2054
 244   2.0000      -0.520328       -14.1588
 245   2.0000      -0.518294       -14.1035
 246   2.0000      -0.513231       -13.9657
 247   2.0000      -0.511207       -13.9106
 248   2.0000      -0.511021       -13.9056
 249   2.0000      -0.506549       -13.7839
 250   2.0000      -0.504328       -13.7235
 251   2.0000      -0.503512       -13.7012
 252   2.0000      -0.501819       -13.6552
 253   2.0000      -0.498517       -13.5653
 254   2.0000      -0.498235       -13.5577
 255   2.0000      -0.496557       -13.5120
 256   2.0000      -0.493218       -13.4211
 257   2.0000      -0.490208       -13.3392
 258   2.0000      -0.480417       -13.0728
 259   2.0000      -0.472555       -12.8589
 260   2.0000      -0.471803       -12.8384
 261   2.0000      -0.470058       -12.7909
 262   2.0000      -0.468973       -12.7614
 263   2.0000      -0.466218       -12.6864
 264   2.0000      -0.464280       -12.6337
 265   2.0000      -0.461926       -12.5696
 266   2.0000      -0.461189       -12.5496
 267   2.0000      -0.460248       -12.5240
 268   2.0000      -0.459613       -12.5067
 269   2.0000      -0.454392       -12.3646
 270   2.0000      -0.454111       -12.3570
 271   2.0000      -0.450652       -12.2629
 272   2.0000      -0.446661       -12.1543
 273   2.0000      -0.441732       -12.0201
 274   2.0000      -0.440035       -11.9740
 275   2.0000      -0.439324       -11.9546
 276   2.0000      -0.437545       -11.9062
 277   2.0000      -0.437108       -11.8943
 278   2.0000      -0.435022       -11.8375
 279   2.0000      -0.432469       -11.7681
 280   2.0000      -0.429994       -11.7007
 281   2.0000      -0.420348       -11.4382
 282   2.0000      -0.419302       -11.4098
 283   2.0000      -0.412486       -11.2243
 284   2.0000      -0.409687       -11.1482
 285   2.0000      -0.406094       -11.0504
 286   2.0000      -0.405706       -11.0398
 287   2.0000      -0.404219       -10.9993
 288   2.0000      -0.399927       -10.8826
 289   2.0000      -0.395885       -10.7726
 290   2.0000      -0.395382       -10.7589
 291   2.0000      -0.395067       -10.7503
 292   2.0000      -0.389894       -10.6096
 293   2.0000      -0.388800       -10.5798
 294   2.0000      -0.382371       -10.4048
 295   2.0000      -0.381953       -10.3935
 296   2.0000      -0.376084       -10.2338
 297   2.0000      -0.374246       -10.1838
 298   2.0000      -0.369444       -10.0531
 299   2.0000      -0.360339        -9.8053
 300   2.0000      -0.358420        -9.7531
 301   2.0000      -0.357039        -9.7155
 302   2.0000      -0.354286        -9.6406
 303   2.0000      -0.353930        -9.6309
 304   2.0000      -0.349191        -9.5020
 305   2.0000      -0.346707        -9.4344
 306   2.0000      -0.342623        -9.3233
 307   2.0000      -0.341191        -9.2843
 308   2.0000      -0.340447        -9.2640
 309   2.0000      -0.337025        -9.1709
 310   2.0000      -0.321826        -8.7573
 311   2.0000      -0.319343        -8.6898
 312   2.0000      -0.318714        -8.6726
 313   2.0000      -0.308362        -8.3909
 314   2.0000      -0.298694        -8.1279
 315   2.0000      -0.262626        -7.1464
 316   0.0000      -0.109461        -2.9786
 317   0.0000      -0.107346        -2.9210
 318   0.0000      -0.098360        -2.6765
 319   0.0000      -0.083413        -2.2698
 320   0.0000      -0.076024        -2.0687

MULLIKEN ATOMIC CHARGES
-----------------------
   0 C :    0.142695
   1 O :   -0.106385
   2 C :   -0.021844
   3 C :    0.035078
   4 C :   -0.004156
   5 C :   -0.027783
   6 C :   -0.013075
   7 C :   -0.018622
   8 Br:    0.020828
   9 Br:    0.027440
  10 C :    0.310128
  11 C :   -0.335669
  12 C :   -0.188395
  13 N :    0.162869
  14 C :   -0.189585
  15 N :    0.177923
  16 C :   -0.041663
  17 C :   -0.036413
  18 C :    0.082055
  19 O :   -0.152488
  20 C :    0.206252
  21 C :    0.004036
  22 N :   -0.025269
  23 C :   -0.077950
  24 C :    0.033284
  25 C :    0.230053
  26 C :   -0.144032
  27 O :   -0.232823
  28 C :    0.121145
  29 N :   -0.065943
  30 N :    0.011583
  31 C :   -0.169542
  32 S :    0.257226
  33 C :   -0.251581
  34 C :    0.065985
  35 C :    0.067383
  36 N :   -0.010911
  37 C :    0.019230
  38 C :    0.048403
  39 N :   -0.034394
  40 C :    0.116793
  41 C :    0.024932
  42 C :    0.041983
  43 O :   -0.151323
  44 S :    0.026125
  45 C :    0.028059
  46 O :   -0.121523
  47 C :    0.013442
  48 C :    0.011768
  49 C :   -0.055071
  50 C :   -0.098836
  51 C :    0.239547
  52 O :   -0.108823
  53 O :   -0.225957
  54 C :    0.246954
  55 O :   -0.109234
  56 C :   -0.010865
  57 C :    0.051923
  58 C :    0.031549
  59 C :   -0.111763
  60 C :    0.145874
  61 O :   -0.121552
  62 C :   -0.006331
  63 C :    0.024226
  64 C :    0.281157
  65 C :   -0.326069
  66 C :   -0.206733
  67 N :    0.169844
  68 C :   -0.188471
  69 N :    0.165606
  70 C :   -0.007828
  71 C :   -0.022447
  72 C :   -0.016686
  73 C :   -0.018643
  74 Br:    0.020513
  75 Br:    0.025915
  76 H :    0.009259
  77 H :    0.008438
  78 H :    0.035536
  79 H :   -0.015297
  80 H :    0.001865
  81 H :    0.167077
  82 H :    0.017104
  83 H :    0.021196
  84 H :    0.034945
  85 H :    0.035038
  86 H :    0.030357
  87 H :    0.011322
  88 H :    0.010034
Sum of atomic charges:   -0.0000000

LOEWDIN ATOMIC CHARGES
----------------------
   0 C :    0.075051
   1 O :   -0.112075
   2 C :   -0.042644
   3 C :   -0.013842
   4 C :   -0.006476
   5 C :   -0.117745
   6 C :   -0.120899
   7 C :    0.007617
   8 Br:    0.143020
   9 Br:    0.145617
  10 C :    0.070274
  11 C :   -0.119084
  12 C :   -0.018205
  13 N :   -0.036201
  14 C :   -0.025569
  15 N :   -0.027527
  16 C :   -0.068660
  17 C :    0.049216
  18 C :    0.041801
  19 O :    0.030027
  20 C :    0.038886
  21 C :   -0.039318
  22 N :   -0.067050
  23 C :   -0.014640
  24 C :   -0.023622
  25 C :    0.044483
  26 C :   -0.052582
  27 O :   -0.026155
  28 C :    0.085253
  29 N :   -0.139867
  30 N :    0.050711
  31 C :   -0.121664
  32 S :    0.561807
  33 C :   -0.242773
  34 C :   -0.014151
  35 C :   -0.084162
  36 N :   -0.039748
  37 C :   -0.001286
  38 C :    0.025623
  39 N :   -0.041275
  40 C :    0.025371
  41 C :   -0.066206
  42 C :   -0.044101
  43 O :   -0.139155
  44 S :    0.312630
  45 C :   -0.045578
  46 O :   -0.110762
  47 C :   -0.049224
  48 C :    0.015258
  49 C :   -0.028726
  50 C :   -0.035396
  51 C :    0.112341
  52 O :   -0.103249
  53 O :   -0.050021
  54 C :    0.110850
  55 O :   -0.100352
  56 C :    0.023079
  57 C :    0.002153
  58 C :    0.078490
  59 C :   -0.082863
  60 C :    0.083845
  61 O :   -0.124221
  62 C :   -0.043270
  63 C :   -0.010556
  64 C :    0.071160
  65 C :   -0.127698
  66 C :   -0.017645
  67 N :   -0.049705
  68 C :   -0.020846
  69 N :   -0.037537
  70 C :   -0.007651
  71 C :   -0.117566
  72 C :   -0.122003
  73 C :    0.008884
  74 Br:    0.142797
  75 Br:    0.145554
  76 H :    0.045014
  77 H :    0.046947
  78 H :    0.061751
  79 H :    0.046435
  80 H :    0.051013
  81 H :    0.119066
  82 H :    0.028472
  83 H :    0.030729
  84 H :    0.042950
  85 H :    0.032873
  86 H :    0.051784
  87 H :    0.044972
  88 H :    0.047748

  Mayer bond orders larger than 0.100000
B(  0-C ,  1-O ) :   2.2951 B(  0-C ,  2-C ) :   0.9407 B(  0-C , 16-C ) :   0.9007
B(  2-C ,  3-C ) :   1.3294 B(  2-C ,  7-C ) :   1.3698 B(  3-C ,  4-C ) :   1.3550
B(  3-C , 10-C ) :   0.9980 B(  4-C ,  5-C ) :   1.3805 B(  4-C , 76-H ) :   0.9774
B(  5-C ,  6-C ) :   1.4122 B(  5-C ,  9-Br) :   1.0625 B(  6-C ,  7-C ) :   1.3562
B(  6-C ,  8-Br) :   1.0384 B(  7-C , 77-H ) :   1.0074 B( 10-C , 11-C ) :   1.6615
B( 10-C , 16-C ) :   1.0557 B( 11-C , 12-C ) :   1.1378 B( 11-C , 14-C ) :   1.1367
B( 12-C , 13-N ) :   2.9706 B( 14-C , 15-N ) :   2.9730 B( 16-C , 17-C ) :   1.6160
B( 17-C , 18-C ) :   1.1149 B( 17-C , 78-H ) :   0.9298 B( 18-C , 19-O ) :   1.1558
B( 18-C , 22-N ) :   1.6993 B( 19-O , 20-C ) :   1.1430 B( 20-C , 21-C ) :   1.2410
B( 20-C , 26-C ) :   1.2852 B( 21-C , 22-N ) :   1.3342 B( 21-C , 23-C ) :   1.2373
B( 23-C , 24-C ) :   1.3359 B( 23-C , 26-C ) :   0.1470 B( 23-C , 79-H ) :   1.0537
B( 24-C , 25-C ) :   1.2349 B( 24-C , 29-N ) :   1.2590 B( 25-C , 26-C ) :   1.3524
B( 25-C , 27-O ) :   1.0535 B( 26-C , 80-H ) :   1.0482 B( 27-O , 28-C ) :   1.1145
B( 28-C , 29-N ) :   1.7369 B( 28-C , 30-N ) :   1.1578 B( 30-N , 31-C ) :   1.2071
B( 30-N , 81-H ) :   0.8842 B( 31-C , 32-S ) :   1.2368 B( 31-C , 33-C ) :   0.1245
B( 31-C , 35-C ) :   1.2562 B( 32-S , 33-C ) :   1.0823 B( 33-C , 34-C ) :   1.3688
B( 33-C , 40-C ) :   1.1318 B( 34-C , 35-C ) :   1.2559 B( 34-C , 39-N ) :   1.3876
B( 35-C , 36-N ) :   1.4143 B( 36-N , 37-C ) :   1.6818 B( 37-C , 38-C ) :   1.1936
B( 37-C , 82-H ) :   0.9747 B( 38-C , 39-N ) :   1.6786 B( 38-C , 83-H ) :   0.9734
B( 40-C , 41-C ) :   1.3491 B( 40-C , 50-C ) :   1.3100 B( 41-C , 42-C ) :   0.8687
B( 41-C , 47-C ) :   1.3125 B( 42-C , 43-O ) :   2.1163 B( 42-C , 44-S ) :   1.0425
B( 44-S , 45-C ) :   1.0258 B( 44-S , 46-O ) :   0.1056 B( 45-C , 46-O ) :   2.1874
B( 45-C , 47-C ) :   0.8436 B( 47-C , 48-C ) :   1.3684 B( 48-C , 49-C ) :   1.3325
B( 48-C , 56-C ) :   1.0707 B( 49-C , 50-C ) :   1.4090 B( 49-C , 54-C ) :   0.9009
B( 50-C , 51-C ) :   0.9093 B( 51-C , 52-O ) :   2.2531 B( 51-C , 53-O ) :   1.0364
B( 53-O , 54-C ) :   1.0760 B( 54-C , 55-O ) :   2.2336 B( 56-C , 57-C ) :   1.7259
B( 56-C , 84-H ) :   0.9516 B( 57-C , 58-C ) :   1.1187 B( 57-C , 85-H ) :   0.9397
B( 58-C , 59-C ) :   1.6637 B( 58-C , 86-H ) :   0.9601 B( 59-C , 60-C ) :   0.9314
B( 59-C , 64-C ) :   1.0318 B( 60-C , 61-O ) :   2.2925 B( 60-C , 62-C ) :   0.9198
B( 62-C , 63-C ) :   1.3275 B( 62-C , 73-C ) :   1.3754 B( 63-C , 64-C ) :   1.0078
B( 63-C , 70-C ) :   1.3655 B( 64-C , 65-C ) :   1.6554 B( 65-C , 66-C ) :   1.1569
B( 65-C , 68-C ) :   1.1299 B( 66-C , 67-N ) :   3.0082 B( 68-C , 69-N ) :   2.9895
B( 70-C , 71-C ) :   1.3730 B( 70-C , 87-H ) :   0.9807 B( 71-C , 72-C ) :   1.4179
B( 71-C , 75-Br) :   1.0556 B( 72-C , 73-C ) :   1.3568 B( 72-C , 74-Br) :   1.0382
B( 73-C , 88-H ) :   1.0071

-----------------------------------------------------------------------------
         ABSORPTION SPECTRUM VIA TRANSITION ELECTRIC DIPOLE MOMENTS
-----------------------------------------------------------------------------
State   Energy  Wavelength   fosc         T2         TX        TY        TZ
        (cm-1)    (nm)                  (au**2)     (au)      (au)      (au)
-----------------------------------------------------------------------------
   0   17103.8    584.7   0.040186919   0.77351  -0.86522   0.08461   0.13324
   1   19115.4    523.1   0.885113506  15.24371   2.31596  -0.96553   2.99129
   2   21736.6    460.1   0.605481541   9.17033   1.55991   2.59069   0.15927
   3   23618.2    423.4   0.084791968   1.18191  -0.39865  -0.24489  -0.98133
   4   25624.4    390.3   0.036409347   0.46777   0.34763  -0.58833   0.02811
   5   26269.1    380.7   0.655414155   8.21385  -1.76305  -2.25311  -0.17033
   6   26541.6    376.8   0.062092779   0.77018   0.05757   0.34307  -0.80571
   7   27269.3    366.7   0.009833137   0.11871  -0.20211  -0.27188   0.06278
   8   28197.2    354.6   0.186843293   2.18146   0.16270  -1.46797  -0.00765
   9   28414.2    351.9   0.056092055   0.64989  -0.21363   0.32029  -0.70829
  10   28713.1    348.3   0.103145840   1.18263   0.07159  -0.71559   0.81574
  11   29311.0    341.2   0.197169522   2.21455  -0.55384  -1.05732   0.88875
  12   29433.9    339.7   0.007490295   0.08378  -0.02984   0.28790  -0.00031
  13   29882.8    334.6   0.057236595   0.63056  -0.24903   0.51357  -0.55208
  14   29915.2    334.3   0.017146941   0.18870   0.40256   0.01554  -0.16249
  15   29972.8    333.6   0.179599027   1.97266   0.07760   1.08566  -0.88768
  16   30580.5    327.0   0.027534226   0.29642  -0.05556   0.28065  -0.46322
  17   31263.5    319.9   0.000405560   0.00427  -0.02484   0.00387   0.06032
  18   31486.5    317.6   0.003663865   0.03831   0.08818   0.02533  -0.17289
  19   32178.8    310.8   0.100003549   1.02311  -0.28988  -0.45832   0.85383
  20   32420.4    308.4   0.036398256   0.36960   0.16270   0.52219  -0.26543
  21   32482.0    307.9   0.015297342   0.15504   0.18327  -0.03453   0.34679
  22   32743.0    305.4   0.000740463   0.00744   0.00617   0.08600  -0.00329
  23   32979.3    303.2   0.028761606   0.28711   0.45458   0.17453  -0.22362
  24   33089.0    302.2   0.199633573   1.98621  -0.15531  -0.96710   1.01331
  25   33230.5    300.9   0.034150498   0.33833   0.09343  -0.49349   0.29337
  26   33720.1    296.6   0.007959614   0.07771  -0.00710   0.25252  -0.11787
  27   33825.2    295.6   0.015881332   0.15457  -0.28699  -0.09511  -0.25131
  28   34202.4    292.4   0.041718497   0.40156   0.25781  -0.54689   0.18975
  29   34324.4    291.3   0.416133021   3.99121  -0.25828   1.34479  -1.45466
  30   34464.7    290.2   0.007705511   0.07360   0.23965   0.05234  -0.11591
  31   34806.9    287.3   0.036979056   0.34976  -0.00587  -0.49338   0.32603
  32   34984.3    285.8   0.636891886   5.99333   1.02996  -0.08270   2.21938
  33   35055.1    285.3   0.067898659   0.63765   0.09891  -0.40885   0.67876
  34   35358.6    282.8   0.077120921   0.71805  -0.01443  -0.30973   0.78861
  35   35555.3    281.3   0.209167609   1.93672   0.51305  -0.41550   1.22509
  36   35707.8    280.1   0.033623384   0.30999  -0.33639  -0.40387  -0.18364
  37   36571.9    273.4   0.009834416   0.08853   0.08859  -0.22622   0.17176
  38   36764.5    272.0   0.025105350   0.22481  -0.04389   0.45794  -0.11478
  39   36888.8    271.1   0.028444991   0.25386   0.35160   0.31590  -0.17446
  40   37078.7    269.7   0.016247759   0.14426   0.21689  -0.28758   0.12049
  41   37096.8    269.6   0.003776869   0.03352  -0.09907   0.14226  -0.05885
  42   37587.9    266.0   0.037938396   0.33228  -0.08931  -0.37791   0.42601
  43   37847.7    264.2   0.001721648   0.01498   0.08230   0.01402   0.08947
  44   38133.5    262.2   0.007050813   0.06087   0.12932   0.10638  -0.18119
  45   38181.6    261.9   0.016072919   0.13858   0.35368  -0.07739  -0.08665
  46   38639.7    258.8   0.069530029   0.59240   0.27245   0.71733  -0.06004
  47   38854.6    257.4   0.021093732   0.17873   0.26702   0.32484  -0.04367
  48   38961.4    256.7   0.045076403   0.38088  -0.23663   0.37070  -0.43298
  49   39008.2    256.4   0.068235130   0.57587  -0.33435  -0.56031   0.38747
  50   39242.9    254.8   0.140505622   1.17871  -0.79672  -0.61082  -0.41334
  51   39443.5    253.5   0.092412732   0.77132  -0.59014  -0.40120  -0.51194
  52   39615.5    252.4   0.271297174   2.25453  -0.97857  -1.13561  -0.08549
  53   39893.2    250.7   0.010828349   0.08936   0.24474  -0.15857   0.06570
  54   39929.6    250.4   0.047622444   0.39264  -0.47269  -0.38156  -0.15367
  55   40263.5    248.4   0.040766244   0.33332   0.26701   0.09479   0.50303

FINAL SINGLE POINT ENERGY    -14247.198643416294

DIPOLE MOMENT
-------------
                                X             Y             Z
Electronic contribution:    -69.17231    -236.40363     106.55395
Nuclear contribution   :     69.36896     237.88132    -104.48283
                        -----------------------------------------
Total Dipole Moment    :      0.19665       1.47769       2.07112
                        -----------------------------------------
Magnitude (a.u.)       :      2.55182
Magnitude (Debye)      :      6.48620

Rotational constants in cm-1:     0.000496     0.000256     0.000175
Rotational constants in MHz :    14.855844     7.668906     5.240946

                             ****ORCA TERMINATED NORMALLY****
TOTAL RUN TIME: 0 days 0 hours 9 minutes 15 seconds 886 msec
