                         Program Version 4.2.0 -  RELEASE  -
|  1> # ORCA input file
|  2> # SCF done       -191.785818709032          0.000994764297
|  3> ! CAM-B3LYP def2-SVP def2/J RIJCOSX Grid4 TightSCF
|  4> %maxcore 5000
|  5> %tddft
|  6>     Mode sTDDFT
|  7>     Ethresh 5.0
|  8>     maxcore 5000
|  9> end
| 10>
| 11> %pal
| 12>   nprocs 6
| 13>   end
| 14> * xyz 0 1
| 15>    C        2.76070        -1.20099        -4.66171
| 16>    O        1.89340        -1.91866        -5.11200
| 17>    C        3.68204        -0.35415        -5.44309
| 18>    C        4.54898         0.32886        -4.57236
| 19>    C        5.49635         1.19464        -5.09567
| 20>    C        5.56124         1.35900        -6.47449
| 21>    C        4.69711         0.67078        -7.33029
| 22>    C        3.74469        -0.19652        -6.81232
| 23>   Br        4.81287         0.91016        -9.20010
| 24>   Br        6.85205         2.54146        -7.18558
| 25>    C        4.23592        -0.04899        -3.19548
| 26>    C        4.89831         0.39922        -2.08628
| 27>    C        5.98709         1.29935        -2.12979
| 28>    N        6.87482         2.02530        -2.10150
| 29>    C        4.62109         0.04363        -0.74674
| 30>    N        4.47608        -0.18275         0.36885
| 31>    C        3.11989        -0.98470        -3.24455
| 32>    C        2.50764        -1.55352        -2.16735
| 33>    C        1.42975        -2.46575        -2.11703
| 34>    S        0.51386        -3.18747        -3.43210
| 35>    C       -0.38252        -4.01613        -2.18583
| 36>    N        0.03191        -3.71486        -0.96725
| 37>    N        1.00750        -2.87913        -0.93708
| 38>    C       -1.43092        -4.93001        -2.46488
| 39>    C       -2.08851        -5.58244        -1.47208
| 40>    C       -3.10945        -6.53408        -1.71820
| 41>    N       -3.75965        -7.22839        -0.72739
| 42>    C       -3.50469        -7.15245         0.69149
| 43>    C       -2.27203        -7.96154         1.08613
| 44>    C       -4.69799        -8.14039        -1.24677
| 45>    O       -5.41782        -8.83064        -0.55884
| 46>    C       -4.58971        -7.97893        -2.68273
| 47>    C       -3.63130        -6.96569        -2.93781
| 48>    C       -3.56387        -6.76921        -4.36855
| 49>    O       -2.91054        -6.01458        -5.06076
| 50>    N       -4.49760        -7.68524        -4.88944
| 51>    C       -4.67917        -7.83585        -6.31284
| 52>    C       -3.90092        -9.02711        -6.86545
| 53>    C       -5.08784        -8.43417        -3.89802
| 54>    C       -5.99924        -9.49917        -4.14965
| 55>    C       -6.36163       -10.38048        -3.19259
| 56>    C       -7.22491       -11.51478        -3.41047
| 57>    C       -6.96634       -12.71305        -2.73652
| 58>    C       -5.87742       -13.05677        -1.79235
| 59>    O       -4.96161       -12.38559        -1.41089
| 60>    O       -6.05366       -14.34633        -1.41470
| 61>    C       -7.17546       -14.93102        -2.05410
| 62>    C       -7.73271       -13.85446        -2.92800
| 63>    C       -8.79406       -13.85847        -3.81632
| 64>    C       -9.06697       -12.68750        -4.49826
| 65>    C       -8.31826       -11.51900        -4.30665
| 66>    C       -8.73324       -10.29970        -4.97063
| 67>    C       -9.19010       -10.23756        -6.23735
| 68>    C       -9.56152        -9.02969        -6.90033
| 69>    C      -10.11124        -7.89801        -6.38878
| 70>    C      -10.04089        -6.63669        -7.17885
| 71>    O       -9.69554        -6.52191        -8.33022
| 72>    C      -10.42238        -5.56698        -6.23218
| 73>    C      -10.80465        -6.13997        -5.00473
| 74>    C      -10.75676        -7.59634        -5.12424
| 75>    C      -11.43504        -8.46934        -4.31836
| 76>    C      -11.58971        -9.84341        -4.59357
| 77>    N      -11.79150       -10.95606        -4.78679
| 78>    C      -12.14782        -8.08064        -3.16328
| 79>    N      -12.73397        -7.81335        -2.21444
| 80>    C      -11.17500        -5.32326        -3.94941
| 81>    C      -11.17203        -3.94633        -4.14115
| 82>    C      -10.81017        -3.38615        -5.36955
| 83>    C      -10.42643        -4.20102        -6.42699
| 84>   Br      -10.83642        -1.51236        -5.60873
| 85>   Br      -11.67471        -2.82945        -2.70232
| 86>    H        6.18035         1.74510        -4.47074
| 87>    H        3.06906        -0.73329        -7.45994
| 88>    H        2.86030        -1.30157        -1.17441
| 89>    H       -1.67987        -5.09865        -3.50330
| 90>    H       -1.80587        -5.37530        -0.45023
| 91>    H       -4.38922        -7.57169         1.17918
| 92>    H       -3.39785        -6.10603         0.98857
| 93>    H       -2.41183        -9.00491         0.81388
| 94>    H       -2.12141        -7.89968         2.16009
| 95>    H       -1.38209        -7.58624         0.58581
| 96>    H       -4.30337        -6.91311        -6.76389
| 97>    H       -5.74614        -7.92750        -6.53834
| 98>    H       -2.83859        -8.89274        -6.67858
| 99>    H       -4.05805        -9.10337        -7.93775
|100>    H       -4.21993        -9.95492        -6.39530
|101>    H       -6.34315        -9.63039        -5.16726
|102>    H       -5.92842       -10.30346        -2.20351
|103>    H       -7.88861       -15.26123        -1.29028
|104>    H       -6.84092       -15.80778        -2.61969
|105>    H       -9.39587       -14.74031        -3.96749
|106>    H       -9.91632       -12.64648        -5.16240
|107>    H       -8.62227        -9.38579        -4.39838
|108>    H       -9.16843       -11.12724        -6.85250
|109>    H       -9.31653        -8.97225        -7.95759
|110>    H      -11.45570        -5.72150        -2.98759
|111>    H      -10.14165        -3.77882        -7.37822
|112> *
|113>
|114>                          ****END OF INPUT****

CARTESIAN COORDINATES (ANGSTROEM)
---------------------------------
  C      2.760700   -1.200990   -4.661710
  O      1.893400   -1.918660   -5.112000
  C      3.682040   -0.354150   -5.443090
  C      4.548980    0.328860   -4.572360
  C      5.496350    1.194640   -5.095670
  C      5.561240    1.359000   -6.474490
  C      4.697110    0.670780   -7.330290
  C      3.744690   -0.196520   -6.812320
  Br     4.812870    0.910160   -9.200100
  Br     6.852050    2.541460   -7.185580
  C      4.235920   -0.048990   -3.195480
  C      4.898310    0.399220   -2.086280
  C      5.987090    1.299350   -2.129790
  N      6.874820    2.025300   -2.101500
  C      4.621090    0.043630   -0.746740
  N      4.476080   -0.182750    0.368850
  C      3.119890   -0.984700   -3.244550
  C      2.507640   -1.553520   -2.167350
  C      1.429750   -2.465750   -2.117030
  S      0.513860   -3.187470   -3.432100
  C     -0.382520   -4.016130   -2.185830
  N      0.031910   -3.714860   -0.967250
  N      1.007500   -2.879130   -0.937080
  C     -1.430920   -4.930010   -2.464880
  C     -2.088510   -5.582440   -1.472080
  C     -3.109450   -6.534080   -1.718200
  N     -3.759650   -7.228390   -0.727390
  C     -3.504690   -7.152450    0.691490
  C     -2.272030   -7.961540    1.086130
  C     -4.697990   -8.140390   -1.246770
  O     -5.417820   -8.830640   -0.558840
  C     -4.589710   -7.978930   -2.682730
  C     -3.631300   -6.965690   -2.937810
  C     -3.563870   -6.769210   -4.368550
  O     -2.910540   -6.014580   -5.060760
  N     -4.497600   -7.685240   -4.889440
  C     -4.679170   -7.835850   -6.312840
  C     -3.900920   -9.027110   -6.865450
  C     -5.087840   -8.434170   -3.898020
  C     -5.999240   -9.499170   -4.149650
  C     -6.361630  -10.380480   -3.192590
  C     -7.224910  -11.514780   -3.410470
  C     -6.966340  -12.713050   -2.736520
  C     -5.877420  -13.056770   -1.792350
  O     -4.961610  -12.385590   -1.410890
  O     -6.053660  -14.346330   -1.414700
  C     -7.175460  -14.931020   -2.054100
  C     -7.732710  -13.854460   -2.928000
  C     -8.794060  -13.858470   -3.816320
  C     -9.066970  -12.687500   -4.498260
  C     -8.318260  -11.519000   -4.306650
  C     -8.733240  -10.299700   -4.970630
  C     -9.190100  -10.237560   -6.237350
  C     -9.561520   -9.029690   -6.900330
  C    -10.111240   -7.898010   -6.388780
  C    -10.040890   -6.636690   -7.178850
  O     -9.695540   -6.521910   -8.330220
  C    -10.422380   -5.566980   -6.232180
  C    -10.804650   -6.139970   -5.004730
  C    -10.756760   -7.596340   -5.124240
  C    -11.435040   -8.469340   -4.318360
  C    -11.589710   -9.843410   -4.593570
  N    -11.791500  -10.956060   -4.786790
  C    -12.147820   -8.080640   -3.163280
  N    -12.733970   -7.813350   -2.214440
  C    -11.175000   -5.323260   -3.949410
  C    -11.172030   -3.946330   -4.141150
  C    -10.810170   -3.386150   -5.369550
  C    -10.426430   -4.201020   -6.426990
  Br   -10.836420   -1.512360   -5.608730
  Br   -11.674710   -2.829450   -2.702320
  H      6.180350    1.745100   -4.470740
  H      3.069060   -0.733290   -7.459940
  H      2.860300   -1.301570   -1.174410
  H     -1.679870   -5.098650   -3.503300
  H     -1.805870   -5.375300   -0.450230
  H     -4.389220   -7.571690    1.179180
  H     -3.397850   -6.106030    0.988570
  H     -2.411830   -9.004910    0.813880
  H     -2.121410   -7.899680    2.160090
  H     -1.382090   -7.586240    0.585810
  H     -4.303370   -6.913110   -6.763890
  H     -5.746140   -7.927500   -6.538340
  H     -2.838590   -8.892740   -6.678580
  H     -4.058050   -9.103370   -7.937750
  H     -4.219930   -9.954920   -6.395300
  H     -6.343150   -9.630390   -5.167260
  H     -5.928420  -10.303460   -2.203510
  H     -7.888610  -15.261230   -1.290280
  H     -6.840920  -15.807780   -2.619690
  H     -9.395870  -14.740310   -3.967490
  H     -9.916320  -12.646480   -5.162400
  H     -8.622270   -9.385790   -4.398380
  H     -9.168430  -11.127240   -6.852500
  H     -9.316530   -8.972250   -7.957590
  H    -11.455700   -5.721500   -2.987590
  H    -10.141650   -3.778820   -7.378220

 Total Charge           Charge          ....    0
 Multiplicity           Mult            ....    1
 Number of Electrons    NEL             ....  598
 Basis Dimension        Dim             .... 1200

ORBITAL ENERGIES
----------------

  NO   OCC          E(Eh)            E(eV)
   0   2.0000    -482.883396    -13139.9252
   1   2.0000    -482.882824    -13139.9097
   2   2.0000    -482.881577    -13139.8757
   3   2.0000    -482.881454    -13139.8724
   4   2.0000     -88.984801     -2421.3995
   5   2.0000     -62.560974     -1702.3706
   6   2.0000     -62.560434     -1702.3560
   7   2.0000     -62.559174     -1702.3217
   8   2.0000     -62.559079     -1702.3191
   9   2.0000     -56.394932     -1534.5841
  10   2.0000     -56.394390     -1534.5694
  11   2.0000     -56.393146     -1534.5355
  12   2.0000     -56.393052     -1534.5330
  13   2.0000     -56.392275     -1534.5118
  14   2.0000     -56.392166     -1534.5088
  15   2.0000     -56.391727     -1534.4969
  16   2.0000     -56.391630     -1534.4943
  17   2.0000     -56.390465     -1534.4626
  18   2.0000     -56.390365     -1534.4598
  19   2.0000     -56.390361     -1534.4597
  20   2.0000     -56.390267     -1534.4572
  21   2.0000     -19.262686      -524.1643
  22   2.0000     -19.241158      -523.5785
  23   2.0000     -19.231193      -523.3074
  24   2.0000     -19.202203      -522.5185
  25   2.0000     -19.199993      -522.4584
  26   2.0000     -19.192207      -522.2465
  27   2.0000     -14.460338      -393.4858
  28   2.0000     -14.455918      -393.3655
  29   2.0000     -14.455900      -393.3651
  30   2.0000     -14.445322      -393.0772
  31   2.0000     -14.431394      -392.6982
  32   2.0000     -14.427909      -392.6034
  33   2.0000     -14.427838      -392.6014
  34   2.0000     -14.427217      -392.5845
  35   2.0000     -10.402572      -283.0684
  36   2.0000     -10.389348      -282.7085
  37   2.0000     -10.382148      -282.5126
  38   2.0000     -10.381571      -282.4969
  39   2.0000     -10.376023      -282.3459
  40   2.0000     -10.361419      -281.9485
  41   2.0000     -10.361357      -281.9469
  42   2.0000     -10.361045      -281.9384
  43   2.0000     -10.360835      -281.9327
  44   2.0000     -10.360252      -281.9168
  45   2.0000     -10.359612      -281.8994
  46   2.0000     -10.358359      -281.8653
  47   2.0000     -10.356837      -281.8239
  48   2.0000     -10.350672      -281.6561
  49   2.0000     -10.349677      -281.6290
  50   2.0000     -10.346239      -281.5355
  51   2.0000     -10.345207      -281.5074
  52   2.0000     -10.344170      -281.4792
  53   2.0000     -10.336003      -281.2569
  54   2.0000     -10.333475      -281.1882
  55   2.0000     -10.329788      -281.0878
  56   2.0000     -10.329666      -281.0845
  57   2.0000     -10.328933      -281.0646
  58   2.0000     -10.328700      -281.0582
  59   2.0000     -10.327157      -281.0162
  60   2.0000     -10.326964      -281.0110
  61   2.0000     -10.320158      -280.8258
  62   2.0000     -10.319753      -280.8148
  63   2.0000     -10.319550      -280.8092
  64   2.0000     -10.318914      -280.7919
  65   2.0000     -10.318877      -280.7909
  66   2.0000     -10.316016      -280.7131
  67   2.0000     -10.315383      -280.6958
  68   2.0000     -10.315246      -280.6921
  69   2.0000     -10.312575      -280.6194
  70   2.0000     -10.312453      -280.6161
  71   2.0000     -10.312418      -280.6152
  72   2.0000     -10.308937      -280.5204
  73   2.0000     -10.308618      -280.5118
  74   2.0000     -10.307203      -280.4732
  75   2.0000     -10.303829      -280.3814
  76   2.0000     -10.302911      -280.3565
  77   2.0000     -10.301714      -280.3239
  78   2.0000     -10.300850      -280.3004
  79   2.0000     -10.300366      -280.2872
  80   2.0000     -10.300133      -280.2809
  81   2.0000     -10.298444      -280.2349
  82   2.0000     -10.298222      -280.2289
  83   2.0000     -10.270230      -279.4672
  84   2.0000     -10.269102      -279.4365
  85   2.0000     -10.266548      -279.3670
  86   2.0000     -10.260216      -279.1947
  87   2.0000      -8.790278      -239.1956
  88   2.0000      -8.789757      -239.1814
  89   2.0000      -8.788481      -239.1467
  90   2.0000      -8.788403      -239.1446
  91   2.0000      -8.078875      -219.8374
  92   2.0000      -6.626432      -180.3144
  93   2.0000      -6.625912      -180.3002
  94   2.0000      -6.624690      -180.2670
  95   2.0000      -6.624625      -180.2652
  96   2.0000      -6.612410      -179.9328
  97   2.0000      -6.611876      -179.9183
  98   2.0000      -6.611581      -179.9103
  99   2.0000      -6.611072      -179.8964
 100   2.0000      -6.610586      -179.8832
 101   2.0000      -6.610483      -179.8804
 102   2.0000      -6.609758      -179.8607
 103   2.0000      -6.609686      -179.8587
 104   2.0000      -6.047659      -164.5652
 105   2.0000      -6.043749      -164.4588
 106   2.0000      -6.041607      -164.4005
 107   2.0000      -2.742332       -74.6227
 108   2.0000      -2.741804       -74.6083
 109   2.0000      -2.740566       -74.5746
 110   2.0000      -2.740479       -74.5722
 111   2.0000      -2.738559       -74.5200
 112   2.0000      -2.738061       -74.5064
 113   2.0000      -2.737953       -74.5035
 114   2.0000      -2.737417       -74.4889
 115   2.0000      -2.736780       -74.4716
 116   2.0000      -2.736732       -74.4703
 117   2.0000      -2.736183       -74.4553
 118   2.0000      -2.736107       -74.4533
 119   2.0000      -2.726777       -74.1994
 120   2.0000      -2.726765       -74.1990
 121   2.0000      -2.726256       -74.1852
 122   2.0000      -2.726242       -74.1848
 123   2.0000      -2.724951       -74.1497
 124   2.0000      -2.724931       -74.1491
 125   2.0000      -2.724858       -74.1471
 126   2.0000      -2.724846       -74.1468
 127   2.0000      -1.197518       -32.5861
 128   2.0000      -1.158230       -31.5170
 129   2.0000      -1.154738       -31.4220
 130   2.0000      -1.147040       -31.2125
 131   2.0000      -1.139976       -31.0203
 132   2.0000      -1.131315       -30.7846
 133   2.0000      -1.109207       -30.1831
 134   2.0000      -1.069820       -29.1113
 135   2.0000      -1.060393       -28.8548
 136   2.0000      -1.035522       -28.1780
 137   2.0000      -1.034866       -28.1601
 138   2.0000      -1.018825       -27.7236
 139   2.0000      -1.017994       -27.7010
 140   2.0000      -1.007955       -27.4278
 141   2.0000      -1.005518       -27.3615
 142   2.0000      -0.993333       -27.0300
 143   2.0000      -0.987753       -26.8781
 144   2.0000      -0.986539       -26.8451
 145   2.0000      -0.956064       -26.0158
 146   2.0000      -0.941377       -25.6162
 147   2.0000      -0.939264       -25.5587
 148   2.0000      -0.933318       -25.3969
 149   2.0000      -0.928964       -25.2784
 150   2.0000      -0.928780       -25.2734
 151   2.0000      -0.922213       -25.0947
 152   2.0000      -0.919356       -25.0169
 153   2.0000      -0.918692       -24.9989
 154   2.0000      -0.904027       -24.5998
 155   2.0000      -0.901024       -24.5181
 156   2.0000      -0.892349       -24.2821
 157   2.0000      -0.879463       -23.9314
 158   2.0000      -0.876232       -23.8435
 159   2.0000      -0.868521       -23.6337
 160   2.0000      -0.861448       -23.4412
 161   2.0000      -0.860918       -23.4268
 162   2.0000      -0.854900       -23.2630
 163   2.0000      -0.843530       -22.9536
 164   2.0000      -0.823759       -22.4156
 165   2.0000      -0.821922       -22.3656
 166   2.0000      -0.811181       -22.0734
 167   2.0000      -0.798248       -21.7214
 168   2.0000      -0.788393       -21.4533
 169   2.0000      -0.782944       -21.3050
 170   2.0000      -0.777199       -21.1487
 171   2.0000      -0.772299       -21.0153
 172   2.0000      -0.763885       -20.7864
 173   2.0000      -0.746249       -20.3065
 174   2.0000      -0.738064       -20.0837
 175   2.0000      -0.735028       -20.0011
 176   2.0000      -0.726449       -19.7677
 177   2.0000      -0.718791       -19.5593
 178   2.0000      -0.713005       -19.4018
 179   2.0000      -0.710807       -19.3420
 180   2.0000      -0.705130       -19.1876
 181   2.0000      -0.701018       -19.0757
 182   2.0000      -0.696250       -18.9459
 183   2.0000      -0.690544       -18.7907
 184   2.0000      -0.681551       -18.5460
 185   2.0000      -0.678834       -18.4720
 186   2.0000      -0.666812       -18.1449
 187   2.0000      -0.654921       -17.8213
 188   2.0000      -0.645818       -17.5736
 189   2.0000      -0.642365       -17.4797
 190   2.0000      -0.635074       -17.2812
 191   2.0000      -0.631203       -17.1759
 192   2.0000      -0.630187       -17.1482
 193   2.0000      -0.626038       -17.0354
 194   2.0000      -0.621601       -16.9146
 195   2.0000      -0.615454       -16.7473
 196   2.0000      -0.603308       -16.4168
 197   2.0000      -0.599472       -16.3125
 198   2.0000      -0.595955       -16.2168
 199   2.0000      -0.593453       -16.1487
 200   2.0000      -0.591367       -16.0919
 201   2.0000      -0.588266       -16.0075
 202   2.0000      -0.583014       -15.8646
 203   2.0000      -0.580147       -15.7866
 204   2.0000      -0.578131       -15.7317
 205   2.0000      -0.572009       -15.5652
 206   2.0000      -0.565167       -15.3790
 207   2.0000      -0.561419       -15.2770
 208   2.0000      -0.558637       -15.2013
 209   2.0000      -0.557679       -15.1752
 210   2.0000      -0.555063       -15.1040
 211   2.0000      -0.553867       -15.0715
 212   2.0000      -0.552800       -15.0425
 213   2.0000      -0.552527       -15.0350
 214   2.0000      -0.550602       -14.9826
 215   2.0000      -0.547377       -14.8949
 216   2.0000      -0.545589       -14.8462
 217   2.0000      -0.544771       -14.8240
 218   2.0000      -0.539371       -14.6770
 219   2.0000      -0.535654       -14.5759
 220   2.0000      -0.533275       -14.5112
 221   2.0000      -0.526098       -14.3159
 222   2.0000      -0.524903       -14.2833
 223   2.0000      -0.519622       -14.1396
 224   2.0000      -0.516563       -14.0564
 225   2.0000      -0.513888       -13.9836
 226   2.0000      -0.512229       -13.9385
 227   2.0000      -0.511692       -13.9238
 228   2.0000      -0.511109       -13.9080
 229   2.0000      -0.507701       -13.8152
 230   2.0000      -0.503099       -13.6900
 231   2.0000      -0.501136       -13.6366
 232   2.0000      -0.499129       -13.5820
 233   2.0000      -0.497229       -13.5303
 234   2.0000      -0.495377       -13.4799
 235   2.0000      -0.493246       -13.4219
 236   2.0000      -0.488444       -13.2912
 237   2.0000      -0.484730       -13.1902
 238   2.0000      -0.480211       -13.0672
 239   2.0000      -0.478325       -13.0159
 240   2.0000      -0.476389       -12.9632
 241   2.0000      -0.472697       -12.8627
 242   2.0000      -0.471177       -12.8214
 243   2.0000      -0.470165       -12.7938
 244   2.0000      -0.468389       -12.7455
 245   2.0000      -0.467947       -12.7335
 246   2.0000      -0.466324       -12.6893
 247   2.0000      -0.461294       -12.5525
 248   2.0000      -0.460104       -12.5201
 249   2.0000      -0.459477       -12.5030
 250   2.0000      -0.458310       -12.4713
 251   2.0000      -0.455217       -12.3871
 252   2.0000      -0.453323       -12.3356
 253   2.0000      -0.451304       -12.2806
 254   2.0000      -0.450708       -12.2644
 255   2.0000      -0.448898       -12.2151
 256   2.0000      -0.446831       -12.1589
 257   2.0000      -0.443943       -12.0803
 258   2.0000      -0.442102       -12.0302
 259   2.0000      -0.441168       -12.0048
 260   2.0000      -0.439839       -11.9686
 261   2.0000      -0.437910       -11.9162
 262   2.0000      -0.437114       -11.8945
 263   2.0000      -0.436848       -11.8872
 264   2.0000      -0.429353       -11.6833
 265   2.0000      -0.428801       -11.6683
 266   2.0000      -0.426720       -11.6116
 267   2.0000      -0.419733       -11.4215
 268   2.0000      -0.419172       -11.4062
 269   2.0000      -0.410356       -11.1663
 270   2.0000      -0.407159       -11.0794
 271   2.0000      -0.406022       -11.0484
 272   2.0000      -0.402378       -10.9493
 273   2.0000      -0.396075       -10.7777
 274   2.0000      -0.395915       -10.7734
 275   2.0000      -0.394705       -10.7405
 276   2.0000      -0.386366       -10.5135
 277   2.0000      -0.381454       -10.3799
 278   2.0000      -0.379686       -10.3318
 279   2.0000      -0.376228       -10.2377
 280   2.0000      -0.360493        -9.8095
 281   2.0000      -0.358662        -9.7597
 282   2.0000      -0.355899        -9.6845
 283   2.0000      -0.354440        -9.6448
 284   2.0000      -0.353407        -9.6167
 285   2.0000      -0.352471        -9.5912
 286   2.0000      -0.350034        -9.5249
 287   2.0000      -0.348824        -9.4920
 288   2.0000      -0.341595        -9.2953
 289   2.0000      -0.340623        -9.2688
 290   2.0000      -0.336623        -9.1600
 291   2.0000      -0.331098        -9.0096
 292   2.0000      -0.327484        -8.9113
 293   2.0000      -0.320854        -8.7309
 294   2.0000      -0.320529        -8.7220
 295   2.0000      -0.319782        -8.7017
 296   2.0000      -0.306977        -8.3533
 297   2.0000      -0.301554        -8.2057
 298   2.0000      -0.244733        -6.6595
 299   0.0000      -0.115144        -3.1332
 300   0.0000      -0.103270        -2.8101
 301   0.0000      -0.086838        -2.3630
 302   0.0000      -0.077098        -2.0980
 303   0.0000      -0.072681        -1.9777

MULLIKEN ATOMIC CHARGES
-----------------------
   0 C :    0.170802
   1 O :   -0.155793
   2 C :   -0.019699
   3 C :    0.037382
   4 C :   -0.006833
   5 C :   -0.025403
   6 C :   -0.015831
   7 C :   -0.014642
   8 Br:    0.020505
   9 Br:    0.028464
  10 C :    0.313530
  11 C :   -0.334218
  12 C :   -0.187734
  13 N :    0.166140
  14 C :   -0.197389
  15 N :    0.177706
  16 C :   -0.083519
  17 C :    0.019346
  18 C :   -0.109109
  19 S :    0.200221
  20 C :   -0.080558
  21 N :   -0.055131
  22 N :   -0.025867
  23 C :    0.058932
  24 C :   -0.019293
  25 C :    0.141401
  26 N :   -0.256635
  27 C :    0.096665
  28 C :   -0.001849
  29 C :    0.160638
  30 O :   -0.190688
  31 C :   -0.051106
  32 C :   -0.058834
  33 C :    0.161820
  34 O :   -0.204008
  35 N :   -0.257706
  36 C :    0.098012
  37 C :    0.000248
  38 C :    0.122327
  39 C :   -0.047986
  40 C :   -0.016122
  41 C :    0.053537
  42 C :   -0.071217
  43 C :    0.214511
  44 O :   -0.153043
  45 O :   -0.288634
  46 C :    0.331345
  47 C :   -0.093439
  48 C :   -0.021738
  49 C :    0.006937
  50 C :    0.020891
  51 C :   -0.013162
  52 C :   -0.009291
  53 C :    0.033349
  54 C :   -0.125885
  55 C :    0.138862
  56 O :   -0.131383
  57 C :    0.004146
  58 C :    0.010821
  59 C :    0.268978
  60 C :   -0.319834
  61 C :   -0.179236
  62 N :    0.167190
  63 C :   -0.181924
  64 N :    0.167538
  65 C :   -0.004457
  66 C :   -0.024279
  67 C :   -0.017036
  68 C :   -0.020128
  69 Br:    0.020090
  70 Br:    0.027225
  71 H :    0.009077
  72 H :    0.009081
  73 H :    0.034906
  74 H :    0.013372
  75 H :    0.009469
  76 H :    0.045189
  77 H :    0.027875
  78 H :    0.037408
  79 H :    0.027421
  80 H :    0.019080
  81 H :    0.044869
  82 H :    0.020490
  83 H :    0.032552
  84 H :    0.025522
  85 H :    0.018376
  86 H :   -0.004230
  87 H :    0.056705
  88 H :    0.048971
  89 H :    0.043701
  90 H :   -0.013770
  91 H :    0.009187
  92 H :    0.044689
  93 H :    0.014677
  94 H :    0.033907
  95 H :    0.013328
  96 H :    0.009230
Sum of atomic charges:   -0.0000000

LOEWDIN ATOMIC CHARGES
----------------------
   0 C :    0.085204
   1 O :   -0.147027
   2 C :   -0.044001
   3 C :   -0.010539
   4 C :   -0.005715
   5 C :   -0.116663
   6 C :   -0.121967
   7 C :    0.009054
   8 Br:    0.142664
   9 Br:    0.146724
  10 C :    0.071018
  11 C :   -0.120224
  12 C :   -0.018210
  13 N :   -0.037289
  14 C :   -0.025767
  15 N :   -0.026360
  16 C :   -0.091257
  17 C :    0.058074
  18 C :   -0.178714
  19 S :    0.488423
  20 C :   -0.151245
  21 N :   -0.080708
  22 N :   -0.040125
  23 C :   -0.015394
  24 C :    0.000282
  25 C :    0.071332
  26 N :    0.002292
  27 C :    0.036992
  28 C :   -0.060324
  29 C :    0.080751
  30 O :   -0.184797
  31 C :   -0.115900
  32 C :   -0.113150
  33 C :    0.081084
  34 O :   -0.196079
  35 N :   -0.001143
  36 C :    0.036001
  37 C :   -0.061208
  38 C :    0.075342
  39 C :   -0.041447
  40 C :    0.040068
  41 C :    0.008761
  42 C :   -0.066797
  43 C :    0.085787
  44 O :   -0.145069
  45 O :   -0.086388
  46 C :    0.102836
  47 C :   -0.014758
  48 C :   -0.018813
  49 C :    0.023896
  50 C :   -0.026936
  51 C :    0.036452
  52 C :   -0.044276
  53 C :    0.069540
  54 C :   -0.092484
  55 C :    0.083250
  56 O :   -0.132985
  57 C :   -0.044829
  58 C :   -0.010579
  59 C :    0.066410
  60 C :   -0.129519
  61 C :   -0.006497
  62 N :   -0.042172
  63 C :   -0.022407
  64 N :   -0.037740
  65 C :   -0.006882
  66 C :   -0.116936
  67 C :   -0.122078
  68 C :    0.008455
  69 Br:    0.142143
  70 Br:    0.146513
  71 H :    0.045227
  72 H :    0.047358
  73 H :    0.060051
  74 H :    0.037907
  75 H :    0.039334
  76 H :    0.038524
  77 H :    0.025250
  78 H :    0.034858
  79 H :    0.032497
  80 H :    0.023498
  81 H :    0.038609
  82 H :    0.021751
  83 H :    0.033397
  84 H :    0.031336
  85 H :    0.022806
  86 H :    0.030508
  87 H :    0.046429
  88 H :    0.039569
  89 H :    0.037431
  90 H :    0.035067
  91 H :    0.036203
  92 H :    0.037369
  93 H :    0.037413
  94 H :    0.048683
  95 H :    0.045587
  96 H :    0.047385

  Mayer bond orders larger than 0.100000
B(  0-C ,  1-O ) :   2.1691 B(  0-C ,  2-C ) :   0.9588 B(  0-C , 16-C ) :   0.9546
B(  2-C ,  3-C ) :   1.3269 B(  2-C ,  7-C ) :   1.3697 B(  3-C ,  4-C ) :   1.3635
B(  3-C , 10-C ) :   0.9941 B(  4-C ,  5-C ) :   1.3751 B(  4-C , 71-H ) :   0.9781
B(  5-C ,  6-C ) :   1.4149 B(  5-C ,  9-Br) :   1.0615 B(  6-C ,  7-C ) :   1.3564
B(  6-C ,  8-Br) :   1.0364 B(  7-C , 72-H ) :   1.0074 B( 10-C , 11-C ) :   1.6596
B( 10-C , 16-C ) :   1.0649 B( 11-C , 12-C ) :   1.1429 B( 11-C , 14-C ) :   1.1377
B( 12-C , 13-N ) :   2.9699 B( 14-C , 15-N ) :   2.9718 B( 16-C , 17-C ) :   1.5659
B( 17-C , 18-C ) :   1.1716 B( 17-C , 73-H ) :   0.9420 B( 18-C , 19-S ) :   1.0900
B( 18-C , 22-N ) :   1.5810 B( 19-S , 20-C ) :   1.1224 B( 19-S , 22-N ) :   0.1013
B( 20-C , 21-N ) :   1.5561 B( 20-C , 23-C ) :   1.1336 B( 21-N , 22-N ) :   1.3053
B( 23-C , 24-C ) :   1.6375 B( 23-C , 74-H ) :   0.9297 B( 24-C , 25-C ) :   1.1312
B( 24-C , 75-H ) :   0.9715 B( 25-C , 26-N ) :   1.1685 B( 25-C , 32-C ) :   1.3384
B( 26-N , 27-C ) :   0.9416 B( 26-N , 29-C ) :   1.0471 B( 27-C , 28-C ) :   1.1204
B( 27-C , 76-H ) :   0.9282 B( 27-C , 77-H ) :   0.9505 B( 28-C , 78-H ) :   0.9643
B( 28-C , 79-H ) :   0.9680 B( 28-C , 80-H ) :   0.9686 B( 29-C , 30-O ) :   2.0806
B( 29-C , 31-C ) :   0.9731 B( 31-C , 32-C ) :   1.2524 B( 31-C , 38-C ) :   1.3601
B( 32-C , 33-C ) :   0.9841 B( 33-C , 34-O ) :   2.0367 B( 33-C , 35-N ) :   1.0559
B( 34-O , 74-H ) :   0.1059 B( 35-N , 36-C ) :   0.9474 B( 35-N , 38-C ) :   1.1631
B( 36-C , 37-C ) :   1.1176 B( 36-C , 81-H ) :   0.9284 B( 36-C , 82-H ) :   0.9501
B( 37-C , 83-H ) :   0.9638 B( 37-C , 84-H ) :   0.9678 B( 37-C , 85-H ) :   0.9687
B( 38-C , 39-C ) :   1.1311 B( 39-C , 40-C ) :   1.6460 B( 39-C , 86-H ) :   0.9540
B( 40-C , 41-C ) :   1.0885 B( 40-C , 87-H ) :   0.9322 B( 41-C , 42-C ) :   1.3263
B( 41-C , 50-C ) :   1.3290 B( 42-C , 43-C ) :   0.9084 B( 42-C , 47-C ) :   1.4295
B( 43-C , 44-O ) :   2.1847 B( 43-C , 45-O ) :   1.1257 B( 45-O , 46-C ) :   0.9763
B( 46-C , 47-C ) :   1.0085 B( 46-C , 88-H ) :   0.9253 B( 46-C , 89-H ) :   0.9269
B( 47-C , 48-C ) :   1.3340 B( 48-C , 49-C ) :   1.3875 B( 48-C , 90-H ) :   1.0103
B( 49-C , 50-C ) :   1.3588 B( 49-C , 91-H ) :   0.9794 B( 50-C , 51-C ) :   1.0669
B( 51-C , 52-C ) :   1.7148 B( 51-C , 92-H ) :   0.9522 B( 52-C , 53-C ) :   1.1169
B( 52-C , 93-H ) :   0.9575 B( 53-C , 54-C ) :   1.7016 B( 53-C , 94-H ) :   0.9292
B( 54-C , 55-C ) :   0.9430 B( 54-C , 59-C ) :   1.0250 B( 55-C , 56-O ) :   2.2780
B( 55-C , 57-C ) :   0.9203 B( 57-C , 58-C ) :   1.3266 B( 57-C , 68-C ) :   1.3704
B( 58-C , 59-C ) :   1.0029 B( 58-C , 65-C ) :   1.3682 B( 59-C , 60-C ) :   1.6711
B( 60-C , 61-C ) :   1.1649 B( 60-C , 63-C ) :   1.1215 B( 61-C , 62-N ) :   2.9854
B( 63-C , 64-N ) :   2.9938 B( 65-C , 66-C ) :   1.3742 B( 65-C , 95-H ) :   0.9817
B( 66-C , 67-C ) :   1.4161 B( 66-C , 70-Br) :   1.0551 B( 67-C , 68-C ) :   1.3592
B( 67-C , 69-Br) :   1.0371 B( 68-C , 96-H ) :   1.0074

-----------------------------------------------------------------------------
         ABSORPTION SPECTRUM VIA TRANSITION ELECTRIC DIPOLE MOMENTS
-----------------------------------------------------------------------------
State   Energy  Wavelength   fosc         T2         TX        TY        TZ
        (cm-1)    (nm)                  (au**2)     (au)      (au)      (au)
-----------------------------------------------------------------------------
   0   13776.0    725.9   0.814846423  19.47278   3.41765   2.63682   0.91630
   1   16864.9    592.9   0.077895913   1.52057   0.10788   1.19884  -0.26778
   2   21042.8    475.2   0.079129049   1.23796  -0.06814   0.14434   1.10113
   3   23150.2    432.0   0.000982132   0.01397  -0.02875   0.11420  -0.00997
   4   23467.5    426.1   0.001001461   0.01405   0.10732   0.02277   0.04487
   5   24205.6    413.1   0.154336935   2.09908   1.21973  -0.69814   0.35203
   6   24353.3    410.6   0.185920281   2.51330  -1.01855   1.14540   0.40487
   7   25720.1    388.8   0.334417300   4.28046  -1.44380  -1.36840   0.56867
   8   26045.6    383.9   0.505257835   6.38636   1.81911   1.69956  -0.43439
   9   27806.9    359.6   0.001939558   0.02296   0.11711   0.09615  -0.00191
  10   28158.9    355.1   0.034311487   0.40114  -0.48179  -0.14381  -0.38515
  11   28500.6    350.9   0.049311914   0.56961  -0.45038  -0.60494  -0.02851
  12   28867.8    346.4   0.158575612   1.80842   0.35580   0.37510  -1.24142
  13   29061.9    344.1   0.037964533   0.43006   0.03673  -0.57778   0.30803
  14   29805.5    335.5   0.000597875   0.00660  -0.02630   0.07572   0.01336
  15   30561.5    327.2   0.011709124   0.12613   0.09723   0.27828   0.19809
  16   31082.8    321.7   0.010986415   0.11636   0.30400  -0.11483   0.10373
  17   31509.0    317.4   0.122809970   1.28314   0.41961  -0.98335   0.37429
  18   31788.9    314.6   0.260615590   2.69899   0.31886   1.06382  -1.21062
  19   32111.2    311.4   0.056586470   0.58014   0.21333  -0.23673  -0.69180
  20   32155.3    311.0   0.005465827   0.05596   0.08918  -0.14597  -0.16341
  21   32671.6    306.1   0.143822514   1.44921  -0.09772  -1.19787   0.06899
  22   32719.5    305.6   0.042845225   0.43109   0.07126  -0.65157   0.03833
  23   33006.0    303.0   0.014989516   0.14951  -0.21530  -0.15609   0.28070
  24   33073.3    302.4   0.009473525   0.09430   0.15503  -0.21703   0.15219
  25   33257.0    300.7   0.061057388   0.60441  -0.17049  -0.55974   0.51189
  26   33814.9    295.7   0.369266573   3.59507  -0.07265  -1.86454   0.33657
  27   34028.1    293.9   0.231418500   2.23890  -0.04979  -0.03224  -1.49512
  28   34489.6    289.9   0.216352945   2.06515  -0.62557  -1.05343  -0.75107
  29   34721.2    288.0   0.334952593   3.17588   0.53755  -0.40408   1.65035
  30   35170.3    284.3   0.097878306   0.91619   0.34713   0.82337  -0.34314
  31   35453.2    282.1   0.170653894   1.58466   0.57818   1.11361  -0.10117
  32   35489.2    281.8   0.064031263   0.59398  -0.26727  -0.49019   0.53128
  33   35692.1    280.2   0.025627166   0.23638  -0.16817  -0.45540   0.02660
  34   35835.8    279.1   0.024282387   0.22307   0.39679   0.25529   0.02146
  35   35930.2    278.3   0.086652720   0.79396  -0.30770  -0.66287   0.50979
  36   36411.4    274.6   0.283691787   2.56498   0.84938   1.25158  -0.52639
  37   36636.3    273.0   0.031333801   0.28156   0.23601   0.43038  -0.20159
  38   37161.6    269.1   0.000031560   0.00028  -0.00815   0.00519  -0.01365
  39   37414.8    267.3   0.005146518   0.04528  -0.11953  -0.08226  -0.15566
  40   37422.1    267.2   0.039492793   0.34743   0.43731   0.38114   0.10452
  41   37767.3    264.8   0.116201808   1.01291  -0.54143  -0.06773   0.84568
  42   38101.0    262.5   0.000468003   0.00404   0.05646  -0.02926   0.00042
  43   38619.8    258.9   0.129538769   1.10424  -0.70388  -0.77806   0.05837
  44   38748.7    258.1   0.005824694   0.04949  -0.13824  -0.04680  -0.16789
  45   38926.0    256.9   0.003465764   0.02931  -0.06113  -0.04602  -0.15316
  46   39083.5    255.9   0.047303934   0.39846  -0.02785  -0.55076  -0.30716
  47   39179.6    255.2   0.027542992   0.23143   0.08331   0.31976   0.34964
  48   39631.1    252.3   0.003444913   0.02862  -0.05635   0.15835  -0.01912
  49   40136.3    249.2   0.140023804   1.14852  -0.34361   0.69354   0.74125
  50   40257.7    248.4   0.031761390   0.25973  -0.22782  -0.17692   0.42016
  51   40301.7    248.1   0.113010949   0.92315   0.47037   0.11069  -0.83045

FINAL SINGLE POINT ENERGY    -13576.770531668910

DIPOLE MOMENT
-------------
                                X             Y             Z
Electronic contribution:     57.14902     245.57971     -87.99808
Nuclear contribution   :    -58.55504    -247.34453      84.96530
                        -----------------------------------------
Total Dipole Moment    :     -1.40601      -1.76482      -3.03278
                        -----------------------------------------
Magnitude (a.u.)       :      3.78011
Magnitude (Debye)      :      9.60828

Rotational constants in cm-1:     0.000847     0.000230     0.000206
Rotational constants in MHz :    25.406658     6.885229     6.190216

                             ****ORCA TERMINATED NORMALLY****
TOTAL RUN TIME: 0 days 0 hours 9 minutes 50 seconds 893 msec
