                         Program Version 4.2.0 -  RELEASE  -
|  1> # ORCA input file
|  2> # SCF done       -206.200362468764          0.000672969142
|  3> ! CAM-B3LYP def2-SVP def2/J RIJCOSX Grid4 TightSCF
|  4> %maxcore 5000
|  5> %tddft
|  6>     Mode sTDDFT
|  7>     Ethresh 5.0
|  8>     maxcore 5000
|  9> end
| 10>
| 11> %pal
| 12>   nprocs 6
| 13>   end
| 14> * xyz 0 1
| 15>    C        2.91480         3.48985        -1.89545
| 16>    C        2.12700         4.11535        -2.82571
| 17>    C        2.63170         4.83908        -3.92501
| 18>    N        2.98590         5.46668        -4.81849
| 19>    C        0.71974         4.07684        -2.81951
| 20>    N       -0.42805         4.06600        -2.86532
| 21>    C        4.35774         3.31029        -1.99116
| 22>    C        4.74392         2.24849        -1.12037
| 23>    C        6.04001         1.82964        -1.02938
| 24>    C        7.02770         2.47049        -1.81081
| 25>    C        6.65172         3.54459        -2.66914
| 26>    C        5.30060         3.95338        -2.74765
| 27>    C        7.64875         4.18032        -3.43680
| 28>    C        8.95340         3.77397        -3.36494
| 29>    C        9.32189         2.71503        -2.52163
| 30>    C        8.37951         2.07707        -1.76140
| 31>    C        3.55973         1.75509        -0.39693
| 32>    O        3.48405         0.83187         0.37733
| 33>    C        2.45538         2.69130        -0.77830
| 34>    C        1.32734         2.72101        -0.02804
| 35>    C        0.31138         3.72417         0.02540
| 36>    C       -1.00629         3.36741         0.39337
| 37>    C       -2.08308         4.32455         0.43845
| 38>    N       -3.30855         3.93216         0.82463
| 39>    C       -3.51472         2.67321         1.11707
| 40>    C       -2.45171         1.71281         1.03231
| 41>    N       -1.24565         2.07740         0.68468
| 42>    C       -2.70706         0.35199         1.34236
| 43>    N       -2.95605        -0.73493         1.60229
| 44>    C       -4.80585         2.25975         1.53300
| 45>    N       -5.83502         1.89059         1.87403
| 46>    C       -1.86267         5.68778         0.15040
| 47>    C       -0.54389         6.04937        -0.17507
| 48>    C        0.53351         5.09073        -0.22463
| 49>    N        1.69588         5.67768        -0.52755
| 50>    S        1.44076         7.24499        -0.75801
| 51>    N       -0.13063         7.27480        -0.50702
| 52>    C       -2.82570         6.74542         0.28916
| 53>    N       -4.11754         6.78228        -0.14394
| 54>    C       -4.80857         5.81059        -0.96334
| 55>    C       -5.98686         5.19171        -0.21897
| 56>    C       -4.72624         8.02013         0.15562
| 57>    O       -5.85634         8.31156        -0.17708
| 58>    C       -3.71019         8.76028         0.87201
| 59>    C       -2.54614         7.95793         0.91575
| 60>    C       -1.53461         8.66897         1.67249
| 61>    O       -0.40686         8.38227         2.01231
| 62>    N       -2.15246         9.89509         1.99365
| 63>    C       -1.47266        10.88950         2.78862
| 64>    C       -1.93369        10.86637         4.24375
| 65>    C       -3.44430         9.96047         1.53370
| 66>    C       -4.28988        11.08394         1.71008
| 67>    C       -5.57511        11.10521         1.27462
| 68>    C       -6.40356        12.24438         1.44411
| 69>    S       -8.08277        12.27059         0.93086
| 70>    C       -8.10179        13.92725         1.52837
| 71>    N       -6.94683        14.28989         2.02191
| 72>    N       -6.02808        13.37947         1.97917
| 73>    C       -9.26141        14.74332         1.45883
| 74>    C       -9.27600        16.04409         1.84231
| 75>    C      -10.45941        16.82023         1.75005
| 76>    C      -10.55745        18.14217         2.06508
| 77>    C      -11.75029        18.97030         1.98160
| 78>    C      -13.02017        18.55478         1.67668
| 79>    C      -14.14183        19.41037         1.62451
| 80>    N      -15.09441        20.04772         1.56079
| 81>    C      -13.40875        17.22989         1.38593
| 82>    N      -13.81078        16.18133         1.14602
| 83>    C      -11.36553        20.33822         2.30847
| 84>    C       -9.97840        20.35941         2.63076
| 85>    C       -9.42285        19.00102         2.51334
| 86>    O       -8.27982        18.66432         2.72991
| 87>    C       -9.33484        21.51217         2.97874
| 88>    C      -10.06205        22.72236         3.01904
| 89>    C      -11.45002        22.71107         2.69592
| 90>    C      -12.08944        21.50174         2.34086
| 91>    C      -12.16660        23.92475         2.73674
| 92>    C      -11.54382        25.09379         3.07955
| 93>    C      -10.17715        25.10369         3.39710
| 94>    C       -9.45210        23.94334         3.36786
| 95>    H        6.30952         1.01824        -0.36976
| 96>    H        5.04453         4.77488        -3.39839
| 97>    H        7.36001         4.99268        -4.08743
| 98>    H        9.70919         4.26602        -3.95851
| 99>    H       10.35588         2.40756        -2.47722
|100>    H        8.65718         1.26118        -1.11036
|101>    H        1.18806         1.88019         0.64444
|102>    H       -4.09420         5.04911        -1.27619
|103>    H       -5.17950         6.33432        -1.85098
|104>    H       -5.65305         4.72424         0.70270
|105>    H       -6.46022         4.43936        -0.84322
|106>    H       -6.71753         5.96002         0.01723
|107>    H       -1.62766        11.87784         2.34794
|108>    H       -0.40908        10.64088         2.73625
|109>    H       -2.99739        11.07943         4.31994
|110>    H       -1.38668        11.61226         4.81332
|111>    H       -1.74294         9.88835         4.67883
|112>    H       -3.89879        11.96156         2.20342
|113>    H       -6.00780        10.24702         0.77920
|114>    H      -10.15683        14.27616         1.06952
|115>    H       -8.37282        16.50063         2.21915
|116>    H      -11.33955        16.30291         1.38854
|117>    H       -8.28196        21.49939         3.21852
|118>    H      -13.13992        21.52921         2.09921
|119>    H      -13.21850        23.91194         2.49178
|120>    H      -12.10102        26.01811         3.10788
|121>    H       -9.70195        26.03549         3.66485
|122>    H       -8.39973        23.94475         3.61126
|123> *
|124>
|125>                          ****END OF INPUT****

CARTESIAN COORDINATES (ANGSTROEM)
---------------------------------
  C      2.914800    3.489850   -1.895450
  C      2.127000    4.115350   -2.825710
  C      2.631700    4.839080   -3.925010
  N      2.985900    5.466680   -4.818490
  C      0.719740    4.076840   -2.819510
  N     -0.428050    4.066000   -2.865320
  C      4.357740    3.310290   -1.991160
  C      4.743920    2.248490   -1.120370
  C      6.040010    1.829640   -1.029380
  C      7.027700    2.470490   -1.810810
  C      6.651720    3.544590   -2.669140
  C      5.300600    3.953380   -2.747650
  C      7.648750    4.180320   -3.436800
  C      8.953400    3.773970   -3.364940
  C      9.321890    2.715030   -2.521630
  C      8.379510    2.077070   -1.761400
  C      3.559730    1.755090   -0.396930
  O      3.484050    0.831870    0.377330
  C      2.455380    2.691300   -0.778300
  C      1.327340    2.721010   -0.028040
  C      0.311380    3.724170    0.025400
  C     -1.006290    3.367410    0.393370
  C     -2.083080    4.324550    0.438450
  N     -3.308550    3.932160    0.824630
  C     -3.514720    2.673210    1.117070
  C     -2.451710    1.712810    1.032310
  N     -1.245650    2.077400    0.684680
  C     -2.707060    0.351990    1.342360
  N     -2.956050   -0.734930    1.602290
  C     -4.805850    2.259750    1.533000
  N     -5.835020    1.890590    1.874030
  C     -1.862670    5.687780    0.150400
  C     -0.543890    6.049370   -0.175070
  C      0.533510    5.090730   -0.224630
  N      1.695880    5.677680   -0.527550
  S      1.440760    7.244990   -0.758010
  N     -0.130630    7.274800   -0.507020
  C     -2.825700    6.745420    0.289160
  N     -4.117540    6.782280   -0.143940
  C     -4.808570    5.810590   -0.963340
  C     -5.986860    5.191710   -0.218970
  C     -4.726240    8.020130    0.155620
  O     -5.856340    8.311560   -0.177080
  C     -3.710190    8.760280    0.872010
  C     -2.546140    7.957930    0.915750
  C     -1.534610    8.668970    1.672490
  O     -0.406860    8.382270    2.012310
  N     -2.152460    9.895090    1.993650
  C     -1.472660   10.889500    2.788620
  C     -1.933690   10.866370    4.243750
  C     -3.444300    9.960470    1.533700
  C     -4.289880   11.083940    1.710080
  C     -5.575110   11.105210    1.274620
  C     -6.403560   12.244380    1.444110
  S     -8.082770   12.270590    0.930860
  C     -8.101790   13.927250    1.528370
  N     -6.946830   14.289890    2.021910
  N     -6.028080   13.379470    1.979170
  C     -9.261410   14.743320    1.458830
  C     -9.276000   16.044090    1.842310
  C    -10.459410   16.820230    1.750050
  C    -10.557450   18.142170    2.065080
  C    -11.750290   18.970300    1.981600
  C    -13.020170   18.554780    1.676680
  C    -14.141830   19.410370    1.624510
  N    -15.094410   20.047720    1.560790
  C    -13.408750   17.229890    1.385930
  N    -13.810780   16.181330    1.146020
  C    -11.365530   20.338220    2.308470
  C     -9.978400   20.359410    2.630760
  C     -9.422850   19.001020    2.513340
  O     -8.279820   18.664320    2.729910
  C     -9.334840   21.512170    2.978740
  C    -10.062050   22.722360    3.019040
  C    -11.450020   22.711070    2.695920
  C    -12.089440   21.501740    2.340860
  C    -12.166600   23.924750    2.736740
  C    -11.543820   25.093790    3.079550
  C    -10.177150   25.103690    3.397100
  C     -9.452100   23.943340    3.367860
  H      6.309520    1.018240   -0.369760
  H      5.044530    4.774880   -3.398390
  H      7.360010    4.992680   -4.087430
  H      9.709190    4.266020   -3.958510
  H     10.355880    2.407560   -2.477220
  H      8.657180    1.261180   -1.110360
  H      1.188060    1.880190    0.644440
  H     -4.094200    5.049110   -1.276190
  H     -5.179500    6.334320   -1.850980
  H     -5.653050    4.724240    0.702700
  H     -6.460220    4.439360   -0.843220
  H     -6.717530    5.960020    0.017230
  H     -1.627660   11.877840    2.347940
  H     -0.409080   10.640880    2.736250
  H     -2.997390   11.079430    4.319940
  H     -1.386680   11.612260    4.813320
  H     -1.742940    9.888350    4.678830
  H     -3.898790   11.961560    2.203420
  H     -6.007800   10.247020    0.779200
  H    -10.156830   14.276160    1.069520
  H     -8.372820   16.500630    2.219150
  H    -11.339550   16.302910    1.388540
  H     -8.281960   21.499390    3.218520
  H    -13.139920   21.529210    2.099210
  H    -13.218500   23.911940    2.491780
  H    -12.101020   26.018110    3.107880
  H     -9.701950   26.035490    3.664850
  H     -8.399730   23.944750    3.611260

 Total Charge           Charge          ....    0
 Multiplicity           Mult            ....    1
 Number of Electrons    NEL             ....  550
 Basis Dimension        Dim             .... 1268

ORBITAL ENERGIES
----------------

  NO   OCC          E(Eh)            E(eV)
   0   2.0000     -89.055391     -2423.3204
   1   2.0000     -88.987402     -2421.4703
   2   2.0000     -19.220189      -523.0079
   3   2.0000     -19.219684      -522.9942
   4   2.0000     -19.205395      -522.6054
   5   2.0000     -19.203504      -522.5539
   6   2.0000     -14.473162      -393.8348
   7   2.0000     -14.470902      -393.7733
   8   2.0000     -14.466685      -393.6585
   9   2.0000     -14.466140      -393.6437
  10   2.0000     -14.459860      -393.4728
  11   2.0000     -14.456724      -393.3875
  12   2.0000     -14.453534      -393.3007
  13   2.0000     -14.452989      -393.2858
  14   2.0000     -14.436535      -392.8381
  15   2.0000     -14.435548      -392.8112
  16   2.0000     -14.425466      -392.5369
  17   2.0000     -14.421454      -392.4277
  18   2.0000     -14.421218      -392.4213
  19   2.0000     -14.418571      -392.3493
  20   2.0000     -10.392176      -282.7855
  21   2.0000     -10.391001      -282.7535
  22   2.0000     -10.388442      -282.6839
  23   2.0000     -10.385212      -282.5960
  24   2.0000     -10.370794      -282.2037
  25   2.0000     -10.369852      -282.1780
  26   2.0000     -10.363139      -281.9953
  27   2.0000     -10.361828      -281.9597
  28   2.0000     -10.357437      -281.8402
  29   2.0000     -10.355841      -281.7968
  30   2.0000     -10.355132      -281.7775
  31   2.0000     -10.354979      -281.7733
  32   2.0000     -10.351238      -281.6715
  33   2.0000     -10.350977      -281.6644
  34   2.0000     -10.347307      -281.5646
  35   2.0000     -10.347171      -281.5608
  36   2.0000     -10.345000      -281.5018
  37   2.0000     -10.344904      -281.4991
  38   2.0000     -10.337919      -281.3091
  39   2.0000     -10.329454      -281.0787
  40   2.0000     -10.328066      -281.0410
  41   2.0000     -10.327745      -281.0322
  42   2.0000     -10.326556      -280.9999
  43   2.0000     -10.324021      -280.9309
  44   2.0000     -10.323759      -280.9238
  45   2.0000     -10.321181      -280.8536
  46   2.0000     -10.319976      -280.8208
  47   2.0000     -10.319420      -280.8057
  48   2.0000     -10.317414      -280.7511
  49   2.0000     -10.316268      -280.7199
  50   2.0000     -10.312151      -280.6079
  51   2.0000     -10.308604      -280.5114
  52   2.0000     -10.308170      -280.4996
  53   2.0000     -10.307249      -280.4745
  54   2.0000     -10.306982      -280.4672
  55   2.0000     -10.306251      -280.4473
  56   2.0000     -10.306155      -280.4447
  57   2.0000     -10.301652      -280.3222
  58   2.0000     -10.301150      -280.3085
  59   2.0000     -10.300689      -280.2960
  60   2.0000     -10.300685      -280.2959
  61   2.0000     -10.300545      -280.2921
  62   2.0000     -10.300444      -280.2893
  63   2.0000     -10.299791      -280.2716
  64   2.0000     -10.299384      -280.2605
  65   2.0000     -10.297711      -280.2150
  66   2.0000     -10.293074      -280.0888
  67   2.0000     -10.291305      -280.0406
  68   2.0000     -10.289713      -279.9973
  69   2.0000     -10.289462      -279.9905
  70   2.0000     -10.289346      -279.9873
  71   2.0000     -10.289128      -279.9814
  72   2.0000     -10.288839      -279.9736
  73   2.0000     -10.288725      -279.9704
  74   2.0000     -10.288508      -279.9645
  75   2.0000     -10.288030      -279.9515
  76   2.0000     -10.280325      -279.7419
  77   2.0000     -10.275038      -279.5980
  78   2.0000     -10.270728      -279.4807
  79   2.0000     -10.248970      -278.8887
  80   2.0000      -8.146068      -221.6658
  81   2.0000      -8.083646      -219.9672
  82   2.0000      -6.116921      -166.4499
  83   2.0000      -6.109419      -166.2457
  84   2.0000      -6.109129      -166.2378
  85   2.0000      -6.052180      -164.6882
  86   2.0000      -6.048871      -164.5981
  87   2.0000      -6.046192      -164.5252
  88   2.0000      -1.157930       -31.5089
  89   2.0000      -1.151831       -31.3429
  90   2.0000      -1.146001       -31.1843
  91   2.0000      -1.139976       -31.0203
  92   2.0000      -1.135119       -30.8882
  93   2.0000      -1.135026       -30.8856
  94   2.0000      -1.131357       -30.7858
  95   2.0000      -1.078026       -29.3346
  96   2.0000      -1.069752       -29.1094
  97   2.0000      -1.056650       -28.7529
  98   2.0000      -1.026576       -27.9346
  99   2.0000      -1.022337       -27.8192
 100   2.0000      -1.020646       -27.7732
 101   2.0000      -1.010263       -27.4906
 102   2.0000      -1.004721       -27.3398
 103   2.0000      -1.004178       -27.3251
 104   2.0000      -1.002225       -27.2719
 105   2.0000      -1.000215       -27.2172
 106   2.0000      -0.997916       -27.1547
 107   2.0000      -0.988640       -26.9023
 108   2.0000      -0.975140       -26.5349
 109   2.0000      -0.974401       -26.5148
 110   2.0000      -0.963465       -26.2172
 111   2.0000      -0.945429       -25.7264
 112   2.0000      -0.938177       -25.5291
 113   2.0000      -0.929909       -25.3041
 114   2.0000      -0.928301       -25.2603
 115   2.0000      -0.920162       -25.0389
 116   2.0000      -0.917143       -24.9567
 117   2.0000      -0.914168       -24.8758
 118   2.0000      -0.900679       -24.5087
 119   2.0000      -0.895456       -24.3666
 120   2.0000      -0.887890       -24.1607
 121   2.0000      -0.884959       -24.0810
 122   2.0000      -0.883465       -24.0403
 123   2.0000      -0.877378       -23.8747
 124   2.0000      -0.863904       -23.5080
 125   2.0000      -0.849679       -23.1209
 126   2.0000      -0.842843       -22.9349
 127   2.0000      -0.832085       -22.6422
 128   2.0000      -0.831171       -22.6173
 129   2.0000      -0.828931       -22.5563
 130   2.0000      -0.825086       -22.4517
 131   2.0000      -0.811569       -22.0839
 132   2.0000      -0.808691       -22.0056
 133   2.0000      -0.797210       -21.6932
 134   2.0000      -0.779938       -21.2232
 135   2.0000      -0.765384       -20.8272
 136   2.0000      -0.765170       -20.8213
 137   2.0000      -0.763438       -20.7742
 138   2.0000      -0.749820       -20.4036
 139   2.0000      -0.744778       -20.2664
 140   2.0000      -0.735102       -20.0031
 141   2.0000      -0.728281       -19.8175
 142   2.0000      -0.717949       -19.5364
 143   2.0000      -0.713129       -19.4052
 144   2.0000      -0.711060       -19.3489
 145   2.0000      -0.708619       -19.2825
 146   2.0000      -0.705600       -19.2004
 147   2.0000      -0.705243       -19.1906
 148   2.0000      -0.699763       -19.0415
 149   2.0000      -0.696364       -18.9490
 150   2.0000      -0.690934       -18.8013
 151   2.0000      -0.683886       -18.6095
 152   2.0000      -0.682306       -18.5665
 153   2.0000      -0.677193       -18.4274
 154   2.0000      -0.673251       -18.3201
 155   2.0000      -0.662191       -18.0191
 156   2.0000      -0.659273       -17.9397
 157   2.0000      -0.644707       -17.5434
 158   2.0000      -0.643443       -17.5090
 159   2.0000      -0.636662       -17.3244
 160   2.0000      -0.629588       -17.1320
 161   2.0000      -0.626879       -17.0582
 162   2.0000      -0.620114       -16.8742
 163   2.0000      -0.616062       -16.7639
 164   2.0000      -0.611562       -16.6415
 165   2.0000      -0.609714       -16.5912
 166   2.0000      -0.608399       -16.5554
 167   2.0000      -0.598683       -16.2910
 168   2.0000      -0.595060       -16.1924
 169   2.0000      -0.592729       -16.1290
 170   2.0000      -0.591622       -16.0989
 171   2.0000      -0.588608       -16.0168
 172   2.0000      -0.584467       -15.9042
 173   2.0000      -0.581692       -15.8286
 174   2.0000      -0.569305       -15.4916
 175   2.0000      -0.562210       -15.2985
 176   2.0000      -0.560119       -15.2416
 177   2.0000      -0.558276       -15.1915
 178   2.0000      -0.556663       -15.1476
 179   2.0000      -0.554442       -15.0871
 180   2.0000      -0.553891       -15.0721
 181   2.0000      -0.550121       -14.9696
 182   2.0000      -0.549951       -14.9649
 183   2.0000      -0.547533       -14.8991
 184   2.0000      -0.542525       -14.7629
 185   2.0000      -0.540897       -14.7186
 186   2.0000      -0.539261       -14.6740
 187   2.0000      -0.537520       -14.6267
 188   2.0000      -0.535423       -14.5696
 189   2.0000      -0.533385       -14.5142
 190   2.0000      -0.531902       -14.4738
 191   2.0000      -0.523066       -14.2333
 192   2.0000      -0.522105       -14.2072
 193   2.0000      -0.521072       -14.1791
 194   2.0000      -0.518614       -14.1122
 195   2.0000      -0.517481       -14.0814
 196   2.0000      -0.515730       -14.0337
 197   2.0000      -0.514365       -13.9966
 198   2.0000      -0.513010       -13.9597
 199   2.0000      -0.508576       -13.8391
 200   2.0000      -0.507480       -13.8092
 201   2.0000      -0.506518       -13.7831
 202   2.0000      -0.503145       -13.6913
 203   2.0000      -0.500772       -13.6267
 204   2.0000      -0.498623       -13.5682
 205   2.0000      -0.493422       -13.4267
 206   2.0000      -0.490371       -13.3437
 207   2.0000      -0.489898       -13.3308
 208   2.0000      -0.488932       -13.3045
 209   2.0000      -0.487720       -13.2715
 210   2.0000      -0.485568       -13.2130
 211   2.0000      -0.482401       -13.1268
 212   2.0000      -0.480222       -13.0675
 213   2.0000      -0.478983       -13.0338
 214   2.0000      -0.473503       -12.8847
 215   2.0000      -0.469242       -12.7687
 216   2.0000      -0.468947       -12.7607
 217   2.0000      -0.466634       -12.6978
 218   2.0000      -0.461433       -12.5562
 219   2.0000      -0.460937       -12.5427
 220   2.0000      -0.459425       -12.5016
 221   2.0000      -0.458880       -12.4868
 222   2.0000      -0.456844       -12.4314
 223   2.0000      -0.455695       -12.4001
 224   2.0000      -0.453407       -12.3378
 225   2.0000      -0.453173       -12.3315
 226   2.0000      -0.450552       -12.2601
 227   2.0000      -0.448733       -12.2107
 228   2.0000      -0.448235       -12.1971
 229   2.0000      -0.445002       -12.1091
 230   2.0000      -0.443387       -12.0652
 231   2.0000      -0.443016       -12.0551
 232   2.0000      -0.442858       -12.0508
 233   2.0000      -0.439005       -11.9459
 234   2.0000      -0.438025       -11.9193
 235   2.0000      -0.437042       -11.8925
 236   2.0000      -0.436115       -11.8673
 237   2.0000      -0.434822       -11.8321
 238   2.0000      -0.434276       -11.8173
 239   2.0000      -0.431851       -11.7513
 240   2.0000      -0.430098       -11.7036
 241   2.0000      -0.426530       -11.6065
 242   2.0000      -0.425375       -11.5750
 243   2.0000      -0.423234       -11.5168
 244   2.0000      -0.421295       -11.4640
 245   2.0000      -0.418936       -11.3998
 246   2.0000      -0.418207       -11.3800
 247   2.0000      -0.412966       -11.2374
 248   2.0000      -0.410153       -11.1608
 249   2.0000      -0.409260       -11.1365
 250   2.0000      -0.408254       -11.1092
 251   2.0000      -0.405012       -11.0209
 252   2.0000      -0.403191       -10.9714
 253   2.0000      -0.394232       -10.7276
 254   2.0000      -0.384984       -10.4759
 255   2.0000      -0.382552       -10.4098
 256   2.0000      -0.378116       -10.2891
 257   2.0000      -0.372535       -10.1372
 258   2.0000      -0.371449       -10.1076
 259   2.0000      -0.360457        -9.8085
 260   2.0000      -0.355086        -9.6624
 261   2.0000      -0.352581        -9.5942
 262   2.0000      -0.343641        -9.3510
 263   2.0000      -0.342640        -9.3237
 264   2.0000      -0.339784        -9.2460
 265   2.0000      -0.338345        -9.2068
 266   2.0000      -0.334720        -9.1082
 267   2.0000      -0.325772        -8.8647
 268   2.0000      -0.320452        -8.7199
 269   2.0000      -0.317852        -8.6492
 270   2.0000      -0.307536        -8.3685
 271   2.0000      -0.301832        -8.2133
 272   2.0000      -0.297481        -8.0949
 273   2.0000      -0.291590        -7.9346
 274   2.0000      -0.251979        -6.8567
 275   0.0000      -0.140462        -3.8222
 276   0.0000      -0.110854        -3.0165
 277   0.0000      -0.085734        -2.3329
 278   0.0000      -0.082347        -2.2408
 279   0.0000      -0.061290        -1.6678

MULLIKEN ATOMIC CHARGES
-----------------------
   0 C :    0.337618
   1 C :   -0.345694
   2 C :   -0.189538
   3 N :    0.155715
   4 C :   -0.181135
   5 N :    0.148258
   6 C :    0.034332
   7 C :    0.015173
   8 C :   -0.080194
   9 C :    0.094014
  10 C :    0.095051
  11 C :   -0.084747
  12 C :   -0.018991
  13 C :    0.037602
  14 C :    0.036157
  15 C :   -0.014145
  16 C :    0.133701
  17 O :   -0.130986
  18 C :   -0.104104
  19 C :   -0.035833
  20 C :    0.080839
  21 C :   -0.038718
  22 C :   -0.045579
  23 N :    0.062830
  24 C :   -0.125351
  25 C :   -0.133808
  26 N :    0.071290
  27 C :   -0.204553
  28 N :    0.247959
  29 C :   -0.222251
  30 N :    0.252142
  31 C :    0.083176
  32 C :    0.029023
  33 C :   -0.028920
  34 N :   -0.287491
  35 S :    0.582949
  36 N :   -0.233983
  37 C :    0.014876
  38 N :   -0.236183
  39 C :    0.142678
  40 C :   -0.017154
  41 C :    0.174508
  42 O :   -0.204550
  43 C :   -0.082097
  44 C :   -0.006464
  45 C :    0.134429
  46 O :   -0.187755
  47 N :   -0.260740
  48 C :    0.096429
  49 C :    0.002882
  50 C :    0.156395
  51 C :   -0.028622
  52 C :    0.083454
  53 C :   -0.107949
  54 S :    0.143913
  55 C :   -0.103139
  56 N :   -0.027386
  57 N :   -0.041495
  58 C :    0.081857
  59 C :    0.017581
  60 C :   -0.054202
  61 C :   -0.051444
  62 C :    0.334487
  63 C :   -0.348766
  64 C :   -0.184648
  65 N :    0.153795
  66 C :   -0.193371
  67 N :    0.152265
  68 C :    0.045815
  69 C :   -0.003602
  70 C :    0.147136
  71 O :   -0.137984
  72 C :   -0.077864
  73 C :    0.097230
  74 C :    0.095942
  75 C :   -0.082559
  76 C :   -0.018032
  77 C :    0.036671
  78 C :    0.037053
  79 C :   -0.016236
  80 H :   -0.009609
  81 H :   -0.007326
  82 H :   -0.010975
  83 H :   -0.003585
  84 H :   -0.003935
  85 H :   -0.015446
  86 H :    0.039014
  87 H :    0.023529
  88 H :    0.028437
  89 H :    0.027935
  90 H :    0.019353
  91 H :    0.036841
  92 H :    0.030446
  93 H :    0.043185
  94 H :    0.021564
  95 H :    0.028778
  96 H :    0.028485
  97 H :    0.007918
  98 H :    0.017461
  99 H :    0.012839
 100 H :    0.054030
 101 H :    0.014062
 102 H :   -0.011446
 103 H :   -0.008481
 104 H :   -0.007739
 105 H :   -0.003662
 106 H :   -0.004660
 107 H :   -0.015975
Sum of atomic charges:   -0.0000000

LOEWDIN ATOMIC CHARGES
----------------------
   0 C :    0.080368
   1 C :   -0.138443
   2 C :   -0.020637
   3 N :   -0.052631
   4 C :   -0.012710
   5 N :   -0.063089
   6 C :   -0.020288
   7 C :   -0.057056
   8 C :    0.034749
   9 C :   -0.008473
  10 C :   -0.004874
  11 C :    0.016157
  12 C :   -0.006724
  13 C :   -0.011732
  14 C :   -0.011945
  15 C :   -0.008211
  16 C :    0.085505
  17 O :   -0.130630
  18 C :   -0.062709
  19 C :    0.069485
  20 C :   -0.031636
  21 C :    0.015178
  22 C :   -0.003123
  23 N :    0.005718
  24 C :   -0.025143
  25 C :   -0.017805
  26 N :    0.004641
  27 C :   -0.035489
  28 N :    0.005571
  29 C :   -0.038706
  30 N :    0.002424
  31 C :   -0.008394
  32 C :   -0.027086
  33 C :   -0.034889
  34 N :   -0.287366
  35 S :    0.717579
  36 N :   -0.250513
  37 C :    0.076538
  38 N :    0.017129
  39 C :    0.043643
  40 C :   -0.063125
  41 C :    0.084538
  42 O :   -0.191644
  43 C :   -0.119683
  44 C :   -0.094077
  45 C :    0.085064
  46 O :   -0.189718
  47 N :    0.001582
  48 C :    0.036745
  49 C :   -0.059685
  50 C :    0.088401
  51 C :   -0.014002
  52 C :    0.003405
  53 C :   -0.151365
  54 S :    0.422235
  55 C :   -0.151674
  56 N :   -0.056827
  57 N :   -0.066733
  58 C :   -0.013313
  59 C :    0.012940
  60 C :    0.061182
  61 C :   -0.077026
  62 C :    0.074427
  63 C :   -0.133826
  64 C :   -0.016911
  65 N :   -0.049824
  66 C :   -0.020525
  67 N :   -0.049809
  68 C :   -0.026539
  69 C :   -0.056161
  70 C :    0.084035
  71 O :   -0.133403
  72 C :    0.033710
  73 C :   -0.007552
  74 C :   -0.005779
  75 C :    0.020347
  76 C :   -0.004832
  77 C :   -0.012371
  78 C :   -0.010940
  79 C :   -0.009183
  80 H :    0.040347
  81 H :    0.038247
  82 H :    0.034156
  83 H :    0.033616
  84 H :    0.033306
  85 H :    0.032627
  86 H :    0.052102
  87 H :    0.025660
  88 H :    0.032170
  89 H :    0.020840
  90 H :    0.029799
  91 H :    0.029565
  92 H :    0.026519
  93 H :    0.037453
  94 H :    0.024608
  95 H :    0.033275
  96 H :    0.031855
  97 H :    0.039346
  98 H :    0.039684
  99 H :    0.038961
 100 H :    0.044082
 101 H :    0.042081
 102 H :    0.039694
 103 H :    0.039113
 104 H :    0.035226
 105 H :    0.033678
 106 H :    0.033137
 107 H :    0.032389

  Mayer bond orders larger than 0.100000
B(  0-C ,  1-C ) :   1.6388 B(  0-C ,  6-C ) :   1.0119 B(  0-C , 18-C ) :   1.0251
B(  1-C ,  2-C ) :   1.1422 B(  1-C ,  4-C ) :   1.1758 B(  2-C ,  3-N ) :   2.9856
B(  4-C ,  5-N ) :   2.9756 B(  6-C ,  7-C ) :   1.2098 B(  6-C , 11-C ) :   1.4516
B(  7-C ,  8-C ) :   1.4724 B(  7-C , 16-C ) :   0.9203 B(  8-C ,  9-C ) :   1.1841
B(  8-C , 80-H ) :   1.0167 B(  9-C , 10-C ) :   1.2555 B(  9-C , 15-C ) :   1.2451
B( 10-C , 11-C ) :   1.2059 B( 10-C , 12-C ) :   1.2392 B( 11-C , 81-H ) :   0.9937
B( 12-C , 13-C ) :   1.4907 B( 12-C , 82-H ) :   0.9978 B( 13-C , 14-C ) :   1.2592
B( 13-C , 83-H ) :   0.9890 B( 14-C , 15-C ) :   1.4878 B( 14-C , 84-H ) :   0.9893
B( 15-C , 85-H ) :   0.9985 B( 16-C , 17-O ) :   2.2804 B( 16-C , 18-C ) :   0.9266
B( 18-C , 19-C ) :   1.6788 B( 19-C , 20-C ) :   1.0984 B( 19-C , 86-H ) :   0.9358
B( 20-C , 21-C ) :   1.2625 B( 20-C , 31-C ) :   0.1426 B( 20-C , 33-C ) :   1.2024
B( 21-C , 22-C ) :   1.1178 B( 21-C , 26-N ) :   1.4719 B( 22-C , 23-N ) :   1.4628
B( 22-C , 31-C ) :   1.2688 B( 23-N , 24-C ) :   1.7278 B( 24-C , 25-C ) :   1.2015
B( 24-C , 29-C ) :   1.1546 B( 25-C , 26-N ) :   1.7428 B( 25-C , 27-C ) :   1.1516
B( 27-C , 28-N ) :   3.0486 B( 29-C , 30-N ) :   3.0348 B( 31-C , 32-C ) :   1.2950
B( 31-C , 37-C ) :   0.9975 B( 32-C , 33-C ) :   1.0913 B( 32-C , 36-N ) :   1.5089
B( 33-C , 34-N ) :   1.5013 B( 34-N , 35-S ) :   1.2793 B( 34-N , 36-N ) :   0.1455
B( 35-S , 36-N ) :   1.3270 B( 37-C , 38-N ) :   1.2508 B( 37-C , 44-C ) :   1.4123
B( 38-N , 39-C ) :   0.9289 B( 38-N , 41-C ) :   1.0459 B( 39-C , 40-C ) :   1.1066
B( 39-C , 87-H ) :   0.9486 B( 39-C , 88-H ) :   0.9398 B( 40-C , 89-H ) :   0.9624
B( 40-C , 90-H ) :   0.9658 B( 40-C , 91-H ) :   0.9598 B( 41-C , 42-O ) :   2.0172
B( 41-C , 43-C ) :   0.9906 B( 42-O , 98-H ) :   0.1107 B( 43-C , 44-C ) :   1.2545
B( 43-C , 50-C ) :   1.3211 B( 44-C , 45-C ) :   0.9453 B( 45-C , 46-O ) :   2.1463
B( 45-C , 47-N ) :   1.0380 B( 47-N , 48-C ) :   0.9412 B( 47-N , 50-C ) :   1.1752
B( 48-C , 49-C ) :   1.1225 B( 48-C , 92-H ) :   0.9494 B( 48-C , 93-H ) :   0.9282
B( 49-C , 94-H ) :   0.9688 B( 49-C , 95-H ) :   0.9675 B( 49-C , 96-H ) :   0.9635
B( 50-C , 51-C ) :   1.1367 B( 51-C , 52-C ) :   1.6483 B( 51-C , 97-H ) :   0.9718
B( 52-C , 53-C ) :   1.1136 B( 52-C , 98-H ) :   0.9242 B( 53-C , 54-S ) :   1.1144
B( 53-C , 57-N ) :   1.6342 B( 54-S , 55-C ) :   1.1018 B( 55-C , 56-N ) :   1.6465
B( 55-C , 58-C ) :   1.0893 B( 56-N , 57-N ) :   1.2609 B( 58-C , 59-C ) :   1.6357
B( 58-C , 99-H ) :   0.9588 B( 59-C , 60-C ) :   1.1190 B( 59-C ,100-H ) :   0.9844
B( 60-C , 61-C ) :   1.5776 B( 60-C ,101-H ) :   0.9598 B( 61-C , 62-C ) :   1.0549
B( 61-C , 70-C ) :   0.9305 B( 62-C , 63-C ) :   1.6333 B( 62-C , 68-C ) :   0.9906
B( 63-C , 64-C ) :   1.1459 B( 63-C , 66-C ) :   1.1464 B( 64-C , 65-N ) :   2.9643
B( 66-C , 67-N ) :   2.9641 B( 68-C , 69-C ) :   1.2132 B( 68-C , 75-C ) :   1.4468
B( 69-C , 70-C ) :   0.9421 B( 69-C , 72-C ) :   1.4703 B( 70-C , 71-O ) :   2.2224
B( 72-C , 73-C ) :   1.1826 B( 72-C ,102-H ) :   1.0154 B( 73-C , 74-C ) :   1.2529
B( 73-C , 79-C ) :   1.2434 B( 74-C , 75-C ) :   1.2104 B( 74-C , 76-C ) :   1.2387
B( 75-C ,103-H ) :   0.9881 B( 76-C , 77-C ) :   1.4908 B( 76-C ,104-H ) :   0.9969
B( 77-C , 78-C ) :   1.2574 B( 77-C ,105-H ) :   0.9891 B( 78-C , 79-C ) :   1.4902
B( 78-C ,106-H ) :   0.9890 B( 79-C ,107-H ) :   0.9974

-----------------------------------------------------------------------------
         ABSORPTION SPECTRUM VIA TRANSITION ELECTRIC DIPOLE MOMENTS
-----------------------------------------------------------------------------
State   Energy  Wavelength   fosc         T2         TX        TY        TZ
        (cm-1)    (nm)                  (au**2)     (au)      (au)      (au)
-----------------------------------------------------------------------------
   0    8169.6   1224.1   0.427353782  17.22121  -2.35334   3.27750   0.97006
   1   17469.9    572.4   0.737536564  13.89855  -1.93542   3.11041   0.69144
   2   18452.2    541.9   0.033266077   0.59351  -0.59177  -0.16706   0.46413
   3   19807.2    504.9   0.228130461   3.79172   1.81948  -0.54065  -0.43461
   4   21241.2    470.8   0.050344760   0.78028  -0.67803   0.39881   0.40187
   5   21562.9    463.8   0.065579072   1.00123  -0.77422  -0.15237   0.61530
   6   22504.5    444.4   0.560406852   8.19804  -1.99327   2.04453  -0.21163
   7   23216.6    430.7   0.013239511   0.18774   0.36818   0.21728   0.07049
   8   23227.8    430.5   0.025369947   0.35957  -0.42405  -0.25553  -0.33831
   9   24142.5    414.2   0.031967841   0.43592  -0.65338  -0.08191  -0.04796
  10   24623.4    406.1   0.060943075   0.81480  -0.13454   0.89014   0.06596
  11   25189.3    397.0   0.001750340   0.02288  -0.01232  -0.00419   0.15069
  12   25256.7    395.9   0.000333579   0.00435  -0.05596  -0.03471   0.00343
  13   26125.1    382.8   0.112599813   1.41891   0.94324  -0.70189  -0.19122
  14   26245.4    381.0   0.044297964   0.55566  -0.64751   0.34562   0.13012
  15   26610.7    375.8   0.298789799   3.69645   0.76532  -1.76302  -0.05014
  16   26826.2    372.8   0.033959755   0.41676  -0.60618   0.21684  -0.04771
  17   27389.6    365.1   0.006827652   0.08207  -0.10451   0.03482   0.26444
  18   27932.8    358.0   0.060023548   0.70743  -0.22401  -0.80900   0.05264
  19   28056.5    356.4   0.028381851   0.33303  -0.34500   0.40341   0.22643
  20   28769.2    347.6   0.151565297   1.73439  -0.91397  -0.94815   0.00738
  21   29017.8    344.6   0.033439748   0.37938   0.11089  -0.58490  -0.15803
  22   29170.9    342.8   0.016688855   0.18834  -0.32108   0.23996   0.16634
  23   29308.4    341.2   0.016831526   0.18906   0.25369   0.35024   0.04510
  24   29718.3    336.5   0.000944991   0.01047  -0.05787   0.07942   0.02849
  25   29964.5    333.7   0.225551403   2.47807  -1.56537  -0.16163   0.03938
  26   30173.7    331.4   0.138522562   1.51136  -1.18710   0.22484   0.22717
  27   30525.3    327.6   0.028235820   0.30452  -0.43285   0.09513   0.32880
  28   30823.4    324.4   0.199639711   2.13227  -1.00352  -0.78503   0.71340
  29   30874.9    323.9   0.438956189   4.68049   0.17325   2.15604   0.04415
  30   31250.8    320.0   0.003286284   0.03462  -0.08051  -0.06811   0.15329
  31   31791.2    314.6   0.066075028   0.68424   0.49683   0.57177  -0.33239
  32   31886.3    313.6   0.003182436   0.03286  -0.10824  -0.12926   0.06658
  33   32033.1    312.2   0.090877698   0.93397  -0.56169   0.00781   0.78639
  34   32259.3    310.0   0.001690523   0.01725   0.05575  -0.01820   0.11753
  35   33061.3    302.5   0.332057113   3.30650  -0.71199  -1.64963  -0.27982
  36   33187.1    301.3   0.003743807   0.03714  -0.00311   0.19173   0.01913
  37   33606.2    297.6   0.012475324   0.12221   0.33869  -0.05493  -0.06693
  38   33936.5    294.7   0.208736122   2.02491   0.93644   0.97586   0.44237
  39   34184.6    292.5   0.161205247   1.55247   1.12338   0.19943   0.50073
  40   34288.6    291.6   0.144534108   1.38770  -0.98858   0.47948  -0.42486
  41   34378.2    290.9   0.146814493   1.40592  -0.84205   0.80814  -0.20926
  42   35685.9    280.2   0.639536905   5.89990   2.33324  -0.55780   0.38046
  43   35853.4    278.9   0.049123769   0.45106   0.25777  -0.61730  -0.05968
  44   35928.4    278.3   0.002474987   0.02268  -0.09140   0.01259  -0.11902
  45   36077.0    277.2   0.262108184   2.39181   1.12070   0.95121   0.48065
  46   36175.6    276.4   0.020971512   0.19085   0.29767   0.29131   0.13182
  47   36432.2    274.5   0.001616083   0.01460   0.02669   0.06227  -0.10006
  48   36599.7    273.2   0.201385159   1.81144  -0.77274  -1.04931   0.33655
  49   36784.4    271.9   0.061888359   0.55389  -0.03069   0.72095  -0.18216
  50   37212.3    268.7   0.080582834   0.71290   0.72014   0.42005  -0.13363
  51   37520.8    266.5   0.052191477   0.45793  -0.59808  -0.29523   0.11432
  52   37653.8    265.6   0.011843764   0.10355  -0.29413  -0.12935  -0.01751
  53   37744.0    264.9   0.020360955   0.17759  -0.21904  -0.34460   0.10425
  54   37975.1    263.3   0.083518576   0.72404  -0.55438  -0.48095   0.43056
  55   38098.0    262.5   0.018212877   0.15738   0.23767  -0.29601  -0.11520
  56   38259.6    261.4   0.015474687   0.13316  -0.31407   0.00093   0.18578
  57   38458.8    260.0   0.007165936   0.06134  -0.19999  -0.14060   0.03971
  58   38606.6    259.0   0.003241588   0.02764  -0.07599   0.11931  -0.08737
  59   38915.8    257.0   0.151470984   1.28138  -1.10409   0.00562  -0.24969
  60   38919.0    256.9   0.067644784   0.57220  -0.68383  -0.31904  -0.05278
  61   39000.6    256.4   0.001917911   0.01619  -0.00249   0.12530   0.02198
  62   39298.5    254.5   0.031348251   0.26261  -0.31333   0.19928   0.35316
  63   39703.7    251.9   0.123647585   1.02525   0.92241  -0.41512  -0.04567
  64   39881.1    250.7   0.005161581   0.04261  -0.09891   0.17448  -0.04880
  65   40141.9    249.1   0.013494028   0.11067   0.17064  -0.26530  -0.10565
  66   40241.0    248.5   0.137039703   1.12112   0.50492   0.71662  -0.59382

FINAL SINGLE POINT ENERGY     -4162.433908962809

DIPOLE MOMENT
-------------
                                X             Y             Z
Electronic contribution:      0.05940     -38.04555     -10.80745
Nuclear contribution   :      3.79359      41.47869      11.16798
                        -----------------------------------------
Total Dipole Moment    :      3.85300       3.43314       0.36053
                        -----------------------------------------
Magnitude (a.u.)       :      5.17320
Magnitude (Debye)      :     13.14923

Rotational constants in cm-1:     0.001700     0.000187     0.000174
Rotational constants in MHz :    50.966724     5.593037     5.208017

                             ****ORCA TERMINATED NORMALLY****
TOTAL RUN TIME: 0 days 0 hours 12 minutes 40 seconds 408 msec
