                         Program Version 4.2.0 -  RELEASE  -
|  1> # ORCA input file
|  2> # SCF done       -215.320366906913          0.000443216859
|  3> ! CAM-B3LYP def2-SVP def2/J RIJCOSX Grid4 TightSCF
|  4> %maxcore 5000
|  5> %tddft
|  6>     Mode sTDDFT
|  7>     Ethresh 5.0
|  8>     maxcore 5000
|  9> end
| 10>
| 11> %pal
| 12>   nprocs 6
| 13>   end
| 14> * xyz 0 1
| 15>    C        1.73461         0.80781        -4.66283
| 16>    S        1.92168         0.96440        -2.97300
| 17>    C        1.42173         2.63369        -3.02350
| 18>    C        1.12296         3.01397        -4.31491
| 19>    C        1.30885         1.96350        -5.24819
| 20>    C        1.13865         2.13167        -6.73246
| 21>    C        2.52938         2.13302        -7.37464
| 22>    F        3.35638         3.04951        -6.85279
| 23>    F        3.14246         0.94773        -7.23065
| 24>    F        2.47991         2.37170        -8.69301
| 25>    C        0.35897         3.40195        -7.09277
| 26>    C        0.76459         4.59205        -6.22638
| 27>    C        0.53442         4.33045        -4.73351
| 28>    C       -0.95982         4.32002        -4.38763
| 29>    F       -1.60529         3.23160        -4.83336
| 30>    F       -1.16560         4.34701        -3.06128
| 31>    F       -1.60673         5.37892        -4.89184
| 32>    C        1.41398         3.36719        -1.79389
| 33>    S        1.52031         5.09985        -1.69272
| 34>    C        1.51971         5.07102         0.04364
| 35>    C        1.44361         3.75279         0.50169
| 36>    C        1.39236         2.80793        -0.53734
| 37>    C        1.42622         3.36180         1.85005
| 38>    N        1.41366         3.00104         2.94003
| 39>    C        1.59497         6.29782         0.74196
| 40>    C        1.57577         6.42614         2.09717
| 41>    C        1.66137         7.67980         2.74238
| 42>    N        1.64338         7.83241         4.10785
| 43>    C        1.59475         6.77788         5.09312
| 44>    C        2.95296         6.10587         5.27539
| 45>    C        1.73933         9.18100         4.48843
| 46>    O        1.73743         9.55357         5.64504
| 47>    C        1.81597         9.90333         3.23582
| 48>    C        1.76494         8.95956         2.18700
| 49>    C        1.84563         9.67920         0.93327
| 50>    O        1.84517         9.29906        -0.22210
| 51>    N        1.94823        11.02458         1.31089
| 52>    C        2.00403        12.07782         0.32468
| 53>    C        0.65310        12.76664         0.14996
| 54>    C        1.92913        11.18371         2.67917
| 55>    C        2.02957        12.43099         3.32534
| 56>    C        1.98771        12.56526         4.68419
| 57>    C        2.08889        13.80056         5.36140
| 58>    C        2.26774        15.07174         4.84687
| 59>    C        2.31004        16.00939         5.91201
| 60>    C        2.13950        15.22770         7.15387
| 61>    C        2.01189        13.92068         6.81228
| 62>    C        2.10420        15.72799         8.46033
| 63>    N        2.06996        16.10530         9.54485
| 64>    C        2.48068        17.37275         5.81905
| 65>    C        2.55997        18.31806         6.88138
| 66>    C        2.78621        19.56960         6.36256
| 67>    C        2.81808        19.45390         4.91562
| 68>    C        2.63508        18.14819         4.57766
| 69>    C        2.58452        17.66150         3.26889
| 70>    N        2.54144        17.28877         2.18202
| 71>    C        2.91890        20.76568         7.14031
| 72>    S        2.09077        20.83652         8.67059
| 73>    C        2.67814        22.41040         8.96911
| 74>    C        3.48294        22.86614         7.96480
| 75>    C        3.62362        21.93081         6.91097
| 76>    C        4.57944        22.17167         5.77675
| 77>    C        5.85470        21.36237         6.03981
| 78>    F        6.35028        21.52839         7.27423
| 79>    F        5.64705        20.04475         5.89518
| 80>    F        6.84306        21.68000         5.18921
| 81>    C        4.88425        23.66429         5.60454
| 82>    C        5.23946        24.33971         6.92670
| 83>    C        4.10101        24.23596         7.94743
| 84>    C        2.99801        25.26016         7.66755
| 85>    F        2.29184        24.99875         6.55826
| 86>    F        2.11082        25.31585         8.67280
| 87>    F        3.48150        26.50341         7.52420
| 88>    H        1.95575        -0.12681        -5.13823
| 89>    H        0.63180         1.25548        -7.15193
| 90>    H       -0.70457         3.19683        -6.97322
| 91>    H        0.52912         3.64574        -8.14272
| 92>    H        0.19470         5.47107        -6.53086
| 93>    H        1.82265         4.81455        -6.36728
| 94>    H        0.96427         5.15508        -4.15701
| 95>    H        1.33054         1.74743        -0.36616
| 96>    H        1.67434         7.18721         0.12920
| 97>    H        1.48867         5.54880         2.71886
| 98>    H        0.83634         6.04388         4.80852
| 99>    H        1.29236         7.25474         6.02959
|100>    H        3.28838         5.64433         4.34948
|101>    H        2.87873         5.33605         6.03779
|102>    H        3.69285         6.83853         5.58880
|103>    H        2.29534        11.59709        -0.61333
|104>    H        2.77519        12.80065         0.60412
|105>    H       -0.09338        12.04579        -0.17479
|106>    H        0.73475        13.54664        -0.60157
|107>    H        0.31911        13.21546         1.08267
|108>    H        2.14513        13.31037         2.70901
|109>    H        1.86595        11.68150         5.29668
|110>    H        2.36701        15.33342         3.81262
|111>    H        1.87353        13.09033         7.47988
|112>    H        2.48800        18.07765         7.92383
|113>    H        2.91118        20.26541         4.21884
|114>    H        2.40003        22.92539         9.86707
|115>    H        4.18452        21.77979         4.83607
|116>    H        4.00480        24.13845         5.16775
|117>    H        5.71114        23.78605         4.90302
|118>    H        5.47232        25.39031         6.74583
|119>    H        6.12649        23.87464         7.35688
|120>    H        4.47596        24.48823         8.94565
|121> *
|122>
|123>                          ****END OF INPUT****

CARTESIAN COORDINATES (ANGSTROEM)
---------------------------------
  C      1.734610    0.807810   -4.662830
  S      1.921680    0.964400   -2.973000
  C      1.421730    2.633690   -3.023500
  C      1.122960    3.013970   -4.314910
  C      1.308850    1.963500   -5.248190
  C      1.138650    2.131670   -6.732460
  C      2.529380    2.133020   -7.374640
  F      3.356380    3.049510   -6.852790
  F      3.142460    0.947730   -7.230650
  F      2.479910    2.371700   -8.693010
  C      0.358970    3.401950   -7.092770
  C      0.764590    4.592050   -6.226380
  C      0.534420    4.330450   -4.733510
  C     -0.959820    4.320020   -4.387630
  F     -1.605290    3.231600   -4.833360
  F     -1.165600    4.347010   -3.061280
  F     -1.606730    5.378920   -4.891840
  C      1.413980    3.367190   -1.793890
  S      1.520310    5.099850   -1.692720
  C      1.519710    5.071020    0.043640
  C      1.443610    3.752790    0.501690
  C      1.392360    2.807930   -0.537340
  C      1.426220    3.361800    1.850050
  N      1.413660    3.001040    2.940030
  C      1.594970    6.297820    0.741960
  C      1.575770    6.426140    2.097170
  C      1.661370    7.679800    2.742380
  N      1.643380    7.832410    4.107850
  C      1.594750    6.777880    5.093120
  C      2.952960    6.105870    5.275390
  C      1.739330    9.181000    4.488430
  O      1.737430    9.553570    5.645040
  C      1.815970    9.903330    3.235820
  C      1.764940    8.959560    2.187000
  C      1.845630    9.679200    0.933270
  O      1.845170    9.299060   -0.222100
  N      1.948230   11.024580    1.310890
  C      2.004030   12.077820    0.324680
  C      0.653100   12.766640    0.149960
  C      1.929130   11.183710    2.679170
  C      2.029570   12.430990    3.325340
  C      1.987710   12.565260    4.684190
  C      2.088890   13.800560    5.361400
  C      2.267740   15.071740    4.846870
  C      2.310040   16.009390    5.912010
  C      2.139500   15.227700    7.153870
  C      2.011890   13.920680    6.812280
  C      2.104200   15.727990    8.460330
  N      2.069960   16.105300    9.544850
  C      2.480680   17.372750    5.819050
  C      2.559970   18.318060    6.881380
  C      2.786210   19.569600    6.362560
  C      2.818080   19.453900    4.915620
  C      2.635080   18.148190    4.577660
  C      2.584520   17.661500    3.268890
  N      2.541440   17.288770    2.182020
  C      2.918900   20.765680    7.140310
  S      2.090770   20.836520    8.670590
  C      2.678140   22.410400    8.969110
  C      3.482940   22.866140    7.964800
  C      3.623620   21.930810    6.910970
  C      4.579440   22.171670    5.776750
  C      5.854700   21.362370    6.039810
  F      6.350280   21.528390    7.274230
  F      5.647050   20.044750    5.895180
  F      6.843060   21.680000    5.189210
  C      4.884250   23.664290    5.604540
  C      5.239460   24.339710    6.926700
  C      4.101010   24.235960    7.947430
  C      2.998010   25.260160    7.667550
  F      2.291840   24.998750    6.558260
  F      2.110820   25.315850    8.672800
  F      3.481500   26.503410    7.524200
  H      1.955750   -0.126810   -5.138230
  H      0.631800    1.255480   -7.151930
  H     -0.704570    3.196830   -6.973220
  H      0.529120    3.645740   -8.142720
  H      0.194700    5.471070   -6.530860
  H      1.822650    4.814550   -6.367280
  H      0.964270    5.155080   -4.157010
  H      1.330540    1.747430   -0.366160
  H      1.674340    7.187210    0.129200
  H      1.488670    5.548800    2.718860
  H      0.836340    6.043880    4.808520
  H      1.292360    7.254740    6.029590
  H      3.288380    5.644330    4.349480
  H      2.878730    5.336050    6.037790
  H      3.692850    6.838530    5.588800
  H      2.295340   11.597090   -0.613330
  H      2.775190   12.800650    0.604120
  H     -0.093380   12.045790   -0.174790
  H      0.734750   13.546640   -0.601570
  H      0.319110   13.215460    1.082670
  H      2.145130   13.310370    2.709010
  H      1.865950   11.681500    5.296680
  H      2.367010   15.333420    3.812620
  H      1.873530   13.090330    7.479880
  H      2.488000   18.077650    7.923830
  H      2.911180   20.265410    4.218840
  H      2.400030   22.925390    9.867070
  H      4.184520   21.779790    4.836070
  H      4.004800   24.138450    5.167750
  H      5.711140   23.786050    4.903020
  H      5.472320   25.390310    6.745830
  H      6.126490   23.874640    7.356880
  H      4.475960   24.488230    8.945650

 Total Charge           Charge          ....    0
 Multiplicity           Mult            ....    1
 Number of Electrons    NEL             ....  546
 Basis Dimension        Dim             .... 1199

ORBITAL ENERGIES
----------------

  NO   OCC          E(Eh)            E(eV)
   0   2.0000     -88.982584     -2421.3392
   1   2.0000     -88.972237     -2421.0576
   2   2.0000     -88.966337     -2420.8971
   3   2.0000     -24.806066      -675.0074
   4   2.0000     -24.805572      -674.9939
   5   2.0000     -24.804951      -674.9770
   6   2.0000     -24.804822      -674.9735
   7   2.0000     -24.803638      -674.9413
   8   2.0000     -24.803630      -674.9411
   9   2.0000     -24.803283      -674.9317
  10   2.0000     -24.802850      -674.9199
  11   2.0000     -24.802352      -674.9063
  12   2.0000     -24.801710      -674.8889
  13   2.0000     -24.801531      -674.8840
  14   2.0000     -24.800142      -674.8462
  15   2.0000     -19.195779      -522.3437
  16   2.0000     -19.193144      -522.2720
  17   2.0000     -14.455754      -393.3611
  18   2.0000     -14.455185      -393.3456
  19   2.0000     -14.417153      -392.3107
  20   2.0000     -14.409845      -392.1118
  21   2.0000     -14.404389      -391.9634
  22   2.0000     -10.517973      -286.2086
  23   2.0000     -10.516620      -286.1718
  24   2.0000     -10.516319      -286.1636
  25   2.0000     -10.514089      -286.1029
  26   2.0000     -10.377563      -282.3879
  27   2.0000     -10.376068      -282.3472
  28   2.0000     -10.342328      -281.4291
  29   2.0000     -10.340085      -281.3680
  30   2.0000     -10.333295      -281.1832
  31   2.0000     -10.331998      -281.1480
  32   2.0000     -10.323726      -280.9229
  33   2.0000     -10.323585      -280.9190
  34   2.0000     -10.320089      -280.8239
  35   2.0000     -10.319491      -280.8076
  36   2.0000     -10.318339      -280.7763
  37   2.0000     -10.315643      -280.7029
  38   2.0000     -10.314714      -280.6776
  39   2.0000     -10.314361      -280.6680
  40   2.0000     -10.314336      -280.6673
  41   2.0000     -10.312845      -280.6268
  42   2.0000     -10.312649      -280.6214
  43   2.0000     -10.311619      -280.5934
  44   2.0000     -10.310470      -280.5621
  45   2.0000     -10.310235      -280.5558
  46   2.0000     -10.307967      -280.4940
  47   2.0000     -10.307518      -280.4818
  48   2.0000     -10.306909      -280.4653
  49   2.0000     -10.306621      -280.4574
  50   2.0000     -10.305685      -280.4320
  51   2.0000     -10.303869      -280.3825
  52   2.0000     -10.303778      -280.3800
  53   2.0000     -10.302809      -280.3537
  54   2.0000     -10.302204      -280.3372
  55   2.0000     -10.301545      -280.3193
  56   2.0000     -10.298428      -280.2345
  57   2.0000     -10.298212      -280.2286
  58   2.0000     -10.296867      -280.1920
  59   2.0000     -10.296725      -280.1881
  60   2.0000     -10.295547      -280.1561
  61   2.0000     -10.292905      -280.0842
  62   2.0000     -10.292046      -280.0608
  63   2.0000     -10.288525      -279.9650
  64   2.0000     -10.287326      -279.9324
  65   2.0000     -10.286917      -279.9212
  66   2.0000     -10.285891      -279.8933
  67   2.0000     -10.281383      -279.7707
  68   2.0000     -10.279843      -279.7287
  69   2.0000     -10.266850      -279.3752
  70   2.0000     -10.264763      -279.3184
  71   2.0000     -10.262249      -279.2500
  72   2.0000     -10.258942      -279.1600
  73   2.0000      -8.077721      -219.8060
  74   2.0000      -8.068061      -219.5431
  75   2.0000      -8.062039      -219.3792
  76   2.0000      -6.046950      -164.5459
  77   2.0000      -6.042793      -164.4328
  78   2.0000      -6.039951      -164.3554
  79   2.0000      -6.037326      -164.2840
  80   2.0000      -6.033015      -164.1667
  81   2.0000      -6.031254      -164.1188
  82   2.0000      -6.030336      -164.0938
  83   2.0000      -6.026892      -164.0001
  84   2.0000      -6.024471      -163.9342
  85   2.0000      -1.395182       -37.9648
  86   2.0000      -1.394503       -37.9463
  87   2.0000      -1.393996       -37.9325
  88   2.0000      -1.392108       -37.8812
  89   2.0000      -1.297842       -35.3161
  90   2.0000      -1.296942       -35.2916
  91   2.0000      -1.296135       -35.2696
  92   2.0000      -1.295356       -35.2484
  93   2.0000      -1.294933       -35.2369
  94   2.0000      -1.294703       -35.2306
  95   2.0000      -1.294665       -35.2296
  96   2.0000      -1.292822       -35.1795
  97   2.0000      -1.136783       -30.9334
  98   2.0000      -1.129971       -30.7481
  99   2.0000      -1.066687       -29.0260
 100   2.0000      -1.058123       -28.7930
 101   2.0000      -1.023603       -27.8536
 102   2.0000      -1.016491       -27.6601
 103   2.0000      -1.007595       -27.4181
 104   2.0000      -1.005364       -27.3573
 105   2.0000      -0.997565       -27.1451
 106   2.0000      -0.992993       -27.0207
 107   2.0000      -0.983323       -26.7576
 108   2.0000      -0.977779       -26.6067
 109   2.0000      -0.948576       -25.8121
 110   2.0000      -0.944642       -25.7050
 111   2.0000      -0.930969       -25.3330
 112   2.0000      -0.922070       -25.0908
 113   2.0000      -0.913848       -24.8671
 114   2.0000      -0.911270       -24.7969
 115   2.0000      -0.909054       -24.7366
 116   2.0000      -0.878634       -23.9088
 117   2.0000      -0.875416       -23.8213
 118   2.0000      -0.871740       -23.7213
 119   2.0000      -0.864567       -23.5261
 120   2.0000      -0.857848       -23.3432
 121   2.0000      -0.845796       -23.0153
 122   2.0000      -0.844758       -22.9870
 123   2.0000      -0.841349       -22.8943
 124   2.0000      -0.821675       -22.3589
 125   2.0000      -0.819944       -22.3118
 126   2.0000      -0.817494       -22.2451
 127   2.0000      -0.809967       -22.0403
 128   2.0000      -0.807581       -21.9754
 129   2.0000      -0.794532       -21.6203
 130   2.0000      -0.781828       -21.2746
 131   2.0000      -0.767283       -20.8788
 132   2.0000      -0.765941       -20.8423
 133   2.0000      -0.763919       -20.7873
 134   2.0000      -0.759860       -20.6769
 135   2.0000      -0.739077       -20.1113
 136   2.0000      -0.736667       -20.0457
 137   2.0000      -0.730820       -19.8866
 138   2.0000      -0.722055       -19.6481
 139   2.0000      -0.719784       -19.5863
 140   2.0000      -0.713046       -19.4030
 141   2.0000      -0.710720       -19.3397
 142   2.0000      -0.707135       -19.2421
 143   2.0000      -0.699606       -19.0372
 144   2.0000      -0.699019       -19.0213
 145   2.0000      -0.691732       -18.8230
 146   2.0000      -0.683016       -18.5858
 147   2.0000      -0.681550       -18.5459
 148   2.0000      -0.681276       -18.5385
 149   2.0000      -0.680419       -18.5152
 150   2.0000      -0.679495       -18.4900
 151   2.0000      -0.678692       -18.4681
 152   2.0000      -0.676078       -18.3970
 153   2.0000      -0.675714       -18.3871
 154   2.0000      -0.674007       -18.3407
 155   2.0000      -0.672637       -18.3034
 156   2.0000      -0.664094       -18.0709
 157   2.0000      -0.659989       -17.9592
 158   2.0000      -0.652943       -17.7675
 159   2.0000      -0.650730       -17.7073
 160   2.0000      -0.650106       -17.6903
 161   2.0000      -0.640106       -17.4182
 162   2.0000      -0.630603       -17.1596
 163   2.0000      -0.625232       -17.0134
 164   2.0000      -0.618443       -16.8287
 165   2.0000      -0.607084       -16.5196
 166   2.0000      -0.605344       -16.4723
 167   2.0000      -0.595021       -16.1913
 168   2.0000      -0.590863       -16.0782
 169   2.0000      -0.587687       -15.9918
 170   2.0000      -0.586426       -15.9575
 171   2.0000      -0.574764       -15.6401
 172   2.0000      -0.571999       -15.5649
 173   2.0000      -0.569169       -15.4879
 174   2.0000      -0.566518       -15.4157
 175   2.0000      -0.565184       -15.3794
 176   2.0000      -0.560936       -15.2638
 177   2.0000      -0.556531       -15.1440
 178   2.0000      -0.555706       -15.1215
 179   2.0000      -0.554599       -15.0914
 180   2.0000      -0.553825       -15.0703
 181   2.0000      -0.552856       -15.0440
 182   2.0000      -0.552457       -15.0331
 183   2.0000      -0.552085       -15.0230
 184   2.0000      -0.551368       -15.0035
 185   2.0000      -0.549999       -14.9662
 186   2.0000      -0.539815       -14.6891
 187   2.0000      -0.534782       -14.5522
 188   2.0000      -0.532827       -14.4989
 189   2.0000      -0.531474       -14.4621
 190   2.0000      -0.531243       -14.4558
 191   2.0000      -0.529620       -14.4117
 192   2.0000      -0.527721       -14.3600
 193   2.0000      -0.526436       -14.3251
 194   2.0000      -0.525586       -14.3019
 195   2.0000      -0.523614       -14.2483
 196   2.0000      -0.521776       -14.1982
 197   2.0000      -0.520828       -14.1725
 198   2.0000      -0.519619       -14.1396
 199   2.0000      -0.517473       -14.0812
 200   2.0000      -0.514090       -13.9891
 201   2.0000      -0.513199       -13.9648
 202   2.0000      -0.510341       -13.8871
 203   2.0000      -0.509059       -13.8522
 204   2.0000      -0.508461       -13.8359
 205   2.0000      -0.506128       -13.7724
 206   2.0000      -0.504134       -13.7182
 207   2.0000      -0.503842       -13.7102
 208   2.0000      -0.502811       -13.6822
 209   2.0000      -0.502016       -13.6606
 210   2.0000      -0.500832       -13.6283
 211   2.0000      -0.500292       -13.6136
 212   2.0000      -0.496117       -13.5000
 213   2.0000      -0.492801       -13.4098
 214   2.0000      -0.491659       -13.3787
 215   2.0000      -0.491084       -13.3631
 216   2.0000      -0.490389       -13.3442
 217   2.0000      -0.488475       -13.2921
 218   2.0000      -0.488160       -13.2835
 219   2.0000      -0.485072       -13.1995
 220   2.0000      -0.484667       -13.1884
 221   2.0000      -0.484156       -13.1745
 222   2.0000      -0.482653       -13.1337
 223   2.0000      -0.480453       -13.0738
 224   2.0000      -0.478344       -13.0164
 225   2.0000      -0.476481       -12.9657
 226   2.0000      -0.473978       -12.8976
 227   2.0000      -0.471069       -12.8185
 228   2.0000      -0.468573       -12.7505
 229   2.0000      -0.467164       -12.7122
 230   2.0000      -0.460826       -12.5397
 231   2.0000      -0.457406       -12.4466
 232   2.0000      -0.455953       -12.4071
 233   2.0000      -0.453131       -12.3303
 234   2.0000      -0.451835       -12.2951
 235   2.0000      -0.448655       -12.2085
 236   2.0000      -0.445077       -12.1112
 237   2.0000      -0.444483       -12.0950
 238   2.0000      -0.443439       -12.0666
 239   2.0000      -0.441000       -12.0002
 240   2.0000      -0.440416       -11.9843
 241   2.0000      -0.435341       -11.8462
 242   2.0000      -0.434273       -11.8172
 243   2.0000      -0.430854       -11.7241
 244   2.0000      -0.429172       -11.6784
 245   2.0000      -0.428212       -11.6523
 246   2.0000      -0.425826       -11.5873
 247   2.0000      -0.424831       -11.5602
 248   2.0000      -0.424182       -11.5426
 249   2.0000      -0.422834       -11.5059
 250   2.0000      -0.422471       -11.4960
 251   2.0000      -0.421945       -11.4817
 252   2.0000      -0.418042       -11.3755
 253   2.0000      -0.417621       -11.3640
 254   2.0000      -0.415841       -11.3156
 255   2.0000      -0.413708       -11.2576
 256   2.0000      -0.409214       -11.1353
 257   2.0000      -0.394680       -10.7398
 258   2.0000      -0.392110       -10.6699
 259   2.0000      -0.374414       -10.1883
 260   2.0000      -0.351372        -9.5613
 261   2.0000      -0.342486        -9.3195
 262   2.0000      -0.341668        -9.2972
 263   2.0000      -0.337744        -9.1905
 264   2.0000      -0.335190        -9.1210
 265   2.0000      -0.330630        -8.9969
 266   2.0000      -0.326905        -8.8955
 267   2.0000      -0.321796        -8.7565
 268   2.0000      -0.318227        -8.6594
 269   2.0000      -0.299692        -8.1550
 270   2.0000      -0.285121        -7.7585
 271   2.0000      -0.277831        -7.5602
 272   2.0000      -0.232562        -6.3283
 273   0.0000      -0.127220        -3.4618
 274   0.0000      -0.085274        -2.3204
 275   0.0000      -0.039098        -1.0639
 276   0.0000      -0.015919        -0.4332
 277   0.0000      -0.008308        -0.2261

MULLIKEN ATOMIC CHARGES
-----------------------
   0 C :   -0.104760
   1 S :    0.146194
   2 C :   -0.129835
   3 C :    0.017336
   4 C :   -0.037801
   5 C :   -0.052074
   6 C :    0.480556
   7 F :   -0.161954
   8 F :   -0.162087
   9 F :   -0.160591
  10 C :    0.042043
  11 C :    0.057039
  12 C :   -0.113239
  13 C :    0.503624
  14 F :   -0.163361
  15 F :   -0.158629
  16 F :   -0.157434
  17 C :   -0.052628
  18 S :    0.163241
  19 C :   -0.059439
  20 C :   -0.056978
  21 C :   -0.011399
  22 C :   -0.172771
  23 N :    0.116176
  24 C :    0.064073
  25 C :   -0.043878
  26 C :    0.144348
  27 N :   -0.253356
  28 C :    0.094175
  29 C :    0.008447
  30 C :    0.168462
  31 O :   -0.206075
  32 C :   -0.065541
  33 C :   -0.074435
  34 C :    0.169060
  35 O :   -0.215758
  36 N :   -0.254351
  37 C :    0.096180
  38 C :    0.004533
  39 C :    0.145585
  40 C :   -0.012965
  41 C :    0.001738
  42 C :    0.112964
  43 C :   -0.126736
  44 C :    0.113602
  45 C :   -0.084879
  46 C :   -0.002262
  47 C :   -0.177688
  48 N :    0.132320
  49 C :    0.116541
  50 C :   -0.128553
  51 C :    0.109603
  52 C :   -0.018817
  53 C :   -0.103161
  54 C :   -0.170494
  55 N :    0.123457
  56 C :   -0.176615
  57 S :    0.172289
  58 C :   -0.105288
  59 C :   -0.042627
  60 C :    0.046476
  61 C :   -0.091297
  62 C :    0.495126
  63 F :   -0.160108
  64 F :   -0.153519
  65 F :   -0.160563
  66 C :    0.051681
  67 C :    0.048330
  68 C :   -0.056699
  69 C :    0.484819
  70 F :   -0.162960
  71 F :   -0.162294
  72 F :   -0.162085
  73 H :    0.025762
  74 H :    0.035474
  75 H :    0.029193
  76 H :    0.025095
  77 H :    0.025220
  78 H :    0.027745
  79 H :    0.045877
  80 H :    0.005033
  81 H :    0.003862
  82 H :   -0.013792
  83 H :    0.036334
  84 H :    0.041107
  85 H :    0.018479
  86 H :    0.030811
  87 H :    0.023527
  88 H :    0.041475
  89 H :    0.031059
  90 H :    0.026160
  91 H :    0.030580
  92 H :    0.018258
  93 H :   -0.014543
  94 H :    0.002654
  95 H :   -0.000306
  96 H :    0.010272
  97 H :    0.007948
  98 H :   -0.002616
  99 H :    0.024409
 100 H :    0.025208
 101 H :    0.026007
 102 H :    0.025310
 103 H :    0.024890
 104 H :    0.027060
 105 H :    0.034412
Sum of atomic charges:   -0.0000000

LOEWDIN ATOMIC CHARGES
----------------------
   0 C :   -0.173899
   1 S :    0.467711
   2 C :   -0.185660
   3 C :   -0.059034
   4 C :   -0.066202
   5 C :   -0.055197
   6 C :    0.161742
   7 F :   -0.057331
   8 F :   -0.060983
   9 F :   -0.059481
  10 C :   -0.025367
  11 C :   -0.020897
  12 C :   -0.064971
  13 C :    0.164091
  14 F :   -0.057875
  15 F :   -0.060373
  16 F :   -0.057149
  17 C :   -0.175612
  18 S :    0.493301
  19 C :   -0.144160
  20 C :   -0.099831
  21 C :   -0.032930
  22 C :   -0.024551
  23 N :   -0.060379
  24 C :    0.002580
  25 C :   -0.035980
  26 C :    0.078112
  27 N :    0.004423
  28 C :    0.036884
  29 C :   -0.058823
  30 C :    0.081544
  31 O :   -0.195921
  32 C :   -0.110528
  33 C :   -0.119319
  34 C :    0.078904
  35 O :   -0.205996
  36 N :    0.002313
  37 C :    0.036850
  38 C :   -0.059916
  39 C :    0.069781
  40 C :   -0.020648
  41 C :    0.020433
  42 C :   -0.018513
  43 C :   -0.024494
  44 C :    0.037833
  45 C :   -0.082324
  46 C :    0.061152
  47 C :   -0.030128
  48 N :   -0.064079
  49 C :    0.036130
  50 C :   -0.034904
  51 C :   -0.030039
  52 C :    0.047051
  53 C :   -0.080950
  54 C :   -0.027434
  55 N :   -0.072923
  56 C :   -0.169233
  57 S :    0.484040
  58 C :   -0.171442
  59 C :   -0.068858
  60 C :   -0.054644
  61 C :   -0.058294
  62 C :    0.164256
  63 F :   -0.055748
  64 F :   -0.054143
  65 F :   -0.060444
  66 C :   -0.022554
  67 C :   -0.024384
  68 C :   -0.055785
  69 C :    0.162376
  70 F :   -0.058078
  71 F :   -0.061068
  72 F :   -0.060981
  73 H :    0.026705
  74 H :    0.050778
  75 H :    0.028996
  76 H :    0.032409
  77 H :    0.032550
  78 H :    0.030160
  79 H :    0.034207
  80 H :    0.035734
  81 H :    0.036752
  82 H :    0.035691
  83 H :    0.028089
  84 H :    0.037205
  85 H :    0.023603
  86 H :    0.034305
  87 H :    0.029611
  88 H :    0.037306
  89 H :    0.025843
  90 H :    0.030916
  91 H :    0.033679
  92 H :    0.023263
  93 H :    0.034284
  94 H :    0.037193
  95 H :    0.030532
  96 H :    0.042113
  97 H :    0.030996
  98 H :    0.032715
  99 H :    0.026586
 100 H :    0.043811
 101 H :    0.029061
 102 H :    0.031977
 103 H :    0.032174
 104 H :    0.029206
 105 H :    0.050504

  Mayer bond orders larger than 0.100000
B(  0-C ,  1-S ) :   1.1670 B(  0-C ,  4-C ) :   1.5785 B(  0-C , 73-H ) :   0.9666
B(  1-S ,  2-C ) :   1.1646 B(  2-C ,  3-C ) :   1.5268 B(  2-C , 17-C ) :   1.1010
B(  3-C ,  4-C ) :   1.3164 B(  3-C , 12-C ) :   0.9788 B(  4-C ,  5-C ) :   0.9551
B(  5-C ,  6-C ) :   0.9811 B(  5-C , 10-C ) :   1.0479 B(  5-C , 74-H ) :   0.8899
B(  6-C ,  7-F ) :   1.1392 B(  6-C ,  8-F ) :   1.1478 B(  6-C ,  9-F ) :   1.1505
B( 10-C , 11-C ) :   1.0690 B( 10-C , 75-H ) :   0.9367 B( 10-C , 76-H ) :   0.9306
B( 11-C , 12-C ) :   1.0502 B( 11-C , 77-H ) :   0.9293 B( 11-C , 78-H ) :   0.9416
B( 12-C , 13-C ) :   0.9720 B( 12-C , 79-H ) :   0.8819 B( 13-C , 14-F ) :   1.1306
B( 13-C , 15-F ) :   1.1525 B( 13-C , 16-F ) :   1.1568 B( 17-C , 18-S ) :   1.1341
B( 17-C , 21-C ) :   1.4853 B( 18-S , 19-C ) :   1.1403 B( 19-C , 20-C ) :   1.4311
B( 19-C , 24-C ) :   1.1627 B( 20-C , 21-C ) :   1.2895 B( 20-C , 22-C ) :   1.1168
B( 21-C , 80-H ) :   1.0026 B( 22-C , 23-N ) :   2.9649 B( 24-C , 25-C ) :   1.5998
B( 24-C , 81-H ) :   0.9203 B( 25-C , 26-C ) :   1.1813 B( 25-C , 82-H ) :   0.9483
B( 26-C , 27-N ) :   1.1679 B( 26-C , 33-C ) :   1.3124 B( 27-N , 28-C ) :   0.9394
B( 27-N , 30-C ) :   1.0631 B( 28-C , 29-C ) :   1.1238 B( 28-C , 83-H ) :   0.9480
B( 28-C , 84-H ) :   0.9275 B( 29-C , 85-H ) :   0.9677 B( 29-C , 86-H ) :   0.9674
B( 29-C , 87-H ) :   0.9632 B( 30-C , 31-O ) :   2.0271 B( 30-C , 32-C ) :   0.9811
B( 31-O , 94-H ) :   0.1137 B( 32-C , 33-C ) :   1.2755 B( 32-C , 39-C ) :   1.3195
B( 33-C , 34-C ) :   0.9864 B( 34-C , 35-O ) :   2.0157 B( 34-C , 36-N ) :   1.0712
B( 35-O , 81-H ) :   0.1201 B( 36-N , 37-C ) :   0.9428 B( 36-N , 39-C ) :   1.1535
B( 37-C , 38-C ) :   1.1219 B( 37-C , 88-H ) :   0.9278 B( 37-C , 89-H ) :   0.9498
B( 38-C , 90-H ) :   0.9635 B( 38-C , 91-H ) :   0.9677 B( 38-C , 92-H ) :   0.9685
B( 39-C , 40-C ) :   1.1744 B( 40-C , 41-C ) :   1.5575 B( 40-C , 93-H ) :   0.9665
B( 41-C , 42-C ) :   1.1214 B( 41-C , 94-H ) :   0.9569 B( 42-C , 43-C ) :   1.5112
B( 42-C , 46-C ) :   1.0341 B( 43-C , 44-C ) :   1.1458 B( 43-C , 95-H ) :   0.9949
B( 44-C , 45-C ) :   1.0994 B( 44-C , 49-C ) :   1.3933 B( 45-C , 46-C ) :   1.6641
B( 45-C , 47-C ) :   1.0886 B( 46-C , 96-H ) :   1.0280 B( 47-C , 48-N ) :   2.9649
B( 49-C , 50-C ) :   1.1257 B( 49-C , 53-C ) :   1.1106 B( 50-C , 51-C ) :   1.5641
B( 50-C , 97-H ) :   1.0005 B( 51-C , 52-C ) :   1.0597 B( 51-C , 56-C ) :   1.0479
B( 52-C , 53-C ) :   1.6664 B( 52-C , 98-H ) :   1.0133 B( 53-C , 54-C ) :   1.0888
B( 54-C , 55-N ) :   2.9586 B( 56-C , 57-S ) :   1.1754 B( 56-C , 60-C ) :   1.5151
B( 57-S , 58-C ) :   1.1784 B( 58-C , 59-C ) :   1.5649 B( 58-C , 99-H ) :   0.9680
B( 59-C , 60-C ) :   1.3175 B( 59-C , 68-C ) :   0.9537 B( 60-C , 61-C ) :   0.9853
B( 61-C , 62-C ) :   0.9744 B( 61-C , 66-C ) :   1.0506 B( 61-C ,100-H ) :   0.8795
B( 62-C , 63-F ) :   1.1366 B( 62-C , 64-F ) :   1.1501 B( 62-C , 65-F ) :   1.1521
B( 66-C , 67-C ) :   1.0659 B( 66-C ,101-H ) :   0.9404 B( 66-C ,102-H ) :   0.9295
B( 67-C , 68-C ) :   1.0526 B( 67-C ,103-H ) :   0.9305 B( 67-C ,104-H ) :   0.9375
B( 68-C , 69-C ) :   0.9802 B( 68-C ,105-H ) :   0.8904 B( 69-C , 70-F ) :   1.1370
B( 69-C , 71-F ) :   1.1498 B( 69-C , 72-F ) :   1.1500

-----------------------------------------------------------------------------
         ABSORPTION SPECTRUM VIA TRANSITION ELECTRIC DIPOLE MOMENTS
-----------------------------------------------------------------------------
State   Energy  Wavelength   fosc         T2         TX        TY        TZ
        (cm-1)    (nm)                  (au**2)     (au)      (au)      (au)
-----------------------------------------------------------------------------
   0    9386.6   1065.3   0.796663153  27.94100  -0.45394  -5.02994  -1.56034
   1   16047.6    623.1   0.040062910   0.82188  -0.14777  -0.88797   0.10748
   2   16907.5    591.5   0.340806596   6.63595   0.13352   2.36529   1.01170
   3   18831.6    531.0   0.004904004   0.08573  -0.03282  -0.29072   0.01166
   4   23122.3    432.5   0.325595232   4.63577  -0.06045  -1.50770  -1.53589
   5   24619.3    406.2   0.008366404   0.11188  -0.04071  -0.16732   0.28675
   6   24952.2    400.8   0.487127098   6.42700  -0.30660  -2.41056  -0.72265
   7   26884.9    372.0   0.090421809   1.10724   0.01959  -0.39465  -0.97525
   8   27013.3    370.2   0.013021806   0.15870  -0.07170  -0.16379  -0.35599
   9   27520.2    363.4   0.008771356   0.10493  -0.19477  -0.01429   0.25844
  10   29068.7    344.0   0.110843108   1.25533   0.00369   0.64870   0.91351
  11   29595.3    337.9   0.233712394   2.59976   0.06901   1.22000   1.05195
  12   30454.1    328.4   0.004936242   0.05336   0.02917   0.18412   0.13642
  13   30688.7    325.9   0.118024923   1.26611  -0.05940   0.00558   1.12363
  14   32110.8    311.4   0.008031830   0.08235  -0.02602  -0.15757   0.23841
  15   32950.7    303.5   0.017710278   0.17694   0.03514   0.12006  -0.40162
  16   33068.8    302.4   0.186071767   1.85241  -0.02508  -0.80772  -1.09516
  17   35055.9    285.3   0.004514384   0.04239   0.05452  -0.02233  -0.19729
  18   35077.1    285.1   0.021335811   0.20024   0.01131  -0.00592  -0.44731
  19   35291.1    283.4   0.057322863   0.53473  -0.08966   0.26150   0.67699
  20   36497.2    274.0   0.093633945   0.84460  -0.10060   0.07844  -0.91012
  21   36670.2    272.7   0.002085338   0.01872   0.01664   0.07074  -0.11593
  22   36865.2    271.3   0.002641044   0.02358  -0.01611  -0.14368  -0.05177
  23   37469.2    266.9   0.354078702   3.11101  -0.13294  -1.48467  -0.94292
  24   38083.1    262.6   0.015700420   0.13572  -0.04345  -0.30005  -0.20930
  25   38362.9    260.7   0.000338765   0.00291   0.00428  -0.00046   0.05375
  26   38522.0    259.6   0.071698826   0.61274  -0.07280  -0.13879   0.76693
  27   39676.8    252.0   0.071558920   0.59375   0.10051   0.53900  -0.54141
  28   39892.6    250.7   0.145883242   1.20389   0.10016  -0.19395  -1.07529

FINAL SINGLE POINT ENERGY     -4775.651493943414

DIPOLE MOMENT
-------------
                                X             Y             Z
Electronic contribution:      3.78278      15.71804     -16.97632
Nuclear contribution   :     -3.65694     -15.89229      15.15385
                        -----------------------------------------
Total Dipole Moment    :      0.12583      -0.17424      -1.82248
                        -----------------------------------------
Magnitude (a.u.)       :      1.83511
Magnitude (Debye)      :      4.66447

Rotational constants in cm-1:     0.002119     0.000176     0.000168
Rotational constants in MHz :    63.512342     5.265855     5.030682

                             ****ORCA TERMINATED NORMALLY****
TOTAL RUN TIME: 0 days 0 hours 14 minutes 24 seconds 5 msec
