                         Program Version 4.2.0 -  RELEASE  -
|  1> # ORCA input file
|  2> # SCF done       -177.130934388866          0.000734009187
|  3> ! CAM-B3LYP def2-SVP def2/J RIJCOSX Grid4 TightSCF
|  4> %maxcore 5000
|  5> %tddft
|  6>     Mode sTDDFT
|  7>     Ethresh 5.0
|  8>     maxcore 5000
|  9> end
| 10>
| 11> %pal
| 12>   nprocs 6
| 13>   end
| 14> * xyz 0 1
| 15>    C       -2.37663         0.35222        -7.80750
| 16>    O       -1.70112        -0.75609        -7.45724
| 17>    C       -2.48483        -1.50281        -6.67831
| 18>    C       -3.70352        -0.85104        -6.51295
| 19>    C       -3.61747         0.35718        -7.25952
| 20>    N       -4.84660        -1.29109        -5.81682
| 21>    O       -4.81922        -2.39240        -5.29388
| 22>    O       -5.79876        -0.53957        -5.77781
| 23>    C       -2.01069        -2.76524        -6.16464
| 24>    C       -1.50111        -3.82666        -6.88472
| 25>    N       -1.36506        -3.91565        -8.28794
| 26>    O       -0.77166        -4.88114        -8.72909
| 27>    O       -1.85938        -3.03722        -8.96962
| 28>    C       -1.23073        -4.92725        -5.99210
| 29>    C       -1.64209        -4.57598        -4.75347
| 30>    C       -2.13383        -3.21487        -4.79285
| 31>    C       -2.55270        -2.44883        -3.71920
| 32>    C       -2.35285        -1.05320        -3.53811
| 33>    C       -2.65212        -0.72749        -2.24222
| 34>    C       -3.14381        -1.88556        -1.57176
| 35>    N       -3.60323        -1.86876        -0.24628
| 36>    O       -3.54316        -0.81188         0.35659
| 37>    O       -4.02316        -2.90999         0.24036
| 38>    C       -3.15116        -2.96172        -2.47035
| 39>    C       -3.81547        -4.18328        -2.31403
| 40>    C       -4.19710        -4.96843        -3.37706
| 41>    C       -4.80108        -6.23177        -3.38912
| 42>    N       -5.25098        -7.04140        -2.36937
| 43>    C       -5.34940        -6.72623        -0.96087
| 44>    C       -6.48421        -5.74810        -0.67331
| 45>    C       -5.75731        -8.25323        -2.85436
| 46>    O       -6.23161        -9.12420        -2.14778
| 47>    C       -5.56495        -8.19128        -4.29169
| 48>    C       -4.99360        -6.94947        -4.58494
| 49>    C       -4.73113        -6.88627        -6.01194
| 50>    O       -4.21374        -6.04572        -6.70848
| 51>    N       -5.20024        -8.12816        -6.49618
| 52>    C       -5.16127        -8.44429        -7.90443
| 53>    C       -6.52864        -8.27578        -8.56117
| 54>    C       -5.69549        -8.91937        -5.49351
| 55>    C       -6.20065       -10.21818        -5.66673
| 56>    C       -6.68817       -10.93381        -4.60557
| 57>    C       -7.19165       -12.23621        -4.66133
| 58>    S       -7.24705       -13.18018        -6.12238
| 59>    C       -7.94003       -14.54081        -5.32361
| 60>    C       -8.14010       -14.28835        -3.95729
| 61>    C       -7.71091       -12.97807        -3.57903
| 62>    C       -7.82961       -12.55326        -2.24677
| 63>    C       -8.36832       -13.41146        -1.31436
| 64>    C       -8.50047       -13.00724         0.03576
| 65>    N       -8.61363       -12.67980         1.12726
| 66>    C       -8.80099       -14.71918        -1.69132
| 67>    C       -9.35274       -15.57882        -0.71086
| 68>    N       -9.80316       -16.28946         0.06586
| 69>    C       -8.68714       -15.15238        -2.99156
| 70>    C       -8.21616       -15.72043        -6.07185
| 71>    O       -8.77529       -16.80960        -5.47728
| 72>    C       -8.91299       -17.75841        -6.39560
| 73>    C       -8.44628       -17.30826        -7.60847
| 74>    C       -7.99233       -15.98460        -7.40628
| 75>    N       -8.42198       -18.03618        -8.83144
| 76>    O       -8.85915       -19.16546        -8.80748
| 77>    O       -7.96670       -17.47315        -9.80080
| 78>    H       -1.87081         1.05168        -8.44211
| 79>    H       -4.39020         1.09052        -7.35462
| 80>    H       -0.79540        -5.85320        -6.31323
| 81>    H       -1.54733        -5.15172        -3.85346
| 82>    H       -1.90978        -0.39821        -4.26368
| 83>    H       -2.55100         0.23362        -1.77351
| 84>    H       -4.09394        -4.43074        -1.29965
| 85>    H       -4.05006        -4.57127        -4.37323
| 86>    H       -4.39212        -6.33810        -0.60616
| 87>    H       -5.54669        -7.67588        -0.45502
| 88>    H       -6.38253        -4.84119        -1.26397
| 89>    H       -6.47167        -5.47678         0.37791
| 90>    H       -7.44214        -6.20706        -0.90581
| 91>    H       -4.78580        -9.46245        -8.03927
| 92>    H       -4.45028        -7.74440        -8.35179
| 93>    H       -7.26622        -8.93404        -8.10705
| 94>    H       -6.45662        -8.50759        -9.61983
| 95>    H       -6.86823        -7.24876        -8.45409
| 96>    H       -6.19735       -10.65658        -6.65497
| 97>    H       -6.68730       -10.46662        -3.62941
| 98>    H       -7.50266       -11.56890        -1.94822
| 99>    H       -9.01523       -16.14219        -3.26409
|100>    H       -9.34054       -18.69922        -6.10918
|101>    H       -7.56525       -15.33798        -8.14403
|102> *
|103>
|104>                          ****END OF INPUT****

CARTESIAN COORDINATES (ANGSTROEM)
---------------------------------
  C     -2.376630    0.352220   -7.807500
  O     -1.701120   -0.756090   -7.457240
  C     -2.484830   -1.502810   -6.678310
  C     -3.703520   -0.851040   -6.512950
  C     -3.617470    0.357180   -7.259520
  N     -4.846600   -1.291090   -5.816820
  O     -4.819220   -2.392400   -5.293880
  O     -5.798760   -0.539570   -5.777810
  C     -2.010690   -2.765240   -6.164640
  C     -1.501110   -3.826660   -6.884720
  N     -1.365060   -3.915650   -8.287940
  O     -0.771660   -4.881140   -8.729090
  O     -1.859380   -3.037220   -8.969620
  C     -1.230730   -4.927250   -5.992100
  C     -1.642090   -4.575980   -4.753470
  C     -2.133830   -3.214870   -4.792850
  C     -2.552700   -2.448830   -3.719200
  C     -2.352850   -1.053200   -3.538110
  C     -2.652120   -0.727490   -2.242220
  C     -3.143810   -1.885560   -1.571760
  N     -3.603230   -1.868760   -0.246280
  O     -3.543160   -0.811880    0.356590
  O     -4.023160   -2.909990    0.240360
  C     -3.151160   -2.961720   -2.470350
  C     -3.815470   -4.183280   -2.314030
  C     -4.197100   -4.968430   -3.377060
  C     -4.801080   -6.231770   -3.389120
  N     -5.250980   -7.041400   -2.369370
  C     -5.349400   -6.726230   -0.960870
  C     -6.484210   -5.748100   -0.673310
  C     -5.757310   -8.253230   -2.854360
  O     -6.231610   -9.124200   -2.147780
  C     -5.564950   -8.191280   -4.291690
  C     -4.993600   -6.949470   -4.584940
  C     -4.731130   -6.886270   -6.011940
  O     -4.213740   -6.045720   -6.708480
  N     -5.200240   -8.128160   -6.496180
  C     -5.161270   -8.444290   -7.904430
  C     -6.528640   -8.275780   -8.561170
  C     -5.695490   -8.919370   -5.493510
  C     -6.200650  -10.218180   -5.666730
  C     -6.688170  -10.933810   -4.605570
  C     -7.191650  -12.236210   -4.661330
  S     -7.247050  -13.180180   -6.122380
  C     -7.940030  -14.540810   -5.323610
  C     -8.140100  -14.288350   -3.957290
  C     -7.710910  -12.978070   -3.579030
  C     -7.829610  -12.553260   -2.246770
  C     -8.368320  -13.411460   -1.314360
  C     -8.500470  -13.007240    0.035760
  N     -8.613630  -12.679800    1.127260
  C     -8.800990  -14.719180   -1.691320
  C     -9.352740  -15.578820   -0.710860
  N     -9.803160  -16.289460    0.065860
  C     -8.687140  -15.152380   -2.991560
  C     -8.216160  -15.720430   -6.071850
  O     -8.775290  -16.809600   -5.477280
  C     -8.912990  -17.758410   -6.395600
  C     -8.446280  -17.308260   -7.608470
  C     -7.992330  -15.984600   -7.406280
  N     -8.421980  -18.036180   -8.831440
  O     -8.859150  -19.165460   -8.807480
  O     -7.966700  -17.473150   -9.800800
  H     -1.870810    1.051680   -8.442110
  H     -4.390200    1.090520   -7.354620
  H     -0.795400   -5.853200   -6.313230
  H     -1.547330   -5.151720   -3.853460
  H     -1.909780   -0.398210   -4.263680
  H     -2.551000    0.233620   -1.773510
  H     -4.093940   -4.430740   -1.299650
  H     -4.050060   -4.571270   -4.373230
  H     -4.392120   -6.338100   -0.606160
  H     -5.546690   -7.675880   -0.455020
  H     -6.382530   -4.841190   -1.263970
  H     -6.471670   -5.476780    0.377910
  H     -7.442140   -6.207060   -0.905810
  H     -4.785800   -9.462450   -8.039270
  H     -4.450280   -7.744400   -8.351790
  H     -7.266220   -8.934040   -8.107050
  H     -6.456620   -8.507590   -9.619830
  H     -6.868230   -7.248760   -8.454090
  H     -6.197350  -10.656580   -6.654970
  H     -6.687300  -10.466620   -3.629410
  H     -7.502660  -11.568900   -1.948220
  H     -9.015230  -16.142190   -3.264090
  H     -9.340540  -18.699220   -6.109180
  H     -7.565250  -15.337980   -8.144030

 Total Charge           Charge          ....    0
 Multiplicity           Mult            ....    1
 Number of Electrons    NEL             ....  444
 Basis Dimension        Dim             .... 1006

ORBITAL ENERGIES
----------------

  NO   OCC          E(Eh)            E(eV)
   0   2.0000     -89.016928     -2422.2738
   1   2.0000     -19.354686      -526.6678
   2   2.0000     -19.317500      -525.6559
   3   2.0000     -19.263502      -524.1865
   4   2.0000     -19.261696      -524.1374
   5   2.0000     -19.245716      -523.7026
   6   2.0000     -19.243409      -523.6398
   7   2.0000     -19.240527      -523.5614
   8   2.0000     -19.239094      -523.5224
   9   2.0000     -19.230227      -523.2811
  10   2.0000     -19.229556      -523.2628
  11   2.0000     -19.217713      -522.9406
  12   2.0000     -19.208283      -522.6840
  13   2.0000     -14.673857      -399.2959
  14   2.0000     -14.655379      -398.7931
  15   2.0000     -14.648073      -398.5943
  16   2.0000     -14.639888      -398.3716
  17   2.0000     -14.476252      -393.9188
  18   2.0000     -14.468423      -393.7058
  19   2.0000     -14.421589      -392.4314
  20   2.0000     -14.420191      -392.3933
  21   2.0000     -10.399068      -282.9730
  22   2.0000     -10.391577      -282.7692
  23   2.0000     -10.390761      -282.7470
  24   2.0000     -10.389811      -282.7211
  25   2.0000     -10.372598      -282.2527
  26   2.0000     -10.369156      -282.1591
  27   2.0000     -10.366452      -282.0855
  28   2.0000     -10.357483      -281.8414
  29   2.0000     -10.349274      -281.6181
  30   2.0000     -10.349060      -281.6122
  31   2.0000     -10.349049      -281.6119
  32   2.0000     -10.348438      -281.5953
  33   2.0000     -10.343911      -281.4721
  34   2.0000     -10.337153      -281.2882
  35   2.0000     -10.335169      -281.2342
  36   2.0000     -10.333939      -281.2008
  37   2.0000     -10.330727      -281.1134
  38   2.0000     -10.330176      -281.0984
  39   2.0000     -10.329323      -281.0752
  40   2.0000     -10.328950      -281.0650
  41   2.0000     -10.328087      -281.0415
  42   2.0000     -10.326966      -281.0110
  43   2.0000     -10.326818      -281.0070
  44   2.0000     -10.322444      -280.8880
  45   2.0000     -10.321455      -280.8611
  46   2.0000     -10.320021      -280.8220
  47   2.0000     -10.319480      -280.8073
  48   2.0000     -10.318098      -280.7697
  49   2.0000     -10.317564      -280.7552
  50   2.0000     -10.315837      -280.7082
  51   2.0000     -10.312531      -280.6182
  52   2.0000     -10.310514      -280.5634
  53   2.0000     -10.303866      -280.3824
  54   2.0000     -10.303341      -280.3682
  55   2.0000     -10.293972      -280.1132
  56   2.0000     -10.289407      -279.9890
  57   2.0000     -10.288432      -279.9625
  58   2.0000     -10.287823      -279.9459
  59   2.0000     -10.284475      -279.8548
  60   2.0000     -10.283199      -279.8201
  61   2.0000     -10.279916      -279.7307
  62   2.0000     -10.262639      -279.2606
  63   2.0000      -8.111664      -220.7296
  64   2.0000      -6.080694      -165.4641
  65   2.0000      -6.076551      -165.3513
  66   2.0000      -6.074420      -165.2934
  67   2.0000      -1.346247       -36.6332
  68   2.0000      -1.325545       -36.0699
  69   2.0000      -1.319986       -35.9187
  70   2.0000      -1.308911       -35.6173
  71   2.0000      -1.274061       -34.6690
  72   2.0000      -1.240845       -33.7651
  73   2.0000      -1.165524       -31.7155
  74   2.0000      -1.156823       -31.4788
  75   2.0000      -1.145879       -31.1810
  76   2.0000      -1.142825       -31.0978
  77   2.0000      -1.137617       -30.9561
  78   2.0000      -1.126172       -30.6447
  79   2.0000      -1.086618       -29.5684
  80   2.0000      -1.072014       -29.1710
  81   2.0000      -1.048929       -28.5428
  82   2.0000      -1.017484       -27.6871
  83   2.0000      -1.017162       -27.6784
  84   2.0000      -1.000967       -27.2377
  85   2.0000      -0.996643       -27.1200
  86   2.0000      -0.981210       -26.7001
  87   2.0000      -0.975178       -26.5359
  88   2.0000      -0.957236       -26.0477
  89   2.0000      -0.950534       -25.8653
  90   2.0000      -0.945947       -25.7405
  91   2.0000      -0.924036       -25.1443
  92   2.0000      -0.919390       -25.0179
  93   2.0000      -0.907465       -24.6934
  94   2.0000      -0.903999       -24.5991
  95   2.0000      -0.894022       -24.3276
  96   2.0000      -0.893046       -24.3010
  97   2.0000      -0.886400       -24.1202
  98   2.0000      -0.877783       -23.8857
  99   2.0000      -0.862151       -23.4603
 100   2.0000      -0.850485       -23.1429
 101   2.0000      -0.844553       -22.9815
 102   2.0000      -0.838665       -22.8212
 103   2.0000      -0.833973       -22.6936
 104   2.0000      -0.816485       -22.2177
 105   2.0000      -0.805436       -21.9170
 106   2.0000      -0.789083       -21.4720
 107   2.0000      -0.780985       -21.2517
 108   2.0000      -0.773289       -21.0423
 109   2.0000      -0.770819       -20.9751
 110   2.0000      -0.766681       -20.8624
 111   2.0000      -0.742903       -20.2154
 112   2.0000      -0.731107       -19.8944
 113   2.0000      -0.729034       -19.8380
 114   2.0000      -0.723181       -19.6788
 115   2.0000      -0.710206       -19.3257
 116   2.0000      -0.708251       -19.2725
 117   2.0000      -0.705746       -19.2043
 118   2.0000      -0.695496       -18.9254
 119   2.0000      -0.691539       -18.8177
 120   2.0000      -0.676362       -18.4047
 121   2.0000      -0.670628       -18.2487
 122   2.0000      -0.667273       -18.1574
 123   2.0000      -0.664887       -18.0925
 124   2.0000      -0.656402       -17.8616
 125   2.0000      -0.651629       -17.7317
 126   2.0000      -0.650600       -17.7037
 127   2.0000      -0.649584       -17.6761
 128   2.0000      -0.637465       -17.3463
 129   2.0000      -0.633786       -17.2462
 130   2.0000      -0.633479       -17.2378
 131   2.0000      -0.629856       -17.1393
 132   2.0000      -0.627761       -17.0823
 133   2.0000      -0.622943       -16.9511
 134   2.0000      -0.621041       -16.8994
 135   2.0000      -0.618872       -16.8404
 136   2.0000      -0.614851       -16.7309
 137   2.0000      -0.609799       -16.5935
 138   2.0000      -0.609126       -16.5752
 139   2.0000      -0.606429       -16.5018
 140   2.0000      -0.603245       -16.4151
 141   2.0000      -0.600584       -16.3427
 142   2.0000      -0.596445       -16.2301
 143   2.0000      -0.591727       -16.1017
 144   2.0000      -0.587358       -15.9828
 145   2.0000      -0.584190       -15.8966
 146   2.0000      -0.577084       -15.7033
 147   2.0000      -0.573872       -15.6159
 148   2.0000      -0.570708       -15.5298
 149   2.0000      -0.567741       -15.4490
 150   2.0000      -0.566238       -15.4081
 151   2.0000      -0.565306       -15.3828
 152   2.0000      -0.560740       -15.2585
 153   2.0000      -0.551875       -15.0173
 154   2.0000      -0.550148       -14.9703
 155   2.0000      -0.548906       -14.9365
 156   2.0000      -0.546546       -14.8723
 157   2.0000      -0.544238       -14.8095
 158   2.0000      -0.539929       -14.6922
 159   2.0000      -0.534928       -14.5561
 160   2.0000      -0.530976       -14.4486
 161   2.0000      -0.526503       -14.3269
 162   2.0000      -0.525084       -14.2883
 163   2.0000      -0.524789       -14.2802
 164   2.0000      -0.521587       -14.1931
 165   2.0000      -0.517699       -14.0873
 166   2.0000      -0.510634       -13.8951
 167   2.0000      -0.507652       -13.8139
 168   2.0000      -0.506805       -13.7909
 169   2.0000      -0.498598       -13.5675
 170   2.0000      -0.497704       -13.5432
 171   2.0000      -0.491514       -13.3748
 172   2.0000      -0.490179       -13.3385
 173   2.0000      -0.485544       -13.2123
 174   2.0000      -0.480907       -13.0862
 175   2.0000      -0.480164       -13.0659
 176   2.0000      -0.478698       -13.0260
 177   2.0000      -0.476529       -12.9670
 178   2.0000      -0.472297       -12.8519
 179   2.0000      -0.470620       -12.8062
 180   2.0000      -0.466811       -12.7026
 181   2.0000      -0.464712       -12.6455
 182   2.0000      -0.461751       -12.5649
 183   2.0000      -0.455756       -12.4018
 184   2.0000      -0.453892       -12.3510
 185   2.0000      -0.447864       -12.1870
 186   2.0000      -0.446108       -12.1392
 187   2.0000      -0.445735       -12.1291
 188   2.0000      -0.444881       -12.1058
 189   2.0000      -0.442912       -12.0523
 190   2.0000      -0.432424       -11.7669
 191   2.0000      -0.428384       -11.6569
 192   2.0000      -0.426673       -11.6104
 193   2.0000      -0.424979       -11.5643
 194   2.0000      -0.421618       -11.4728
 195   2.0000      -0.414408       -11.2766
 196   2.0000      -0.407828       -11.0976
 197   2.0000      -0.400675       -10.9029
 198   2.0000      -0.393805       -10.7160
 199   2.0000      -0.391157       -10.6439
 200   2.0000      -0.389902       -10.6098
 201   2.0000      -0.387476       -10.5438
 202   2.0000      -0.387111       -10.5338
 203   2.0000      -0.382040       -10.3958
 204   2.0000      -0.377296       -10.2667
 205   2.0000      -0.376109       -10.2344
 206   2.0000      -0.373775       -10.1709
 207   2.0000      -0.371076       -10.0975
 208   2.0000      -0.369923       -10.0661
 209   2.0000      -0.367817       -10.0088
 210   2.0000      -0.366142        -9.9632
 211   2.0000      -0.362558        -9.8657
 212   2.0000      -0.357925        -9.7396
 213   2.0000      -0.353132        -9.6092
 214   2.0000      -0.352889        -9.6026
 215   2.0000      -0.341639        -9.2965
 216   2.0000      -0.336355        -9.1527
 217   2.0000      -0.327799        -8.9199
 218   2.0000      -0.310429        -8.4472
 219   2.0000      -0.297198        -8.0872
 220   2.0000      -0.287782        -7.8309
 221   2.0000      -0.242984        -6.6119
 222   0.0000      -0.144299        -3.9266
 223   0.0000      -0.116342        -3.1658
 224   0.0000      -0.079492        -2.1631
 225   0.0000      -0.061940        -1.6855
 226   0.0000      -0.054100        -1.4721

MULLIKEN ATOMIC CHARGES
-----------------------
   0 C :    0.154878
   1 O :   -0.149864
   2 C :    0.044857
   3 C :    0.082394
   4 C :   -0.030402
   5 N :    0.282806
   6 O :   -0.258481
   7 O :   -0.235984
   8 C :    0.031966
   9 C :    0.115816
  10 N :    0.264320
  11 O :   -0.241904
  12 O :   -0.239729
  13 C :    0.021321
  14 C :    0.008407
  15 C :    0.049038
  16 C :    0.008971
  17 C :   -0.015289
  18 C :    0.029661
  19 C :    0.078656
  20 N :    0.274879
  21 O :   -0.253516
  22 O :   -0.267214
  23 C :    0.047594
  24 C :   -0.043192
  25 C :   -0.037892
  26 C :    0.114106
  27 N :   -0.252074
  28 C :    0.095094
  29 C :    0.004746
  30 C :    0.175214
  31 O :   -0.228162
  32 C :   -0.081359
  33 C :   -0.027738
  34 C :    0.164641
  35 O :   -0.166635
  36 N :   -0.262714
  37 C :    0.095591
  38 C :    0.001725
  39 C :    0.162589
  40 C :   -0.045495
  41 C :    0.007891
  42 C :   -0.070750
  43 S :    0.190432
  44 C :   -0.101048
  45 C :    0.125968
  46 C :    0.115192
  47 C :   -0.050927
  48 C :   -0.067375
  49 C :   -0.169789
  50 N :    0.188446
  51 C :   -0.061999
  52 C :   -0.177615
  53 N :    0.182090
  54 C :   -0.052429
  55 C :    0.148283
  56 O :   -0.171427
  57 C :    0.118028
  58 C :    0.139914
  59 C :   -0.077117
  60 N :    0.262172
  61 O :   -0.236907
  62 O :   -0.230841
  63 H :    0.024904
  64 H :    0.006681
  65 H :   -0.007974
  66 H :   -0.004234
  67 H :   -0.002312
  68 H :    0.006937
  69 H :    0.016254
  70 H :    0.060304
  71 H :    0.034760
  72 H :    0.044654
  73 H :    0.028047
  74 H :    0.036843
  75 H :    0.022289
  76 H :    0.024278
  77 H :    0.053540
  78 H :    0.013273
  79 H :    0.031326
  80 H :    0.035838
  81 H :   -0.023703
  82 H :    0.025609
  83 H :    0.024737
  84 H :    0.005446
  85 H :    0.043115
  86 H :    0.017568
Sum of atomic charges:   -0.0000000

LOEWDIN ATOMIC CHARGES
----------------------
   0 C :    0.051523
   1 O :    0.057411
   2 C :    0.053769
   3 C :   -0.079694
   4 C :   -0.049647
   5 N :    0.293240
   6 O :   -0.216104
   7 O :   -0.197851
   8 C :   -0.038954
   9 C :    0.002769
  10 N :    0.284127
  11 O :   -0.204767
  12 O :   -0.205474
  13 C :   -0.010348
  14 C :   -0.018756
  15 C :    0.027819
  16 C :    0.056918
  17 C :   -0.060886
  18 C :    0.040751
  19 C :   -0.070231
  20 N :    0.286480
  21 O :   -0.217697
  22 O :   -0.234442
  23 C :    0.022403
  24 C :   -0.007148
  25 C :    0.014844
  26 C :    0.051091
  27 N :    0.006117
  28 C :    0.037598
  29 C :   -0.059078
  30 C :    0.080999
  31 O :   -0.213387
  32 C :   -0.126037
  33 C :   -0.078097
  34 C :    0.088942
  35 O :   -0.165787
  36 N :   -0.001606
  37 C :    0.037524
  38 C :   -0.059877
  39 C :    0.093370
  40 C :   -0.061794
  41 C :    0.025332
  42 C :   -0.173331
  43 S :    0.510432
  44 C :   -0.164754
  45 C :   -0.042048
  46 C :   -0.022685
  47 C :    0.038585
  48 C :   -0.041907
  49 C :   -0.031715
  50 N :   -0.022082
  51 C :   -0.047527
  52 C :   -0.032766
  53 N :   -0.027167
  54 C :    0.032424
  55 C :    0.012721
  56 O :    0.045488
  57 C :    0.090498
  58 C :   -0.074380
  59 C :   -0.036710
  60 N :    0.283686
  61 O :   -0.199738
  62 O :   -0.196040
  63 H :    0.031248
  64 H :    0.044111
  65 H :    0.034806
  66 H :    0.030552
  67 H :    0.029453
  68 H :    0.040368
  69 H :    0.036089
  70 H :    0.051836
  71 H :    0.026369
  72 H :    0.038141
  73 H :    0.025608
  74 H :    0.038206
  75 H :    0.030022
  76 H :    0.023661
  77 H :    0.041566
  78 H :    0.020864
  79 H :    0.034073
  80 H :    0.034942
  81 H :    0.023594
  82 H :    0.044994
  83 H :    0.053882
  84 H :    0.041996
  85 H :    0.043827
  86 H :    0.043442

  Mayer bond orders larger than 0.100000
B(  0-C ,  1-O ) :   1.1150 B(  0-C ,  4-C ) :   1.5327 B(  0-C , 63-H ) :   1.0089
B(  1-O ,  2-C ) :   1.2459 B(  2-C ,  3-C ) :   1.4907 B(  2-C ,  8-C ) :   0.9448
B(  3-C ,  4-C ) :   1.2209 B(  3-C ,  5-N ) :   0.9431 B(  4-C , 64-H ) :   1.0125
B(  5-N ,  6-O ) :   1.4787 B(  5-N ,  7-O ) :   1.5448 B(  6-O ,  7-O ) :   0.2568
B(  8-C ,  9-C ) :   1.5908 B(  8-C , 15-C ) :   1.1544 B(  9-C , 10-N ) :   0.9236
B(  9-C , 13-C ) :   1.1354 B( 10-N , 11-O ) :   1.5301 B( 10-N , 12-O ) :   1.5265
B( 11-O , 12-O ) :   0.2752 B( 13-C , 14-C ) :   1.5884 B( 13-C , 65-H ) :   1.0127
B( 14-C , 15-C ) :   1.1143 B( 14-C , 66-H ) :   0.9965 B( 15-C , 16-C ) :   1.4068
B( 16-C , 17-C ) :   1.2064 B( 16-C , 23-C ) :   0.9991 B( 17-C , 18-C ) :   1.4913
B( 17-C , 67-H ) :   1.0095 B( 18-C , 19-C ) :   1.1751 B( 18-C , 68-H ) :   1.0100
B( 19-C , 20-N ) :   0.9673 B( 19-C , 23-C ) :   1.4091 B( 20-N , 21-O ) :   1.5311
B( 20-N , 22-O ) :   1.4830 B( 21-O , 22-O ) :   0.2478 B( 23-C , 24-C ) :   1.2776
B( 24-C , 25-C ) :   1.3960 B( 24-C , 69-H ) :   0.9534 B( 25-C , 26-C ) :   1.2754
B( 25-C , 70-H ) :   0.9150 B( 26-C , 27-N ) :   1.1523 B( 26-C , 33-C ) :   1.2962
B( 27-N , 28-C ) :   0.9308 B( 27-N , 30-C ) :   1.0957 B( 28-C , 29-C ) :   1.1197
B( 28-C , 71-H ) :   0.9508 B( 28-C , 72-H ) :   0.9255 B( 29-C , 73-H ) :   0.9677
B( 29-C , 74-H ) :   0.9673 B( 29-C , 75-H ) :   0.9618 B( 30-C , 31-O ) :   1.9716
B( 30-C , 32-C ) :   0.9958 B( 31-O , 82-H ) :   0.1170 B( 32-C , 33-C ) :   1.3105
B( 32-C , 39-C ) :   1.2513 B( 33-C , 34-C ) :   0.9586 B( 34-C , 35-O ) :   2.1247
B( 34-C , 36-N ) :   1.0285 B( 36-N , 37-C ) :   0.9388 B( 36-N , 39-C ) :   1.1821
B( 37-C , 38-C ) :   1.1197 B( 37-C , 76-H ) :   0.9501 B( 37-C , 77-H ) :   0.9284
B( 38-C , 78-H ) :   0.9687 B( 38-C , 79-H ) :   0.9681 B( 38-C , 80-H ) :   0.9641
B( 39-C , 40-C ) :   1.2173 B( 40-C , 41-C ) :   1.4961 B( 40-C , 81-H ) :   0.9682
B( 41-C , 42-C ) :   1.2419 B( 41-C , 82-H ) :   0.9392 B( 42-C , 43-S ) :   1.1049
B( 42-C , 44-C ) :   0.1119 B( 42-C , 46-C ) :   1.2843 B( 43-S , 44-C ) :   1.2020
B( 44-C , 45-C ) :   1.3204 B( 44-C , 55-C ) :   1.1143 B( 45-C , 46-C ) :   1.1917
B( 45-C , 54-C ) :   1.2005 B( 46-C , 47-C ) :   1.2179 B( 47-C , 48-C ) :   1.5468
B( 47-C , 83-H ) :   0.9921 B( 48-C , 49-C ) :   1.0871 B( 48-C , 51-C ) :   1.2432
B( 49-C , 50-N ) :   3.0416 B( 51-C , 52-C ) :   1.0766 B( 51-C , 54-C ) :   1.5532
B( 52-C , 53-N ) :   3.0482 B( 54-C , 84-H ) :   0.9954 B( 55-C , 56-O ) :   1.1318
B( 55-C , 59-C ) :   1.4623 B( 56-O , 57-C ) :   1.1837 B( 57-C , 58-C ) :   1.4848
B( 57-C , 85-H ) :   0.9980 B( 58-C , 59-C ) :   1.2486 B( 58-C , 60-N ) :   0.9078
B( 59-C , 86-H ) :   1.0085 B( 60-N , 61-O ) :   1.5487 B( 60-N , 62-O ) :   1.5556
B( 61-O , 62-O ) :   0.2798

-----------------------------------------------------------------------------
         ABSORPTION SPECTRUM VIA TRANSITION ELECTRIC DIPOLE MOMENTS
-----------------------------------------------------------------------------
State   Energy  Wavelength   fosc         T2         TX        TY        TZ
        (cm-1)    (nm)                  (au**2)     (au)      (au)      (au)
-----------------------------------------------------------------------------
   0    5696.2   1755.6   0.279257458  16.13972  -1.80911  -3.58339  -0.16166
   1   12790.5    781.8   0.405075704  10.42613   1.10653   2.74593   1.28903
   2   13694.7    730.2   0.020522478   0.49335  -0.17353   0.65204   0.19514
   3   17521.6    570.7   0.139120981   2.61393   0.32402   1.53883   0.37544
   4   19010.0    526.0   0.261694978   4.53199   0.86541   1.94023   0.13626
   5   20266.7    493.4   0.088793049   1.44236   0.06072   1.10479  -0.46701
   6   22992.1    434.9   0.145944212   2.08970   0.47879  -0.21975  -1.34617
   7   23243.8    430.2   0.067349476   0.95390   0.05891  -0.05870  -0.97313
   8   23408.7    427.2   0.020124645   0.28303   0.07768  -0.03709   0.52499
   9   23904.9    418.3   0.013940345   0.19198  -0.20797  -0.22734  -0.31152
  10   24766.6    403.8   0.013152670   0.17483  -0.37623  -0.11003   0.14553
  11   25116.3    398.1   0.026686660   0.34980   0.15428   0.43208   0.37323
  12   25287.1    395.5   0.024794473   0.32280   0.21450  -0.22305  -0.47648
  13   26472.3    377.8   0.000242464   0.00302  -0.04073  -0.02788   0.02406
  14   26922.2    371.4   0.009848740   0.12043  -0.01403   0.31016   0.15504
  15   27640.4    361.8   0.101087361   1.20401  -0.35049  -1.00929   0.25000
  16   28013.6    357.0   0.209031620   2.45651   0.07338  -0.99904  -1.20542
  17   28416.8    351.9   0.038683598   0.44815  -0.12874   0.21079   0.62221
  18   28431.2    351.7   0.025717458   0.29779   0.13760  -0.02841  -0.52730
  19   29518.5    338.8   0.132037991   1.47258   0.09312  -0.84090  -0.86995
  20   29945.8    333.9   0.016944305   0.18628   0.01197   0.24942  -0.35203
  21   30028.2    333.0   0.012066933   0.13229   0.28246  -0.19193   0.12519
  22   30508.6    327.8   0.079493310   0.85779  -0.23156   0.62015   0.64776
  23   30631.2    326.5   0.007890967   0.08481  -0.24969  -0.12752  -0.07874
  24   31315.8    319.3   0.006166912   0.06483  -0.17169  -0.18085  -0.05146
  25   31490.1    317.6   0.016733535   0.17494   0.11725   0.30683   0.25893
  26   31726.4    315.2   0.019927288   0.20678   0.07995  -0.41992  -0.15510
  27   32015.7    312.3   0.038415034   0.39502  -0.34587  -0.45734   0.25734
  28   32134.8    311.2   0.025002099   0.25614  -0.49834   0.01648   0.08676
  29   32621.5    306.5   0.312759588   3.15633   0.69558   0.11554  -1.63069
  30   32783.9    305.0   0.395349558   3.97006  -0.16432  -0.12612   1.98170
  31   33068.0    302.4   0.072467756   0.72146   0.06194  -0.71221  -0.45867
  32   33236.8    300.9   0.026410246   0.26159   0.26395  -0.24869  -0.36066
  33   33412.5    299.3   0.048858200   0.48140  -0.18390  -0.27797   0.60853
  34   33601.0    297.6   0.120582527   1.18143  -0.12023   0.80756   0.71751
  35   33837.3    295.5   0.149001018   1.44967   0.27636  -0.93945  -0.70052
  36   34065.3    293.6   0.131202748   1.26796  -0.00725  -1.05837  -0.38439
  37   34231.7    292.1   0.087462478   0.84114   0.70065  -0.26952  -0.52686
  38   34824.3    287.2   0.000006956   0.00007  -0.00795  -0.00159  -0.00015
  39   34837.5    287.0   0.010389930   0.09818  -0.08761   0.23662   0.18579
  40   34959.1    286.0   0.041346680   0.38936  -0.06497  -0.48891  -0.38224
  41   35110.0    284.8   0.021419591   0.20084   0.36117   0.15012  -0.21878
  42   35648.7    280.5   0.073292514   0.67685   0.22790   0.46025  -0.64271
  43   35800.8    279.3   0.007138889   0.06565   0.23561   0.08142   0.05922
  44   36012.3    277.7   0.003295632   0.03013   0.04962   0.14233   0.08607
  45   36179.7    276.4   0.004503406   0.04098   0.08448   0.05107  -0.17673
  46   36597.4    273.2   0.007162311   0.06443  -0.07038   0.04573   0.23955
  47   37286.6    268.2   0.043260558   0.38196  -0.18820  -0.40158  -0.43043
  48   37563.4    266.2   0.047001635   0.41193  -0.23898  -0.24312  -0.54380
  49   37941.7    263.6   0.033101824   0.28722  -0.15677  -0.37144  -0.35309
  50   37980.3    263.3   0.015779398   0.13678   0.01981  -0.07364  -0.36188
  51   38517.8    259.6   0.008961185   0.07659   0.00656  -0.20221  -0.18884
  52   38916.8    257.0   0.047130033   0.39869  -0.11242  -0.53200  -0.32098
  53   38939.4    256.8   0.000079012   0.00067   0.02439  -0.00216   0.00827
  54   39081.6    255.9   0.160208305   1.34955   0.32611   1.03400   0.41719
  55   39195.4    255.1   0.067274474   0.56505   0.19610   0.11972  -0.71573
  56   39963.5    250.2   0.178335160   1.46909  -0.51323  -0.61424   0.91016
  57   40206.2    248.7   0.097216433   0.79602  -0.13267   0.05380   0.88064

FINAL SINGLE POINT ENERGY     -3349.583001325829

DIPOLE MOMENT
-------------
                                X             Y             Z
Electronic contribution:     -1.60427     -20.44628      -2.45977
Nuclear contribution   :      2.27819      19.86693      -0.22671
                        -----------------------------------------
Total Dipole Moment    :      0.67392      -0.57935      -2.68647
                        -----------------------------------------
Magnitude (a.u.)       :      2.82966
Magnitude (Debye)      :      7.19242

Rotational constants in cm-1:     0.002116     0.000491     0.000414
Rotational constants in MHz :    63.433455    14.725700    12.413303

                             ****ORCA TERMINATED NORMALLY****
TOTAL RUN TIME: 0 days 0 hours 10 minutes 57 seconds 864 msec
