                         Program Version 4.2.0 -  RELEASE  -
|  1> # ORCA input file
|  2> # SCF done       -200.190772757296          0.000267261987
|  3> ! CAM-B3LYP def2-SVP def2/J RIJCOSX Grid4 TightSCF
|  4> %maxcore 5000
|  5> %tddft
|  6>     Mode sTDDFT
|  7>     Ethresh 5.0
|  8>     maxcore 5000
|  9> end
| 10>
| 11> %pal
| 12>   nprocs 6
| 13>   end
| 14> * xyz 0 1
| 15>    C        1.61865         0.12808         0.65181
| 16>    C        1.90706        -0.00496         1.98325
| 17>    C        2.46242        -1.16798         2.55890
| 18>    N        2.92121        -2.07888         3.08509
| 19>    C        1.68172         0.98234         2.96663
| 20>    N        1.52342         1.73098         3.82215
| 21>    C        1.78474        -0.90187        -0.36420
| 22>    C        1.26789        -0.41371        -1.59851
| 23>    C        1.28368        -1.16884        -2.73676
| 24>    C        1.82423        -2.47249        -2.69146
| 25>    C        2.34964        -2.96629        -1.46187
| 26>    C        2.32179        -2.16111        -0.30059
| 27>    C        2.89388        -4.26651        -1.42984
| 28>    C        2.91698        -5.04355        -2.55591
| 29>    C        2.39787        -4.55712        -3.76536
| 30>    C        1.86262        -3.29942        -3.83161
| 31>    C        0.76243         0.95382        -1.42145
| 32>    O        0.32656         1.68080        -2.28698
| 33>    C        1.01807         1.28930         0.01452
| 34>    C        0.87392         2.52589         0.55417
| 35>    C        0.15248         3.58732        -0.06581
| 36>    S        0.68283         5.24105         0.07692
| 37>    C       -0.60725         5.82804        -0.93984
| 38>    C       -1.44325         4.78469        -1.29345
| 39>    C       -1.00982         3.53064        -0.80589
| 40>    C       -2.00424         2.48569        -1.09443
| 41>    O       -2.04286         1.35687        -0.68036
| 42>    C       -3.04142         3.15537        -1.98324
| 43>    C       -2.78025         4.65039        -1.89027
| 44>    O       -3.55898         5.52486        -2.17162
| 45>    C       -0.60840         7.22374        -1.24967
| 46>    N       -0.90675         7.80296        -2.45544
| 47>    C       -1.17456         7.14245        -3.71510
| 48>    C       -2.55215         7.49775        -4.26270
| 49>    C       -0.71581         9.20154        -2.41111
| 50>    O       -0.85126         9.92827        -3.37509
| 51>    C       -0.31153         9.47256        -1.05063
| 52>    C       -0.22743         8.23058        -0.37508
| 53>    C        0.18155         8.48192         0.99217
| 54>    O        0.39314         7.73581         1.92312
| 55>    N        0.31338         9.88075         1.05411
| 56>    C        0.76217        10.53661         2.26020
| 57>    C        2.25276        10.85994         2.21130
| 58>    C        0.04268        10.48070        -0.15314
| 59>    C        0.15035        11.87583        -0.37082
| 60>    C       -0.08807        12.44063        -1.58440
| 61>    C        0.06090        13.81996        -1.86675
| 62>    S       -0.29379        14.36392        -3.48764
| 63>    C        0.17632        16.00769        -3.14183
| 64>    C        0.54054        16.11327        -1.81520
| 65>    C        0.48877        14.89939        -1.09543
| 66>    C        0.91284        15.12563         0.28979
| 67>    O        0.95339        14.33756         1.20548
| 68>    C        1.30638        16.59025         0.37992
| 69>    C        0.87033        17.23689        -0.92315
| 70>    O        0.75403        18.41587        -1.13235
| 71>    C        0.14253        17.01437        -4.14581
| 72>    C        1.02878        18.04067        -4.23028
| 73>    C        0.95470        19.16942        -5.14203
| 74>    C       -0.15785        19.57663        -5.82852
| 75>    C       -0.19422        20.70689        -6.67253
| 76>    N       -0.28217        21.60758        -7.37843
| 77>    C       -1.41757        18.94330        -5.76830
| 78>    N       -2.46968        18.48426        -5.75963
| 79>    C        2.24352        19.84636        -5.12009
| 80>    C        3.08457        19.19151        -4.17509
| 81>    C        2.36470        18.06817        -3.55983
| 82>    O        2.80885        17.28319        -2.75052
| 83>    C        4.36222        19.61035        -3.93442
| 84>    C        4.86538        20.72628        -4.63854
| 85>    C        4.03195        21.38409        -5.58958
| 86>    C        2.71442        20.92632        -5.81952
| 87>    C        4.54710        22.49344        -6.29061
| 88>    C        5.82261        22.93414        -6.06377
| 89>    C        6.64182        22.28637        -5.12682
| 90>    C        6.17320        21.20657        -4.42878
| 91>    H        0.88422        -0.77559        -3.65977
| 92>    H        2.73266        -2.56158         0.61252
| 93>    H        3.29080        -4.63735        -0.49633
| 94>    H        3.33519        -6.03827        -2.52106
| 95>    H        2.42462        -5.18403        -4.64399
| 96>    H        1.46158        -2.91951        -4.75982
| 97>    H        1.34474         2.76365         1.49963
| 98>    H       -4.06390         2.89061        -1.71160
| 99>    H       -2.88142         2.82561        -3.01343
|100>    H       -1.07906         6.06527        -3.56882
|101>    H       -0.40880         7.47342        -4.42637
|102>    H       -3.32841         7.17935        -3.57340
|103>    H       -2.70086         6.99809        -5.21593
|104>    H       -2.62254         8.57095        -4.41344
|105>    H        0.56514         9.83519         3.07560
|106>    H        0.17843        11.44578         2.42148
|107>    H        2.82859         9.94951         2.06270
|108>    H        2.55577        11.31571         3.14930
|109>    H        2.47370        11.55293         1.40326
|110>    H        0.44694        12.49757         0.46073
|111>    H       -0.39857        11.81766        -2.41410
|112>    H        2.39449        16.66419         0.45979
|113>    H        0.88511        17.08255         1.25755
|114>    H       -0.63232        16.91024        -4.89518
|115>    H        4.97964        19.09748        -3.21195
|116>    H        2.11076        21.44036        -6.55066
|117>    H        3.91241        22.99012        -7.00963
|118>    H        6.20761        23.78522        -6.60510
|119>    H        7.64586        22.64719        -4.96121
|120>    H        6.79907        20.70387        -3.70604
|121> *
|122>
|123>                          ****END OF INPUT****

CARTESIAN COORDINATES (ANGSTROEM)
---------------------------------
  C      1.618650    0.128080    0.651810
  C      1.907060   -0.004960    1.983250
  C      2.462420   -1.167980    2.558900
  N      2.921210   -2.078880    3.085090
  C      1.681720    0.982340    2.966630
  N      1.523420    1.730980    3.822150
  C      1.784740   -0.901870   -0.364200
  C      1.267890   -0.413710   -1.598510
  C      1.283680   -1.168840   -2.736760
  C      1.824230   -2.472490   -2.691460
  C      2.349640   -2.966290   -1.461870
  C      2.321790   -2.161110   -0.300590
  C      2.893880   -4.266510   -1.429840
  C      2.916980   -5.043550   -2.555910
  C      2.397870   -4.557120   -3.765360
  C      1.862620   -3.299420   -3.831610
  C      0.762430    0.953820   -1.421450
  O      0.326560    1.680800   -2.286980
  C      1.018070    1.289300    0.014520
  C      0.873920    2.525890    0.554170
  C      0.152480    3.587320   -0.065810
  S      0.682830    5.241050    0.076920
  C     -0.607250    5.828040   -0.939840
  C     -1.443250    4.784690   -1.293450
  C     -1.009820    3.530640   -0.805890
  C     -2.004240    2.485690   -1.094430
  O     -2.042860    1.356870   -0.680360
  C     -3.041420    3.155370   -1.983240
  C     -2.780250    4.650390   -1.890270
  O     -3.558980    5.524860   -2.171620
  C     -0.608400    7.223740   -1.249670
  N     -0.906750    7.802960   -2.455440
  C     -1.174560    7.142450   -3.715100
  C     -2.552150    7.497750   -4.262700
  C     -0.715810    9.201540   -2.411110
  O     -0.851260    9.928270   -3.375090
  C     -0.311530    9.472560   -1.050630
  C     -0.227430    8.230580   -0.375080
  C      0.181550    8.481920    0.992170
  O      0.393140    7.735810    1.923120
  N      0.313380    9.880750    1.054110
  C      0.762170   10.536610    2.260200
  C      2.252760   10.859940    2.211300
  C      0.042680   10.480700   -0.153140
  C      0.150350   11.875830   -0.370820
  C     -0.088070   12.440630   -1.584400
  C      0.060900   13.819960   -1.866750
  S     -0.293790   14.363920   -3.487640
  C      0.176320   16.007690   -3.141830
  C      0.540540   16.113270   -1.815200
  C      0.488770   14.899390   -1.095430
  C      0.912840   15.125630    0.289790
  O      0.953390   14.337560    1.205480
  C      1.306380   16.590250    0.379920
  C      0.870330   17.236890   -0.923150
  O      0.754030   18.415870   -1.132350
  C      0.142530   17.014370   -4.145810
  C      1.028780   18.040670   -4.230280
  C      0.954700   19.169420   -5.142030
  C     -0.157850   19.576630   -5.828520
  C     -0.194220   20.706890   -6.672530
  N     -0.282170   21.607580   -7.378430
  C     -1.417570   18.943300   -5.768300
  N     -2.469680   18.484260   -5.759630
  C      2.243520   19.846360   -5.120090
  C      3.084570   19.191510   -4.175090
  C      2.364700   18.068170   -3.559830
  O      2.808850   17.283190   -2.750520
  C      4.362220   19.610350   -3.934420
  C      4.865380   20.726280   -4.638540
  C      4.031950   21.384090   -5.589580
  C      2.714420   20.926320   -5.819520
  C      4.547100   22.493440   -6.290610
  C      5.822610   22.934140   -6.063770
  C      6.641820   22.286370   -5.126820
  C      6.173200   21.206570   -4.428780
  H      0.884220   -0.775590   -3.659770
  H      2.732660   -2.561580    0.612520
  H      3.290800   -4.637350   -0.496330
  H      3.335190   -6.038270   -2.521060
  H      2.424620   -5.184030   -4.643990
  H      1.461580   -2.919510   -4.759820
  H      1.344740    2.763650    1.499630
  H     -4.063900    2.890610   -1.711600
  H     -2.881420    2.825610   -3.013430
  H     -1.079060    6.065270   -3.568820
  H     -0.408800    7.473420   -4.426370
  H     -3.328410    7.179350   -3.573400
  H     -2.700860    6.998090   -5.215930
  H     -2.622540    8.570950   -4.413440
  H      0.565140    9.835190    3.075600
  H      0.178430   11.445780    2.421480
  H      2.828590    9.949510    2.062700
  H      2.555770   11.315710    3.149300
  H      2.473700   11.552930    1.403260
  H      0.446940   12.497570    0.460730
  H     -0.398570   11.817660   -2.414100
  H      2.394490   16.664190    0.459790
  H      0.885110   17.082550    1.257550
  H     -0.632320   16.910240   -4.895180
  H      4.979640   19.097480   -3.211950
  H      2.110760   21.440360   -6.550660
  H      3.912410   22.990120   -7.009630
  H      6.207610   23.785220   -6.605100
  H      7.645860   22.647190   -4.961210
  H      6.799070   20.703870   -3.706040

 Total Charge           Charge          ....    0
 Multiplicity           Mult            ....    1
 Number of Electrons    NEL             ....  528
 Basis Dimension        Dim             .... 1222

ORBITAL ENERGIES
----------------

  NO   OCC          E(Eh)            E(eV)
   0   2.0000     -88.992505     -2421.6092
   1   2.0000     -88.991819     -2421.5905
   2   2.0000     -19.230160      -523.2793
   3   2.0000     -19.225292      -523.1468
   4   2.0000     -19.223528      -523.0988
   5   2.0000     -19.222130      -523.0607
   6   2.0000     -19.221405      -523.0410
   7   2.0000     -19.220383      -523.0132
   8   2.0000     -19.199556      -522.4465
   9   2.0000     -19.197121      -522.3802
  10   2.0000     -14.463745      -393.5785
  11   2.0000     -14.459213      -393.4552
  12   2.0000     -14.419778      -392.3821
  13   2.0000     -14.419352      -392.3705
  14   2.0000     -14.419306      -392.3693
  15   2.0000     -14.419055      -392.3624
  16   2.0000     -10.383589      -282.5518
  17   2.0000     -10.382048      -282.5099
  18   2.0000     -10.381609      -282.4979
  19   2.0000     -10.379644      -282.4445
  20   2.0000     -10.376367      -282.3553
  21   2.0000     -10.375485      -282.3313
  22   2.0000     -10.375008      -282.3183
  23   2.0000     -10.374440      -282.3029
  24   2.0000     -10.355293      -281.7818
  25   2.0000     -10.349074      -281.6126
  26   2.0000     -10.348408      -281.5945
  27   2.0000     -10.348242      -281.5900
  28   2.0000     -10.347128      -281.5597
  29   2.0000     -10.345359      -281.5115
  30   2.0000     -10.344924      -281.4997
  31   2.0000     -10.344747      -281.4949
  32   2.0000     -10.335887      -281.2538
  33   2.0000     -10.335783      -281.2510
  34   2.0000     -10.329822      -281.0887
  35   2.0000     -10.328705      -281.0584
  36   2.0000     -10.321982      -280.8754
  37   2.0000     -10.321608      -280.8652
  38   2.0000     -10.321313      -280.8572
  39   2.0000     -10.321262      -280.8558
  40   2.0000     -10.310871      -280.5731
  41   2.0000     -10.310842      -280.5723
  42   2.0000     -10.308419      -280.5063
  43   2.0000     -10.307620      -280.4846
  44   2.0000     -10.307457      -280.4802
  45   2.0000     -10.306996      -280.4676
  46   2.0000     -10.306881      -280.4645
  47   2.0000     -10.306270      -280.4479
  48   2.0000     -10.305281      -280.4209
  49   2.0000     -10.304386      -280.3966
  50   2.0000     -10.303377      -280.3691
  51   2.0000     -10.302109      -280.3346
  52   2.0000     -10.301897      -280.3289
  53   2.0000     -10.301611      -280.3211
  54   2.0000     -10.301572      -280.3200
  55   2.0000     -10.301401      -280.3154
  56   2.0000     -10.301012      -280.3048
  57   2.0000     -10.300971      -280.3037
  58   2.0000     -10.300393      -280.2879
  59   2.0000     -10.298222      -280.2289
  60   2.0000     -10.293488      -280.1001
  61   2.0000     -10.292666      -280.0777
  62   2.0000     -10.290520      -280.0193
  63   2.0000     -10.290149      -280.0092
  64   2.0000     -10.290035      -280.0061
  65   2.0000     -10.289671      -279.9962
  66   2.0000     -10.289645      -279.9955
  67   2.0000     -10.289230      -279.9842
  68   2.0000     -10.289109      -279.9809
  69   2.0000     -10.288710      -279.9700
  70   2.0000     -10.288512      -279.9646
  71   2.0000     -10.286700      -279.9153
  72   2.0000     -10.273123      -279.5459
  73   2.0000     -10.270253      -279.4678
  74   2.0000     -10.261196      -279.2213
  75   2.0000     -10.242649      -278.7167
  76   2.0000      -8.087215      -220.0643
  77   2.0000      -8.087035      -220.0594
  78   2.0000      -6.056365      -164.8021
  79   2.0000      -6.056079      -164.7943
  80   2.0000      -6.051914      -164.6809
  81   2.0000      -6.051854      -164.6793
  82   2.0000      -6.049830      -164.6242
  83   2.0000      -6.049675      -164.6200
  84   2.0000      -1.147213       -31.2173
  85   2.0000      -1.144644       -31.1473
  86   2.0000      -1.143109       -31.1056
  87   2.0000      -1.141551       -31.0632
  88   2.0000      -1.140710       -31.0403
  89   2.0000      -1.134335       -30.8668
  90   2.0000      -1.133787       -30.8519
  91   2.0000      -1.132927       -30.8285
  92   2.0000      -1.072548       -29.1855
  93   2.0000      -1.063704       -28.9449
  94   2.0000      -1.024073       -27.8664
  95   2.0000      -1.023123       -27.8406
  96   2.0000      -1.020502       -27.7693
  97   2.0000      -1.018851       -27.7243
  98   2.0000      -1.002804       -27.2877
  99   2.0000      -1.002288       -27.2736
 100   2.0000      -0.997854       -27.1530
 101   2.0000      -0.997454       -27.1421
 102   2.0000      -0.976256       -26.5653
 103   2.0000      -0.975648       -26.5487
 104   2.0000      -0.938936       -25.5497
 105   2.0000      -0.937197       -25.5024
 106   2.0000      -0.935733       -25.4626
 107   2.0000      -0.933075       -25.3903
 108   2.0000      -0.927951       -25.2508
 109   2.0000      -0.923477       -25.1291
 110   2.0000      -0.915288       -24.9063
 111   2.0000      -0.903609       -24.5885
 112   2.0000      -0.891119       -24.2486
 113   2.0000      -0.886301       -24.1175
 114   2.0000      -0.884547       -24.0697
 115   2.0000      -0.882600       -24.0168
 116   2.0000      -0.872571       -23.7439
 117   2.0000      -0.854620       -23.2554
 118   2.0000      -0.845797       -23.0153
 119   2.0000      -0.833601       -22.6834
 120   2.0000      -0.832639       -22.6573
 121   2.0000      -0.832523       -22.6541
 122   2.0000      -0.832045       -22.6411
 123   2.0000      -0.819412       -22.2973
 124   2.0000      -0.813516       -22.1369
 125   2.0000      -0.804831       -21.9006
 126   2.0000      -0.786659       -21.4061
 127   2.0000      -0.777009       -21.1435
 128   2.0000      -0.766515       -20.8579
 129   2.0000      -0.766114       -20.8470
 130   2.0000      -0.758212       -20.6320
 131   2.0000      -0.739350       -20.1187
 132   2.0000      -0.734927       -19.9984
 133   2.0000      -0.726402       -19.7664
 134   2.0000      -0.714013       -19.4293
 135   2.0000      -0.709251       -19.2997
 136   2.0000      -0.708222       -19.2717
 137   2.0000      -0.707524       -19.2527
 138   2.0000      -0.706598       -19.2275
 139   2.0000      -0.703939       -19.1551
 140   2.0000      -0.701535       -19.0898
 141   2.0000      -0.697002       -18.9664
 142   2.0000      -0.692147       -18.8343
 143   2.0000      -0.682635       -18.5755
 144   2.0000      -0.680337       -18.5129
 145   2.0000      -0.670586       -18.2476
 146   2.0000      -0.659557       -17.9474
 147   2.0000      -0.653178       -17.7739
 148   2.0000      -0.650644       -17.7049
 149   2.0000      -0.645699       -17.5704
 150   2.0000      -0.638354       -17.3705
 151   2.0000      -0.634316       -17.2606
 152   2.0000      -0.622166       -16.9300
 153   2.0000      -0.613493       -16.6940
 154   2.0000      -0.611087       -16.6285
 155   2.0000      -0.610283       -16.6066
 156   2.0000      -0.607647       -16.5349
 157   2.0000      -0.600712       -16.3462
 158   2.0000      -0.593126       -16.1398
 159   2.0000      -0.586310       -15.9543
 160   2.0000      -0.584187       -15.8965
 161   2.0000      -0.577434       -15.7128
 162   2.0000      -0.576339       -15.6830
 163   2.0000      -0.574954       -15.6453
 164   2.0000      -0.573674       -15.6105
 165   2.0000      -0.569160       -15.4876
 166   2.0000      -0.566785       -15.4230
 167   2.0000      -0.562327       -15.3017
 168   2.0000      -0.560531       -15.2528
 169   2.0000      -0.554614       -15.0918
 170   2.0000      -0.554463       -15.0877
 171   2.0000      -0.550691       -14.9851
 172   2.0000      -0.550438       -14.9782
 173   2.0000      -0.544600       -14.8193
 174   2.0000      -0.544383       -14.8134
 175   2.0000      -0.541084       -14.7236
 176   2.0000      -0.539571       -14.6825
 177   2.0000      -0.539170       -14.6716
 178   2.0000      -0.534902       -14.5554
 179   2.0000      -0.529720       -14.4144
 180   2.0000      -0.528650       -14.3853
 181   2.0000      -0.527672       -14.3587
 182   2.0000      -0.525816       -14.3082
 183   2.0000      -0.525430       -14.2977
 184   2.0000      -0.524072       -14.2607
 185   2.0000      -0.523251       -14.2384
 186   2.0000      -0.522563       -14.2197
 187   2.0000      -0.519807       -14.1447
 188   2.0000      -0.518235       -14.1019
 189   2.0000      -0.517330       -14.0773
 190   2.0000      -0.516020       -14.0416
 191   2.0000      -0.512221       -13.9382
 192   2.0000      -0.510349       -13.8873
 193   2.0000      -0.509352       -13.8602
 194   2.0000      -0.507999       -13.8234
 195   2.0000      -0.504797       -13.7362
 196   2.0000      -0.503424       -13.6989
 197   2.0000      -0.502387       -13.6706
 198   2.0000      -0.501775       -13.6540
 199   2.0000      -0.494056       -13.4439
 200   2.0000      -0.493741       -13.4354
 201   2.0000      -0.492503       -13.4017
 202   2.0000      -0.491195       -13.3661
 203   2.0000      -0.488953       -13.3051
 204   2.0000      -0.485478       -13.2105
 205   2.0000      -0.479656       -13.0521
 206   2.0000      -0.476961       -12.9788
 207   2.0000      -0.475519       -12.9395
 208   2.0000      -0.470018       -12.7898
 209   2.0000      -0.469433       -12.7739
 210   2.0000      -0.469154       -12.7663
 211   2.0000      -0.462969       -12.5980
 212   2.0000      -0.461675       -12.5628
 213   2.0000      -0.455645       -12.3987
 214   2.0000      -0.454263       -12.3611
 215   2.0000      -0.452508       -12.3134
 216   2.0000      -0.451964       -12.2986
 217   2.0000      -0.449124       -12.2213
 218   2.0000      -0.448133       -12.1943
 219   2.0000      -0.447405       -12.1745
 220   2.0000      -0.446555       -12.1514
 221   2.0000      -0.444201       -12.0873
 222   2.0000      -0.443645       -12.0722
 223   2.0000      -0.442555       -12.0425
 224   2.0000      -0.441112       -12.0033
 225   2.0000      -0.440100       -11.9757
 226   2.0000      -0.437841       -11.9143
 227   2.0000      -0.437357       -11.9011
 228   2.0000      -0.432085       -11.7576
 229   2.0000      -0.431664       -11.7462
 230   2.0000      -0.429930       -11.6990
 231   2.0000      -0.429525       -11.6880
 232   2.0000      -0.425992       -11.5918
 233   2.0000      -0.424082       -11.5399
 234   2.0000      -0.423433       -11.5222
 235   2.0000      -0.420293       -11.4367
 236   2.0000      -0.416886       -11.3441
 237   2.0000      -0.414247       -11.2722
 238   2.0000      -0.411901       -11.2084
 239   2.0000      -0.410661       -11.1747
 240   2.0000      -0.405380       -11.0310
 241   2.0000      -0.390576       -10.6281
 242   2.0000      -0.381948       -10.3933
 243   2.0000      -0.379477       -10.3261
 244   2.0000      -0.364201        -9.9104
 245   2.0000      -0.359772        -9.7899
 246   2.0000      -0.359402        -9.7798
 247   2.0000      -0.358485        -9.7549
 248   2.0000      -0.356959        -9.7133
 249   2.0000      -0.349492        -9.5101
 250   2.0000      -0.347078        -9.4445
 251   2.0000      -0.342744        -9.3265
 252   2.0000      -0.342281        -9.3139
 253   2.0000      -0.334410        -9.0998
 254   2.0000      -0.331331        -9.0160
 255   2.0000      -0.329661        -8.9705
 256   2.0000      -0.322259        -8.7691
 257   2.0000      -0.321916        -8.7598
 258   2.0000      -0.321318        -8.7435
 259   2.0000      -0.308814        -8.4033
 260   2.0000      -0.302555        -8.2329
 261   2.0000      -0.295828        -8.0499
 262   2.0000      -0.292627        -7.9628
 263   2.0000      -0.248077        -6.7505
 264   0.0000      -0.118002        -3.2110
 265   0.0000      -0.103347        -2.8122
 266   0.0000      -0.084754        -2.3063
 267   0.0000      -0.066187        -1.8010
 268   0.0000      -0.064873        -1.7653

MULLIKEN ATOMIC CHARGES
-----------------------
   0 C :    0.304585
   1 C :   -0.337340
   2 C :   -0.182945
   3 N :    0.155294
   4 C :   -0.202120
   5 N :    0.168941
   6 C :    0.056890
   7 C :   -0.009797
   8 C :   -0.076354
   9 C :    0.099953
  10 C :    0.098681
  11 C :   -0.086789
  12 C :   -0.018417
  13 C :    0.039451
  14 C :    0.035471
  15 C :   -0.015780
  16 C :    0.170238
  17 O :   -0.156333
  18 C :   -0.052247
  19 C :    0.003109
  20 C :   -0.154738
  21 S :    0.275211
  22 C :   -0.259536
  23 C :    0.066005
  24 C :    0.065934
  25 C :    0.043558
  26 O :   -0.143241
  27 C :    0.052954
  28 C :    0.016196
  29 O :   -0.140006
  30 C :    0.147613
  31 N :   -0.249096
  32 C :    0.123144
  33 C :   -0.018232
  34 C :    0.175053
  35 O :   -0.207250
  36 C :   -0.064372
  37 C :   -0.069696
  38 C :    0.148307
  39 O :   -0.184026
  40 N :   -0.263917
  41 C :    0.098897
  42 C :    0.008957
  43 C :    0.137568
  44 C :   -0.021814
  45 C :    0.074386
  46 C :   -0.139090
  47 S :    0.221215
  48 C :   -0.166250
  49 C :    0.085297
  50 C :    0.004189
  51 C :    0.038028
  52 O :   -0.159347
  53 C :    0.069157
  54 C :    0.038497
  55 O :   -0.142104
  56 C :    0.006637
  57 C :   -0.056759
  58 C :    0.294761
  59 C :   -0.330596
  60 C :   -0.181438
  61 N :    0.153562
  62 C :   -0.203252
  63 N :    0.164521
  64 C :    0.056971
  65 C :   -0.009757
  66 C :    0.174019
  67 O :   -0.159924
  68 C :   -0.077022
  69 C :    0.100866
  70 C :    0.098703
  71 C :   -0.084718
  72 C :   -0.020310
  73 C :    0.037621
  74 C :    0.037883
  75 C :   -0.017736
  76 H :   -0.014636
  77 H :   -0.006997
  78 H :   -0.008526
  79 H :   -0.003455
  80 H :   -0.003111
  81 H :   -0.017329
  82 H :    0.035653
  83 H :    0.056210
  84 H :    0.077844
  85 H :    0.021267
  86 H :    0.023910
  87 H :    0.042889
  88 H :    0.008184
  89 H :    0.037161
  90 H :    0.042585
  91 H :    0.039154
  92 H :    0.023968
  93 H :    0.026404
  94 H :    0.017166
  95 H :   -0.009268
  96 H :    0.002626
  97 H :    0.080453
  98 H :    0.058510
  99 H :    0.034225
 100 H :   -0.013524
 101 H :   -0.006825
 102 H :   -0.007052
 103 H :   -0.003175
 104 H :   -0.003887
 105 H :   -0.016395
Sum of atomic charges:   -0.0000000

LOEWDIN ATOMIC CHARGES
----------------------
   0 C :    0.074071
   1 C :   -0.128027
   2 C :   -0.016367
   3 N :   -0.047409
   4 C :   -0.023497
   5 N :   -0.041510
   6 C :   -0.023686
   7 C :   -0.053010
   8 C :    0.036128
   9 C :   -0.007605
  10 C :   -0.004379
  11 C :    0.020526
  12 C :   -0.004638
  13 C :   -0.011293
  14 C :   -0.011152
  15 C :   -0.008657
  16 C :    0.094224
  17 O :   -0.140640
  18 C :   -0.060254
  19 C :    0.042736
  20 C :   -0.154233
  21 S :    0.551794
  22 C :   -0.141952
  23 C :   -0.089533
  24 C :   -0.060546
  25 C :    0.085063
  26 O :   -0.125539
  27 C :   -0.065834
  28 C :    0.082126
  29 O :   -0.119479
  30 C :    0.046064
  31 N :    0.010803
  32 C :    0.042691
  33 C :   -0.067239
  34 C :    0.084155
  35 O :   -0.193927
  36 C :   -0.118762
  37 C :   -0.119826
  38 C :    0.075235
  39 O :   -0.189367
  40 N :    0.000915
  41 C :    0.038150
  42 C :   -0.058673
  43 C :    0.083584
  44 C :   -0.017488
  45 C :   -0.002974
  46 C :   -0.124016
  47 S :    0.510592
  48 C :   -0.160229
  49 C :   -0.052843
  50 C :   -0.091805
  51 C :    0.088434
  52 O :   -0.137287
  53 C :   -0.063400
  54 C :    0.085168
  55 O :   -0.124943
  56 C :    0.042758
  57 C :   -0.062470
  58 C :    0.074393
  59 C :   -0.129212
  60 C :   -0.016699
  61 N :   -0.047713
  62 C :   -0.023095
  63 N :   -0.044910
  64 C :   -0.023756
  65 C :   -0.052879
  66 C :    0.095289
  67 O :   -0.140683
  68 C :    0.035817
  69 C :   -0.007683
  70 C :   -0.004404
  71 C :    0.020487
  72 C :   -0.004921
  73 C :   -0.011197
  74 C :   -0.010990
  75 C :   -0.008819
  76 H :    0.038687
  77 H :    0.039375
  78 H :    0.035144
  79 H :    0.033934
  80 H :    0.033463
  81 H :    0.031994
  82 H :    0.048365
  83 H :    0.055662
  84 H :    0.069391
  85 H :    0.025249
  86 H :    0.029678
  87 H :    0.025404
  88 H :    0.025945
  89 H :    0.027764
  90 H :    0.038001
  91 H :    0.029989
  92 H :    0.029264
  93 H :    0.033204
  94 H :    0.023061
  95 H :    0.031031
  96 H :    0.036163
  97 H :    0.071749
  98 H :    0.057080
  99 H :    0.047377
 100 H :    0.038897
 101 H :    0.039439
 102 H :    0.035382
 103 H :    0.033935
 104 H :    0.033407
 105 H :    0.032209

  Mayer bond orders larger than 0.100000
B(  0-C ,  1-C ) :   1.6520 B(  0-C ,  6-C ) :   0.9965 B(  0-C , 18-C ) :   1.0593
B(  1-C ,  2-C ) :   1.1455 B(  1-C ,  4-C ) :   1.1399 B(  2-C ,  3-N ) :   2.9666
B(  4-C ,  5-N ) :   2.9873 B(  6-C ,  7-C ) :   1.2124 B(  6-C , 11-C ) :   1.4432
B(  7-C ,  8-C ) :   1.4669 B(  7-C , 16-C ) :   0.9547 B(  8-C ,  9-C ) :   1.1829
B(  8-C , 76-H ) :   1.0158 B(  9-C , 10-C ) :   1.2537 B(  9-C , 15-C ) :   1.2423
B( 10-C , 11-C ) :   1.2091 B( 10-C , 12-C ) :   1.2392 B( 11-C , 77-H ) :   0.9894
B( 12-C , 13-C ) :   1.4911 B( 12-C , 78-H ) :   0.9972 B( 13-C , 14-C ) :   1.2580
B( 13-C , 79-H ) :   0.9880 B( 14-C , 15-C ) :   1.4909 B( 14-C , 80-H ) :   0.9888
B( 15-C , 81-H ) :   0.9976 B( 16-C , 17-O ) :   2.2037 B( 16-C , 18-C ) :   0.9202
B( 18-C , 19-C ) :   1.6818 B( 19-C , 20-C ) :   1.0949 B( 19-C , 82-H ) :   0.9337
B( 20-C , 21-S ) :   1.1519 B( 20-C , 22-C ) :   0.1051 B( 20-C , 24-C ) :   1.4898
B( 21-S , 22-C ) :   1.2287 B( 22-C , 23-C ) :   1.4346 B( 22-C , 30-C ) :   1.0837
B( 23-C , 24-C ) :   1.2415 B( 23-C , 28-C ) :   0.9089 B( 24-C , 25-C ) :   0.9087
B( 25-C , 26-O ) :   2.2374 B( 25-C , 27-C ) :   0.9902 B( 27-C , 28-C ) :   0.9922
B( 27-C , 83-H ) :   0.9082 B( 27-C , 84-H ) :   0.8972 B( 28-C , 29-O ) :   2.1948
B( 30-C , 31-N ) :   1.2236 B( 30-C , 37-C ) :   1.3883 B( 31-N , 32-C ) :   0.9302
B( 31-N , 34-C ) :   1.0504 B( 32-C , 33-C ) :   1.1082 B( 32-C , 85-H ) :   0.9483
B( 32-C , 86-H ) :   0.9426 B( 33-C , 87-H ) :   0.9551 B( 33-C , 88-H ) :   0.9629
B( 33-C , 89-H ) :   0.9621 B( 34-C , 35-O ) :   2.0071 B( 34-C , 36-C ) :   0.9962
B( 35-O , 96-H ) :   0.1145 B( 36-C , 37-C ) :   1.2392 B( 36-C , 43-C ) :   1.3236
B( 37-C , 38-C ) :   0.9523 B( 38-C , 39-O ) :   2.1524 B( 38-C , 40-N ) :   1.0407
B( 40-N , 41-C ) :   0.9366 B( 40-N , 43-C ) :   1.1693 B( 41-C , 42-C ) :   1.1242
B( 41-C , 90-H ) :   0.9283 B( 41-C , 91-H ) :   0.9481 B( 42-C , 92-H ) :   0.9637
B( 42-C , 93-H ) :   0.9678 B( 42-C , 94-H ) :   0.9673 B( 43-C , 44-C ) :   1.1672
B( 44-C , 45-C ) :   1.5986 B( 44-C , 95-H ) :   0.9351 B( 45-C , 46-C ) :   1.1603
B( 45-C , 96-H ) :   0.9285 B( 46-C , 47-S ) :   1.1856 B( 46-C , 50-C ) :   1.3926
B( 47-S , 48-C ) :   1.1285 B( 48-C , 49-C ) :   1.4807 B( 48-C , 56-C ) :   1.1161
B( 49-C , 50-C ) :   1.2736 B( 49-C , 54-C ) :   0.9012 B( 50-C , 51-C ) :   0.9447
B( 51-C , 52-O ) :   2.1296 B( 51-C , 53-C ) :   1.0091 B( 52-O , 95-H ) :   0.1154
B( 53-C , 54-C ) :   0.9965 B( 53-C , 97-H ) :   0.8895 B( 53-C , 98-H ) :   0.9045
B( 54-C , 55-O ) :   2.2436 B( 56-C , 57-C ) :   1.6666 B( 56-C , 99-H ) :   0.9364
B( 57-C , 58-C ) :   1.0617 B( 57-C , 66-C ) :   0.9255 B( 58-C , 59-C ) :   1.6558
B( 58-C , 64-C ) :   0.9946 B( 59-C , 60-C ) :   1.1419 B( 59-C , 62-C ) :   1.1386
B( 60-C , 61-N ) :   2.9687 B( 62-C , 63-N ) :   2.9920 B( 64-C , 65-C ) :   1.2124
B( 64-C , 71-C ) :   1.4449 B( 65-C , 66-C ) :   0.9567 B( 65-C , 68-C ) :   1.4655
B( 66-C , 67-O ) :   2.1905 B( 68-C , 69-C ) :   1.1825 B( 68-C ,100-H ) :   1.0162
B( 69-C , 70-C ) :   1.2541 B( 69-C , 75-C ) :   1.2410 B( 70-C , 71-C ) :   1.2062
B( 70-C , 72-C ) :   1.2397 B( 71-C ,101-H ) :   0.9909 B( 72-C , 73-C ) :   1.4885
B( 72-C ,102-H ) :   0.9979 B( 73-C , 74-C ) :   1.2588 B( 73-C ,103-H ) :   0.9894
B( 74-C , 75-C ) :   1.4896 B( 74-C ,104-H ) :   0.9886 B( 75-C ,105-H ) :   0.9982

-----------------------------------------------------------------------------
         ABSORPTION SPECTRUM VIA TRANSITION ELECTRIC DIPOLE MOMENTS
-----------------------------------------------------------------------------
State   Energy  Wavelength   fosc         T2         TX        TY        TZ
        (cm-1)    (nm)                  (au**2)     (au)      (au)      (au)
-----------------------------------------------------------------------------
   0   13135.1    761.3   1.019682883  25.55681  -0.26543  -5.02951   0.43627
   1   17781.0    562.4   0.056907875   1.05364   0.81445   0.29842  -0.54886
   2   21015.1    475.8   0.245309054   3.84289  -0.48593   0.70024  -1.76534
   3   22617.8    442.1   0.094032015   1.36868  -0.41284  -1.03175   0.36569
   4   23359.9    428.1   0.165969337   2.33901  -0.45807   1.31377  -0.63497
   5   24736.0    404.3   0.029971738   0.39889   0.52771   0.26553  -0.22341
   6   24885.5    401.8   0.033914790   0.44866  -0.08611  -0.62218  -0.23268
   7   25118.8    398.1   0.001806421   0.02368   0.00513  -0.05075  -0.14517
   8   25927.7    385.7   0.006177455   0.07844   0.20567   0.17440  -0.07566
   9   26251.6    380.9   0.184578711   2.31474  -0.12829   1.25930  -0.84406
  10   26324.7    379.9   0.122164450   1.52776  -0.13556  -1.12550   0.49257
  11   26583.6    376.2   0.197431570   2.44499  -0.04620  -1.42757   0.63631
  12   26808.6    373.0   0.001735481   0.02131  -0.00152  -0.01991  -0.14461
  13   27034.9    369.9   0.008668063   0.10555   0.15989  -0.18054   0.21770
  14   27649.8    361.7   0.082157608   0.97821  -0.39953  -0.86160   0.27609
  15   28054.3    356.5   0.038565016   0.45255  -0.10597   0.44947  -0.48918
  16   28237.7    354.1   0.115556919   1.34723  -0.90435  -0.72746  -0.01358
  17   29081.1    343.9   0.282755581   3.20093   0.54980  -1.67636  -0.29744
  18   29331.3    340.9   0.081136737   0.91067  -0.27025  -0.81879   0.40891
  19   29623.8    337.6   0.021168224   0.23524  -0.17974  -0.06083   0.44636
  20   29872.4    334.8   0.032744511   0.36086  -0.01673   0.56527  -0.20262
  21   30390.5    329.1   0.030650098   0.33202   0.31985  -0.47900   0.01674
  22   30707.3    325.7   0.077105096   0.82664  -0.55191   0.60026  -0.40215
  23   32200.4    310.6   0.165622059   1.69330   0.83211   0.28371   0.95938
  24   32283.1    309.8   0.592677911   6.04392  -1.99880  -1.42329   0.15157
  25   32544.2    307.3   0.717548973   7.25862   0.84315  -1.88648  -1.72884
  26   32859.9    304.3   0.019867466   0.19905   0.40468   0.17175   0.07607
  27   33047.4    302.6   0.009418374   0.09382  -0.00774  -0.23614   0.19494
  28   33158.7    301.6   0.012499203   0.12410  -0.08161  -0.20986  -0.27092
  29   33231.2    300.9   0.042201683   0.41808  -0.34674   0.33264   0.43267
  30   33325.2    300.1   0.007058149   0.06973   0.00935   0.12565  -0.23206
  31   33820.4    295.7   0.044838745   0.43647  -0.07696  -0.27908   0.59385
  32   34191.8    292.5   0.001976551   0.01903  -0.02978   0.09930  -0.09102
  33   34453.2    290.2   0.040786632   0.38973  -0.40376   0.24087  -0.41072
  34   34646.1    288.6   0.022983783   0.21840   0.15135   0.33213   0.29185
  35   34689.4    288.3   0.004099687   0.03891   0.14810   0.00370  -0.13024
  36   35114.9    284.8   0.024536495   0.23004  -0.30993  -0.36028  -0.06462
  37   35660.8    280.4   0.171306731   1.58146   1.24901  -0.14637   0.00377
  38   35862.4    278.8   0.034112679   0.31315   0.49304   0.26419  -0.01607
  39   36036.7    277.5   0.136211632   1.24436  -0.57171  -0.87872  -0.38125
  40   36268.7    275.7   0.081992817   0.74425   0.39153   0.71536   0.28146
  41   36414.2    274.6   0.039854678   0.36032   0.26126   0.10798   0.52953
  42   36541.7    273.7   0.107666922   0.96999  -0.05859   0.03086  -0.98265
  43   37086.7    269.6   0.006937112   0.06158  -0.22839  -0.09483  -0.02056
  44   37104.5    269.5   0.140822924   1.24946  -0.44095   0.34161   0.96867
  45   37372.0    267.6   0.173553339   1.52884   0.86210  -0.12940   0.87686
  46   37560.8    266.2   0.020327905   0.17817  -0.39984   0.05472  -0.12370
  47   37892.3    263.9   0.011594506   0.10073  -0.23300   0.21439   0.02197
  48   37901.1    263.8   0.027238379   0.23659  -0.40626   0.02692  -0.26612
  49   38061.2    262.7   0.032329692   0.27964  -0.07390   0.51672   0.08471
  50   38293.3    261.1   0.059369219   0.51040   0.27572  -0.51718   0.40854
  51   38359.0    260.7   0.064980454   0.55769  -0.26690   0.40981  -0.56436
  52   38553.2    259.4   0.007965791   0.06802   0.07600  -0.16569  -0.18653
  53   38655.4    258.7   0.032753028   0.27894  -0.15709   0.12170  -0.48934
  54   38697.8    258.4   0.058022942   0.49362   0.16855   0.53085  -0.42825
  55   38744.6    258.1   0.072052741   0.61223   0.68442  -0.07009   0.37267
  56   39150.8    255.4   0.012178305   0.10241  -0.10934  -0.26477   0.14264
  57   39684.9    252.0   0.020193593   0.16752  -0.13522  -0.00049  -0.38631
  58   40012.5    249.9   0.043217584   0.35558  -0.33511  -0.45824   0.18248
  59   40066.4    249.6   0.110499666   0.90794  -0.27223   0.43447  -0.80316
  60   40085.6    249.5   0.050589554   0.41548  -0.36929   0.35446  -0.39175

FINAL SINGLE POINT ENERGY     -4026.818001724906

DIPOLE MOMENT
-------------
                                X             Y             Z
Electronic contribution:    -11.23169       3.07519       5.56455
Nuclear contribution   :     14.34494      -3.48218      -7.61368
                        -----------------------------------------
Total Dipole Moment    :      3.11325      -0.40699      -2.04912
                        -----------------------------------------
Magnitude (a.u.)       :      3.74925
Magnitude (Debye)      :      9.52983

Rotational constants in cm-1:     0.001963     0.000222     0.000220
Rotational constants in MHz :    58.852091     6.655359     6.608315

                             ****ORCA TERMINATED NORMALLY****
TOTAL RUN TIME: 0 days 0 hours 11 minutes 30 seconds 845 msec
