                         Program Version 4.2.0 -  RELEASE  -
|  1> # ORCA input file
|  2> # SCF done       -217.860495015392          0.000675422782
|  3> ! CAM-B3LYP def2-SVP def2/J RIJCOSX Grid4 TightSCF
|  4> %maxcore 5000
|  5> %tddft
|  6>     Mode sTDDFT
|  7>     Ethresh 5.0
|  8>     maxcore 5000
|  9> end
| 10>
| 11> %pal
| 12>   nprocs 6
| 13>   end
| 14> * xyz 0 1
| 15>    C        2.35068         2.65451        -5.16580
| 16>    C        2.88222         1.42399        -4.88002
| 17>    C        3.79326         0.74316        -5.71602
| 18>    N        4.53564         0.13290        -6.34384
| 19>    C        2.61562         0.65489        -3.72797
| 20>    N        2.45349        -0.03273        -2.82207
| 21>    C        2.64439         3.44361        -6.35741
| 22>    C        1.92170         4.66946        -6.28333
| 23>    C        1.99800         5.61708        -7.26317
| 24>    C        2.81617         5.37639        -8.38929
| 25>    C        3.54098         4.15238        -8.47421
| 26>    C        3.44319         3.19148        -7.44141
| 27>    C        4.35184         3.92081        -9.60370
| 28>    C        4.44351         4.85221       -10.60228
| 29>    C        3.73002         6.05699       -10.51722
| 30>    C        2.93368         6.31386        -9.43397
| 31>    C        1.14052         4.69393        -5.04099
| 32>    O        0.41239         5.59036        -4.65453
| 33>    C        1.41049         3.41587        -4.35911
| 34>    C        0.84869         3.01403        -3.18042
| 35>    C       -0.07953         3.67149        -2.34640
| 36>    S       -0.78459         5.25120        -2.56128
| 37>    C       -1.72035         5.08607        -1.11280
| 38>    C       -1.48472         3.84576        -0.49002
| 39>    C       -0.56364         3.06942        -1.18790
| 40>    C       -2.08106         3.39105         0.69858
| 41>    N       -2.54933         2.98330         1.66436
| 42>    C       -2.58269         6.14158        -0.73427
| 43>    C       -3.41506         6.11694         0.34269
| 44>    C       -4.27453         7.18657         0.68144
| 45>    N       -5.14975         7.13990         1.74310
| 46>    C       -5.37295         6.02119         2.62905
| 47>    C       -6.24265         4.94625         1.98304
| 48>    C       -5.89173         8.32224         1.86478
| 49>    O       -6.73616         8.50484         2.72078
| 50>    C       -5.40642         9.16453         0.79150
| 51>    C       -4.42099         8.43804         0.08096
| 52>    C       -3.92882         9.28230        -0.98606
| 53>    O       -3.09186         9.10106        -1.84704
| 54>    N       -4.65350        10.47922        -0.84363
| 55>    C       -4.45562        11.58728        -1.74760
| 56>    C       -5.54736        11.65872        -2.81224
| 57>    C       -5.53853        10.42324         0.20530
| 58>    C       -6.39385        11.49395         0.57428
| 59>    C       -7.25996        11.38137         1.61146
| 60>    C       -8.18834        12.36030         2.06547
| 61>    S       -9.57226        11.77256         2.92494
| 62>    C      -10.26312        13.35730         3.07125
| 63>    C       -9.43315        14.29860         2.47610
| 64>    C       -8.24792        13.74442         1.94123
| 65>    C       -7.10067        14.55660         1.41816
| 66>    F       -5.91324        14.01246         1.74803
| 67>    F       -7.09489        14.65768         0.07382
| 68>    F       -7.06288        15.79779         1.90062
| 69>    C       -9.79944        15.74887         2.32983
| 70>    F      -11.12673        15.95096         2.36773
| 71>    F       -9.27636        16.52908         3.28387
| 72>    F       -9.40517        16.24318         1.14663
| 73>    C      -11.48257        13.54683         3.78382
| 74>    C      -12.29552        12.52046         4.12521
| 75>    C      -13.50215        12.62748         4.87365
| 76>    C      -13.77732        13.49956         5.88140
| 77>    C      -15.03938        13.57128         6.60249
| 78>    C      -16.25679        13.16007         6.13032
| 79>    C      -17.46344        13.28307         6.85115
| 80>    N      -18.47171        13.34655         7.39574
| 81>    C      -16.47259        12.59841         4.85343
| 82>    N      -16.72058        12.15533         3.82386
| 83>    C      -14.79082        14.23674         7.87250
| 84>    C      -13.43429        14.67063         7.89673
| 85>    C      -12.76789        14.29934         6.63734
| 86>    O      -11.62563        14.55058         6.32430
| 87>    C      -12.90708        15.32833         8.97111
| 88>    C      -13.72734        15.58211        10.09285
| 89>    C      -15.08378        15.14411        10.07929
| 90>    C      -15.60291        14.46891         8.95124
| 91>    C      -15.88978        15.39575        11.20826
| 92>    C      -15.38292        16.04925        12.29842
| 93>    C      -14.04815        16.48135        12.31012
| 94>    C      -13.23828        16.25377        11.23059
| 95>    H        1.43974         6.53770        -7.17999
| 96>    H        4.00487         2.27621        -7.53816
| 97>    H        4.89958         2.99191        -9.66473
| 98>    H        5.06689         4.66515       -11.46366
| 99>    H        3.81414         6.78054       -11.31413
|100>    H        2.38182         7.23964        -9.36281
|101>    H        1.13133         2.03764        -2.80562
|102>    H       -0.25219         2.08950        -0.86846
|103>    H       -2.56581         7.01665        -1.37215
|104>    H       -3.43939         5.24555         0.97826
|105>    H       -5.88428         6.42928         3.50522
|106>    H       -4.41298         5.60321         2.94284
|107>    H       -7.20913         5.36245         1.70901
|108>    H       -6.39857         4.13358         2.68634
|109>    H       -5.76909         4.54498         1.09003
|110>    H       -3.48796        11.41525        -2.22715
|111>    H       -4.40650        12.51869        -1.17738
|112>    H       -5.56158        10.73957        -3.39304
|113>    H       -5.34979        12.49075        -3.48200
|114>    H       -6.52704        11.80065        -2.36161
|115>    H       -6.34239        12.39225        -0.01958
|116>    H       -7.32304        10.43211         2.13044
|117>    H      -11.75503        14.55726         4.04012
|118>    H      -12.06097        11.52793         3.75718
|119>    H      -14.24741        11.87459         4.64250
|120>    H      -11.87614        15.64961         8.96471
|121>    H      -16.63051        14.14182         8.97246
|122>    H      -16.91713        15.06271        11.19382
|123>    H      -16.00819        16.23705        13.15829
|124>    H      -13.66476        16.99490        13.17900
|125>    H      -12.20991        16.58399        11.23381
|126> *
|127>
|128>                          ****END OF INPUT****

CARTESIAN COORDINATES (ANGSTROEM)
---------------------------------
  C      2.350680    2.654510   -5.165800
  C      2.882220    1.423990   -4.880020
  C      3.793260    0.743160   -5.716020
  N      4.535640    0.132900   -6.343840
  C      2.615620    0.654890   -3.727970
  N      2.453490   -0.032730   -2.822070
  C      2.644390    3.443610   -6.357410
  C      1.921700    4.669460   -6.283330
  C      1.998000    5.617080   -7.263170
  C      2.816170    5.376390   -8.389290
  C      3.540980    4.152380   -8.474210
  C      3.443190    3.191480   -7.441410
  C      4.351840    3.920810   -9.603700
  C      4.443510    4.852210  -10.602280
  C      3.730020    6.056990  -10.517220
  C      2.933680    6.313860   -9.433970
  C      1.140520    4.693930   -5.040990
  O      0.412390    5.590360   -4.654530
  C      1.410490    3.415870   -4.359110
  C      0.848690    3.014030   -3.180420
  C     -0.079530    3.671490   -2.346400
  S     -0.784590    5.251200   -2.561280
  C     -1.720350    5.086070   -1.112800
  C     -1.484720    3.845760   -0.490020
  C     -0.563640    3.069420   -1.187900
  C     -2.081060    3.391050    0.698580
  N     -2.549330    2.983300    1.664360
  C     -2.582690    6.141580   -0.734270
  C     -3.415060    6.116940    0.342690
  C     -4.274530    7.186570    0.681440
  N     -5.149750    7.139900    1.743100
  C     -5.372950    6.021190    2.629050
  C     -6.242650    4.946250    1.983040
  C     -5.891730    8.322240    1.864780
  O     -6.736160    8.504840    2.720780
  C     -5.406420    9.164530    0.791500
  C     -4.420990    8.438040    0.080960
  C     -3.928820    9.282300   -0.986060
  O     -3.091860    9.101060   -1.847040
  N     -4.653500   10.479220   -0.843630
  C     -4.455620   11.587280   -1.747600
  C     -5.547360   11.658720   -2.812240
  C     -5.538530   10.423240    0.205300
  C     -6.393850   11.493950    0.574280
  C     -7.259960   11.381370    1.611460
  C     -8.188340   12.360300    2.065470
  S     -9.572260   11.772560    2.924940
  C    -10.263120   13.357300    3.071250
  C     -9.433150   14.298600    2.476100
  C     -8.247920   13.744420    1.941230
  C     -7.100670   14.556600    1.418160
  F     -5.913240   14.012460    1.748030
  F     -7.094890   14.657680    0.073820
  F     -7.062880   15.797790    1.900620
  C     -9.799440   15.748870    2.329830
  F    -11.126730   15.950960    2.367730
  F     -9.276360   16.529080    3.283870
  F     -9.405170   16.243180    1.146630
  C    -11.482570   13.546830    3.783820
  C    -12.295520   12.520460    4.125210
  C    -13.502150   12.627480    4.873650
  C    -13.777320   13.499560    5.881400
  C    -15.039380   13.571280    6.602490
  C    -16.256790   13.160070    6.130320
  C    -17.463440   13.283070    6.851150
  N    -18.471710   13.346550    7.395740
  C    -16.472590   12.598410    4.853430
  N    -16.720580   12.155330    3.823860
  C    -14.790820   14.236740    7.872500
  C    -13.434290   14.670630    7.896730
  C    -12.767890   14.299340    6.637340
  O    -11.625630   14.550580    6.324300
  C    -12.907080   15.328330    8.971110
  C    -13.727340   15.582110   10.092850
  C    -15.083780   15.144110   10.079290
  C    -15.602910   14.468910    8.951240
  C    -15.889780   15.395750   11.208260
  C    -15.382920   16.049250   12.298420
  C    -14.048150   16.481350   12.310120
  C    -13.238280   16.253770   11.230590
  H      1.439740    6.537700   -7.179990
  H      4.004870    2.276210   -7.538160
  H      4.899580    2.991910   -9.664730
  H      5.066890    4.665150  -11.463660
  H      3.814140    6.780540  -11.314130
  H      2.381820    7.239640   -9.362810
  H      1.131330    2.037640   -2.805620
  H     -0.252190    2.089500   -0.868460
  H     -2.565810    7.016650   -1.372150
  H     -3.439390    5.245550    0.978260
  H     -5.884280    6.429280    3.505220
  H     -4.412980    5.603210    2.942840
  H     -7.209130    5.362450    1.709010
  H     -6.398570    4.133580    2.686340
  H     -5.769090    4.544980    1.090030
  H     -3.487960   11.415250   -2.227150
  H     -4.406500   12.518690   -1.177380
  H     -5.561580   10.739570   -3.393040
  H     -5.349790   12.490750   -3.482000
  H     -6.527040   11.800650   -2.361610
  H     -6.342390   12.392250   -0.019580
  H     -7.323040   10.432110    2.130440
  H    -11.755030   14.557260    4.040120
  H    -12.060970   11.527930    3.757180
  H    -14.247410   11.874590    4.642500
  H    -11.876140   15.649610    8.964710
  H    -16.630510   14.141820    8.972460
  H    -16.917130   15.062710   11.193820
  H    -16.008190   16.237050   13.158290
  H    -13.664760   16.994900   13.179000
  H    -12.209910   16.583990   11.233810

 Total Charge           Charge          ....    0
 Multiplicity           Mult            ....    1
 Number of Electrons    NEL             ....  564
 Basis Dimension        Dim             .... 1283

ORBITAL ENERGIES
----------------

  NO   OCC          E(Eh)            E(eV)
   0   2.0000     -88.988939     -2421.5121
   1   2.0000     -88.983140     -2421.3544
   2   2.0000     -24.809998      -675.1144
   3   2.0000     -24.809553      -675.1023
   4   2.0000     -24.807315      -675.0414
   5   2.0000     -24.806825      -675.0280
   6   2.0000     -24.803266      -674.9312
   7   2.0000     -24.800881      -674.8663
   8   2.0000     -19.229170      -523.2523
   9   2.0000     -19.220926      -523.0280
  10   2.0000     -19.201333      -522.4948
  11   2.0000     -19.199742      -522.4515
  12   2.0000     -14.462358      -393.5408
  13   2.0000     -14.460434      -393.4884
  14   2.0000     -14.423055      -392.4713
  15   2.0000     -14.420207      -392.3938
  16   2.0000     -14.418851      -392.3569
  17   2.0000     -14.416964      -392.3055
  18   2.0000     -14.416362      -392.2891
  19   2.0000     -10.533661      -286.6355
  20   2.0000     -10.529991      -286.5356
  21   2.0000     -10.383331      -282.5448
  22   2.0000     -10.382109      -282.5115
  23   2.0000     -10.376887      -282.3695
  24   2.0000     -10.372606      -282.2530
  25   2.0000     -10.348748      -281.6037
  26   2.0000     -10.347718      -281.5757
  27   2.0000     -10.346949      -281.5548
  28   2.0000     -10.346535      -281.5435
  29   2.0000     -10.344980      -281.5012
  30   2.0000     -10.343843      -281.4703
  31   2.0000     -10.342089      -281.4225
  32   2.0000     -10.340212      -281.3715
  33   2.0000     -10.335210      -281.2354
  34   2.0000     -10.332660      -281.1660
  35   2.0000     -10.330434      -281.1054
  36   2.0000     -10.327929      -281.0372
  37   2.0000     -10.326171      -280.9894
  38   2.0000     -10.325650      -280.9752
  39   2.0000     -10.325269      -280.9649
  40   2.0000     -10.321699      -280.8677
  41   2.0000     -10.321492      -280.8621
  42   2.0000     -10.321240      -280.8552
  43   2.0000     -10.319396      -280.8051
  44   2.0000     -10.319008      -280.7945
  45   2.0000     -10.315887      -280.7096
  46   2.0000     -10.314069      -280.6601
  47   2.0000     -10.313555      -280.6461
  48   2.0000     -10.309755      -280.5427
  49   2.0000     -10.308223      -280.5010
  50   2.0000     -10.307480      -280.4808
  51   2.0000     -10.307400      -280.4786
  52   2.0000     -10.305654      -280.4311
  53   2.0000     -10.305580      -280.4291
  54   2.0000     -10.305292      -280.4212
  55   2.0000     -10.304595      -280.4023
  56   2.0000     -10.304064      -280.3878
  57   2.0000     -10.302742      -280.3519
  58   2.0000     -10.302547      -280.3466
  59   2.0000     -10.302303      -280.3399
  60   2.0000     -10.301701      -280.3235
  61   2.0000     -10.300216      -280.2831
  62   2.0000     -10.299980      -280.2767
  63   2.0000     -10.299764      -280.2708
  64   2.0000     -10.299377      -280.2603
  65   2.0000     -10.299245      -280.2567
  66   2.0000     -10.294489      -280.1273
  67   2.0000     -10.291700      -280.0514
  68   2.0000     -10.291114      -280.0355
  69   2.0000     -10.290581      -280.0209
  70   2.0000     -10.290195      -280.0104
  71   2.0000     -10.289679      -279.9964
  72   2.0000     -10.288708      -279.9700
  73   2.0000     -10.288192      -279.9559
  74   2.0000     -10.287982      -279.9502
  75   2.0000     -10.287474      -279.9364
  76   2.0000     -10.272263      -279.5225
  77   2.0000     -10.271175      -279.4929
  78   2.0000     -10.268573      -279.4221
  79   2.0000     -10.263287      -279.2782
  80   2.0000      -8.084787      -219.9982
  81   2.0000      -8.076261      -219.7662
  82   2.0000      -6.053870      -164.7342
  83   2.0000      -6.049728      -164.6215
  84   2.0000      -6.047078      -164.5493
  85   2.0000      -6.045556      -164.5079
  86   2.0000      -6.040957      -164.3828
  87   2.0000      -6.038757      -164.3229
  88   2.0000      -1.402293       -38.1583
  89   2.0000      -1.395430       -37.9716
  90   2.0000      -1.304776       -35.5047
  91   2.0000      -1.299284       -35.3553
  92   2.0000      -1.296059       -35.2676
  93   2.0000      -1.295664       -35.2568
  94   2.0000      -1.144715       -31.1493
  95   2.0000      -1.142746       -31.0957
  96   2.0000      -1.136731       -30.9320
  97   2.0000      -1.135999       -30.9121
  98   2.0000      -1.072914       -29.1955
  99   2.0000      -1.064227       -28.9591
 100   2.0000      -1.027293       -27.9541
 101   2.0000      -1.024763       -27.8852
 102   2.0000      -1.021427       -27.7944
 103   2.0000      -1.019995       -27.7555
 104   2.0000      -1.004876       -27.3441
 105   2.0000      -1.000468       -27.2241
 106   2.0000      -0.999173       -27.1889
 107   2.0000      -0.997972       -27.1562
 108   2.0000      -0.995176       -27.0801
 109   2.0000      -0.976879       -26.5822
 110   2.0000      -0.974297       -26.5120
 111   2.0000      -0.943794       -25.6819
 112   2.0000      -0.937600       -25.5134
 113   2.0000      -0.934204       -25.4210
 114   2.0000      -0.927932       -25.2503
 115   2.0000      -0.924874       -25.1671
 116   2.0000      -0.919937       -25.0328
 117   2.0000      -0.908192       -24.7132
 118   2.0000      -0.902810       -24.5667
 119   2.0000      -0.893033       -24.3007
 120   2.0000      -0.888814       -24.1859
 121   2.0000      -0.885367       -24.0921
 122   2.0000      -0.883779       -24.0489
 123   2.0000      -0.880503       -23.9597
 124   2.0000      -0.875115       -23.8131
 125   2.0000      -0.872257       -23.7353
 126   2.0000      -0.848042       -23.0764
 127   2.0000      -0.846070       -23.0227
 128   2.0000      -0.833494       -22.6805
 129   2.0000      -0.830566       -22.6008
 130   2.0000      -0.825466       -22.4621
 131   2.0000      -0.820473       -22.3262
 132   2.0000      -0.809989       -22.0409
 133   2.0000      -0.803793       -21.8723
 134   2.0000      -0.782018       -21.2798
 135   2.0000      -0.780587       -21.2408
 136   2.0000      -0.769073       -20.9275
 137   2.0000      -0.767474       -20.8840
 138   2.0000      -0.765392       -20.8274
 139   2.0000      -0.763776       -20.7834
 140   2.0000      -0.742083       -20.1931
 141   2.0000      -0.733465       -19.9586
 142   2.0000      -0.727375       -19.7929
 143   2.0000      -0.723397       -19.6846
 144   2.0000      -0.714430       -19.4406
 145   2.0000      -0.713235       -19.4081
 146   2.0000      -0.709505       -19.3066
 147   2.0000      -0.706542       -19.2260
 148   2.0000      -0.703996       -19.1567
 149   2.0000      -0.702451       -19.1147
 150   2.0000      -0.701595       -19.0914
 151   2.0000      -0.692225       -18.8364
 152   2.0000      -0.685683       -18.6584
 153   2.0000      -0.685038       -18.6408
 154   2.0000      -0.682320       -18.5669
 155   2.0000      -0.680200       -18.5092
 156   2.0000      -0.678711       -18.4687
 157   2.0000      -0.676998       -18.4220
 158   2.0000      -0.673057       -18.3148
 159   2.0000      -0.664132       -18.0720
 160   2.0000      -0.662393       -18.0246
 161   2.0000      -0.655619       -17.8403
 162   2.0000      -0.643500       -17.5105
 163   2.0000      -0.640491       -17.4287
 164   2.0000      -0.633723       -17.2445
 165   2.0000      -0.627670       -17.0798
 166   2.0000      -0.622581       -16.9413
 167   2.0000      -0.618702       -16.8357
 168   2.0000      -0.611773       -16.6472
 169   2.0000      -0.609309       -16.5801
 170   2.0000      -0.606314       -16.4986
 171   2.0000      -0.602724       -16.4010
 172   2.0000      -0.596860       -16.2414
 173   2.0000      -0.595091       -16.1933
 174   2.0000      -0.585613       -15.9353
 175   2.0000      -0.581431       -15.8215
 176   2.0000      -0.580569       -15.7981
 177   2.0000      -0.573597       -15.6084
 178   2.0000      -0.568156       -15.4603
 179   2.0000      -0.564606       -15.3637
 180   2.0000      -0.561943       -15.2913
 181   2.0000      -0.558183       -15.1889
 182   2.0000      -0.556422       -15.1410
 183   2.0000      -0.554781       -15.0964
 184   2.0000      -0.553095       -15.0505
 185   2.0000      -0.552513       -15.0346
 186   2.0000      -0.550996       -14.9934
 187   2.0000      -0.548977       -14.9384
 188   2.0000      -0.548366       -14.9218
 189   2.0000      -0.547113       -14.8877
 190   2.0000      -0.546414       -14.8687
 191   2.0000      -0.543917       -14.8007
 192   2.0000      -0.539734       -14.6869
 193   2.0000      -0.538007       -14.6399
 194   2.0000      -0.536943       -14.6110
 195   2.0000      -0.533602       -14.5201
 196   2.0000      -0.530464       -14.4347
 197   2.0000      -0.528604       -14.3840
 198   2.0000      -0.527446       -14.3525
 199   2.0000      -0.526900       -14.3377
 200   2.0000      -0.523826       -14.2540
 201   2.0000      -0.522782       -14.2256
 202   2.0000      -0.522059       -14.2059
 203   2.0000      -0.520451       -14.1622
 204   2.0000      -0.518247       -14.1022
 205   2.0000      -0.517211       -14.0740
 206   2.0000      -0.515085       -14.0162
 207   2.0000      -0.512732       -13.9521
 208   2.0000      -0.511181       -13.9099
 209   2.0000      -0.510588       -13.8938
 210   2.0000      -0.506769       -13.7899
 211   2.0000      -0.503540       -13.7020
 212   2.0000      -0.503268       -13.6946
 213   2.0000      -0.501006       -13.6331
 214   2.0000      -0.500461       -13.6182
 215   2.0000      -0.499783       -13.5998
 216   2.0000      -0.497765       -13.5449
 217   2.0000      -0.494707       -13.4617
 218   2.0000      -0.492956       -13.4140
 219   2.0000      -0.491743       -13.3810
 220   2.0000      -0.491164       -13.3653
 221   2.0000      -0.486908       -13.2494
 222   2.0000      -0.485907       -13.2222
 223   2.0000      -0.481451       -13.1010
 224   2.0000      -0.479774       -13.0553
 225   2.0000      -0.478593       -13.0232
 226   2.0000      -0.475218       -12.9313
 227   2.0000      -0.471356       -12.8262
 228   2.0000      -0.469829       -12.7847
 229   2.0000      -0.467242       -12.7143
 230   2.0000      -0.464969       -12.6525
 231   2.0000      -0.463325       -12.6077
 232   2.0000      -0.456492       -12.4218
 233   2.0000      -0.454837       -12.3767
 234   2.0000      -0.452002       -12.2996
 235   2.0000      -0.451527       -12.2867
 236   2.0000      -0.450416       -12.2565
 237   2.0000      -0.450020       -12.2457
 238   2.0000      -0.449424       -12.2295
 239   2.0000      -0.448548       -12.2056
 240   2.0000      -0.446594       -12.1524
 241   2.0000      -0.445712       -12.1284
 242   2.0000      -0.444712       -12.1012
 243   2.0000      -0.442380       -12.0378
 244   2.0000      -0.440350       -11.9825
 245   2.0000      -0.440030       -11.9738
 246   2.0000      -0.439445       -11.9579
 247   2.0000      -0.435518       -11.8511
 248   2.0000      -0.434159       -11.8141
 249   2.0000      -0.432844       -11.7783
 250   2.0000      -0.432377       -11.7656
 251   2.0000      -0.431822       -11.7505
 252   2.0000      -0.428876       -11.6703
 253   2.0000      -0.427931       -11.6446
 254   2.0000      -0.423110       -11.5134
 255   2.0000      -0.422229       -11.4894
 256   2.0000      -0.420814       -11.4509
 257   2.0000      -0.416406       -11.3310
 258   2.0000      -0.412411       -11.2223
 259   2.0000      -0.410953       -11.1826
 260   2.0000      -0.410126       -11.1601
 261   2.0000      -0.401286       -10.9195
 262   2.0000      -0.393397       -10.7049
 263   2.0000      -0.382283       -10.4024
 264   2.0000      -0.380228       -10.3465
 265   2.0000      -0.371562       -10.1107
 266   2.0000      -0.358182        -9.7466
 267   2.0000      -0.357587        -9.7304
 268   2.0000      -0.351463        -9.5638
 269   2.0000      -0.346199        -9.4206
 270   2.0000      -0.344334        -9.3698
 271   2.0000      -0.342754        -9.3268
 272   2.0000      -0.341277        -9.2866
 273   2.0000      -0.333143        -9.0653
 274   2.0000      -0.323553        -8.8043
 275   2.0000      -0.322949        -8.7879
 276   2.0000      -0.319329        -8.6894
 277   2.0000      -0.303961        -8.2712
 278   2.0000      -0.299472        -8.1490
 279   2.0000      -0.293157        -7.9772
 280   2.0000      -0.286979        -7.8091
 281   2.0000      -0.243821        -6.6347
 282   0.0000      -0.117169        -3.1883
 283   0.0000      -0.100816        -2.7433
 284   0.0000      -0.083084        -2.2608
 285   0.0000      -0.065052        -1.7702
 286   0.0000      -0.061480        -1.6730

MULLIKEN ATOMIC CHARGES
-----------------------
   0 C :    0.333761
   1 C :   -0.352600
   2 C :   -0.179206
   3 N :    0.149925
   4 C :   -0.191221
   5 N :    0.149190
   6 C :    0.044920
   7 C :   -0.004657
   8 C :   -0.076064
   9 C :    0.096708
  10 C :    0.094166
  11 C :   -0.081130
  12 C :   -0.017470
  13 C :    0.036928
  14 C :    0.037014
  15 C :   -0.015975
  16 C :    0.174376
  17 O :   -0.177017
  18 C :   -0.094750
  19 C :   -0.014994
  20 C :   -0.051476
  21 S :    0.239823
  22 C :   -0.053776
  23 C :   -0.050683
  24 C :    0.006912
  25 C :   -0.158564
  26 N :    0.118404
  27 C :    0.048012
  28 C :   -0.026470
  29 C :    0.134226
  30 N :   -0.253610
  31 C :    0.093565
  32 C :    0.008259
  33 C :    0.175674
  34 O :   -0.213500
  35 C :   -0.066720
  36 C :   -0.060470
  37 C :    0.166540
  38 O :   -0.201439
  39 N :   -0.256659
  40 C :    0.095007
  41 C :    0.004487
  42 C :    0.110689
  43 C :   -0.003757
  44 C :    0.047847
  45 C :   -0.118656
  46 S :    0.190767
  47 C :   -0.130906
  48 C :   -0.064073
  49 C :   -0.067366
  50 C :    0.521760
  51 F :   -0.162309
  52 F :   -0.163199
  53 F :   -0.140545
  54 C :    0.521729
  55 F :   -0.158903
  56 F :   -0.149052
  57 F :   -0.159606
  58 C :    0.110390
  59 C :   -0.029758
  60 C :    0.000549
  61 C :   -0.094229
  62 C :    0.289989
  63 C :   -0.333562
  64 C :   -0.180904
  65 N :    0.149285
  66 C :   -0.209922
  67 N :    0.167019
  68 C :    0.052354
  69 C :   -0.006581
  70 C :    0.151739
  71 O :   -0.145480
  72 C :   -0.077556
  73 C :    0.096641
  74 C :    0.097306
  75 C :   -0.082971
  76 C :   -0.018696
  77 C :    0.036572
  78 C :    0.037610
  79 C :   -0.014526
  80 H :   -0.010849
  81 H :   -0.007450
  82 H :   -0.007578
  83 H :   -0.002965
  84 H :   -0.002355
  85 H :   -0.016580
  86 H :    0.012158
  87 H :    0.017652
  88 H :    0.009309
  89 H :   -0.013389
  90 H :    0.041993
  91 H :    0.039794
  92 H :    0.024105
  93 H :    0.031667
  94 H :    0.017074
  95 H :    0.044238
  96 H :    0.032262
  97 H :    0.028652
  98 H :    0.027971
  99 H :    0.018059
 100 H :   -0.013411
 101 H :    0.020972
 102 H :    0.032803
 103 H :    0.013741
 104 H :    0.036264
 105 H :   -0.011851
 106 H :   -0.007566
 107 H :   -0.009155
 108 H :   -0.003517
 109 H :   -0.004461
 110 H :   -0.016718
Sum of atomic charges:   -0.0000000

LOEWDIN ATOMIC CHARGES
----------------------
   0 C :    0.076669
   1 C :   -0.138403
   2 C :   -0.016894
   3 N :   -0.051271
   4 C :   -0.021258
   5 N :   -0.050816
   6 C :   -0.025604
   7 C :   -0.056604
   8 C :    0.034978
   9 C :   -0.008259
  10 C :   -0.005497
  11 C :    0.021269
  12 C :   -0.004596
  13 C :   -0.011600
  14 C :   -0.010764
  15 C :   -0.008655
  16 C :    0.086584
  17 O :   -0.163012
  18 C :   -0.099097
  19 C :    0.057534
  20 C :   -0.185812
  21 S :    0.552341
  22 C :   -0.136865
  23 C :   -0.112173
  24 C :    0.014793
  25 C :   -0.026147
  26 N :   -0.059723
  27 C :   -0.004844
  28 C :   -0.020950
  29 C :    0.072381
  30 N :    0.004969
  31 C :    0.037186
  32 C :   -0.058674
  33 C :    0.080626
  34 O :   -0.200517
  35 C :   -0.117175
  36 C :   -0.111933
  37 C :    0.081570
  38 O :   -0.192655
  39 N :    0.002599
  40 C :    0.036776
  41 C :   -0.060022
  42 C :    0.076282
  43 C :   -0.023835
  44 C :   -0.008487
  45 C :   -0.138110
  46 S :    0.510475
  47 C :   -0.150176
  48 C :   -0.090248
  49 C :   -0.107916
  50 C :    0.164818
  51 F :   -0.057640
  52 F :   -0.063785
  53 F :   -0.037520
  54 C :    0.162764
  55 F :   -0.051269
  56 F :   -0.051697
  57 F :   -0.054748
  58 C :    0.028191
  59 C :   -0.044902
  60 C :    0.064764
  61 C :   -0.083586
  62 C :    0.074242
  63 C :   -0.135067
  64 C :   -0.017295
  65 N :   -0.050602
  66 C :   -0.025723
  67 N :   -0.047744
  68 C :   -0.026317
  69 C :   -0.055850
  70 C :    0.083929
  71 O :   -0.134654
  72 C :    0.033859
  73 C :   -0.008019
  74 C :   -0.005667
  75 C :    0.020225
  76 C :   -0.005153
  77 C :   -0.012221
  78 C :   -0.011370
  79 C :   -0.008695
  80 H :    0.040116
  81 H :    0.039624
  82 H :    0.035429
  83 H :    0.034035
  84 H :    0.033684
  85 H :    0.032428
  86 H :    0.051766
  87 H :    0.047301
  88 H :    0.037994
  89 H :    0.036834
  90 H :    0.037818
  91 H :    0.029018
  92 H :    0.029580
  93 H :    0.034900
  94 H :    0.023062
  95 H :    0.038475
  96 H :    0.026725
  97 H :    0.031889
  98 H :    0.032948
  99 H :    0.022767
 100 H :    0.025532
 101 H :    0.037716
 102 H :    0.039438
 103 H :    0.028061
 104 H :    0.048135
 105 H :    0.039556
 106 H :    0.039282
 107 H :    0.034974
 108 H :    0.033690
 109 H :    0.033176
 110 H :    0.032335

  Mayer bond orders larger than 0.100000
B(  0-C ,  1-C ) :   1.6282 B(  0-C ,  6-C ) :   0.9874 B(  0-C , 18-C ) :   1.0680
B(  1-C ,  2-C ) :   1.1475 B(  1-C ,  4-C ) :   1.1451 B(  2-C ,  3-N ) :   2.9610
B(  4-C ,  5-N ) :   2.9562 B(  6-C ,  7-C ) :   1.2145 B(  6-C , 11-C ) :   1.4516
B(  7-C ,  8-C ) :   1.4683 B(  7-C , 16-C ) :   0.9623 B(  8-C ,  9-C ) :   1.1786
B(  8-C , 80-H ) :   1.0161 B(  9-C , 10-C ) :   1.2572 B(  9-C , 15-C ) :   1.2437
B( 10-C , 11-C ) :   1.2055 B( 10-C , 12-C ) :   1.2413 B( 11-C , 81-H ) :   0.9884
B( 12-C , 13-C ) :   1.4885 B( 12-C , 82-H ) :   0.9968 B( 13-C , 14-C ) :   1.2616
B( 13-C , 83-H ) :   0.9881 B( 14-C , 15-C ) :   1.4891 B( 14-C , 84-H ) :   0.9880
B( 15-C , 85-H ) :   0.9973 B( 16-C , 17-O ) :   2.1322 B( 16-C , 18-C ) :   0.9658
B( 18-C , 19-C ) :   1.5391 B( 19-C , 20-C ) :   1.2243 B( 19-C , 86-H ) :   0.9367
B( 20-C , 21-S ) :   1.0997 B( 20-C , 24-C ) :   1.3627 B( 21-S , 22-C ) :   1.1466
B( 22-C , 23-C ) :   1.3564 B( 22-C , 27-C ) :   1.1733 B( 23-C , 24-C ) :   1.3493
B( 23-C , 25-C ) :   1.1014 B( 24-C , 87-H ) :   1.0138 B( 25-C , 26-N ) :   2.9719
B( 27-C , 28-C ) :   1.5973 B( 27-C , 88-H ) :   0.9271 B( 28-C , 29-C ) :   1.1792
B( 28-C , 89-H ) :   0.9414 B( 29-C , 30-N ) :   1.1630 B( 29-C , 36-C ) :   1.3269
B( 30-N , 31-C ) :   0.9366 B( 30-N , 33-C ) :   1.0710 B( 31-C , 32-C ) :   1.1238
B( 31-C , 90-H ) :   0.9274 B( 31-C , 91-H ) :   0.9475 B( 32-C , 92-H ) :   0.9634
B( 32-C , 93-H ) :   0.9675 B( 32-C , 94-H ) :   0.9677 B( 33-C , 34-O ) :   2.0102
B( 33-C , 35-C ) :   0.9836 B( 34-O ,101-H ) :   0.1250 B( 35-C , 36-C ) :   1.2660
B( 35-C , 42-C ) :   1.3274 B( 36-C , 37-C ) :   0.9818 B( 37-C , 38-O ) :   2.0417
B( 37-C , 39-N ) :   1.0549 B( 38-O , 88-H ) :   0.1052 B( 39-N , 40-C ) :   0.9400
B( 39-N , 42-C ) :   1.1679 B( 40-C , 41-C ) :   1.1199 B( 40-C , 95-H ) :   0.9282
B( 40-C , 96-H ) :   0.9502 B( 41-C , 97-H ) :   0.9635 B( 41-C , 98-H ) :   0.9680
B( 41-C , 99-H ) :   0.9687 B( 42-C , 43-C ) :   1.1817 B( 43-C , 44-C ) :   1.6321
B( 43-C ,100-H ) :   0.9443 B( 44-C , 45-C ) :   1.1225 B( 44-C ,101-H ) :   0.9147
B( 45-C , 46-S ) :   1.1770 B( 45-C , 49-C ) :   1.4938 B( 46-S , 47-C ) :   1.1345
B( 47-C , 48-C ) :   1.4981 B( 47-C , 58-C ) :   1.1707 B( 48-C , 49-C ) :   1.3200
B( 48-C , 54-C ) :   0.9405 B( 49-C , 50-C ) :   0.9419 B( 50-C , 51-F ) :   1.1528
B( 50-C , 52-F ) :   1.1221 B( 50-C , 53-F ) :   1.1680 B( 54-C , 55-F ) :   1.1350
B( 54-C , 56-F ) :   1.1902 B( 54-C , 57-F ) :   1.1458 B( 58-C , 59-C ) :   1.6704
B( 58-C ,102-H ) :   0.9446 B( 59-C , 60-C ) :   1.1628 B( 59-C ,103-H ) :   0.9527
B( 60-C , 61-C ) :   1.6427 B( 60-C ,104-H ) :   0.9456 B( 61-C , 62-C ) :   1.0463
B( 61-C , 70-C ) :   0.9315 B( 62-C , 63-C ) :   1.6553 B( 62-C , 68-C ) :   0.9969
B( 63-C , 64-C ) :   1.1410 B( 63-C , 66-C ) :   1.1367 B( 64-C , 65-N ) :   2.9711
B( 66-C , 67-N ) :   3.0084 B( 68-C , 69-C ) :   1.2118 B( 68-C , 75-C ) :   1.4472
B( 69-C , 70-C ) :   0.9493 B( 69-C , 72-C ) :   1.4732 B( 70-C , 71-O ) :   2.2092
B( 72-C , 73-C ) :   1.1793 B( 72-C ,105-H ) :   1.0158 B( 73-C , 74-C ) :   1.2566
B( 73-C , 79-C ) :   1.2452 B( 74-C , 75-C ) :   1.2086 B( 74-C , 76-C ) :   1.2374
B( 75-C ,106-H ) :   0.9911 B( 76-C , 77-C ) :   1.4913 B( 76-C ,107-H ) :   0.9972
B( 77-C , 78-C ) :   1.2600 B( 77-C ,108-H ) :   0.9881 B( 78-C , 79-C ) :   1.4892
B( 78-C ,109-H ) :   0.9883 B( 79-C ,110-H ) :   0.9973

-----------------------------------------------------------------------------
         ABSORPTION SPECTRUM VIA TRANSITION ELECTRIC DIPOLE MOMENTS
-----------------------------------------------------------------------------
State   Energy  Wavelength   fosc         T2         TX        TY        TZ
        (cm-1)    (nm)                  (au**2)     (au)      (au)      (au)
-----------------------------------------------------------------------------
   0   12971.6    770.9   1.278831197  32.45595   3.79894  -3.62736  -2.20595
   1   18860.6    530.2   0.030620727   0.53449  -0.71938  -0.00028   0.13029
   2   22178.5    450.9   0.693133981  10.28871   2.23299   0.39871  -2.26793
   3   23136.3    432.2   0.036583026   0.52055  -0.66827   0.25252  -0.10101
   4   23920.0    418.1   0.574422849   7.90582   1.95432  -1.19559  -1.63004
   5   25432.0    393.2   0.010084835   0.13055   0.20079   0.06777  -0.29264
   6   25773.2    388.0   0.232223693   2.96630  -1.02366   0.43473   1.31508
   7   26061.8    383.7   0.085715818   1.08276   0.32855  -0.36996  -0.91539
   8   26721.9    374.2   0.126391936   1.55714  -0.47755  -0.52590   1.02592
   9   26783.6    373.4   0.182244220   2.24006  -1.08286   0.64437   0.80763
  10   27423.6    364.6   0.019343569   0.23221  -0.00444  -0.12456   0.46549
  11   27843.0    359.2   0.002487667   0.02941  -0.09007   0.04876   0.13756
  12   27933.7    358.0   0.003309881   0.03901   0.18308   0.04811  -0.05636
  13   28363.5    352.6   0.024510715   0.28449  -0.46158  -0.24423   0.10858
  14   28852.8    346.6   0.016088241   0.18357   0.11041   0.17589  -0.37475
  15   29210.5    342.3   0.059757962   0.67349   0.69976   0.35012   0.24748
  16   29907.3    334.4   0.291800858   3.21207   0.88728  -0.33046  -1.52171
  17   30600.4    326.8   0.000116484   0.00125   0.03419   0.00133  -0.00909
  18   31172.9    320.8   0.007599341   0.08026  -0.13094   0.04355   0.24742
  19   32088.4    311.6   0.289003400   2.96504  -0.33868  -1.23170   1.15467
  20   32258.5    310.0   0.149758688   1.52835   0.30844   0.28021   1.16392
  21   32834.2    304.6   0.439965881   4.41132   0.31259   0.65336   1.97148
  22   33535.6    298.2   0.077702723   0.76279  -0.43054  -0.53299  -0.54161
  23   33573.0    297.9   0.519820997   5.09730  -0.44850  -1.28346   1.80246
  24   33771.6    296.1   0.081549279   0.79496   0.42645  -0.51522  -0.58962
  25   34115.9    293.1   0.067599839   0.65233  -0.52882  -0.02437   0.60998
  26   34329.5    291.3   0.068597512   0.65783   0.61865  -0.03131  -0.52357
  27   34917.5    286.4   0.084184958   0.79372  -0.36825   0.46205  -0.66680
  28   35157.6    284.4   0.111508110   1.04415   0.65819  -0.10801   0.77413
  29   35476.6    281.9   0.056550224   0.52477   0.35255   0.40870  -0.48315
  30   35607.6    280.8   0.004714547   0.04359   0.12652  -0.02334  -0.16443
  31   35851.3    278.9   0.021301833   0.19561   0.39687   0.04766  -0.18928
  32   36165.3    276.5   0.006781399   0.06173  -0.17689  -0.04015   0.16979
  33   36601.8    273.2   0.188224876   1.69297  -0.25506   1.27573  -0.02093
  34   36924.4    270.8   0.123063813   1.09722  -0.90031  -0.37229   0.38479
  35   37506.2    266.6   0.284641704   2.49845   0.45094   0.07344   1.51318
  36   37663.7    265.5   0.032539764   0.28442  -0.45998   0.14205   0.22950
  37   38225.8    261.6   0.150052286   1.29229  -0.44548   1.01871   0.23679
  38   38606.9    259.0   0.118108897   1.00715  -0.39173  -0.47553   0.79219
  39   38751.3    258.1   0.021577011   0.18331  -0.34901  -0.17388  -0.17683
  40   38807.6    257.7   0.018868024   0.16006   0.38932   0.05540   0.07363
  41   39028.5    256.2   0.010750697   0.09068   0.21674   0.14097   0.15438
  42   39039.4    256.2   0.048972734   0.41298   0.17122   0.61752   0.04826
  43   39120.3    255.6   0.034073337   0.28674  -0.40808  -0.12963   0.32157
  44   39253.6    254.8   0.061142076   0.51279  -0.30246   0.52998   0.37473
  45   39527.7    253.0   0.062508272   0.52061   0.12418   0.71043   0.02172
  46   39850.6    250.9   0.162710112   1.34417   0.49960  -0.13288  -1.03775
  47   39885.2    250.7   0.384460130   3.17333  -1.60837   0.21624   0.73466

FINAL SINGLE POINT ENERGY     -4418.049428313700

DIPOLE MOMENT
-------------
                                X             Y             Z
Electronic contribution:    -19.85298      44.61658       9.87928
Nuclear contribution   :     21.09458     -42.85877     -10.36053
                        -----------------------------------------
Total Dipole Moment    :      1.24160       1.75781      -0.48125
                        -----------------------------------------
Magnitude (a.u.)       :      2.20524
Magnitude (Debye)      :      5.60528

Rotational constants in cm-1:     0.001797     0.000171     0.000163
Rotational constants in MHz :    53.880872     5.139561     4.881535

                             ****ORCA TERMINATED NORMALLY****
TOTAL RUN TIME: 0 days 0 hours 11 minutes 52 seconds 209 msec
