                         Program Version 4.2.0 -  RELEASE  -
|  1> # ORCA input file
|  2> # SCF done       -213.931774281157          0.000995653930
|  3> ! CAM-B3LYP def2-SVP def2/J RIJCOSX Grid4 TightSCF
|  4> %maxcore 5000
|  5> %tddft
|  6>     Mode sTDDFT
|  7>     Ethresh 5.0
|  8>     maxcore 5000
|  9> end
| 10>
| 11> %pal
| 12>   nprocs 6
| 13>   end
| 14> * xyz 0 1
| 15>    C        1.74023         6.93360         1.75861
| 16>    C        0.61898         7.68955         1.54425
| 17>    C        0.62630         9.09823         1.56738
| 18>    N        0.63855        10.24572         1.53147
| 19>    C       -0.64985         7.09280         1.36923
| 20>    N       -1.67779         6.59091         1.28683
| 21>    C        3.00838         7.41504         2.29790
| 22>    C        3.70283         6.30896         2.87261
| 23>    C        4.90892         6.46384         3.49390
| 24>    C        5.49292         7.74891         3.55536
| 25>    C        4.81180         8.85471         2.96880
| 26>    C        3.55765         8.66773         2.34281
| 27>    C        5.41150        10.12914         3.02678
| 28>    C        6.62459        10.30530         3.63471
| 29>    C        7.29408         9.21623         4.21256
| 30>    C        6.73984         7.96564         4.17468
| 31>    C        2.93718         5.07243         2.63892
| 32>    O        3.18268         3.95265         3.01841
| 33>    C        1.81671         5.48428         1.73598
| 34>    C        1.27508         4.54887         0.91458
| 35>    C        0.57921         4.73324        -0.30850
| 36>    O        0.29953         5.97542        -0.78402
| 37>    C       -0.22430         5.86636        -2.01363
| 38>    C       -0.27126         4.50687        -2.35663
| 39>    C        0.23071         3.78876        -1.25597
| 40>    N       -0.73686         3.95251        -3.56849
| 41>    O       -1.10302         4.72291        -4.43811
| 42>    O       -0.72653         2.74333        -3.67064
| 43>    C       -0.61489         7.03850        -2.71252
| 44>    C       -0.84856         8.18044        -2.01276
| 45>    C       -1.13772         9.49849        -2.43225
| 46>    N       -0.95303        10.10495        -3.65035
| 47>    C       -0.55353         9.48571        -4.89023
| 48>    C       -1.74147         8.86051        -5.61768
| 49>    C       -1.21540        11.49426        -3.58731
| 50>    O       -1.09301        12.24005        -4.53341
| 51>    C       -1.61051        11.72034        -2.21148
| 52>    C       -1.56705        10.48294        -1.54324
| 53>    C       -2.00741        10.69018        -0.18065
| 54>    O       -2.15687         9.92631         0.74578
| 55>    N       -2.29061        12.07525        -0.11400
| 56>    C       -2.61185        12.65996         1.16790
| 57>    C       -1.43548        13.44674         1.73674
| 58>    C       -2.03438        12.70055        -1.30870
| 59>    C       -2.12225        14.07815        -1.64035
| 60>    C       -2.80003        15.05782        -0.99270
| 61>    C       -2.77806        16.41755        -1.39830
| 62>    S       -1.56326        17.02915        -2.47204
| 63>    C       -2.20617        18.63900        -2.36717
| 64>    C       -3.32128        18.68219        -1.51856
| 65>    C       -3.63719        17.43018        -0.95854
| 66>    C       -4.76917        17.23350        -0.04716
| 67>    O       -4.99807        16.18203         0.52704
| 68>    C       -5.64702        18.41388         0.11050
| 69>    C       -6.83133        18.26767         0.82840
| 70>    C       -7.69295        19.33650         0.99352
| 71>    C       -7.37581        20.57232         0.44918
| 72>    C       -6.19634        20.73445        -0.25429
| 73>    C       -5.32544        19.66331        -0.43544
| 74>    C       -4.07011        19.89973        -1.18145
| 75>    O       -3.69709        21.02389        -1.46685
| 76>    C       -1.72016        19.75520        -3.08604
| 77>    C       -0.51638        19.92364        -3.70139
| 78>    C       -0.08895        21.14446        -4.36830
| 79>    C       -0.91039        22.10439        -4.89169
| 80>    C       -0.44104        23.26821        -5.53676
| 81>    N       -0.10880        24.23113        -6.06533
| 82>    C       -2.32049        22.02017        -4.92478
| 83>    N       -3.46245        21.99528        -5.03329
| 84>    C        1.36488        21.10686        -4.45784
| 85>    C        1.81185        19.83152        -4.00376
| 86>    C        0.65322        19.02534        -3.59354
| 87>    O        0.66389        17.86721        -3.22405
| 88>    C        3.13550        19.49684        -3.97958
| 89>    C        4.09184        20.44505        -4.40551
| 90>    C        3.65410        21.72571        -4.85264
| 91>    C        2.27564        22.04040        -4.87543
| 92>    C        4.61937        22.66545        -5.26752
| 93>    C        5.95256        22.35749        -5.24273
| 94>    C        6.38215        21.09644        -4.80302
| 95>    C        5.47155        20.16023        -4.39419
| 96>    H        5.41471         5.61470         3.92877
| 97>    H        3.06706         9.52004         1.89942
| 98>    H        4.89093        10.96520         2.58332
| 99>    H        7.07511        11.28574         3.67450
|100>    H        8.25087         9.37322         4.68749
|101>    H        7.25053         7.12326         4.61762
|102>    H        1.52256         3.51894         1.14354
|103>    H        0.32631         2.72493        -1.18511
|104>    H       -0.75799         6.93727        -3.77595
|105>    H       -0.84621         8.09907        -0.93247
|106>    H        0.22130         8.74233        -4.68730
|107>    H       -0.13006        10.28387        -5.50713
|108>    H       -2.24259         8.12374        -4.99427
|109>    H       -1.40142         8.37302        -6.52687
|110>    H       -2.45868         9.63319        -5.88336
|111>    H       -2.83202        11.81115         1.82248
|112>    H       -3.50913        13.27728         1.09258
|113>    H       -0.57326        12.79172         1.83672
|114>    H       -1.69665        13.83453         2.71723
|115>    H       -1.17178        14.28071         1.09038
|116>    H       -1.60085        14.32694        -2.55825
|117>    H       -3.43735        14.84628        -0.14781
|118>    H       -7.05687        17.29835         1.24778
|119>    H       -8.61091        19.20761         1.54695
|120>    H       -8.04661        21.40862         0.57566
|121>    H       -5.92631        21.68880        -0.68142
|122>    H       -2.39401        20.60536        -3.06550
|123>    H        3.44898        18.52266        -3.63478
|124>    H        1.97437        23.01916        -5.21403
|125>    H        4.28423        23.63459        -5.60649
|126>    H        6.68397        23.08463        -5.56191
|127>    H        7.43791        20.87073        -4.78954
|128>    H        5.79594        19.18747        -4.05460
|129> *
|130>
|131>                          ****END OF INPUT****

CARTESIAN COORDINATES (ANGSTROEM)
---------------------------------
  C      1.740230    6.933600    1.758610
  C      0.618980    7.689550    1.544250
  C      0.626300    9.098230    1.567380
  N      0.638550   10.245720    1.531470
  C     -0.649850    7.092800    1.369230
  N     -1.677790    6.590910    1.286830
  C      3.008380    7.415040    2.297900
  C      3.702830    6.308960    2.872610
  C      4.908920    6.463840    3.493900
  C      5.492920    7.748910    3.555360
  C      4.811800    8.854710    2.968800
  C      3.557650    8.667730    2.342810
  C      5.411500   10.129140    3.026780
  C      6.624590   10.305300    3.634710
  C      7.294080    9.216230    4.212560
  C      6.739840    7.965640    4.174680
  C      2.937180    5.072430    2.638920
  O      3.182680    3.952650    3.018410
  C      1.816710    5.484280    1.735980
  C      1.275080    4.548870    0.914580
  C      0.579210    4.733240   -0.308500
  O      0.299530    5.975420   -0.784020
  C     -0.224300    5.866360   -2.013630
  C     -0.271260    4.506870   -2.356630
  C      0.230710    3.788760   -1.255970
  N     -0.736860    3.952510   -3.568490
  O     -1.103020    4.722910   -4.438110
  O     -0.726530    2.743330   -3.670640
  C     -0.614890    7.038500   -2.712520
  C     -0.848560    8.180440   -2.012760
  C     -1.137720    9.498490   -2.432250
  N     -0.953030   10.104950   -3.650350
  C     -0.553530    9.485710   -4.890230
  C     -1.741470    8.860510   -5.617680
  C     -1.215400   11.494260   -3.587310
  O     -1.093010   12.240050   -4.533410
  C     -1.610510   11.720340   -2.211480
  C     -1.567050   10.482940   -1.543240
  C     -2.007410   10.690180   -0.180650
  O     -2.156870    9.926310    0.745780
  N     -2.290610   12.075250   -0.114000
  C     -2.611850   12.659960    1.167900
  C     -1.435480   13.446740    1.736740
  C     -2.034380   12.700550   -1.308700
  C     -2.122250   14.078150   -1.640350
  C     -2.800030   15.057820   -0.992700
  C     -2.778060   16.417550   -1.398300
  S     -1.563260   17.029150   -2.472040
  C     -2.206170   18.639000   -2.367170
  C     -3.321280   18.682190   -1.518560
  C     -3.637190   17.430180   -0.958540
  C     -4.769170   17.233500   -0.047160
  O     -4.998070   16.182030    0.527040
  C     -5.647020   18.413880    0.110500
  C     -6.831330   18.267670    0.828400
  C     -7.692950   19.336500    0.993520
  C     -7.375810   20.572320    0.449180
  C     -6.196340   20.734450   -0.254290
  C     -5.325440   19.663310   -0.435440
  C     -4.070110   19.899730   -1.181450
  O     -3.697090   21.023890   -1.466850
  C     -1.720160   19.755200   -3.086040
  C     -0.516380   19.923640   -3.701390
  C     -0.088950   21.144460   -4.368300
  C     -0.910390   22.104390   -4.891690
  C     -0.441040   23.268210   -5.536760
  N     -0.108800   24.231130   -6.065330
  C     -2.320490   22.020170   -4.924780
  N     -3.462450   21.995280   -5.033290
  C      1.364880   21.106860   -4.457840
  C      1.811850   19.831520   -4.003760
  C      0.653220   19.025340   -3.593540
  O      0.663890   17.867210   -3.224050
  C      3.135500   19.496840   -3.979580
  C      4.091840   20.445050   -4.405510
  C      3.654100   21.725710   -4.852640
  C      2.275640   22.040400   -4.875430
  C      4.619370   22.665450   -5.267520
  C      5.952560   22.357490   -5.242730
  C      6.382150   21.096440   -4.803020
  C      5.471550   20.160230   -4.394190
  H      5.414710    5.614700    3.928770
  H      3.067060    9.520040    1.899420
  H      4.890930   10.965200    2.583320
  H      7.075110   11.285740    3.674500
  H      8.250870    9.373220    4.687490
  H      7.250530    7.123260    4.617620
  H      1.522560    3.518940    1.143540
  H      0.326310    2.724930   -1.185110
  H     -0.757990    6.937270   -3.775950
  H     -0.846210    8.099070   -0.932470
  H      0.221300    8.742330   -4.687300
  H     -0.130060   10.283870   -5.507130
  H     -2.242590    8.123740   -4.994270
  H     -1.401420    8.373020   -6.526870
  H     -2.458680    9.633190   -5.883360
  H     -2.832020   11.811150    1.822480
  H     -3.509130   13.277280    1.092580
  H     -0.573260   12.791720    1.836720
  H     -1.696650   13.834530    2.717230
  H     -1.171780   14.280710    1.090380
  H     -1.600850   14.326940   -2.558250
  H     -3.437350   14.846280   -0.147810
  H     -7.056870   17.298350    1.247780
  H     -8.610910   19.207610    1.546950
  H     -8.046610   21.408620    0.575660
  H     -5.926310   21.688800   -0.681420
  H     -2.394010   20.605360   -3.065500
  H      3.448980   18.522660   -3.634780
  H      1.974370   23.019160   -5.214030
  H      4.284230   23.634590   -5.606490
  H      6.683970   23.084630   -5.561910
  H      7.437910   20.870730   -4.789540
  H      5.795940   19.187470   -4.054600

 Total Charge           Charge          ....    0
 Multiplicity           Mult            ....    1
 Number of Electrons    NEL             ....  554
 Basis Dimension        Dim             .... 1303

ORBITAL ENERGIES
----------------

  NO   OCC          E(Eh)            E(eV)
   0   2.0000     -88.982833     -2421.3460
   1   2.0000     -19.326221      -525.8932
   2   2.0000     -19.248197      -523.7701
   3   2.0000     -19.247331      -523.7465
   4   2.0000     -19.227190      -523.1984
   5   2.0000     -19.223509      -523.0983
   6   2.0000     -19.221510      -523.0439
   7   2.0000     -19.218509      -522.9622
   8   2.0000     -19.195847      -522.3456
   9   2.0000     -19.190576      -522.2021
  10   2.0000     -14.659098      -398.8943
  11   2.0000     -14.455614      -393.3572
  12   2.0000     -14.454831      -393.3359
  13   2.0000     -14.419087      -392.3633
  14   2.0000     -14.416729      -392.2991
  15   2.0000     -14.413455      -392.2100
  16   2.0000     -14.408709      -392.0809
  17   2.0000     -10.382670      -282.5268
  18   2.0000     -10.377651      -282.3902
  19   2.0000     -10.377197      -282.3779
  20   2.0000     -10.376275      -282.3528
  21   2.0000     -10.375863      -282.3416
  22   2.0000     -10.375838      -282.3409
  23   2.0000     -10.370007      -282.1822
  24   2.0000     -10.365314      -282.0545
  25   2.0000     -10.347835      -281.5789
  26   2.0000     -10.345474      -281.5147
  27   2.0000     -10.345325      -281.5106
  28   2.0000     -10.342418      -281.4315
  29   2.0000     -10.341941      -281.4185
  30   2.0000     -10.341793      -281.4145
  31   2.0000     -10.341077      -281.3950
  32   2.0000     -10.334310      -281.2109
  33   2.0000     -10.329930      -281.0917
  34   2.0000     -10.327461      -281.0245
  35   2.0000     -10.322253      -280.8828
  36   2.0000     -10.321648      -280.8663
  37   2.0000     -10.318953      -280.7930
  38   2.0000     -10.317034      -280.7408
  39   2.0000     -10.315530      -280.6998
  40   2.0000     -10.311242      -280.5832
  41   2.0000     -10.309768      -280.5430
  42   2.0000     -10.308650      -280.5126
  43   2.0000     -10.307584      -280.4836
  44   2.0000     -10.306468      -280.4533
  45   2.0000     -10.306444      -280.4526
  46   2.0000     -10.306412      -280.4517
  47   2.0000     -10.306296      -280.4486
  48   2.0000     -10.306205      -280.4461
  49   2.0000     -10.302299      -280.3398
  50   2.0000     -10.301762      -280.3252
  51   2.0000     -10.301389      -280.3150
  52   2.0000     -10.301353      -280.3141
  53   2.0000     -10.301201      -280.3099
  54   2.0000     -10.300927      -280.3025
  55   2.0000     -10.300344      -280.2866
  56   2.0000     -10.300310      -280.2857
  57   2.0000     -10.299984      -280.2768
  58   2.0000     -10.299937      -280.2755
  59   2.0000     -10.299645      -280.2676
  60   2.0000     -10.298356      -280.2325
  61   2.0000     -10.295960      -280.1673
  62   2.0000     -10.295591      -280.1573
  63   2.0000     -10.293336      -280.0959
  64   2.0000     -10.292466      -280.0722
  65   2.0000     -10.290405      -280.0162
  66   2.0000     -10.289959      -280.0040
  67   2.0000     -10.289858      -280.0013
  68   2.0000     -10.289352      -279.9875
  69   2.0000     -10.288897      -279.9751
  70   2.0000     -10.288875      -279.9745
  71   2.0000     -10.288597      -279.9670
  72   2.0000     -10.288380      -279.9611
  73   2.0000     -10.288231      -279.9570
  74   2.0000     -10.288137      -279.9544
  75   2.0000     -10.287856      -279.9468
  76   2.0000     -10.287816      -279.9457
  77   2.0000     -10.269693      -279.4526
  78   2.0000     -10.266747      -279.3724
  79   2.0000     -10.260727      -279.2086
  80   2.0000     -10.252603      -278.9875
  81   2.0000      -8.076604      -219.7756
  82   2.0000      -6.045619      -164.5097
  83   2.0000      -6.041216      -164.3898
  84   2.0000      -6.039366      -164.3395
  85   2.0000      -1.329063       -36.1656
  86   2.0000      -1.249077       -33.9891
  87   2.0000      -1.147321       -31.2202
  88   2.0000      -1.142939       -31.1009
  89   2.0000      -1.140159       -31.0253
  90   2.0000      -1.136525       -30.9264
  91   2.0000      -1.136122       -30.9155
  92   2.0000      -1.134443       -30.8698
  93   2.0000      -1.128640       -30.7119
  94   2.0000      -1.066093       -29.0099
  95   2.0000      -1.056555       -28.7503
  96   2.0000      -1.020090       -27.7581
  97   2.0000      -1.018547       -27.7161
  98   2.0000      -1.012843       -27.5608
  99   2.0000      -1.000765       -27.2322
 100   2.0000      -0.999693       -27.2030
 101   2.0000      -0.993314       -27.0294
 102   2.0000      -0.991758       -26.9871
 103   2.0000      -0.975156       -26.5354
 104   2.0000      -0.974309       -26.5123
 105   2.0000      -0.972786       -26.4708
 106   2.0000      -0.961993       -26.1772
 107   2.0000      -0.946192       -25.7472
 108   2.0000      -0.932353       -25.3706
 109   2.0000      -0.930683       -25.3252
 110   2.0000      -0.924853       -25.1665
 111   2.0000      -0.922953       -25.1148
 112   2.0000      -0.911004       -24.7897
 113   2.0000      -0.908604       -24.7244
 114   2.0000      -0.896632       -24.3986
 115   2.0000      -0.888898       -24.1882
 116   2.0000      -0.884698       -24.0739
 117   2.0000      -0.883055       -24.0292
 118   2.0000      -0.880441       -23.9580
 119   2.0000      -0.870740       -23.6940
 120   2.0000      -0.858001       -23.3474
 121   2.0000      -0.855907       -23.2904
 122   2.0000      -0.850746       -23.1500
 123   2.0000      -0.845485       -23.0068
 124   2.0000      -0.836680       -22.7672
 125   2.0000      -0.831606       -22.6292
 126   2.0000      -0.830394       -22.5962
 127   2.0000      -0.818404       -22.2699
 128   2.0000      -0.813779       -22.1441
 129   2.0000      -0.805404       -21.9162
 130   2.0000      -0.791520       -21.5384
 131   2.0000      -0.775660       -21.1068
 132   2.0000      -0.765292       -20.8247
 133   2.0000      -0.760498       -20.6942
 134   2.0000      -0.757866       -20.6226
 135   2.0000      -0.754357       -20.5271
 136   2.0000      -0.747402       -20.3378
 137   2.0000      -0.731911       -19.9163
 138   2.0000      -0.723772       -19.6948
 139   2.0000      -0.722295       -19.6547
 140   2.0000      -0.711541       -19.3620
 141   2.0000      -0.709284       -19.3006
 142   2.0000      -0.706676       -19.2296
 143   2.0000      -0.704398       -19.1677
 144   2.0000      -0.701298       -19.0833
 145   2.0000      -0.699081       -19.0230
 146   2.0000      -0.689961       -18.7748
 147   2.0000      -0.687369       -18.7043
 148   2.0000      -0.683139       -18.5892
 149   2.0000      -0.678617       -18.4661
 150   2.0000      -0.675730       -18.3875
 151   2.0000      -0.670179       -18.2365
 152   2.0000      -0.661110       -17.9897
 153   2.0000      -0.651496       -17.7281
 154   2.0000      -0.650041       -17.6885
 155   2.0000      -0.644277       -17.5317
 156   2.0000      -0.640926       -17.4405
 157   2.0000      -0.636270       -17.3138
 158   2.0000      -0.633983       -17.2516
 159   2.0000      -0.632055       -17.1991
 160   2.0000      -0.624686       -16.9986
 161   2.0000      -0.612364       -16.6633
 162   2.0000      -0.610598       -16.6152
 163   2.0000      -0.609052       -16.5732
 164   2.0000      -0.606366       -16.5001
 165   2.0000      -0.601772       -16.3750
 166   2.0000      -0.599170       -16.3042
 167   2.0000      -0.594612       -16.1802
 168   2.0000      -0.590937       -16.0802
 169   2.0000      -0.589676       -16.0459
 170   2.0000      -0.585858       -15.9420
 171   2.0000      -0.578415       -15.7395
 172   2.0000      -0.577838       -15.7238
 173   2.0000      -0.573825       -15.6146
 174   2.0000      -0.568650       -15.4738
 175   2.0000      -0.566219       -15.4076
 176   2.0000      -0.560137       -15.2421
 177   2.0000      -0.557256       -15.1637
 178   2.0000      -0.553672       -15.0662
 179   2.0000      -0.550511       -14.9802
 180   2.0000      -0.549718       -14.9586
 181   2.0000      -0.548768       -14.9327
 182   2.0000      -0.546380       -14.8678
 183   2.0000      -0.545410       -14.8413
 184   2.0000      -0.542215       -14.7544
 185   2.0000      -0.541041       -14.7225
 186   2.0000      -0.538965       -14.6660
 187   2.0000      -0.536986       -14.6121
 188   2.0000      -0.533930       -14.5290
 189   2.0000      -0.532318       -14.4851
 190   2.0000      -0.530422       -14.4335
 191   2.0000      -0.529005       -14.3949
 192   2.0000      -0.527605       -14.3569
 193   2.0000      -0.524554       -14.2738
 194   2.0000      -0.521564       -14.1925
 195   2.0000      -0.521490       -14.1905
 196   2.0000      -0.519832       -14.1454
 197   2.0000      -0.518032       -14.0964
 198   2.0000      -0.516536       -14.0557
 199   2.0000      -0.514674       -14.0050
 200   2.0000      -0.514426       -13.9982
 201   2.0000      -0.511259       -13.9121
 202   2.0000      -0.510956       -13.9038
 203   2.0000      -0.506897       -13.7934
 204   2.0000      -0.504388       -13.7251
 205   2.0000      -0.501798       -13.6546
 206   2.0000      -0.498558       -13.5665
 207   2.0000      -0.496571       -13.5124
 208   2.0000      -0.494695       -13.4613
 209   2.0000      -0.494028       -13.4432
 210   2.0000      -0.493162       -13.4196
 211   2.0000      -0.487271       -13.2593
 212   2.0000      -0.485773       -13.2186
 213   2.0000      -0.483864       -13.1666
 214   2.0000      -0.482828       -13.1384
 215   2.0000      -0.475425       -12.9370
 216   2.0000      -0.472143       -12.8477
 217   2.0000      -0.470653       -12.8071
 218   2.0000      -0.467606       -12.7242
 219   2.0000      -0.465778       -12.6745
 220   2.0000      -0.465534       -12.6678
 221   2.0000      -0.459959       -12.5161
 222   2.0000      -0.456419       -12.4198
 223   2.0000      -0.454670       -12.3722
 224   2.0000      -0.453947       -12.3525
 225   2.0000      -0.449541       -12.2326
 226   2.0000      -0.447734       -12.1835
 227   2.0000      -0.445624       -12.1260
 228   2.0000      -0.445021       -12.1096
 229   2.0000      -0.442879       -12.0513
 230   2.0000      -0.442782       -12.0487
 231   2.0000      -0.441169       -12.0048
 232   2.0000      -0.440027       -11.9737
 233   2.0000      -0.438019       -11.9191
 234   2.0000      -0.437170       -11.8960
 235   2.0000      -0.436218       -11.8701
 236   2.0000      -0.435502       -11.8506
 237   2.0000      -0.432142       -11.7592
 238   2.0000      -0.431453       -11.7404
 239   2.0000      -0.430394       -11.7116
 240   2.0000      -0.427274       -11.6267
 241   2.0000      -0.426102       -11.5948
 242   2.0000      -0.425132       -11.5684
 243   2.0000      -0.419663       -11.4196
 244   2.0000      -0.419053       -11.4030
 245   2.0000      -0.417212       -11.3529
 246   2.0000      -0.415062       -11.2944
 247   2.0000      -0.412631       -11.2283
 248   2.0000      -0.408350       -11.1118
 249   2.0000      -0.405261       -11.0277
 250   2.0000      -0.398906       -10.8548
 251   2.0000      -0.393955       -10.7201
 252   2.0000      -0.390048       -10.6137
 253   2.0000      -0.387971       -10.5572
 254   2.0000      -0.385575       -10.4920
 255   2.0000      -0.377858       -10.2820
 256   2.0000      -0.375834       -10.2270
 257   2.0000      -0.375032       -10.2051
 258   2.0000      -0.357115        -9.7176
 259   2.0000      -0.355677        -9.6785
 260   2.0000      -0.353575        -9.6213
 261   2.0000      -0.350931        -9.5493
 262   2.0000      -0.350010        -9.5242
 263   2.0000      -0.340077        -9.2540
 264   2.0000      -0.339428        -9.2363
 265   2.0000      -0.338971        -9.2239
 266   2.0000      -0.335548        -9.1307
 267   2.0000      -0.333543        -9.0762
 268   2.0000      -0.329033        -8.9534
 269   2.0000      -0.320483        -8.7208
 270   2.0000      -0.319195        -8.6857
 271   2.0000      -0.317898        -8.6504
 272   2.0000      -0.302218        -8.2238
 273   2.0000      -0.300053        -8.1649
 274   2.0000      -0.293437        -7.9848
 275   2.0000      -0.289209        -7.8698
 276   2.0000      -0.241459        -6.5704
 277   0.0000      -0.115215        -3.1352
 278   0.0000      -0.100249        -2.7279
 279   0.0000      -0.088384        -2.4050
 280   0.0000      -0.068834        -1.8731
 281   0.0000      -0.062547        -1.7020

MULLIKEN ATOMIC CHARGES
-----------------------
   0 C :    0.239269
   1 C :   -0.308254
   2 C :   -0.132411
   3 N :    0.140555
   4 C :   -0.203760
   5 N :    0.170071
   6 C :    0.049389
   7 C :    0.006944
   8 C :   -0.080187
   9 C :    0.094075
  10 C :    0.096012
  11 C :   -0.084752
  12 C :   -0.016782
  13 C :    0.035378
  14 C :    0.036622
  15 C :   -0.014454
  16 C :    0.136740
  17 O :   -0.138315
  18 C :   -0.105319
  19 C :    0.030230
  20 C :    0.177387
  21 O :   -0.199962
  22 C :    0.140965
  23 C :    0.136720
  24 C :   -0.044216
  25 N :    0.270217
  26 O :   -0.248968
  27 O :   -0.236724
  28 C :   -0.065942
  29 C :    0.007292
  30 C :    0.116298
  31 N :   -0.270975
  32 C :    0.102567
  33 C :    0.001228
  34 C :    0.147223
  35 O :   -0.187314
  36 C :   -0.035087
  37 C :   -0.028805
  38 C :    0.172862
  39 O :   -0.173451
  40 N :   -0.268097
  41 C :    0.092263
  42 C :   -0.005567
  43 C :    0.119946
  44 C :   -0.028621
  45 C :    0.003018
  46 C :   -0.132268
  47 S :    0.244327
  48 C :   -0.128116
  49 C :    0.053260
  50 C :    0.054276
  51 C :    0.130763
  52 O :   -0.167771
  53 C :   -0.012113
  54 C :   -0.019993
  55 C :    0.052546
  56 C :    0.049165
  57 C :   -0.016056
  58 C :   -0.006672
  59 C :    0.127926
  60 O :   -0.158737
  61 C :   -0.042009
  62 C :   -0.082632
  63 C :    0.287348
  64 C :   -0.322828
  65 C :   -0.182961
  66 N :    0.151684
  67 C :   -0.203192
  68 N :    0.168302
  69 C :    0.053541
  70 C :   -0.003915
  71 C :    0.163112
  72 O :   -0.165401
  73 C :   -0.077428
  74 C :    0.097598
  75 C :    0.096277
  76 C :   -0.082679
  77 C :   -0.017280
  78 C :    0.037839
  79 C :    0.034259
  80 C :   -0.014623
  81 H :   -0.011234
  82 H :   -0.009345
  83 H :   -0.012301
  84 H :   -0.005506
  85 H :   -0.005507
  86 H :   -0.017467
  87 H :    0.025781
  88 H :    0.014521
  89 H :    0.030793
  90 H :    0.010955
  91 H :    0.021465
  92 H :    0.041764
  93 H :    0.027416
  94 H :    0.026390
  95 H :    0.029514
  96 H :    0.046765
  97 H :    0.038611
  98 H :    0.035801
  99 H :    0.019671
 100 H :    0.017162
 101 H :    0.025888
 102 H :    0.022957
 103 H :    0.001396
 104 H :   -0.000300
 105 H :    0.001586
 106 H :    0.006773
 107 H :    0.057251
 108 H :   -0.011951
 109 H :   -0.006017
 110 H :   -0.009225
 111 H :   -0.003089
 112 H :   -0.003692
 113 H :   -0.017682
Sum of atomic charges:   -0.0000000

LOEWDIN ATOMIC CHARGES
----------------------
   0 C :    0.066321
   1 C :   -0.128225
   2 C :   -0.004609
   3 N :   -0.057564
   4 C :   -0.029582
   5 N :   -0.045584
   6 C :   -0.020865
   7 C :   -0.058286
   8 C :    0.033702
   9 C :   -0.010022
  10 C :   -0.004847
  11 C :    0.013019
  12 C :   -0.007229
  13 C :   -0.012846
  14 C :   -0.013638
  15 C :   -0.008395
  16 C :    0.084466
  17 O :   -0.139225
  18 C :   -0.074617
  19 C :    0.043724
  20 C :    0.026965
  21 O :    0.045209
  22 C :    0.088769
  23 C :   -0.078055
  24 C :    0.002548
  25 N :    0.287867
  26 O :   -0.213630
  27 O :   -0.201060
  28 C :   -0.042936
  29 C :    0.013884
  30 C :    0.059456
  31 N :   -0.004421
  32 C :    0.035713
  33 C :   -0.061088
  34 C :    0.079478
  35 O :   -0.191575
  36 C :   -0.113532
  37 C :   -0.093123
  38 C :    0.089356
  39 O :   -0.167238
  40 N :    0.001129
  41 C :    0.036565
  42 C :   -0.063864
  43 C :    0.086677
  44 C :   -0.018212
  45 C :   -0.014638
  46 C :   -0.133342
  47 S :    0.561827
  48 C :   -0.153079
  49 C :   -0.060377
  50 C :   -0.088665
  51 C :    0.089587
  52 O :   -0.148310
  53 C :   -0.050442
  54 C :    0.016731
  55 C :   -0.002430
  56 C :   -0.002116
  57 C :    0.019667
  58 C :   -0.049797
  59 C :    0.090159
  60 O :   -0.133375
  61 C :    0.054176
  62 C :   -0.084021
  63 C :    0.073588
  64 C :   -0.127887
  65 C :   -0.016253
  66 N :   -0.049426
  67 C :   -0.025706
  68 N :   -0.040293
  69 C :   -0.023812
  70 C :   -0.056185
  71 C :    0.084093
  72 O :   -0.158288
  73 C :    0.034356
  74 C :   -0.008567
  75 C :   -0.004836
  76 C :    0.020170
  77 C :   -0.004901
  78 C :   -0.011813
  79 C :   -0.012081
  80 C :   -0.008900
  81 H :    0.039635
  82 H :    0.037484
  83 H :    0.033681
  84 H :    0.032888
  85 H :    0.032744
  86 H :    0.031978
  87 H :    0.056380
  88 H :    0.049845
  89 H :    0.040551
  90 H :    0.050408
  91 H :    0.023176
  92 H :    0.037023
  93 H :    0.024175
  94 H :    0.032789
  95 H :    0.033210
  96 H :    0.039235
  97 H :    0.025004
  98 H :    0.032523
  99 H :    0.030319
 100 H :    0.019844
 101 H :    0.041592
 102 H :    0.037911
 103 H :    0.037415
 104 H :    0.034587
 105 H :    0.035099
 106 H :    0.039750
 107 H :    0.052580
 108 H :    0.039393
 109 H :    0.039491
 110 H :    0.034960
 111 H :    0.033888
 112 H :    0.033216
 113 H :    0.031828

  Mayer bond orders larger than 0.100000
B(  0-C ,  1-C ) :   1.6740 B(  0-C ,  6-C ) :   1.0064 B(  0-C , 18-C ) :   1.0222
B(  1-C ,  2-C ) :   1.1395 B(  1-C ,  4-C ) :   1.1608 B(  2-C ,  3-N ) :   2.9262
B(  4-C ,  5-N ) :   2.9833 B(  6-C ,  7-C ) :   1.2111 B(  6-C , 11-C ) :   1.4623
B(  7-C ,  8-C ) :   1.4751 B(  7-C , 16-C ) :   0.9243 B(  8-C ,  9-C ) :   1.1864
B(  8-C , 81-H ) :   1.0165 B(  9-C , 10-C ) :   1.2585 B(  9-C , 15-C ) :   1.2429
B( 10-C , 11-C ) :   1.1970 B( 10-C , 12-C ) :   1.2426 B( 11-C , 82-H ) :   0.9949
B( 12-C , 13-C ) :   1.4884 B( 12-C , 83-H ) :   0.9978 B( 13-C , 14-C ) :   1.2597
B( 13-C , 84-H ) :   0.9888 B( 14-C , 15-C ) :   1.4906 B( 14-C , 85-H ) :   0.9886
B( 15-C , 86-H ) :   0.9980 B( 16-C , 17-O ) :   2.2710 B( 16-C , 18-C ) :   0.9305
B( 18-C , 19-C ) :   1.6426 B( 19-C , 20-C ) :   1.1435 B( 19-C , 87-H ) :   0.9445
B( 20-C , 21-O ) :   1.0840 B( 20-C , 24-C ) :   1.3870 B( 21-O , 22-C ) :   1.1952
B( 22-C , 23-C ) :   1.3156 B( 22-C , 28-C ) :   1.1885 B( 23-C , 24-C ) :   1.2560
B( 23-C , 25-N ) :   0.9412 B( 24-C , 88-H ) :   1.0255 B( 25-N , 26-O ) :   1.5090
B( 25-N , 27-O ) :   1.5462 B( 26-O , 27-O ) :   0.2663 B( 28-C , 29-C ) :   1.5426
B( 28-C , 89-H ) :   0.9543 B( 29-C , 30-C ) :   1.1804 B( 29-C , 90-H ) :   0.9504
B( 30-C , 31-N ) :   1.1708 B( 30-C , 37-C ) :   1.3504 B( 31-N , 32-C ) :   0.9403
B( 31-N , 34-C ) :   1.0324 B( 32-C , 33-C ) :   1.1215 B( 32-C , 91-H ) :   0.9487
B( 32-C , 92-H ) :   0.9274 B( 33-C , 93-H ) :   0.9662 B( 33-C , 94-H ) :   0.9683
B( 33-C , 95-H ) :   0.9611 B( 34-C , 35-O ) :   2.1410 B( 34-C , 36-C ) :   0.9707
B( 36-C , 37-C ) :   1.2498 B( 36-C , 43-C ) :   1.3273 B( 37-C , 38-C ) :   0.9676
B( 38-C , 39-O ) :   2.1107 B( 38-C , 40-N ) :   1.0295 B( 40-N , 41-C ) :   0.9357
B( 40-N , 43-C ) :   1.1964 B( 41-C , 42-C ) :   1.1182 B( 41-C , 96-H ) :   0.9210
B( 41-C , 97-H ) :   0.9524 B( 42-C , 98-H ) :   0.9568 B( 42-C , 99-H ) :   0.9658
B( 42-C ,100-H ) :   0.9657 B( 43-C , 44-C ) :   1.1800 B( 44-C , 45-C ) :   1.5544
B( 44-C ,101-H ) :   0.9495 B( 45-C , 46-C ) :   1.1729 B( 45-C ,102-H ) :   0.9631
B( 46-C , 47-S ) :   1.1527 B( 46-C , 50-C ) :   1.3931 B( 47-S , 48-C ) :   1.1408
B( 48-C , 49-C ) :   1.4141 B( 48-C , 61-C ) :   1.2036 B( 49-C , 50-C ) :   1.2689
B( 49-C , 59-C ) :   0.9450 B( 50-C , 51-C ) :   0.9553 B( 51-C , 52-O ) :   2.1580
B( 51-C , 53-C ) :   0.9586 B( 53-C , 54-C ) :   1.4060 B( 53-C , 58-C ) :   1.3445
B( 54-C , 55-C ) :   1.3590 B( 54-C ,103-H ) :   0.9933 B( 55-C , 56-C ) :   1.3570
B( 55-C ,104-H ) :   0.9926 B( 56-C , 57-C ) :   1.3592 B( 56-C ,105-H ) :   0.9930
B( 57-C , 58-C ) :   1.4059 B( 57-C ,106-H ) :   0.9937 B( 58-C , 59-C ) :   0.9523
B( 59-C , 60-O ) :   2.1508 B( 61-C , 62-C ) :   1.5872 B( 61-C ,107-H ) :   0.9233
B( 62-C , 63-C ) :   1.0409 B( 62-C , 71-C ) :   0.9528 B( 63-C , 64-C ) :   1.6680
B( 63-C , 69-C ) :   0.9944 B( 64-C , 65-C ) :   1.1410 B( 64-C , 67-C ) :   1.1328
B( 65-C , 66-N ) :   2.9730 B( 67-C , 68-N ) :   3.0062 B( 69-C , 70-C ) :   1.2103
B( 69-C , 76-C ) :   1.4565 B( 70-C , 71-C ) :   0.9579 B( 70-C , 73-C ) :   1.4697
B( 71-C , 72-O ) :   2.1608 B( 73-C , 74-C ) :   1.1834 B( 73-C ,108-H ) :   1.0157
B( 74-C , 75-C ) :   1.2525 B( 74-C , 80-C ) :   1.2442 B( 75-C , 76-C ) :   1.2047
B( 75-C , 77-C ) :   1.2431 B( 76-C ,109-H ) :   0.9906 B( 77-C , 78-C ) :   1.4895
B( 77-C ,110-H ) :   0.9964 B( 78-C , 79-C ) :   1.2590 B( 78-C ,111-H ) :   0.9884
B( 79-C , 80-C ) :   1.4895 B( 79-C ,112-H ) :   0.9891 B( 80-C ,113-H ) :   0.9972

-----------------------------------------------------------------------------
         ABSORPTION SPECTRUM VIA TRANSITION ELECTRIC DIPOLE MOMENTS
-----------------------------------------------------------------------------
State   Energy  Wavelength   fosc         T2         TX        TY        TZ
        (cm-1)    (nm)                  (au**2)     (au)      (au)      (au)
-----------------------------------------------------------------------------
   0   12288.9    813.7   0.732254470  19.61669   1.15164  -4.27301   0.17831
   1   17151.6    583.0   0.166873015   3.20300  -1.26121  -1.25430  -0.19768
   2   18974.7    527.0   0.303994456   5.27432   0.78254  -1.22333  -1.77916
   3   22480.2    444.8   0.085873503   1.25758   0.61526   0.82779  -0.44022
   4   23224.6    430.6   0.231387038   3.27994  -0.64570  -1.65173   0.36714
   5   23578.3    424.1   0.278721202   3.89165  -0.02136   0.84644  -1.78178
   6   24819.6    402.9   0.001626571   0.02158  -0.04738   0.09423   0.10223
   7   25302.8    395.2   0.190438209   2.47777   0.30363   1.48536  -0.42341
   8   25663.6    389.7   0.023549742   0.30210  -0.48704  -0.15860   0.19933
   9   25873.1    386.5   0.081207334   1.03329   0.76649   0.08527   0.66220
  10   26400.0    378.8   0.009757950   0.12168   0.22133   0.11700   0.24291
  11   26695.0    374.6   0.106656323   1.31532  -0.51612   0.26362   0.98967
  12   26783.1    373.4   0.134788399   1.65679   0.99270   0.34352   0.74386
  13   27053.2    369.6   0.171709633   2.08954  -1.33336   0.17627   0.52973
  14   27275.2    366.6   0.007474915   0.09022   0.00895   0.28165  -0.10401
  15   27738.9    360.5   0.075156725   0.89198  -0.00977  -0.80263  -0.49766
  16   28319.3    353.1   0.100979118   1.17388   0.44811  -0.98429  -0.06515
  17   28498.8    350.9   0.014721334   0.17006   0.40247   0.08745   0.02076
  18   28930.9    345.7   0.021137680   0.24053   0.45703   0.02802  -0.17569
  19   29439.8    339.7   0.081926107   0.91614   0.17037   0.56560  -0.75313
  20   29733.8    336.3   0.084737062   0.93821  -0.20781  -0.89449  -0.30809
  21   29919.3    334.2   0.029964401   0.32971   0.04411   0.43686   0.37002
  22   30717.4    325.5   0.117526974   1.25959   0.74368   0.78961   0.28817
  23   31480.6    317.7   0.026550737   0.27766  -0.32362   0.00043   0.41585
  24   31754.9    314.9   0.055101604   0.57125   0.08902   0.67142  -0.33544
  25   32025.0    312.3   0.325453921   3.34562  -1.77873   0.37185  -0.20851
  26   32343.4    309.2   0.274353369   2.79255  -1.59712   0.12252  -0.47616
  27   32806.6    304.8   0.057395419   0.57596  -0.73521   0.14109   0.12457
  28   32884.8    304.1   0.044146173   0.44195  -0.59863   0.28544   0.04598
  29   32969.6    303.3   0.012134392   0.12117   0.31607   0.12801  -0.06984
  30   33117.9    302.0   0.123422590   1.22690  -0.99916  -0.35613  -0.31899
  31   33561.9    298.0   0.003882247   0.03808   0.11937  -0.03650  -0.15000
  32   33604.7    297.6   0.022293186   0.21840   0.39890  -0.03046  -0.24155
  33   33780.8    296.0   0.225029281   2.19303  -1.45246   0.24819   0.14761
  34   33829.9    295.6   0.046184021   0.44943  -0.54556  -0.13659   0.36488
  35   34285.0    291.7   0.229405112   2.20280  -1.22525  -0.00834  -0.83755
  36   34343.2    291.2   0.006267161   0.06008  -0.23145   0.07845  -0.01885
  37   34428.4    290.5   0.061841956   0.59135  -0.50160   0.46342  -0.35353
  38   34586.6    289.1   0.271103798   2.58050  -1.42006   0.06645   0.74800
  39   35046.6    285.3   0.183258984   1.72145  -1.15466  -0.48350  -0.39298
  40   35218.6    283.9   0.302260124   2.82543   1.37749  -0.02262   0.96303
  41   35293.6    283.3   0.019709631   0.18385   0.12539   0.18878   0.36399
  42   35389.8    282.6   0.192773585   1.79327  -0.38308  -1.13287  -0.60259
  43   35507.1    281.6   0.024141915   0.22384   0.27267  -0.38649   0.01083
  44   35601.6    280.9   0.155894002   1.44157   0.71206  -0.82067  -0.51093
  45   35830.6    279.1   0.299204429   2.74910  -1.54336  -0.53069  -0.29241
  46   36099.7    277.0   0.003112658   0.02839  -0.13010  -0.10687  -0.00629
  47   36120.3    276.9   0.004153941   0.03786   0.15124  -0.09296   0.07967
  48   36244.4    275.9   0.069994458   0.63577  -0.31300   0.72895   0.08016
  49   36416.6    274.6   0.101615614   0.91862   0.78159  -0.55307   0.04306
  50   36620.8    273.1   0.048938111   0.43994   0.60431   0.26369  -0.07223
  51   36787.8    271.8   0.054964905   0.49188  -0.67167  -0.17199  -0.10560
  52   37018.4    270.1   0.120799009   1.07429   0.03757  -1.02153  -0.17132
  53   37497.3    266.7   0.035161286   0.30870  -0.11883   0.47748   0.25806
  54   37727.9    265.1   0.002571138   0.02244  -0.07833  -0.03823  -0.12181
  55   37821.5    264.4   0.001399590   0.01218   0.02857  -0.03592  -0.10038
  56   38491.4    259.8   0.041328821   0.35348  -0.49014  -0.27407   0.19526
  57   38538.1    259.5   0.071931360   0.61447  -0.31926   0.58602  -0.41125
  58   38764.4    258.0   0.043652802   0.37073   0.11887  -0.00918  -0.59709
  59   38874.4    257.2   0.030536195   0.25860  -0.45151   0.11325  -0.20472
  60   38981.1    256.5   0.146993292   1.24142   0.35016  -1.04801   0.14315
  61   39403.2    253.8   0.097126842   0.81149   0.15512   0.82860  -0.31758
  62   39664.3    252.1   0.334078643   2.77284  -0.37370  -1.33594   0.92112
  63   39809.5    251.2   0.021722417   0.17964  -0.21437   0.35258  -0.09680
  64   40065.2    249.6   0.005967898   0.04904  -0.03184   0.20244  -0.08393
  65   40286.6    248.2   0.138905974   1.13510   0.11389  -1.05496  -0.09587

FINAL SINGLE POINT ENERGY     -3912.511945386736

DIPOLE MOMENT
-------------
                                X             Y             Z
Electronic contribution:    -13.47558      -0.65221      -6.26170
Nuclear contribution   :     17.01801       1.52695       7.94397
                        -----------------------------------------
Total Dipole Moment    :      3.54243       0.87475       1.68226
                        -----------------------------------------
Magnitude (a.u.)       :      4.01796
Magnitude (Debye)      :     10.21284

Rotational constants in cm-1:     0.000962     0.000321     0.000291
Rotational constants in MHz :    28.848208     9.615850     8.728929

                             ****ORCA TERMINATED NORMALLY****
TOTAL RUN TIME: 0 days 0 hours 12 minutes 40 seconds 540 msec
