                         Program Version 4.2.0 -  RELEASE  -
|  1> # ORCA input file
|  2> # SCF done       -218.504857582736          0.000711753933
|  3> ! CAM-B3LYP def2-SVP def2/J RIJCOSX Grid4 TightSCF
|  4> %maxcore 5000
|  5> %tddft
|  6>     Mode sTDDFT
|  7>     Ethresh 5.0
|  8>     maxcore 5000
|  9> end
| 10>
| 11> %pal
| 12>   nprocs 6
| 13>   end
| 14> * xyz 0 1
| 15>    C       -5.30573        -0.82687         5.18132
| 16>    C       -5.21907         0.24636         6.05207
| 17>    C       -5.52368         0.03720         7.39907
| 18>    C       -5.43838         1.12278         8.30639
| 19>    N       -5.36445         2.00312         9.03420
| 20>    C       -5.91268        -1.22987         7.87404
| 21>    C       -6.21387        -1.40867         9.24605
| 22>    N       -6.46142        -1.57204        10.35190
| 23>    C       -5.99888        -2.30977         6.99416
| 24>    C       -5.69355        -2.09001         5.66793
| 25>    C       -5.70185        -3.05907         4.55442
| 26>    O       -5.99818        -4.23733         4.63199
| 27>    C       -5.27909        -2.31644         3.36415
| 28>    C       -5.05721        -0.93244         3.74121
| 29>    C       -4.70558         0.11063         2.92713
| 30>    C       -4.51863         1.43726         3.37520
| 31>    N       -4.35059         2.53100         3.67740
| 32>    C       -4.49127         0.03163         1.53336
| 33>    N       -4.30805         0.05151         0.40046
| 34>    C       -5.09588        -2.85413         2.11321
| 35>    C       -5.29153        -4.16263         1.65065
| 36>    C       -5.02608        -4.51810         0.31822
| 37>    C       -5.29989        -5.84454         0.06118
| 38>    C       -5.78914        -6.52297         1.20882
| 39>    S       -5.89318        -5.53121         2.58762
| 40>    C       -6.05666        -7.86138         0.85142
| 41>    C       -5.73884        -8.03827        -0.51515
| 42>    C       -5.25129        -6.77921        -1.05356
| 43>    C       -4.84205        -6.53232        -2.33029
| 44>    C       -4.85033        -7.53393        -3.32503
| 45>    N       -4.85910        -8.34684        -4.13325
| 46>    C       -4.38335        -5.26166        -2.73993
| 47>    N       -4.01107        -4.22970        -3.07140
| 48>    C       -5.98583        -9.32709        -0.96098
| 49>    C       -6.49507       -10.13707         0.05075
| 50>    S       -6.65994        -9.28643         1.57815
| 51>    C       -6.88887       -11.49385        -0.06607
| 52>    C       -7.43578       -12.18952         1.03752
| 53>    C       -7.90851       -13.54351         0.93571
| 54>    N       -8.42673       -14.14362         2.01211
| 55>    C       -8.49945       -13.50191         3.15289
| 56>    C       -8.02820       -12.15319         3.25440
| 57>    N       -7.52016       -11.54883         2.20798
| 58>    C       -8.10028       -11.45750         4.48742
| 59>    N       -8.16804       -10.91954         5.49567
| 60>    C       -9.04277       -14.16536         4.28153
| 61>    N       -9.47404       -14.68544         5.20576
| 62>    C       -7.85257       -14.27842        -0.27125
| 63>    C       -7.26397       -13.60292        -1.36598
| 64>    C       -6.79534       -12.23789        -1.26620
| 65>    N       -6.29325       -11.81177        -2.42609
| 66>    S       -6.39165       -12.97941        -3.51699
| 67>    N       -7.07693       -14.09266        -2.59231
| 68>    C       -8.38467       -15.58977        -0.34742
| 69>    C       -8.38229       -16.43048        -1.45792
| 70>    C       -9.02924       -17.62849        -1.20011
| 71>    C       -9.53566       -17.70144         0.11719
| 72>    S       -9.19086       -16.30297         1.03876
| 73>    C      -10.20553       -18.93293         0.26348
| 74>    C      -10.11512       -19.65573        -0.94807
| 75>    C       -9.36938       -18.85543        -1.90571
| 76>    C       -9.05885       -19.17828        -3.19312
| 77>    C       -9.43520       -20.41153        -3.76807
| 78>    N       -9.73414       -21.41593        -4.23204
| 79>    C       -8.33338       -18.30310        -4.03040
| 80>    N       -7.74534       -17.59551        -4.71396
| 81>    C      -10.75940       -20.88414        -0.88959
| 82>    C      -11.38777       -21.09025         0.33208
| 83>    S      -11.10322       -19.75538         1.45034
| 84>    C      -12.11369       -22.24070         0.71137
| 85>    C      -13.03264       -22.37784         1.70816
| 86>    C      -13.32780       -23.72694         2.26212
| 87>    O      -13.00861       -24.79292         1.79581
| 88>    C      -14.03956       -23.46774         3.53699
| 89>    C      -14.42799       -24.36943         4.50503
| 90>    C      -15.06343       -23.87641         5.64643
| 91>    C      -15.28770       -22.49379         5.79269
| 92>    C      -14.89988       -21.58976         4.80187
| 93>    C      -14.27883       -22.08519         3.66900
| 94>    C      -13.79933       -21.40981         2.46317
| 95>    C      -14.25548       -20.20149         2.00799
| 96>    C      -13.99381       -19.71393         0.70988
| 97>    N      -13.83208       -19.31145        -0.35255
| 98>    C      -15.11217       -19.35615         2.74415
| 99>    N      -15.79843       -18.63256         3.31068
|100>    C      -15.91681       -22.01102         6.96756
|101>    N      -16.42093       -21.61247         7.91474
|102>    C      -15.47878       -24.76882         6.66456
|103>    N      -15.80699       -25.50488         7.47777
|104>    H       -4.92430         1.23204         5.72975
|105>    H       -6.29468        -3.28849         7.34027
|106>    H       -4.74016        -2.18294         1.34083
|107>    H       -4.65334        -3.80837        -0.39935
|108>    H       -5.82380        -9.69599        -1.95713
|109>    H       -7.92773       -16.14123        -2.38771
|110>    H      -10.81876       -21.59389        -1.69505
|111>    H      -11.85493       -23.15602         0.18710
|112>    H      -14.24591       -25.42646         4.38406
|113>    H      -15.07997       -20.53586         4.94552
|114> *
|115>
|116>                          ****END OF INPUT****

CARTESIAN COORDINATES (ANGSTROEM)
---------------------------------
  C     -5.305730   -0.826870    5.181320
  C     -5.219070    0.246360    6.052070
  C     -5.523680    0.037200    7.399070
  C     -5.438380    1.122780    8.306390
  N     -5.364450    2.003120    9.034200
  C     -5.912680   -1.229870    7.874040
  C     -6.213870   -1.408670    9.246050
  N     -6.461420   -1.572040   10.351900
  C     -5.998880   -2.309770    6.994160
  C     -5.693550   -2.090010    5.667930
  C     -5.701850   -3.059070    4.554420
  O     -5.998180   -4.237330    4.631990
  C     -5.279090   -2.316440    3.364150
  C     -5.057210   -0.932440    3.741210
  C     -4.705580    0.110630    2.927130
  C     -4.518630    1.437260    3.375200
  N     -4.350590    2.531000    3.677400
  C     -4.491270    0.031630    1.533360
  N     -4.308050    0.051510    0.400460
  C     -5.095880   -2.854130    2.113210
  C     -5.291530   -4.162630    1.650650
  C     -5.026080   -4.518100    0.318220
  C     -5.299890   -5.844540    0.061180
  C     -5.789140   -6.522970    1.208820
  S     -5.893180   -5.531210    2.587620
  C     -6.056660   -7.861380    0.851420
  C     -5.738840   -8.038270   -0.515150
  C     -5.251290   -6.779210   -1.053560
  C     -4.842050   -6.532320   -2.330290
  C     -4.850330   -7.533930   -3.325030
  N     -4.859100   -8.346840   -4.133250
  C     -4.383350   -5.261660   -2.739930
  N     -4.011070   -4.229700   -3.071400
  C     -5.985830   -9.327090   -0.960980
  C     -6.495070  -10.137070    0.050750
  S     -6.659940   -9.286430    1.578150
  C     -6.888870  -11.493850   -0.066070
  C     -7.435780  -12.189520    1.037520
  C     -7.908510  -13.543510    0.935710
  N     -8.426730  -14.143620    2.012110
  C     -8.499450  -13.501910    3.152890
  C     -8.028200  -12.153190    3.254400
  N     -7.520160  -11.548830    2.207980
  C     -8.100280  -11.457500    4.487420
  N     -8.168040  -10.919540    5.495670
  C     -9.042770  -14.165360    4.281530
  N     -9.474040  -14.685440    5.205760
  C     -7.852570  -14.278420   -0.271250
  C     -7.263970  -13.602920   -1.365980
  C     -6.795340  -12.237890   -1.266200
  N     -6.293250  -11.811770   -2.426090
  S     -6.391650  -12.979410   -3.516990
  N     -7.076930  -14.092660   -2.592310
  C     -8.384670  -15.589770   -0.347420
  C     -8.382290  -16.430480   -1.457920
  C     -9.029240  -17.628490   -1.200110
  C     -9.535660  -17.701440    0.117190
  S     -9.190860  -16.302970    1.038760
  C    -10.205530  -18.932930    0.263480
  C    -10.115120  -19.655730   -0.948070
  C     -9.369380  -18.855430   -1.905710
  C     -9.058850  -19.178280   -3.193120
  C     -9.435200  -20.411530   -3.768070
  N     -9.734140  -21.415930   -4.232040
  C     -8.333380  -18.303100   -4.030400
  N     -7.745340  -17.595510   -4.713960
  C    -10.759400  -20.884140   -0.889590
  C    -11.387770  -21.090250    0.332080
  S    -11.103220  -19.755380    1.450340
  C    -12.113690  -22.240700    0.711370
  C    -13.032640  -22.377840    1.708160
  C    -13.327800  -23.726940    2.262120
  O    -13.008610  -24.792920    1.795810
  C    -14.039560  -23.467740    3.536990
  C    -14.427990  -24.369430    4.505030
  C    -15.063430  -23.876410    5.646430
  C    -15.287700  -22.493790    5.792690
  C    -14.899880  -21.589760    4.801870
  C    -14.278830  -22.085190    3.669000
  C    -13.799330  -21.409810    2.463170
  C    -14.255480  -20.201490    2.007990
  C    -13.993810  -19.713930    0.709880
  N    -13.832080  -19.311450   -0.352550
  C    -15.112170  -19.356150    2.744150
  N    -15.798430  -18.632560    3.310680
  C    -15.916810  -22.011020    6.967560
  N    -16.420930  -21.612470    7.914740
  C    -15.478780  -24.768820    6.664560
  N    -15.806990  -25.504880    7.477770
  H     -4.924300    1.232040    5.729750
  H     -6.294680   -3.288490    7.340270
  H     -4.740160   -2.182940    1.340830
  H     -4.653340   -3.808370   -0.399350
  H     -5.823800   -9.695990   -1.957130
  H     -7.927730  -16.141230   -2.387710
  H    -10.818760  -21.593890   -1.695050
  H    -11.854930  -23.156020    0.187100
  H    -14.245910  -25.426460    4.384060
  H    -15.079970  -20.535860    4.945520

 Total Charge           Charge          ....    0
 Multiplicity           Mult            ....    1
 Number of Electrons    NEL             ....  616
 Basis Dimension        Dim             .... 1316

ORBITAL ENERGIES
----------------

  NO   OCC          E(Eh)            E(eV)
   0   2.0000     -89.076307     -2423.8895
   1   2.0000     -89.016691     -2422.2673
   2   2.0000     -89.010223     -2422.0913
   3   2.0000     -89.010204     -2422.0908
   4   2.0000     -89.008710     -2422.0501
   5   2.0000     -19.252818      -523.8958
   6   2.0000     -19.245501      -523.6967
   7   2.0000     -14.500794      -394.5867
   8   2.0000     -14.500396      -394.5758
   9   2.0000     -14.483578      -394.1182
  10   2.0000     -14.483401      -394.1134
  11   2.0000     -14.459333      -393.4584
  12   2.0000     -14.459003      -393.4495
  13   2.0000     -14.448180      -393.1550
  14   2.0000     -14.448076      -393.1521
  15   2.0000     -14.446492      -393.1090
  16   2.0000     -14.445434      -393.0803
  17   2.0000     -14.441884      -392.9837
  18   2.0000     -14.441421      -392.9710
  19   2.0000     -14.440886      -392.9565
  20   2.0000     -14.437156      -392.8550
  21   2.0000     -14.434384      -392.7796
  22   2.0000     -14.433961      -392.7681
  23   2.0000     -14.433501      -392.7555
  24   2.0000     -14.432136      -392.7184
  25   2.0000     -10.418576      -283.5039
  26   2.0000     -10.418328      -283.4971
  27   2.0000     -10.400862      -283.0218
  28   2.0000     -10.397313      -282.9253
  29   2.0000     -10.385388      -282.6008
  30   2.0000     -10.382824      -282.5310
  31   2.0000     -10.382350      -282.5181
  32   2.0000     -10.382073      -282.5106
  33   2.0000     -10.376741      -282.3655
  34   2.0000     -10.376495      -282.3588
  35   2.0000     -10.375290      -282.3260
  36   2.0000     -10.372282      -282.2441
  37   2.0000     -10.372073      -282.2385
  38   2.0000     -10.371467      -282.2220
  39   2.0000     -10.370759      -282.2027
  40   2.0000     -10.368580      -282.1434
  41   2.0000     -10.367984      -282.1272
  42   2.0000     -10.366844      -282.0962
  43   2.0000     -10.365965      -282.0722
  44   2.0000     -10.365426      -282.0576
  45   2.0000     -10.364772      -282.0398
  46   2.0000     -10.355153      -281.7780
  47   2.0000     -10.354684      -281.7653
  48   2.0000     -10.354549      -281.7616
  49   2.0000     -10.352809      -281.7143
  50   2.0000     -10.352613      -281.7089
  51   2.0000     -10.352029      -281.6930
  52   2.0000     -10.351555      -281.6801
  53   2.0000     -10.351520      -281.6792
  54   2.0000     -10.351205      -281.6706
  55   2.0000     -10.350876      -281.6617
  56   2.0000     -10.349325      -281.6194
  57   2.0000     -10.349226      -281.6168
  58   2.0000     -10.349018      -281.6111
  59   2.0000     -10.347876      -281.5800
  60   2.0000     -10.347620      -281.5731
  61   2.0000     -10.347478      -281.5692
  62   2.0000     -10.346736      -281.5490
  63   2.0000     -10.346380      -281.5393
  64   2.0000     -10.344880      -281.4985
  65   2.0000     -10.342821      -281.4425
  66   2.0000     -10.342384      -281.4306
  67   2.0000     -10.342349      -281.4296
  68   2.0000     -10.342016      -281.4206
  69   2.0000     -10.341991      -281.4199
  70   2.0000     -10.340879      -281.3896
  71   2.0000     -10.339716      -281.3580
  72   2.0000     -10.338680      -281.3298
  73   2.0000     -10.335818      -281.2519
  74   2.0000     -10.334358      -281.2122
  75   2.0000     -10.334045      -281.2037
  76   2.0000     -10.332207      -281.1536
  77   2.0000     -10.330751      -281.1140
  78   2.0000     -10.330470      -281.1064
  79   2.0000     -10.330049      -281.0949
  80   2.0000     -10.329866      -281.0900
  81   2.0000     -10.328242      -281.0458
  82   2.0000     -10.327448      -281.0241
  83   2.0000     -10.327205      -281.0175
  84   2.0000     -10.326755      -281.0053
  85   2.0000     -10.326011      -280.9850
  86   2.0000     -10.324464      -280.9429
  87   2.0000     -10.323301      -280.9113
  88   2.0000     -10.322015      -280.8763
  89   2.0000      -8.167078      -222.2375
  90   2.0000      -8.110906      -220.7090
  91   2.0000      -8.102772      -220.4876
  92   2.0000      -8.102589      -220.4826
  93   2.0000      -8.101314      -220.4480
  94   2.0000      -6.138108      -167.0264
  95   2.0000      -6.130158      -166.8101
  96   2.0000      -6.130157      -166.8100
  97   2.0000      -6.080140      -165.4490
  98   2.0000      -6.075922      -165.3342
  99   2.0000      -6.073337      -165.2639
 100   2.0000      -6.072330      -165.2365
 101   2.0000      -6.071973      -165.2268
 102   2.0000      -6.070843      -165.1960
 103   2.0000      -6.067494      -165.1049
 104   2.0000      -6.067228      -165.0977
 105   2.0000      -6.066026      -165.0650
 106   2.0000      -6.065213      -165.0428
 107   2.0000      -6.065170      -165.0417
 108   2.0000      -6.063794      -165.0042
 109   2.0000      -1.173810       -31.9410
 110   2.0000      -1.168949       -31.8087
 111   2.0000      -1.161546       -31.6073
 112   2.0000      -1.160008       -31.5654
 113   2.0000      -1.088831       -29.6286
 114   2.0000      -1.068714       -29.0812
 115   2.0000      -1.065063       -28.9818
 116   2.0000      -1.052717       -28.6459
 117   2.0000      -1.050218       -28.5779
 118   2.0000      -1.045153       -28.4401
 119   2.0000      -1.040728       -28.3196
 120   2.0000      -1.038383       -28.2558
 121   2.0000      -1.037283       -28.2259
 122   2.0000      -1.035403       -28.1748
 123   2.0000      -1.034751       -28.1570
 124   2.0000      -1.029829       -28.0231
 125   2.0000      -1.026860       -27.9423
 126   2.0000      -1.025092       -27.8942
 127   2.0000      -1.023210       -27.8430
 128   2.0000      -1.020153       -27.7598
 129   2.0000      -1.019561       -27.7437
 130   2.0000      -1.018650       -27.7189
 131   2.0000      -1.016878       -27.6707
 132   2.0000      -1.015393       -27.6302
 133   2.0000      -1.013385       -27.5756
 134   2.0000      -1.012021       -27.5385
 135   2.0000      -1.006182       -27.3796
 136   2.0000      -0.988824       -26.9073
 137   2.0000      -0.986665       -26.8485
 138   2.0000      -0.979965       -26.6662
 139   2.0000      -0.975803       -26.5530
 140   2.0000      -0.947022       -25.7698
 141   2.0000      -0.943654       -25.6781
 142   2.0000      -0.940114       -25.5818
 143   2.0000      -0.936142       -25.4737
 144   2.0000      -0.934511       -25.4293
 145   2.0000      -0.927563       -25.2403
 146   2.0000      -0.914335       -24.8803
 147   2.0000      -0.912156       -24.8210
 148   2.0000      -0.910153       -24.7665
 149   2.0000      -0.904320       -24.6078
 150   2.0000      -0.893118       -24.3030
 151   2.0000      -0.889692       -24.2098
 152   2.0000      -0.879295       -23.9268
 153   2.0000      -0.877243       -23.8710
 154   2.0000      -0.870453       -23.6862
 155   2.0000      -0.858755       -23.3679
 156   2.0000      -0.856649       -23.3106
 157   2.0000      -0.837128       -22.7794
 158   2.0000      -0.828462       -22.5436
 159   2.0000      -0.817983       -22.2585
 160   2.0000      -0.817657       -22.2496
 161   2.0000      -0.801147       -21.8003
 162   2.0000      -0.799111       -21.7449
 163   2.0000      -0.795663       -21.6511
 164   2.0000      -0.782297       -21.2874
 165   2.0000      -0.767438       -20.8831
 166   2.0000      -0.763327       -20.7712
 167   2.0000      -0.760415       -20.6919
 168   2.0000      -0.751664       -20.4538
 169   2.0000      -0.740681       -20.1549
 170   2.0000      -0.738752       -20.1025
 171   2.0000      -0.725213       -19.7340
 172   2.0000      -0.722426       -19.6582
 173   2.0000      -0.720314       -19.6007
 174   2.0000      -0.719737       -19.5850
 175   2.0000      -0.715932       -19.4815
 176   2.0000      -0.708065       -19.2674
 177   2.0000      -0.706044       -19.2124
 178   2.0000      -0.702174       -19.1071
 179   2.0000      -0.694601       -18.9011
 180   2.0000      -0.693133       -18.8611
 181   2.0000      -0.687678       -18.7127
 182   2.0000      -0.677502       -18.4358
 183   2.0000      -0.671900       -18.2833
 184   2.0000      -0.667282       -18.1577
 185   2.0000      -0.665625       -18.1126
 186   2.0000      -0.660172       -17.9642
 187   2.0000      -0.656551       -17.8657
 188   2.0000      -0.653079       -17.7712
 189   2.0000      -0.649311       -17.6686
 190   2.0000      -0.640141       -17.4191
 191   2.0000      -0.639051       -17.3894
 192   2.0000      -0.633510       -17.2387
 193   2.0000      -0.631336       -17.1795
 194   2.0000      -0.623747       -16.9730
 195   2.0000      -0.619214       -16.8497
 196   2.0000      -0.616521       -16.7764
 197   2.0000      -0.616005       -16.7624
 198   2.0000      -0.607931       -16.5426
 199   2.0000      -0.603510       -16.4223
 200   2.0000      -0.589581       -16.0433
 201   2.0000      -0.589421       -16.0390
 202   2.0000      -0.586301       -15.9541
 203   2.0000      -0.581597       -15.8261
 204   2.0000      -0.577406       -15.7120
 205   2.0000      -0.575331       -15.6555
 206   2.0000      -0.574602       -15.6357
 207   2.0000      -0.574199       -15.6247
 208   2.0000      -0.570659       -15.5284
 209   2.0000      -0.569182       -15.4882
 210   2.0000      -0.566482       -15.4148
 211   2.0000      -0.563570       -15.3355
 212   2.0000      -0.559471       -15.2240
 213   2.0000      -0.554674       -15.0935
 214   2.0000      -0.551214       -14.9993
 215   2.0000      -0.549369       -14.9491
 216   2.0000      -0.542506       -14.7623
 217   2.0000      -0.536531       -14.5997
 218   2.0000      -0.534487       -14.5441
 219   2.0000      -0.533181       -14.5086
 220   2.0000      -0.532218       -14.4824
 221   2.0000      -0.531850       -14.4724
 222   2.0000      -0.528817       -14.3898
 223   2.0000      -0.526400       -14.3241
 224   2.0000      -0.524904       -14.2834
 225   2.0000      -0.523931       -14.2569
 226   2.0000      -0.520839       -14.1727
 227   2.0000      -0.517772       -14.0893
 228   2.0000      -0.517032       -14.0692
 229   2.0000      -0.516123       -14.0444
 230   2.0000      -0.515151       -14.0180
 231   2.0000      -0.512778       -13.9534
 232   2.0000      -0.511667       -13.9232
 233   2.0000      -0.506149       -13.7730
 234   2.0000      -0.501847       -13.6559
 235   2.0000      -0.500952       -13.6316
 236   2.0000      -0.498924       -13.5764
 237   2.0000      -0.497619       -13.5409
 238   2.0000      -0.495543       -13.4844
 239   2.0000      -0.492722       -13.4076
 240   2.0000      -0.486484       -13.2379
 241   2.0000      -0.481058       -13.0903
 242   2.0000      -0.479823       -13.0566
 243   2.0000      -0.478456       -13.0195
 244   2.0000      -0.477510       -12.9937
 245   2.0000      -0.476374       -12.9628
 246   2.0000      -0.474905       -12.9228
 247   2.0000      -0.473616       -12.8878
 248   2.0000      -0.472282       -12.8514
 249   2.0000      -0.471374       -12.8267
 250   2.0000      -0.470432       -12.8011
 251   2.0000      -0.468967       -12.7612
 252   2.0000      -0.467181       -12.7127
 253   2.0000      -0.467153       -12.7119
 254   2.0000      -0.466232       -12.6868
 255   2.0000      -0.464347       -12.6355
 256   2.0000      -0.460906       -12.5419
 257   2.0000      -0.460448       -12.5294
 258   2.0000      -0.459947       -12.5158
 259   2.0000      -0.459879       -12.5139
 260   2.0000      -0.458855       -12.4861
 261   2.0000      -0.457656       -12.4535
 262   2.0000      -0.457601       -12.4519
 263   2.0000      -0.457561       -12.4509
 264   2.0000      -0.457370       -12.4457
 265   2.0000      -0.456547       -12.4233
 266   2.0000      -0.456024       -12.4091
 267   2.0000      -0.455846       -12.4042
 268   2.0000      -0.455215       -12.3870
 269   2.0000      -0.453779       -12.3480
 270   2.0000      -0.451014       -12.2727
 271   2.0000      -0.449346       -12.2273
 272   2.0000      -0.448625       -12.2077
 273   2.0000      -0.446675       -12.1547
 274   2.0000      -0.445537       -12.1237
 275   2.0000      -0.443459       -12.0671
 276   2.0000      -0.443169       -12.0592
 277   2.0000      -0.440687       -11.9917
 278   2.0000      -0.439765       -11.9666
 279   2.0000      -0.439227       -11.9520
 280   2.0000      -0.437341       -11.9007
 281   2.0000      -0.433963       -11.8087
 282   2.0000      -0.432520       -11.7695
 283   2.0000      -0.431730       -11.7480
 284   2.0000      -0.429801       -11.6955
 285   2.0000      -0.425165       -11.5693
 286   2.0000      -0.421796       -11.4776
 287   2.0000      -0.417288       -11.3550
 288   2.0000      -0.408834       -11.1250
 289   2.0000      -0.408147       -11.1063
 290   2.0000      -0.404899       -11.0179
 291   2.0000      -0.384565       -10.4645
 292   2.0000      -0.383376       -10.4322
 293   2.0000      -0.381018       -10.3680
 294   2.0000      -0.377630       -10.2758
 295   2.0000      -0.375440       -10.2162
 296   2.0000      -0.371106       -10.0983
 297   2.0000      -0.368892       -10.0381
 298   2.0000      -0.368645       -10.0313
 299   2.0000      -0.367320        -9.9953
 300   2.0000      -0.364263        -9.9121
 301   2.0000      -0.349402        -9.5077
 302   2.0000      -0.344602        -9.3771
 303   2.0000      -0.342069        -9.3082
 304   2.0000      -0.340177        -9.2567
 305   2.0000      -0.326541        -8.8856
 306   2.0000      -0.299824        -8.1586
 307   2.0000      -0.267158        -7.2697
 308   0.0000      -0.164848        -4.4857
 309   0.0000      -0.130933        -3.5629
 310   0.0000      -0.123916        -3.3719
 311   0.0000      -0.113466        -3.0876
 312   0.0000      -0.112086        -3.0500

MULLIKEN ATOMIC CHARGES
-----------------------
   0 C :    0.044581
   1 C :   -0.039611
   2 C :   -0.058502
   3 C :   -0.177728
   4 N :    0.207677
   5 C :   -0.067042
   6 C :   -0.175555
   7 N :    0.202637
   8 C :   -0.032258
   9 C :   -0.004230
  10 C :    0.169794
  11 O :   -0.172377
  12 C :   -0.094225
  13 C :    0.323261
  14 C :   -0.338142
  15 C :   -0.184887
  16 N :    0.172164
  17 C :   -0.192015
  18 N :    0.167608
  19 C :   -0.022335
  20 C :   -0.052956
  21 C :   -0.059597
  22 C :    0.055308
  23 C :   -0.072936
  24 S :    0.253733
  25 C :   -0.066646
  26 C :    0.049234
  27 C :    0.305537
  28 C :   -0.296744
  29 C :   -0.184558
  30 N :    0.176848
  31 C :   -0.196169
  32 N :    0.190764
  33 C :   -0.064468
  34 C :   -0.166489
  35 S :    0.219142
  36 C :    0.189512
  37 C :   -0.059621
  38 C :   -0.058124
  39 N :   -0.003852
  40 C :   -0.095176
  41 C :   -0.092658
  42 N :    0.000053
  43 C :   -0.242926
  44 N :    0.261251
  45 C :   -0.245662
  46 N :    0.264630
  47 C :    0.191527
  48 C :   -0.010466
  49 C :   -0.011746
  50 N :   -0.280368
  51 S :    0.601559
  52 N :   -0.283261
  53 C :   -0.167542
  54 C :   -0.063968
  55 C :    0.049394
  56 C :   -0.061574
  57 S :    0.218296
  58 C :   -0.086747
  59 C :    0.032911
  60 C :    0.302369
  61 C :   -0.290106
  62 C :   -0.191283
  63 N :    0.185953
  64 C :   -0.184058
  65 N :    0.177515
  66 C :    0.011805
  67 C :   -0.105445
  68 S :    0.214222
  69 C :    0.058953
  70 C :   -0.142720
  71 C :    0.146629
  72 O :   -0.120413
  73 C :    0.010477
  74 C :   -0.034029
  75 C :   -0.066297
  76 C :   -0.062085
  77 C :   -0.036789
  78 C :    0.032723
  79 C :    0.241982
  80 C :   -0.306416
  81 C :   -0.203531
  82 N :    0.183199
  83 C :   -0.178967
  84 N :    0.177424
  85 C :   -0.173917
  86 N :    0.207562
  87 C :   -0.171559
  88 N :    0.197529
  89 H :    0.022138
  90 H :    0.018023
  91 H :    0.019452
  92 H :    0.032100
  93 H :    0.025222
  94 H :    0.025474
  95 H :    0.023669
  96 H :    0.041975
  97 H :    0.020403
  98 H :    0.026563
Sum of atomic charges:   -0.0000000

LOEWDIN ATOMIC CHARGES
----------------------
   0 C :    0.003941
   1 C :    0.034728
   2 C :   -0.022072
   3 C :   -0.032034
   4 N :   -0.008042
   5 C :   -0.027724
   6 C :   -0.032480
   7 N :   -0.010832
   8 C :    0.049061
   9 C :   -0.030325
  10 C :    0.084433
  11 O :   -0.160286
  12 C :   -0.114474
  13 C :    0.068647
  14 C :   -0.122478
  15 C :   -0.021928
  16 N :   -0.032248
  17 C :   -0.022870
  18 N :   -0.031571
  19 C :    0.061624
  20 C :   -0.180777
  21 C :    0.016762
  22 C :   -0.069645
  23 C :   -0.162703
  24 S :    0.553901
  25 C :   -0.183319
  26 C :   -0.057924
  27 C :    0.074705
  28 C :   -0.096211
  29 C :   -0.016195
  30 N :   -0.027826
  31 C :   -0.020780
  32 N :   -0.020015
  33 C :   -0.007190
  34 C :   -0.157002
  35 S :    0.520003
  36 C :   -0.035818
  37 C :   -0.011895
  38 C :   -0.012617
  39 N :   -0.016479
  40 C :   -0.016006
  41 C :   -0.015398
  42 N :   -0.016118
  43 C :   -0.040851
  44 N :    0.012246
  45 C :   -0.040944
  46 N :    0.011161
  47 C :   -0.034179
  48 C :   -0.035973
  49 C :   -0.035541
  50 N :   -0.269279
  51 S :    0.719794
  52 N :   -0.269899
  53 C :   -0.158273
  54 C :   -0.004580
  55 C :   -0.058204
  56 C :   -0.182619
  57 S :    0.519908
  58 C :   -0.149481
  59 C :   -0.062987
  60 C :    0.076884
  61 C :   -0.091941
  62 C :   -0.018038
  63 N :   -0.022350
  64 C :   -0.016054
  65 N :   -0.025363
  66 C :    0.019827
  67 C :   -0.177362
  68 S :    0.512221
  69 C :    0.059145
  70 C :   -0.104760
  71 C :    0.083376
  72 O :   -0.123473
  73 C :   -0.031165
  74 C :    0.050417
  75 C :   -0.027647
  76 C :   -0.021306
  77 C :    0.032428
  78 C :    0.003917
  79 C :    0.052780
  80 C :   -0.127773
  81 C :   -0.034628
  82 N :   -0.035505
  83 C :   -0.025213
  84 N :   -0.029802
  85 C :   -0.032119
  86 N :   -0.007245
  87 C :   -0.032476
  88 N :   -0.010590
  89 H :    0.052913
  90 H :    0.054653
  91 H :    0.054988
  92 H :    0.049791
  93 H :    0.039792
  94 H :    0.040222
  95 H :    0.049435
  96 H :    0.058287
  97 H :    0.055648
  98 H :    0.053258

  Mayer bond orders larger than 0.100000
B(  0-C ,  1-C ) :   1.3642 B(  0-C ,  9-C ) :   1.3344 B(  0-C , 13-C ) :   0.9538
B(  1-C ,  2-C ) :   1.3890 B(  1-C , 89-H ) :   0.9850 B(  2-C ,  3-C ) :   1.0894
B(  2-C ,  5-C ) :   1.4051 B(  3-C ,  4-N ) :   3.0449 B(  5-C ,  6-C ) :   1.0864
B(  5-C ,  8-C ) :   1.3600 B(  6-C ,  7-N ) :   3.0453 B(  8-C ,  9-C ) :   1.3639
B(  8-C , 90-H ) :   1.0154 B(  9-C , 10-C ) :   0.9451 B( 10-C , 11-O ) :   2.1302
B( 10-C , 12-C ) :   0.9895 B( 12-C , 13-C ) :   1.0866 B( 12-C , 19-C ) :   1.4706
B( 13-C , 14-C ) :   1.6474 B( 14-C , 15-C ) :   1.1477 B( 14-C , 17-C ) :   1.1430
B( 15-C , 16-N ) :   2.9594 B( 17-C , 18-N ) :   2.9614 B( 19-C , 20-C ) :   1.2899
B( 19-C , 91-H ) :   0.9377 B( 20-C , 21-C ) :   1.3089 B( 20-C , 24-S ) :   1.0672
B( 21-C , 22-C ) :   1.3494 B( 21-C , 92-H ) :   1.0069 B( 22-C , 23-C ) :   1.3340
B( 22-C , 27-C ) :   0.9824 B( 23-C , 24-S ) :   1.1313 B( 23-C , 25-C ) :   1.2232
B( 25-C , 26-C ) :   1.3878 B( 25-C , 35-S ) :   1.0825 B( 26-C , 27-C ) :   0.9932
B( 26-C , 33-C ) :   1.2844 B( 27-C , 28-C ) :   1.7187 B( 28-C , 29-C ) :   1.1387
B( 28-C , 31-C ) :   1.1351 B( 29-C , 30-N ) :   2.9850 B( 31-C , 32-N ) :   2.9960
B( 33-C , 34-C ) :   1.4011 B( 33-C , 93-H ) :   0.9822 B( 34-C , 35-S ) :   1.0973
B( 34-C , 36-C ) :   1.2105 B( 36-C , 37-C ) :   1.2507 B( 36-C , 47-C ) :   0.1226
B( 36-C , 49-C ) :   1.1998 B( 37-C , 38-C ) :   1.1148 B( 37-C , 42-N ) :   1.4031
B( 38-C , 39-N ) :   1.4027 B( 38-C , 47-C ) :   1.2504 B( 39-N , 40-C ) :   1.6910
B( 40-C , 41-C ) :   1.2206 B( 40-C , 45-C ) :   1.1699 B( 41-C , 42-N ) :   1.6961
B( 41-C , 43-C ) :   1.1652 B( 43-C , 44-N ) :   3.0393 B( 45-C , 46-N ) :   3.0411
B( 47-C , 48-C ) :   1.2005 B( 47-C , 53-C ) :   1.2132 B( 48-C , 49-C ) :   1.0977
B( 48-C , 52-N ) :   1.5133 B( 49-C , 50-N ) :   1.5152 B( 50-N , 51-S ) :   1.2914
B( 50-N , 52-N ) :   0.1462 B( 51-S , 52-N ) :   1.2908 B( 53-C , 54-C ) :   1.3983
B( 53-C , 57-S ) :   1.0964 B( 54-C , 55-C ) :   1.2911 B( 54-C , 94-H ) :   0.9825
B( 55-C , 56-C ) :   1.3893 B( 55-C , 60-C ) :   0.9889 B( 56-C , 57-S ) :   1.0817
B( 56-C , 58-C ) :   1.2305 B( 58-C , 59-C ) :   1.3805 B( 58-C , 68-S ) :   1.1545
B( 59-C , 60-C ) :   0.9872 B( 59-C , 66-C ) :   1.3197 B( 60-C , 61-C ) :   1.7242
B( 61-C , 62-C ) :   1.1314 B( 61-C , 64-C ) :   1.1382 B( 62-C , 63-N ) :   2.9952
B( 64-C , 65-N ) :   2.9844 B( 66-C , 67-C ) :   1.3821 B( 66-C , 95-H ) :   0.9995
B( 67-C , 68-S ) :   1.0863 B( 67-C , 69-C ) :   1.1505 B( 69-C , 70-C ) :   1.6201
B( 69-C , 96-H ) :   0.9483 B( 70-C , 71-C ) :   0.9468 B( 70-C , 79-C ) :   1.0449
B( 71-C , 72-O ) :   2.2899 B( 71-C , 73-C ) :   0.8995 B( 73-C , 74-C ) :   1.3682
B( 73-C , 78-C ) :   1.3337 B( 74-C , 75-C ) :   1.3647 B( 74-C , 97-H ) :   1.0154
B( 75-C , 76-C ) :   1.4024 B( 75-C , 87-C ) :   1.0869 B( 76-C , 77-C ) :   1.3855
B( 76-C , 85-C ) :   1.0871 B( 77-C , 78-C ) :   1.3639 B( 77-C , 98-H ) :   0.9911
B( 78-C , 79-C ) :   0.9781 B( 79-C , 80-C ) :   1.6722 B( 80-C , 81-C ) :   1.1550
B( 80-C , 83-C ) :   1.1322 B( 81-C , 82-N ) :   3.0171 B( 83-C , 84-N ) :   2.9898
B( 85-C , 86-N ) :   3.0451 B( 87-C , 88-N ) :   3.0435

-----------------------------------------------------------------------------
         ABSORPTION SPECTRUM VIA TRANSITION ELECTRIC DIPOLE MOMENTS
-----------------------------------------------------------------------------
State   Energy  Wavelength   fosc         T2         TX        TY        TZ
        (cm-1)    (nm)                  (au**2)     (au)      (au)      (au)
-----------------------------------------------------------------------------
   0    7504.6   1332.5   0.785149835  34.44288   2.10848   5.45836   0.45109
   1   13889.9    719.9   0.048573248   1.15126   0.84246  -0.00569  -0.66444
   2   15043.5    664.7   0.121249780   2.65343  -0.34730  -1.52707  -0.44818
   3   16130.1    620.0   0.022887559   0.46713   0.46999  -0.26328  -0.42062
   4   19013.9    525.9   0.402796968   6.97414   1.86140   1.73364  -0.70979
   5   20247.1    493.9   0.740218996  12.03576  -0.32392  -3.19427  -1.31434
   6   21644.5    462.0   0.053167916   0.80868   0.45862   0.75037   0.18787
   7   22599.1    442.5   0.062611206   0.91209   0.10609   0.74668   0.58592
   8   22965.1    435.4   0.134322457   1.92555   0.28863   1.35343   0.10236
   9   23255.0    430.0   0.057179964   0.80947  -0.07970  -0.69133  -0.57025
  10   23406.1    427.2   0.128721209   1.81049  -0.42084  -1.24556  -0.28629
  11   24422.0    409.5   0.270275204   3.64335   0.82563   0.21657  -1.70727
  12   24730.0    404.4   0.006485829   0.08634   0.25743  -0.13991  -0.02232
  13   24832.6    402.7   0.005806966   0.07698   0.21053  -0.10834  -0.14466
  14   25197.7    396.9   0.031784702   0.41527   0.03521  -0.56428  -0.30923
  15   25476.3    392.5   0.004402265   0.05689  -0.04169   0.19381  -0.13262
  16   26869.6    372.2   0.043829893   0.53701   0.06295   0.70640  -0.18451
  17   27779.6    360.0   0.031917367   0.37825   0.39791  -0.46205  -0.08018
  18   28106.4    355.8   0.014219464   0.16655   0.10471  -0.08925  -0.38422
  19   28192.0    354.7   0.007884274   0.09207  -0.04673  -0.11326  -0.27759
  20   28832.1    346.8   0.010414168   0.11891   0.13841   0.31287   0.04325
  21   28993.5    344.9   0.110793081   1.25802   0.31903  -0.54733  -0.92557
  22   29290.2    341.4   0.109544119   1.23124   0.67301   0.26395  -0.84180
  23   29780.5    335.8   0.014182110   0.15678  -0.17911   0.18496   0.30081
  24   30346.3    329.5   0.132152321   1.43365  -0.15311   0.03420   1.18703
  25   30439.8    328.5   0.058634007   0.63414  -0.19170   0.40824   0.65630
  26   30472.4    328.2   0.016019442   0.17307  -0.03422   0.28562   0.30053
  27   30808.9    324.6   0.354290503   3.78581  -0.64887  -0.19904   1.82350
  28   30859.2    324.1   0.010466721   0.11166  -0.05551  -0.28568  -0.16422
  29   31204.3    320.5   0.459273491   4.84543  -0.58985  -1.10148   1.81225
  30   31236.5    320.1   0.152246736   1.60458  -0.24198  -1.19409  -0.34666
  31   31274.6    319.7   0.147525192   1.55292   0.32479   1.19869   0.10282
  32   31701.3    315.4   0.651328846   6.76392  -0.64073   0.48813   2.47288
  33   31733.8    315.1   0.160632265   1.66643  -0.39158  -0.27679   1.19853
  34   31985.0    312.6   0.063042429   0.64888   0.08218  -0.29098  -0.74663
  35   32252.0    310.1   0.398898932   4.07176  -0.73674  -1.87723  -0.07052
  36   32749.4    305.3   0.031975499   0.32143  -0.02717   0.22333   0.52040
  37   33159.8    301.6   0.001990243   0.01976  -0.04346  -0.05715  -0.12085
  38   33511.2    298.4   0.097608228   0.95890   0.07256  -0.08219  -0.97308
  39   33712.0    296.6   0.024257081   0.23688   0.32674   0.30664  -0.18998
  40   33806.5    295.8   0.115419965   1.12398   0.15352   1.04108  -0.12870
  41   34094.1    293.3   0.020405490   0.19704  -0.13854  -0.16717   0.38716
  42   34265.1    291.8   0.172217769   1.65463  -0.02467  -1.22654  -0.38680
  43   34393.4    290.8   0.159691820   1.52856   0.37829   0.02632  -1.17676
  44   34477.7    290.0   0.109689065   1.04737  -0.27475  -0.21791   0.96146
  45   34956.6    286.1   0.790974195   7.44918   0.64362   1.74588  -1.99671
  46   34998.8    285.7   0.043636875   0.41046   0.32092   0.02426   0.55397
  47   35307.7    283.2   0.639753588   5.96512   0.64866   0.18641  -2.34726
  48   35375.4    282.7   0.111701454   1.03952  -0.33864  -0.29005   0.91691
  49   35530.8    281.4   0.010845620   0.10049   0.31176  -0.05222   0.02391
  50   35816.4    279.2   0.099091339   0.91081   0.13759   0.76704   0.55094
  51   36060.5    277.3   0.095825541   0.87483   0.00433  -0.78876   0.50267
  52   36283.1    275.6   0.017531459   0.15907   0.09908  -0.07233   0.37950
  53   36538.3    273.7   0.023717700   0.21370  -0.08441   0.38048   0.24861
  54   36593.3    273.3   0.077968578   0.70144  -0.27576  -0.20138   0.76475
  55   36724.3    272.3   0.052379078   0.46955  -0.01506   0.03506   0.68417
  56   36898.2    271.0   0.030948993   0.27613  -0.02102   0.45745   0.25773
  57   37024.1    270.1   0.144995538   1.28928  -0.28242   1.00074   0.45611
  58   37443.7    267.1   0.002420856   0.02128   0.04425  -0.02869  -0.13603
  59   37566.7    266.2   0.015424854   0.13517  -0.05598  -0.35826  -0.06076
  60   37686.1    265.3   0.031060341   0.27133  -0.06123  -0.00163   0.51728
  61   37945.3    263.5   0.014851734   0.12885   0.20102   0.05305   0.29262
  62   37957.4    263.5   0.098695456   0.85600   0.36655   0.79225  -0.30658
  63   38208.3    261.7   0.001719161   0.01481   0.01149  -0.05258  -0.10916
  64   38361.3    260.7   0.019296930   0.16560   0.12518   0.27226  -0.27534
  65   38691.0    258.5   0.008525110   0.07254  -0.23777  -0.12593  -0.01209
  66   38799.6    257.7   0.013783807   0.11695   0.11834   0.32057  -0.01353
  67   38940.1    256.8   0.179362657   1.51639  -0.21970  -1.18703  -0.24305
  68   39057.5    256.0   0.088666939   0.74737   0.39641  -0.24598  -0.72782
  69   39122.9    255.6   0.012938336   0.10887  -0.25249   0.16383   0.13522
  70   39307.0    254.4   0.080066616   0.67059  -0.21097   0.02391   0.79089
  71   39729.9    251.7   0.242220162   2.00710   0.33257   0.01091  -1.37709
  72   39814.2    251.2   0.045033360   0.37237   0.22243  -0.11299  -0.55689
  73   40112.2    249.3   0.071508538   0.58689   0.25003  -0.31940  -0.64989
  74   40314.3    248.1   0.020605672   0.16827   0.04172   0.13495   0.38512

FINAL SINGLE POINT ENERGY     -5566.297511229352

DIPOLE MOMENT
-------------
                                X             Y             Z
Electronic contribution:      2.87613      -0.68950      -2.77024
Nuclear contribution   :     -0.94152      -1.77423      -0.20135
                        -----------------------------------------
Total Dipole Moment    :      1.93461      -2.46373      -2.97159
                        -----------------------------------------
Magnitude (a.u.)       :      4.31776
Magnitude (Debye)      :     10.97488

Rotational constants in cm-1:     0.000968     0.000182     0.000156
Rotational constants in MHz :    29.008633     5.460587     4.668898

                             ****ORCA TERMINATED NORMALLY****
TOTAL RUN TIME: 0 days 0 hours 15 minutes 13 seconds 533 msec
