                         Program Version 4.2.0 -  RELEASE  -
|  1> # ORCA input file
|  2> # SCF done       -180.921399758954          0.000642501888
|  3> ! CAM-B3LYP def2-SVP def2/J RIJCOSX Grid4 TightSCF
|  4> %maxcore 5000
|  5> %tddft
|  6>     Mode sTDDFT
|  7>     Ethresh 5.0
|  8>     maxcore 5000
|  9> end
| 10>
| 11> %pal
| 12>   nprocs 6
| 13>   end
| 14> * xyz 0 1
| 15>    C       -1.79190        -4.07073        -0.14307
| 16>    C       -1.04677        -4.14928         0.96062
| 17>    C        0.37898        -3.98716         0.91568
| 18>    C        1.01967        -3.55207        -0.19174
| 19>    C        0.22198        -3.17969        -1.43018
| 20>    C       -1.15808        -3.87320        -1.49360
| 21>    N       -2.11112        -3.18900        -2.33551
| 22>    C       -1.97446        -1.95403        -2.52491
| 23>    C       -0.84755        -1.18230        -1.96324
| 24>    N        0.15789        -1.73288        -1.44908
| 25>    F       -0.93305         0.14278        -1.97960
| 26>    F       -2.86666        -1.30497        -3.26384
| 27>    C        2.42984        -3.32334        -0.23843
| 28>    C        3.16289        -2.71467        -1.23880
| 29>    C        4.52730        -2.67767        -0.94957
| 30>    C        4.84305        -3.26657         0.28833
| 31>    S        3.45692        -3.85380         1.09173
| 32>    C        6.24332        -3.19926         0.48486
| 33>    C        6.81466        -2.56127        -0.63514
| 34>    C        5.75578        -2.21499        -1.57112
| 35>    C        5.89103        -1.60709        -2.78514
| 36>    C        7.14332        -1.20154        -3.29284
| 37>    N        8.15348        -0.86619        -3.71959
| 38>    C        4.78409        -1.36086        -3.62404
| 39>    N        3.88864        -1.17371        -4.31583
| 40>    C        8.19647        -2.46275        -0.55646
| 41>    C        8.69660        -3.02149         0.61347
| 42>    S        7.41624        -3.67232         1.63307
| 43>    C       10.04954        -3.13692         1.03145
| 44>    C       11.16563        -2.66783         0.28499
| 45>    C       12.51900        -2.85808         0.73060
| 46>    N       13.53370        -2.39130        -0.02480
| 47>    C       13.27271        -1.78129        -1.14602
| 48>    C       11.94704        -1.59626        -1.58330
| 49>    N       10.93884        -2.02806        -0.88017
| 50>    C       12.82905        -3.52738         1.94686
| 51>    C       11.71697        -3.95940         2.69683
| 52>    C       10.36322        -3.76977         2.25069
| 53>    N        9.48301        -4.26951         3.12058
| 54>    S       10.27043        -4.90692         4.36671
| 55>    N       11.76400        -4.58868         3.87281
| 56>    C       14.14737        -3.78249         2.41086
| 57>    C       15.35601        -3.46839         1.80165
| 58>    C       16.44519        -3.89728         2.54718
| 59>    C       16.07356        -4.54573         3.74312
| 60>    S       14.37980        -4.62382         3.94164
| 61>    C       17.25190        -4.94340         4.42019
| 62>    C       18.36580        -4.55579         3.65007
| 63>    C       17.89612        -3.88048         2.45243
| 64>    C       18.65399        -3.34147         1.45361
| 65>    C       20.06321        -3.38267         1.48236
| 66>    N       21.20971        -3.41284         1.50774
| 67>    C       18.08531        -2.70676         0.32944
| 68>    N       17.64053        -2.18700        -0.59107
| 69>    C       19.57660        -4.92119         4.23134
| 70>    C       19.40533        -5.59011         5.43359
| 71>    S       17.70519        -5.77197         5.84053
| 72>    C       20.43422        -6.06608         6.30930
| 73>    C       21.74530        -5.79930         6.10580
| 74>    C       22.77328        -6.25502         6.99595
| 75>    C       22.51741        -7.10074         7.99563
| 76>    C       21.14252        -7.67297         8.20046
| 77>    C       20.02021        -6.81371         7.57156
| 78>    N       18.82604        -7.57344         7.29057
| 79>    C       18.92148        -8.80488         7.05202
| 80>    C       20.19734        -9.53498         7.15954
| 81>    N       21.21275        -9.03151         7.69991
| 82>    F       20.24918       -10.77179         6.67720
| 83>    F       17.82750        -9.49258         6.74635
| 84>    H       -2.86401        -4.18115        -0.13736
| 85>    H       -1.50347        -4.33424         1.92069
| 86>    H        0.94178        -4.19733         1.81358
| 87>    H        0.79642        -3.46659        -2.32094
| 88>    H       -1.03576        -4.86996        -1.94270
| 89>    H        2.72037        -2.29261        -2.12118
| 90>    H        8.84353        -2.01971        -1.29001
| 91>    H       14.12278        -1.42592        -1.71162
| 92>    H       11.70886        -1.08968        -2.50822
| 93>    H       15.39533        -2.95389         0.85994
| 94>    H       20.53705        -4.71859         3.79579
| 95>    H       22.05271        -5.22394         5.24794
| 96>    H       23.77630        -5.89583         6.82408
| 97>    H       23.29153        -7.49463         8.63226
| 98>    H       20.95234        -7.77402         9.27849
| 99>    H       19.71270        -6.04671         8.29748
|100> *
|101>
|102>                          ****END OF INPUT****

CARTESIAN COORDINATES (ANGSTROEM)
---------------------------------
  C     -1.791900   -4.070730   -0.143070
  C     -1.046770   -4.149280    0.960620
  C      0.378980   -3.987160    0.915680
  C      1.019670   -3.552070   -0.191740
  C      0.221980   -3.179690   -1.430180
  C     -1.158080   -3.873200   -1.493600
  N     -2.111120   -3.189000   -2.335510
  C     -1.974460   -1.954030   -2.524910
  C     -0.847550   -1.182300   -1.963240
  N      0.157890   -1.732880   -1.449080
  F     -0.933050    0.142780   -1.979600
  F     -2.866660   -1.304970   -3.263840
  C      2.429840   -3.323340   -0.238430
  C      3.162890   -2.714670   -1.238800
  C      4.527300   -2.677670   -0.949570
  C      4.843050   -3.266570    0.288330
  S      3.456920   -3.853800    1.091730
  C      6.243320   -3.199260    0.484860
  C      6.814660   -2.561270   -0.635140
  C      5.755780   -2.214990   -1.571120
  C      5.891030   -1.607090   -2.785140
  C      7.143320   -1.201540   -3.292840
  N      8.153480   -0.866190   -3.719590
  C      4.784090   -1.360860   -3.624040
  N      3.888640   -1.173710   -4.315830
  C      8.196470   -2.462750   -0.556460
  C      8.696600   -3.021490    0.613470
  S      7.416240   -3.672320    1.633070
  C     10.049540   -3.136920    1.031450
  C     11.165630   -2.667830    0.284990
  C     12.519000   -2.858080    0.730600
  N     13.533700   -2.391300   -0.024800
  C     13.272710   -1.781290   -1.146020
  C     11.947040   -1.596260   -1.583300
  N     10.938840   -2.028060   -0.880170
  C     12.829050   -3.527380    1.946860
  C     11.716970   -3.959400    2.696830
  C     10.363220   -3.769770    2.250690
  N      9.483010   -4.269510    3.120580
  S     10.270430   -4.906920    4.366710
  N     11.764000   -4.588680    3.872810
  C     14.147370   -3.782490    2.410860
  C     15.356010   -3.468390    1.801650
  C     16.445190   -3.897280    2.547180
  C     16.073560   -4.545730    3.743120
  S     14.379800   -4.623820    3.941640
  C     17.251900   -4.943400    4.420190
  C     18.365800   -4.555790    3.650070
  C     17.896120   -3.880480    2.452430
  C     18.653990   -3.341470    1.453610
  C     20.063210   -3.382670    1.482360
  N     21.209710   -3.412840    1.507740
  C     18.085310   -2.706760    0.329440
  N     17.640530   -2.187000   -0.591070
  C     19.576600   -4.921190    4.231340
  C     19.405330   -5.590110    5.433590
  S     17.705190   -5.771970    5.840530
  C     20.434220   -6.066080    6.309300
  C     21.745300   -5.799300    6.105800
  C     22.773280   -6.255020    6.995950
  C     22.517410   -7.100740    7.995630
  C     21.142520   -7.672970    8.200460
  C     20.020210   -6.813710    7.571560
  N     18.826040   -7.573440    7.290570
  C     18.921480   -8.804880    7.052020
  C     20.197340   -9.534980    7.159540
  N     21.212750   -9.031510    7.699910
  F     20.249180  -10.771790    6.677200
  F     17.827500   -9.492580    6.746350
  H     -2.864010   -4.181150   -0.137360
  H     -1.503470   -4.334240    1.920690
  H      0.941780   -4.197330    1.813580
  H      0.796420   -3.466590   -2.320940
  H     -1.035760   -4.869960   -1.942700
  H      2.720370   -2.292610   -2.121180
  H      8.843530   -2.019710   -1.290010
  H     14.122780   -1.425920   -1.711620
  H     11.708860   -1.089680   -2.508220
  H     15.395330   -2.953890    0.859940
  H     20.537050   -4.718590    3.795790
  H     22.052710   -5.223940    5.247940
  H     23.776300   -5.895830    6.824080
  H     23.291530   -7.494630    8.632260
  H     20.952340   -7.774020    9.278490
  H     19.712700   -6.046710    8.297480

 Total Charge           Charge          ....    0
 Multiplicity           Mult            ....    1
 Number of Electrons    NEL             ....  504
 Basis Dimension        Dim             .... 1066

ORBITAL ENERGIES
----------------

  NO   OCC          E(Eh)            E(eV)
   0   2.0000     -89.046541     -2423.0796
   1   2.0000     -88.979859     -2421.2651
   2   2.0000     -88.978144     -2421.2184
   3   2.0000     -88.974827     -2421.1281
   4   2.0000     -88.973926     -2421.1036
   5   2.0000     -24.815817      -675.2727
   6   2.0000     -24.808158      -675.0643
   7   2.0000     -24.801541      -674.8842
   8   2.0000     -24.801313      -674.8780
   9   2.0000     -14.455181      -393.3455
  10   2.0000     -14.454714      -393.3328
  11   2.0000     -14.442624      -393.0038
  12   2.0000     -14.437710      -392.8701
  13   2.0000     -14.432277      -392.7222
  14   2.0000     -14.432108      -392.7176
  15   2.0000     -14.429916      -392.6580
  16   2.0000     -14.429803      -392.6549
  17   2.0000     -14.422035      -392.4435
  18   2.0000     -14.421918      -392.4403
  19   2.0000     -14.421743      -392.4356
  20   2.0000     -14.420809      -392.4101
  21   2.0000     -10.430659      -283.8326
  22   2.0000     -10.422366      -283.6070
  23   2.0000     -10.415906      -283.4312
  24   2.0000     -10.415762      -283.4273
  25   2.0000     -10.354228      -281.7529
  26   2.0000     -10.352515      -281.7063
  27   2.0000     -10.342231      -281.4264
  28   2.0000     -10.341592      -281.4090
  29   2.0000     -10.339331      -281.3475
  30   2.0000     -10.338219      -281.3172
  31   2.0000     -10.337930      -281.3094
  32   2.0000     -10.333837      -281.1980
  33   2.0000     -10.333035      -281.1762
  34   2.0000     -10.332634      -281.1653
  35   2.0000     -10.330503      -281.1073
  36   2.0000     -10.327863      -281.0354
  37   2.0000     -10.327404      -281.0229
  38   2.0000     -10.326860      -281.0081
  39   2.0000     -10.324189      -280.9355
  40   2.0000     -10.323149      -280.9072
  41   2.0000     -10.322899      -280.9004
  42   2.0000     -10.322531      -280.8904
  43   2.0000     -10.321812      -280.8708
  44   2.0000     -10.316228      -280.7188
  45   2.0000     -10.316217      -280.7185
  46   2.0000     -10.315425      -280.6970
  47   2.0000     -10.315058      -280.6870
  48   2.0000     -10.314691      -280.6770
  49   2.0000     -10.314051      -280.6596
  50   2.0000     -10.312998      -280.6309
  51   2.0000     -10.311400      -280.5875
  52   2.0000     -10.310342      -280.5587
  53   2.0000     -10.303926      -280.3841
  54   2.0000     -10.299892      -280.2743
  55   2.0000     -10.293547      -280.1017
  56   2.0000     -10.292141      -280.0634
  57   2.0000     -10.291589      -280.0484
  58   2.0000     -10.291488      -280.0456
  59   2.0000     -10.288670      -279.9690
  60   2.0000     -10.287415      -279.9348
  61   2.0000     -10.285237      -279.8755
  62   2.0000     -10.283931      -279.8400
  63   2.0000     -10.283448      -279.8269
  64   2.0000     -10.282784      -279.8088
  65   2.0000     -10.282706      -279.8066
  66   2.0000     -10.282663      -279.8055
  67   2.0000     -10.282026      -279.7881
  68   2.0000     -10.281179      -279.7651
  69   2.0000      -8.137358      -221.4288
  70   2.0000      -8.074530      -219.7191
  71   2.0000      -8.071308      -219.6315
  72   2.0000      -8.068080      -219.5436
  73   2.0000      -8.067171      -219.5189
  74   2.0000      -6.108452      -166.2194
  75   2.0000      -6.100849      -166.0125
  76   2.0000      -6.100030      -165.9903
  77   2.0000      -6.043783      -164.4597
  78   2.0000      -6.040646      -164.3743
  79   2.0000      -6.039604      -164.3460
  80   2.0000      -6.037514      -164.2891
  81   2.0000      -6.036886      -164.2720
  82   2.0000      -6.036594      -164.2641
  83   2.0000      -6.036067      -164.2497
  84   2.0000      -6.033943      -164.1919
  85   2.0000      -6.032906      -164.1637
  86   2.0000      -6.031980      -164.1385
  87   2.0000      -6.030518      -164.0987
  88   2.0000      -6.029641      -164.0749
  89   2.0000      -1.342790       -36.5392
  90   2.0000      -1.331496       -36.2318
  91   2.0000      -1.326364       -36.0922
  92   2.0000      -1.316836       -35.8329
  93   2.0000      -1.142720       -31.0950
  94   2.0000      -1.092365       -29.7248
  95   2.0000      -1.090584       -29.6763
  96   2.0000      -1.081454       -29.4278
  97   2.0000      -1.033898       -28.1338
  98   2.0000      -1.032610       -28.0988
  99   2.0000      -1.024796       -27.8861
 100   2.0000      -1.016642       -27.6642
 101   2.0000      -1.014677       -27.6108
 102   2.0000      -1.012463       -27.5505
 103   2.0000      -1.011579       -27.5265
 104   2.0000      -1.000624       -27.2284
 105   2.0000      -0.999428       -27.1958
 106   2.0000      -0.999010       -27.1844
 107   2.0000      -0.989587       -26.9280
 108   2.0000      -0.981721       -26.7140
 109   2.0000      -0.967601       -26.3298
 110   2.0000      -0.954088       -25.9621
 111   2.0000      -0.949196       -25.8289
 112   2.0000      -0.941354       -25.6156
 113   2.0000      -0.940163       -25.5831
 114   2.0000      -0.907109       -24.6837
 115   2.0000      -0.900014       -24.4906
 116   2.0000      -0.880391       -23.9567
 117   2.0000      -0.877283       -23.8721
 118   2.0000      -0.869411       -23.6579
 119   2.0000      -0.866677       -23.5835
 120   2.0000      -0.862569       -23.4717
 121   2.0000      -0.859344       -23.3839
 122   2.0000      -0.851326       -23.1658
 123   2.0000      -0.843214       -22.9450
 124   2.0000      -0.840149       -22.8616
 125   2.0000      -0.839922       -22.8554
 126   2.0000      -0.809435       -22.0258
 127   2.0000      -0.789669       -21.4880
 128   2.0000      -0.782998       -21.3065
 129   2.0000      -0.779151       -21.2018
 130   2.0000      -0.773552       -21.0494
 131   2.0000      -0.772316       -21.0158
 132   2.0000      -0.769903       -20.9501
 133   2.0000      -0.762640       -20.7525
 134   2.0000      -0.755405       -20.5556
 135   2.0000      -0.750923       -20.4336
 136   2.0000      -0.742058       -20.1924
 137   2.0000      -0.721897       -19.6438
 138   2.0000      -0.711339       -19.3565
 139   2.0000      -0.705256       -19.1910
 140   2.0000      -0.692149       -18.8343
 141   2.0000      -0.686782       -18.6883
 142   2.0000      -0.682835       -18.5809
 143   2.0000      -0.676182       -18.3998
 144   2.0000      -0.674303       -18.3487
 145   2.0000      -0.671365       -18.2688
 146   2.0000      -0.668216       -18.1831
 147   2.0000      -0.664350       -18.0779
 148   2.0000      -0.663156       -18.0454
 149   2.0000      -0.654712       -17.8156
 150   2.0000      -0.651853       -17.7378
 151   2.0000      -0.639476       -17.4010
 152   2.0000      -0.639012       -17.3884
 153   2.0000      -0.633452       -17.2371
 154   2.0000      -0.631135       -17.1741
 155   2.0000      -0.629390       -17.1266
 156   2.0000      -0.622239       -16.9320
 157   2.0000      -0.616403       -16.7732
 158   2.0000      -0.610715       -16.6184
 159   2.0000      -0.607988       -16.5442
 160   2.0000      -0.602411       -16.3924
 161   2.0000      -0.600646       -16.3444
 162   2.0000      -0.598478       -16.2854
 163   2.0000      -0.593421       -16.1478
 164   2.0000      -0.588799       -16.0220
 165   2.0000      -0.584579       -15.9072
 166   2.0000      -0.579750       -15.7758
 167   2.0000      -0.571585       -15.5536
 168   2.0000      -0.570031       -15.5113
 169   2.0000      -0.566574       -15.4173
 170   2.0000      -0.563377       -15.3303
 171   2.0000      -0.560732       -15.2583
 172   2.0000      -0.560138       -15.2421
 173   2.0000      -0.553463       -15.0605
 174   2.0000      -0.548939       -14.9374
 175   2.0000      -0.543367       -14.7858
 176   2.0000      -0.541182       -14.7263
 177   2.0000      -0.539263       -14.6741
 178   2.0000      -0.537339       -14.6217
 179   2.0000      -0.535542       -14.5728
 180   2.0000      -0.534949       -14.5567
 181   2.0000      -0.533244       -14.5103
 182   2.0000      -0.531154       -14.4534
 183   2.0000      -0.526017       -14.3136
 184   2.0000      -0.522290       -14.2122
 185   2.0000      -0.517881       -14.0923
 186   2.0000      -0.509648       -13.8682
 187   2.0000      -0.508388       -13.8339
 188   2.0000      -0.505729       -13.7616
 189   2.0000      -0.504173       -13.7192
 190   2.0000      -0.497084       -13.5263
 191   2.0000      -0.495663       -13.4877
 192   2.0000      -0.493811       -13.4373
 193   2.0000      -0.491453       -13.3731
 194   2.0000      -0.489587       -13.3223
 195   2.0000      -0.486745       -13.2450
 196   2.0000      -0.484334       -13.1794
 197   2.0000      -0.482095       -13.1185
 198   2.0000      -0.480463       -13.0741
 199   2.0000      -0.479961       -13.0604
 200   2.0000      -0.473585       -12.8869
 201   2.0000      -0.472246       -12.8505
 202   2.0000      -0.469897       -12.7865
 203   2.0000      -0.462109       -12.5746
 204   2.0000      -0.457849       -12.4587
 205   2.0000      -0.454755       -12.3745
 206   2.0000      -0.454167       -12.3585
 207   2.0000      -0.453590       -12.3428
 208   2.0000      -0.451483       -12.2855
 209   2.0000      -0.450080       -12.2473
 210   2.0000      -0.447664       -12.1816
 211   2.0000      -0.444939       -12.1074
 212   2.0000      -0.443760       -12.0753
 213   2.0000      -0.443207       -12.0603
 214   2.0000      -0.439529       -11.9602
 215   2.0000      -0.432816       -11.7775
 216   2.0000      -0.432611       -11.7720
 217   2.0000      -0.432071       -11.7573
 218   2.0000      -0.431125       -11.7315
 219   2.0000      -0.429994       -11.7007
 220   2.0000      -0.429363       -11.6836
 221   2.0000      -0.424102       -11.5404
 222   2.0000      -0.420793       -11.4504
 223   2.0000      -0.419308       -11.4099
 224   2.0000      -0.418572       -11.3899
 225   2.0000      -0.417337       -11.3563
 226   2.0000      -0.414733       -11.2855
 227   2.0000      -0.414325       -11.2744
 228   2.0000      -0.399906       -10.8820
 229   2.0000      -0.396531       -10.7902
 230   2.0000      -0.395787       -10.7699
 231   2.0000      -0.394699       -10.7403
 232   2.0000      -0.391761       -10.6604
 233   2.0000      -0.385169       -10.4810
 234   2.0000      -0.372766       -10.1435
 235   2.0000      -0.367214        -9.9924
 236   2.0000      -0.366055        -9.9609
 237   2.0000      -0.363670        -9.8960
 238   2.0000      -0.357604        -9.7309
 239   2.0000      -0.352603        -9.5948
 240   2.0000      -0.346373        -9.4253
 241   2.0000      -0.345973        -9.4144
 242   2.0000      -0.339166        -9.2292
 243   2.0000      -0.334730        -9.1085
 244   2.0000      -0.328552        -8.9404
 245   2.0000      -0.326607        -8.8874
 246   2.0000      -0.315454        -8.5839
 247   2.0000      -0.311023        -8.4634
 248   2.0000      -0.309125        -8.4117
 249   2.0000      -0.284068        -7.7299
 250   2.0000      -0.256662        -6.9841
 251   2.0000      -0.224830        -6.1179
 252   0.0000      -0.116667        -3.1747
 253   0.0000      -0.092362        -2.5133
 254   0.0000      -0.087142        -2.3713
 255   0.0000      -0.048147        -1.3101
 256   0.0000      -0.042235        -1.1493

MULLIKEN ATOMIC CHARGES
-----------------------
   0 C :   -0.045454
   1 C :    0.065768
   2 C :   -0.086307
   3 C :    0.069792
   4 C :    0.065744
   5 C :    0.121340
   6 N :   -0.090069
   7 C :    0.099803
   8 C :    0.122200
   9 N :   -0.085681
  10 F :   -0.141867
  11 F :   -0.143275
  12 C :   -0.071425
  13 C :   -0.040641
  14 C :    0.016497
  15 C :   -0.094713
  16 S :    0.163860
  17 C :   -0.074215
  18 C :    0.039926
  19 C :    0.316363
  20 C :   -0.312012
  21 C :   -0.184574
  22 N :    0.170637
  23 C :   -0.188945
  24 N :    0.164024
  25 C :   -0.065428
  26 C :   -0.184207
  27 S :    0.194730
  28 C :    0.191580
  29 C :   -0.069669
  30 C :   -0.071719
  31 N :   -0.031138
  32 C :    0.041556
  33 C :    0.042647
  34 N :   -0.031714
  35 C :    0.194016
  36 C :   -0.019492
  37 C :   -0.014346
  38 N :   -0.338230
  39 S :    0.554096
  40 N :   -0.334203
  41 C :   -0.186851
  42 C :   -0.065188
  43 C :    0.041421
  44 C :   -0.075711
  45 S :    0.197737
  46 C :   -0.097165
  47 C :    0.013350
  48 C :    0.314619
  49 C :   -0.313008
  50 C :   -0.189966
  51 N :    0.158366
  52 C :   -0.185516
  53 N :    0.168864
  54 C :   -0.047097
  55 C :   -0.065769
  56 S :    0.210442
  57 C :    0.035134
  58 C :   -0.059563
  59 C :    0.040247
  60 C :    0.003942
  61 C :    0.097406
  62 C :    0.096313
  63 N :   -0.140570
  64 C :    0.137303
  65 C :    0.115188
  66 N :   -0.084529
  67 F :   -0.143013
  68 F :   -0.138627
  69 H :    0.013819
  70 H :   -0.008430
  71 H :   -0.009366
  72 H :    0.036711
  73 H :    0.039750
  74 H :    0.009457
  75 H :    0.018949
  76 H :    0.030764
  77 H :    0.030586
  78 H :    0.019494
  79 H :    0.001118
  80 H :   -0.010567
  81 H :   -0.004879
  82 H :    0.005725
  83 H :    0.030438
  84 H :    0.043413
Sum of atomic charges:   -0.0000000

LOEWDIN ATOMIC CHARGES
----------------------
   0 C :   -0.018942
   1 C :   -0.032431
   2 C :   -0.035528
   3 C :   -0.033199
   4 C :    0.021614
   5 C :    0.011025
   6 N :   -0.069270
   7 C :    0.046869
   8 C :    0.048287
   9 N :   -0.070383
  10 F :   -0.030547
  11 F :   -0.031718
  12 C :   -0.155507
  13 C :   -0.026423
  14 C :   -0.071238
  15 C :   -0.174631
  16 S :    0.469753
  17 C :   -0.185785
  18 C :   -0.075669
  19 C :    0.085014
  20 C :   -0.107801
  21 C :   -0.014147
  22 N :   -0.039989
  23 C :   -0.015349
  24 N :   -0.039891
  25 C :   -0.013422
  26 C :   -0.162022
  27 S :    0.503463
  28 C :   -0.048737
  29 C :   -0.006108
  30 C :   -0.007849
  31 N :   -0.022586
  32 C :    0.020675
  33 C :    0.021860
  34 N :   -0.023291
  35 C :   -0.044666
  36 C :   -0.049880
  37 C :   -0.049073
  38 N :   -0.305850
  39 S :    0.671832
  40 N :   -0.303467
  41 C :   -0.164708
  42 C :   -0.011662
  43 C :   -0.078563
  44 C :   -0.179408
  45 S :    0.504333
  46 C :   -0.191413
  47 C :   -0.070708
  48 C :    0.085649
  49 C :   -0.112653
  50 C :   -0.015008
  51 N :   -0.044550
  52 C :   -0.014604
  53 N :   -0.041887
  54 C :   -0.024308
  55 C :   -0.169648
  56 S :    0.512602
  57 C :   -0.042107
  58 C :   -0.026840
  59 C :   -0.025708
  60 C :   -0.015294
  61 C :    0.013794
  62 C :    0.015487
  63 N :   -0.096109
  64 C :    0.061676
  65 C :    0.041031
  66 N :   -0.059455
  67 F :   -0.032470
  68 F :   -0.027220
  69 H :    0.032003
  70 H :    0.033209
  71 H :    0.021453
  72 H :    0.039430
  73 H :    0.047346
  74 H :    0.038340
  75 H :    0.035957
  76 H :    0.034253
  77 H :    0.034268
  78 H :    0.036031
  79 H :    0.037020
  80 H :    0.033028
  81 H :    0.035042
  82 H :    0.030719
  83 H :    0.040914
  84 H :    0.045745

  Mayer bond orders larger than 0.100000
B(  0-C ,  1-C ) :   1.8045 B(  0-C ,  5-C ) :   0.9674 B(  0-C , 69-H ) :   0.9811
B(  1-C ,  2-C ) :   1.0776 B(  1-C , 70-H ) :   0.9806 B(  2-C ,  3-C ) :   1.7212
B(  2-C , 71-H ) :   0.9755 B(  3-C ,  4-C ) :   0.9885 B(  3-C , 12-C ) :   1.1329
B(  4-C ,  5-C ) :   0.9754 B(  4-C ,  9-N ) :   1.0238 B(  4-C , 72-H ) :   0.8922
B(  5-C ,  6-N ) :   1.0053 B(  5-C , 73-H ) :   0.8850 B(  6-N ,  7-C ) :   1.9571
B(  7-C ,  8-C ) :   0.9319 B(  7-C , 11-F ) :   1.1622 B(  8-C ,  9-N ) :   1.9558
B(  8-C , 10-F ) :   1.1672 B( 12-C , 13-C ) :   1.4881 B( 12-C , 16-S ) :   1.0936
B( 13-C , 14-C ) :   1.2586 B( 13-C , 74-H ) :   0.9816 B( 14-C , 15-C ) :   1.4365
B( 14-C , 19-C ) :   1.0003 B( 15-C , 16-S ) :   1.1227 B( 15-C , 17-C ) :   1.1915
B( 17-C , 18-C ) :   1.4057 B( 17-C , 27-S ) :   1.0964 B( 18-C , 19-C ) :   0.9903
B( 18-C , 25-C ) :   1.2547 B( 19-C , 20-C ) :   1.7036 B( 20-C , 21-C ) :   1.1389
B( 20-C , 23-C ) :   1.1362 B( 21-C , 22-N ) :   2.9916 B( 23-C , 24-N ) :   2.9869
B( 25-C , 26-C ) :   1.4114 B( 25-C , 75-H ) :   0.9817 B( 26-C , 27-S ) :   1.0958
B( 26-C , 28-C ) :   1.1917 B( 28-C , 29-C ) :   1.2651 B( 28-C , 35-C ) :   0.1340
B( 28-C , 37-C ) :   1.1985 B( 29-C , 30-C ) :   1.1174 B( 29-C , 34-N ) :   1.4677
B( 30-C , 31-N ) :   1.4679 B( 30-C , 35-C ) :   1.2633 B( 31-N , 32-C ) :   1.6691
B( 32-C , 33-C ) :   1.1816 B( 32-C , 76-H ) :   0.9750 B( 33-C , 34-N ) :   1.6700
B( 33-C , 77-H ) :   0.9749 B( 35-C , 36-C ) :   1.1979 B( 35-C , 41-C ) :   1.1953
B( 36-C , 37-C ) :   1.1198 B( 36-C , 40-N ) :   1.4622 B( 37-C , 38-N ) :   1.4599
B( 38-N , 39-S ) :   1.2727 B( 38-N , 40-N ) :   0.1562 B( 39-S , 40-N ) :   1.2759
B( 41-C , 42-C ) :   1.4139 B( 41-C , 45-S ) :   1.0902 B( 42-C , 43-C ) :   1.2526
B( 42-C , 78-H ) :   0.9814 B( 43-C , 44-C ) :   1.4003 B( 43-C , 48-C ) :   0.9943
B( 44-C , 45-S ) :   1.1040 B( 44-C , 46-C ) :   1.1950 B( 46-C , 47-C ) :   1.4088
B( 46-C , 56-S ) :   1.1045 B( 47-C , 48-C ) :   0.9963 B( 47-C , 54-C ) :   1.3091
B( 48-C , 49-C ) :   1.6995 B( 49-C , 50-C ) :   1.1336 B( 49-C , 52-C ) :   1.1398
B( 50-C , 51-N ) :   2.9876 B( 52-C , 53-N ) :   2.9917 B( 54-C , 55-C ) :   1.4590
B( 54-C , 79-H ) :   0.9898 B( 55-C , 56-S ) :   1.1132 B( 55-C , 57-C ) :   1.1114
B( 57-C , 58-C ) :   1.7446 B( 57-C , 62-C ) :   0.9356 B( 58-C , 59-C ) :   1.0778
B( 58-C , 80-H ) :   0.9792 B( 59-C , 60-C ) :   1.8076 B( 59-C , 81-H ) :   0.9795
B( 60-C , 61-C ) :   0.9970 B( 60-C , 82-H ) :   0.9750 B( 61-C , 62-C ) :   0.9842
B( 61-C , 66-N ) :   1.0012 B( 61-C , 83-H ) :   0.9031 B( 62-C , 63-N ) :   0.9926
B( 62-C , 84-H ) :   0.8818 B( 63-N , 64-C ) :   1.9080 B( 64-C , 65-C ) :   0.9379
B( 64-C , 68-F ) :   1.1752 B( 65-C , 66-N ) :   1.9592 B( 65-C , 67-F ) :   1.1653

-----------------------------------------------------------------------------
         ABSORPTION SPECTRUM VIA TRANSITION ELECTRIC DIPOLE MOMENTS
-----------------------------------------------------------------------------
State   Energy  Wavelength   fosc         T2         TX        TY        TZ
        (cm-1)    (nm)                  (au**2)     (au)      (au)      (au)
-----------------------------------------------------------------------------
   0    8784.3   1138.4   0.776418835  29.09797   5.09302  -0.67019   1.64621
   1   11972.8    835.2   0.008702573   0.23929   0.12526  -0.30491   0.36143
   2   12817.7    780.2   0.017032545   0.43747  -0.63586   0.06872  -0.16860
   3   17047.1    586.6   0.011373905   0.21965   0.02066   0.35208  -0.30865
   4   21290.2    469.7   0.025731200   0.39788   0.59703  -0.07770   0.18815
   5   22767.1    439.2   0.028085645   0.40612  -0.20176   0.41925  -0.43547
   6   23226.2    430.5   0.002488702   0.03528   0.00021   0.13820   0.12719
   7   23536.7    424.9   0.126873218   1.77460  -1.10856   0.45353  -0.58309
   8   24076.1    415.3   0.214202574   2.92896   1.65366  -0.08863   0.43189
   9   25949.7    385.4   0.836035897  10.60640   3.18611  -0.08502   0.66921
  10   26508.4    377.2   0.037325416   0.46355  -0.21298   0.31968  -0.56213
  11   26557.0    376.5   0.172182359   2.13444  -0.67833   0.68620  -1.09701
  12   26916.7    371.5   0.063579803   0.77763   0.88071  -0.04150  -0.01606
  13   27351.1    365.6   0.337323381   4.06020  -1.77210   0.43431  -0.85513
  14   28083.9    356.1   0.238066773   2.79072   1.65004   0.23362  -0.11618
  15   28382.8    352.3   0.027238777   0.31594  -0.12387  -0.33722   0.43230
  16   29222.4    342.2   0.189184120   2.13130   1.09289  -0.46381   0.84958
  17   29888.6    334.6   0.046238782   0.50930  -0.11398  -0.37427   0.59685
  18   30705.2    325.7   0.364068877   3.90343  -0.42001  -1.00294   1.64958
  19   31131.0    321.2   0.099339146   1.05052  -0.78163  -0.32381   0.57855
  20   31254.0    320.0   0.057638803   0.60714  -0.77864  -0.01194   0.02672
  21   31575.9    316.7   0.202327068   2.10948   1.12292  -0.30936   0.86765
  22   31782.7    314.6   0.027273169   0.28250  -0.48429   0.14928  -0.16024
  23   32139.8    311.1   0.620394629   6.35478   1.20523   1.06396  -1.94170
  24   32705.4    305.8   0.038727037   0.38983  -0.60807   0.11596   0.08142
  25   33249.9    300.8   0.030604577   0.30302   0.14581   0.29805  -0.43924
  26   33933.6    294.7   0.146289402   1.41925  -0.75656   0.45796  -0.79821
  27   34009.2    294.0   0.003830750   0.03708  -0.13776  -0.10226   0.08745
  28   34602.3    289.0   0.015148225   0.14412   0.35523  -0.07412   0.11154
  29   34624.2    288.8   0.099456050   0.94564   0.93881  -0.00621   0.25345
  30   35087.0    285.0   0.043049976   0.40393   0.34370   0.19318  -0.49848
  31   35158.7    284.4   0.000481120   0.00451  -0.01979   0.05239  -0.03700
  32   35443.8    282.1   0.229835713   2.13478  -1.01151  -0.60351   0.86452
  33   35543.7    281.3   0.134506406   1.24582  -0.35866  -0.51931   0.92060
  34   35918.4    278.4   0.176515647   1.61786   1.11631   0.32677  -0.51472
  35   35949.8    278.2   0.155947790   1.42810   0.51318  -0.43377   0.98823
  36   36071.8    277.2   0.004654159   0.04248   0.10997   0.08844  -0.15020
  37   36416.6    274.6   0.426677268   3.85724   0.03944   1.01046  -1.68364
  38   36837.6    271.5   0.196114187   1.75264  -1.22632  -0.24733   0.43313
  39   37552.9    266.3   0.045611099   0.39986  -0.23600  -0.34836   0.47202
  40   37671.6    265.5   0.001600534   0.01399  -0.10253   0.03590   0.04675
  41   37966.2    263.4   0.002892973   0.02509   0.03324  -0.07898   0.13321
  42   38048.8    262.8   0.040202331   0.34784  -0.15041  -0.20025   0.53397
  43   38828.4    257.5   0.004352301   0.03690  -0.13805  -0.05563   0.12144
  44   39055.9    256.0   0.008342281   0.07032   0.15894   0.14293   0.15693
  45   39548.7    252.9   0.046260859   0.38509  -0.21243  -0.22640   0.53731
  46   39645.5    252.2   0.001803742   0.01498  -0.01499  -0.06079   0.10516
  47   39804.5    251.2   0.000552453   0.00457  -0.02942   0.05612   0.02355
  48   40189.8    248.8   0.010001878   0.08193   0.10725   0.11402  -0.23964

FINAL SINGLE POINT ENERGY     -4881.685986186896

DIPOLE MOMENT
-------------
                                X             Y             Z
Electronic contribution:    -13.58162      -3.70018      -0.22293
Nuclear contribution   :     13.45242       1.93066       4.07321
                        -----------------------------------------
Total Dipole Moment    :     -0.12919      -1.76952       3.85028
                        -----------------------------------------
Magnitude (a.u.)       :      4.23940
Magnitude (Debye)      :     10.77570

Rotational constants in cm-1:     0.002560     0.000246     0.000228
Rotational constants in MHz :    76.756870     7.384651     6.840510

                             ****ORCA TERMINATED NORMALLY****
TOTAL RUN TIME: 0 days 0 hours 7 minutes 36 seconds 470 msec
