                         Program Version 4.2.0 -  RELEASE  -
|  1> # ORCA input file
|  2> # SCF done       -187.984791314533          0.000633215152
|  3> ! CAM-B3LYP def2-SVP def2/J RIJCOSX Grid4 TightSCF
|  4> %maxcore 5000
|  5> %tddft
|  6>     Mode sTDDFT
|  7>     Ethresh 5.0
|  8>     maxcore 5000
|  9> end
| 10>
| 11> %pal
| 12>   nprocs 6
| 13>   end
| 14> * xyz 0 1
| 15>    C       -1.76939        -0.85038        -0.11115
| 16>    S       -1.54554         0.88540         0.06319
| 17>    C       -3.10667         1.07170         0.91855
| 18>    O       -3.54016         2.10911         1.32186
| 19>    N       -3.69299        -0.15607         1.02099
| 20>    C       -3.04032        -1.25774         0.49227
| 21>    O       -3.51060        -2.37119         0.54678
| 22>    C       -4.97941        -0.29208         1.67167
| 23>    C       -0.81884        -1.58107        -0.75556
| 24>    C       -0.72807        -2.96316        -1.03501
| 25>    C       -1.53468        -4.04475        -0.70891
| 26>    C       -1.03534        -5.24163        -1.20721
| 27>    C        0.16646        -5.08413        -1.93427
| 28>    S        0.67872        -3.46182        -1.98548
| 29>    C        0.57674        -6.34781        -2.40950
| 30>    C       -0.35592        -7.31588        -1.97939
| 31>    C       -1.41336        -6.64563        -1.23454
| 32>    C       -2.54429        -7.21472        -0.73236
| 33>    C       -2.86691        -8.57417        -0.94823
| 34>    N       -3.17752        -9.65791        -1.15370
| 35>    C       -3.51654        -6.49175        -0.00521
| 36>    N       -4.32198        -5.94288         0.59746
| 37>    C       -0.02336        -8.60545        -2.36808
| 38>    C        1.14645        -8.62982        -3.12110
| 39>    S        1.84418        -7.02851        -3.33163
| 40>    C        1.73728        -9.77457        -3.68549
| 41>    C        1.37303       -11.10719        -3.43731
| 42>    C        2.12930       -12.05198        -4.21255
| 43>    N        1.84163       -13.35523        -4.17441
| 44>    C        0.89464       -13.73741        -3.34780
| 45>    C        0.49822       -15.17037        -3.38365
| 46>    O        0.92246       -15.94225        -4.21437
| 47>    C       -0.48258       -15.56657        -2.35654
| 48>    C       -1.02562       -14.71569        -1.47991
| 49>    C       -0.69386       -13.28042        -1.41855
| 50>    O       -1.12365       -12.54609        -0.55716
| 51>    C        0.24292       -12.81211        -2.47403
| 52>    N        0.46562       -11.51938        -2.54949
| 53>    C        3.10104       -11.44570        -5.02301
| 54>    S        3.03655        -9.72072        -4.83513
| 55>    C        3.99279       -12.10112        -5.89147
| 56>    C        4.21105       -13.47403        -5.95441
| 57>    C        5.13594       -13.80076        -6.93580
| 58>    C        5.61175       -12.67793        -7.64651
| 59>    S        4.94991       -11.21210        -7.06908
| 60>    C        6.48853       -13.12139        -8.65876
| 61>    C        6.58267       -14.53173        -8.58858
| 62>    C        5.75288       -14.99870        -7.49015
| 63>    C        5.60760       -16.27635        -7.04052
| 64>    C        6.20074       -17.38816        -7.67966
| 65>    N        6.64399       -18.31351        -8.19001
| 66>    C        4.87932       -16.58911        -5.87012
| 67>    N        4.34238       -16.85858        -4.89430
| 68>    C        7.43161       -15.06950        -9.54585
| 69>    C        7.98656       -14.09300       -10.36385
| 70>    S        7.42834       -12.47292        -9.91837
| 71>    C        8.83218       -14.16133       -11.49068
| 72>    C        9.54827       -15.20442       -12.00681
| 73>    C       10.29285       -15.14035       -13.25484
| 74>    C       10.20010       -14.17212       -14.21989
| 75>    C       10.93974       -14.17961       -15.42225
| 76>    N       11.50989       -14.11684       -16.41649
| 77>    C        9.34301       -13.05122       -14.18807
| 78>    N        8.66561       -12.12567       -14.25164
| 79>    C       11.10604       -16.34923       -13.34985
| 80>    C       10.82845       -17.16760       -12.24227
| 81>    C        9.83978       -16.51690       -11.36883
| 82>    O        9.40720       -16.95659       -10.32524
| 83>    C       11.44965       -18.39207       -12.07923
| 84>    C       12.35930       -18.79877       -13.04016
| 85>    C       12.65417       -17.99890       -14.14491
| 86>    C       12.02386       -16.76625       -14.30010
| 87>    C       13.63971       -18.47521       -15.16356
| 88>    H       -4.90435         0.01838         2.71374
| 89>    H       -5.26416        -1.34128         1.61010
| 90>    H       -5.71705         0.33194         1.16767
| 91>    H        0.02034        -1.00328        -1.12773
| 92>    H       -2.43749        -3.93711        -0.13595
| 93>    H       -0.56575        -9.50359        -2.13349
| 94>    H       -0.74930       -16.61486        -2.36248
| 95>    H       -1.74550       -15.04849        -0.74439
| 96>    H        3.69055       -14.16202        -5.31284
| 97>    H        7.65569       -16.11458        -9.65951
| 98>    H        8.91640       -13.21553       -12.01384
| 99>    H       11.21816       -19.00486       -11.22177
|100>    H       12.85514       -19.75306       -12.93868
|101>    H       12.26325       -16.15415       -15.15454
|102>    H       14.56930       -18.77606       -14.68341
|103>    H       13.85389       -17.70005       -15.89405
|104>    H       13.24270       -19.34430       -15.68757
|105> *
|106>
|107>                          ****END OF INPUT****

CARTESIAN COORDINATES (ANGSTROEM)
---------------------------------
  C     -1.769390   -0.850380   -0.111150
  S     -1.545540    0.885400    0.063190
  C     -3.106670    1.071700    0.918550
  O     -3.540160    2.109110    1.321860
  N     -3.692990   -0.156070    1.020990
  C     -3.040320   -1.257740    0.492270
  O     -3.510600   -2.371190    0.546780
  C     -4.979410   -0.292080    1.671670
  C     -0.818840   -1.581070   -0.755560
  C     -0.728070   -2.963160   -1.035010
  C     -1.534680   -4.044750   -0.708910
  C     -1.035340   -5.241630   -1.207210
  C      0.166460   -5.084130   -1.934270
  S      0.678720   -3.461820   -1.985480
  C      0.576740   -6.347810   -2.409500
  C     -0.355920   -7.315880   -1.979390
  C     -1.413360   -6.645630   -1.234540
  C     -2.544290   -7.214720   -0.732360
  C     -2.866910   -8.574170   -0.948230
  N     -3.177520   -9.657910   -1.153700
  C     -3.516540   -6.491750   -0.005210
  N     -4.321980   -5.942880    0.597460
  C     -0.023360   -8.605450   -2.368080
  C      1.146450   -8.629820   -3.121100
  S      1.844180   -7.028510   -3.331630
  C      1.737280   -9.774570   -3.685490
  C      1.373030  -11.107190   -3.437310
  C      2.129300  -12.051980   -4.212550
  N      1.841630  -13.355230   -4.174410
  C      0.894640  -13.737410   -3.347800
  C      0.498220  -15.170370   -3.383650
  O      0.922460  -15.942250   -4.214370
  C     -0.482580  -15.566570   -2.356540
  C     -1.025620  -14.715690   -1.479910
  C     -0.693860  -13.280420   -1.418550
  O     -1.123650  -12.546090   -0.557160
  C      0.242920  -12.812110   -2.474030
  N      0.465620  -11.519380   -2.549490
  C      3.101040  -11.445700   -5.023010
  S      3.036550   -9.720720   -4.835130
  C      3.992790  -12.101120   -5.891470
  C      4.211050  -13.474030   -5.954410
  C      5.135940  -13.800760   -6.935800
  C      5.611750  -12.677930   -7.646510
  S      4.949910  -11.212100   -7.069080
  C      6.488530  -13.121390   -8.658760
  C      6.582670  -14.531730   -8.588580
  C      5.752880  -14.998700   -7.490150
  C      5.607600  -16.276350   -7.040520
  C      6.200740  -17.388160   -7.679660
  N      6.643990  -18.313510   -8.190010
  C      4.879320  -16.589110   -5.870120
  N      4.342380  -16.858580   -4.894300
  C      7.431610  -15.069500   -9.545850
  C      7.986560  -14.093000  -10.363850
  S      7.428340  -12.472920   -9.918370
  C      8.832180  -14.161330  -11.490680
  C      9.548270  -15.204420  -12.006810
  C     10.292850  -15.140350  -13.254840
  C     10.200100  -14.172120  -14.219890
  C     10.939740  -14.179610  -15.422250
  N     11.509890  -14.116840  -16.416490
  C      9.343010  -13.051220  -14.188070
  N      8.665610  -12.125670  -14.251640
  C     11.106040  -16.349230  -13.349850
  C     10.828450  -17.167600  -12.242270
  C      9.839780  -16.516900  -11.368830
  O      9.407200  -16.956590  -10.325240
  C     11.449650  -18.392070  -12.079230
  C     12.359300  -18.798770  -13.040160
  C     12.654170  -17.998900  -14.144910
  C     12.023860  -16.766250  -14.300100
  C     13.639710  -18.475210  -15.163560
  H     -4.904350    0.018380    2.713740
  H     -5.264160   -1.341280    1.610100
  H     -5.717050    0.331940    1.167670
  H      0.020340   -1.003280   -1.127730
  H     -2.437490   -3.937110   -0.135950
  H     -0.565750   -9.503590   -2.133490
  H     -0.749300  -16.614860   -2.362480
  H     -1.745500  -15.048490   -0.744390
  H      3.690550  -14.162020   -5.312840
  H      7.655690  -16.114580   -9.659510
  H      8.916400  -13.215530  -12.013840
  H     11.218160  -19.004860  -11.221770
  H     12.855140  -19.753060  -12.938680
  H     12.263250  -16.154150  -15.154540
  H     14.569300  -18.776060  -14.683410
  H     13.853890  -17.700050  -15.894050
  H     13.242700  -19.344300  -15.687570

 Total Charge           Charge          ....    0
 Multiplicity           Mult            ....    1
 Number of Electrons    NEL             ....  534
 Basis Dimension        Dim             .... 1131

ORBITAL ENERGIES
----------------

  NO   OCC          E(Eh)            E(eV)
   0   2.0000     -89.010459     -2422.0977
   1   2.0000     -89.001129     -2421.8438
   2   2.0000     -89.000561     -2421.8284
   3   2.0000     -88.996362     -2421.7141
   4   2.0000     -88.995325     -2421.6859
   5   2.0000     -88.955224     -2420.5947
   6   2.0000     -19.229991      -523.2747
   7   2.0000     -19.229512      -523.2616
   8   2.0000     -19.219103      -522.9784
   9   2.0000     -19.218309      -522.9568
  10   2.0000     -19.218014      -522.9488
  11   2.0000     -14.474434      -393.8694
  12   2.0000     -14.456129      -393.3713
  13   2.0000     -14.455800      -393.3623
  14   2.0000     -14.429254      -392.6400
  15   2.0000     -14.428918      -392.6308
  16   2.0000     -14.428740      -392.6260
  17   2.0000     -14.428661      -392.6238
  18   2.0000     -14.418799      -392.3555
  19   2.0000     -14.414860      -392.2483
  20   2.0000     -10.413275      -283.3596
  21   2.0000     -10.406716      -283.1811
  22   2.0000     -10.378764      -282.4205
  23   2.0000     -10.378333      -282.4088
  24   2.0000     -10.369453      -282.1672
  25   2.0000     -10.369115      -282.1580
  26   2.0000     -10.368471      -282.1405
  27   2.0000     -10.354073      -281.7487
  28   2.0000     -10.353136      -281.7232
  29   2.0000     -10.348111      -281.5864
  30   2.0000     -10.347952      -281.5821
  31   2.0000     -10.347178      -281.5610
  32   2.0000     -10.347119      -281.5594
  33   2.0000     -10.345598      -281.5180
  34   2.0000     -10.343884      -281.4714
  35   2.0000     -10.343701      -281.4664
  36   2.0000     -10.343256      -281.4543
  37   2.0000     -10.342660      -281.4381
  38   2.0000     -10.342044      -281.4213
  39   2.0000     -10.341860      -281.4163
  40   2.0000     -10.341312      -281.4014
  41   2.0000     -10.340504      -281.3794
  42   2.0000     -10.340000      -281.3657
  43   2.0000     -10.330737      -281.1136
  44   2.0000     -10.329278      -281.0739
  45   2.0000     -10.328316      -281.0478
  46   2.0000     -10.328096      -281.0418
  47   2.0000     -10.327779      -281.0331
  48   2.0000     -10.327629      -281.0291
  49   2.0000     -10.327494      -281.0254
  50   2.0000     -10.327381      -281.0223
  51   2.0000     -10.326084      -280.9870
  52   2.0000     -10.321773      -280.8697
  53   2.0000     -10.318052      -280.7685
  54   2.0000     -10.314733      -280.6782
  55   2.0000     -10.311656      -280.5944
  56   2.0000     -10.310933      -280.5748
  57   2.0000     -10.310226      -280.5555
  58   2.0000     -10.309754      -280.5427
  59   2.0000     -10.309277      -280.5297
  60   2.0000     -10.308346      -280.5044
  61   2.0000     -10.306855      -280.4638
  62   2.0000     -10.305602      -280.4297
  63   2.0000     -10.305583      -280.4292
  64   2.0000     -10.304490      -280.3994
  65   2.0000     -10.301663      -280.3225
  66   2.0000     -10.300763      -280.2980
  67   2.0000     -10.299821      -280.2724
  68   2.0000     -10.293199      -280.0922
  69   2.0000     -10.289775      -279.9990
  70   2.0000     -10.289768      -279.9988
  71   2.0000     -10.287963      -279.9497
  72   2.0000     -10.274310      -279.5782
  73   2.0000      -8.105143      -220.5522
  74   2.0000      -8.095811      -220.2982
  75   2.0000      -8.095284      -220.2839
  76   2.0000      -8.091165      -220.1718
  77   2.0000      -8.090249      -220.1469
  78   2.0000      -8.053087      -219.1356
  79   2.0000      -6.074211      -165.2877
  80   2.0000      -6.070105      -165.1760
  81   2.0000      -6.067827      -165.1140
  82   2.0000      -6.065096      -165.0397
  83   2.0000      -6.064613      -165.0265
  84   2.0000      -6.061001      -164.9282
  85   2.0000      -6.060455      -164.9134
  86   2.0000      -6.060282      -164.9087
  87   2.0000      -6.059384      -164.8842
  88   2.0000      -6.058040      -164.8477
  89   2.0000      -6.057469      -164.8321
  90   2.0000      -6.056159      -164.7965
  91   2.0000      -6.055336      -164.7741
  92   2.0000      -6.053665      -164.7286
  93   2.0000      -6.052652      -164.7010
  94   2.0000      -6.022677      -163.8854
  95   2.0000      -6.019167      -163.7899
  96   2.0000      -6.013296      -163.6301
  97   2.0000      -1.172328       -31.9007
  98   2.0000      -1.148034       -31.2396
  99   2.0000      -1.147684       -31.2301
 100   2.0000      -1.142798       -31.0971
 101   2.0000      -1.133860       -30.8539
 102   2.0000      -1.108259       -30.1573
 103   2.0000      -1.059216       -28.8227
 104   2.0000      -1.052201       -28.6318
 105   2.0000      -1.050659       -28.5899
 106   2.0000      -1.034899       -28.1610
 107   2.0000      -1.024727       -27.8842
 108   2.0000      -1.021678       -27.8013
 109   2.0000      -1.020354       -27.7653
 110   2.0000      -1.019298       -27.7365
 111   2.0000      -1.006897       -27.3991
 112   2.0000      -1.005534       -27.3620
 113   2.0000      -1.004574       -27.3358
 114   2.0000      -0.998168       -27.1615
 115   2.0000      -0.996892       -27.1268
 116   2.0000      -0.994173       -27.0528
 117   2.0000      -0.967013       -26.3138
 118   2.0000      -0.962668       -26.1955
 119   2.0000      -0.951690       -25.8968
 120   2.0000      -0.948804       -25.8183
 121   2.0000      -0.942490       -25.6464
 122   2.0000      -0.925889       -25.1947
 123   2.0000      -0.917641       -24.9703
 124   2.0000      -0.904206       -24.6047
 125   2.0000      -0.893904       -24.3244
 126   2.0000      -0.885985       -24.1089
 127   2.0000      -0.882675       -24.0188
 128   2.0000      -0.876870       -23.8608
 129   2.0000      -0.871356       -23.7108
 130   2.0000      -0.863525       -23.4977
 131   2.0000      -0.862235       -23.4626
 132   2.0000      -0.860256       -23.4087
 133   2.0000      -0.854985       -23.2653
 134   2.0000      -0.830114       -22.5886
 135   2.0000      -0.812009       -22.0959
 136   2.0000      -0.807272       -21.9670
 137   2.0000      -0.805295       -21.9132
 138   2.0000      -0.799052       -21.7433
 139   2.0000      -0.791200       -21.5297
 140   2.0000      -0.786089       -21.3906
 141   2.0000      -0.781649       -21.2698
 142   2.0000      -0.776543       -21.1308
 143   2.0000      -0.764211       -20.7952
 144   2.0000      -0.753053       -20.4916
 145   2.0000      -0.743326       -20.2269
 146   2.0000      -0.734975       -19.9997
 147   2.0000      -0.718998       -19.5649
 148   2.0000      -0.712388       -19.3851
 149   2.0000      -0.699266       -19.0280
 150   2.0000      -0.697023       -18.9669
 151   2.0000      -0.692628       -18.8474
 152   2.0000      -0.688801       -18.7432
 153   2.0000      -0.686193       -18.6723
 154   2.0000      -0.683499       -18.5990
 155   2.0000      -0.681104       -18.5338
 156   2.0000      -0.673541       -18.3280
 157   2.0000      -0.671687       -18.2775
 158   2.0000      -0.662315       -18.0225
 159   2.0000      -0.651980       -17.7413
 160   2.0000      -0.638557       -17.3760
 161   2.0000      -0.636649       -17.3241
 162   2.0000      -0.629460       -17.1285
 163   2.0000      -0.628831       -17.1114
 164   2.0000      -0.620733       -16.8910
 165   2.0000      -0.617307       -16.7978
 166   2.0000      -0.614740       -16.7279
 167   2.0000      -0.609541       -16.5865
 168   2.0000      -0.607191       -16.5225
 169   2.0000      -0.602467       -16.3940
 170   2.0000      -0.588528       -16.0147
 171   2.0000      -0.587740       -15.9932
 172   2.0000      -0.586410       -15.9570
 173   2.0000      -0.578112       -15.7312
 174   2.0000      -0.574470       -15.6321
 175   2.0000      -0.570936       -15.5360
 176   2.0000      -0.570510       -15.5244
 177   2.0000      -0.562635       -15.3101
 178   2.0000      -0.560732       -15.2583
 179   2.0000      -0.553968       -15.0742
 180   2.0000      -0.552859       -15.0440
 181   2.0000      -0.550131       -14.9698
 182   2.0000      -0.545082       -14.8324
 183   2.0000      -0.541682       -14.7399
 184   2.0000      -0.538613       -14.6564
 185   2.0000      -0.537725       -14.6322
 186   2.0000      -0.534749       -14.5513
 187   2.0000      -0.529863       -14.4183
 188   2.0000      -0.528138       -14.3714
 189   2.0000      -0.527911       -14.3652
 190   2.0000      -0.524614       -14.2755
 191   2.0000      -0.522311       -14.2128
 192   2.0000      -0.518526       -14.1098
 193   2.0000      -0.512005       -13.9324
 194   2.0000      -0.511392       -13.9157
 195   2.0000      -0.510451       -13.8901
 196   2.0000      -0.508108       -13.8263
 197   2.0000      -0.507170       -13.8008
 198   2.0000      -0.505398       -13.7526
 199   2.0000      -0.504246       -13.7212
 200   2.0000      -0.500895       -13.6300
 201   2.0000      -0.499624       -13.5955
 202   2.0000      -0.499164       -13.5830
 203   2.0000      -0.494584       -13.4583
 204   2.0000      -0.494074       -13.4444
 205   2.0000      -0.493206       -13.4208
 206   2.0000      -0.492172       -13.3927
 207   2.0000      -0.491800       -13.3826
 208   2.0000      -0.489559       -13.3216
 209   2.0000      -0.487181       -13.2569
 210   2.0000      -0.485208       -13.2032
 211   2.0000      -0.482510       -13.1298
 212   2.0000      -0.475828       -12.9479
 213   2.0000      -0.471427       -12.8282
 214   2.0000      -0.469418       -12.7735
 215   2.0000      -0.462295       -12.5797
 216   2.0000      -0.460230       -12.5235
 217   2.0000      -0.458713       -12.4822
 218   2.0000      -0.457568       -12.4511
 219   2.0000      -0.455906       -12.4058
 220   2.0000      -0.454337       -12.3631
 221   2.0000      -0.453525       -12.3410
 222   2.0000      -0.452704       -12.3187
 223   2.0000      -0.451333       -12.2814
 224   2.0000      -0.450686       -12.2638
 225   2.0000      -0.449848       -12.2410
 226   2.0000      -0.448126       -12.1941
 227   2.0000      -0.447027       -12.1642
 228   2.0000      -0.444749       -12.1022
 229   2.0000      -0.443688       -12.0734
 230   2.0000      -0.442511       -12.0413
 231   2.0000      -0.438601       -11.9349
 232   2.0000      -0.438163       -11.9230
 233   2.0000      -0.436866       -11.8877
 234   2.0000      -0.436688       -11.8829
 235   2.0000      -0.430968       -11.7272
 236   2.0000      -0.428833       -11.6691
 237   2.0000      -0.426628       -11.6091
 238   2.0000      -0.424632       -11.5548
 239   2.0000      -0.424080       -11.5398
 240   2.0000      -0.422168       -11.4878
 241   2.0000      -0.413207       -11.2439
 242   2.0000      -0.411256       -11.1909
 243   2.0000      -0.409569       -11.1449
 244   2.0000      -0.407226       -11.0812
 245   2.0000      -0.394911       -10.7461
 246   2.0000      -0.385134       -10.4800
 247   2.0000      -0.375836       -10.2270
 248   2.0000      -0.374566       -10.1924
 249   2.0000      -0.368953       -10.0397
 250   2.0000      -0.364271        -9.9123
 251   2.0000      -0.360872        -9.8198
 252   2.0000      -0.356579        -9.7030
 253   2.0000      -0.355763        -9.6808
 254   2.0000      -0.353761        -9.6263
 255   2.0000      -0.350977        -9.5506
 256   2.0000      -0.349081        -9.4990
 257   2.0000      -0.341706        -9.2983
 258   2.0000      -0.341160        -9.2834
 259   2.0000      -0.338111        -9.2005
 260   2.0000      -0.331725        -9.0267
 261   2.0000      -0.326284        -8.8786
 262   2.0000      -0.325281        -8.8513
 263   2.0000      -0.315705        -8.5908
 264   2.0000      -0.300846        -8.1864
 265   2.0000      -0.275340        -7.4924
 266   2.0000      -0.242606        -6.6016
 267   0.0000      -0.126270        -3.4360
 268   0.0000      -0.109213        -2.9718
 269   0.0000      -0.095446        -2.5972
 270   0.0000      -0.089955        -2.4478
 271   0.0000      -0.084767        -2.3066

MULLIKEN ATOMIC CHARGES
-----------------------
   0 C :   -0.205879
   1 S :    0.047214
   2 C :    0.138752
   3 O :   -0.174526
   4 N :   -0.269666
   5 C :    0.257325
   6 O :   -0.182521
   7 C :    0.121411
   8 C :    0.104078
   9 C :   -0.116111
  10 C :   -0.016021
  11 C :   -0.000559
  12 C :   -0.093139
  13 S :    0.179237
  14 C :   -0.093902
  15 C :    0.029945
  16 C :    0.308087
  17 C :   -0.296028
  18 C :   -0.195086
  19 N :    0.192207
  20 C :   -0.195362
  21 N :    0.196051
  22 C :   -0.053892
  23 C :   -0.091815
  24 S :    0.183207
  25 C :   -0.115397
  26 C :    0.024881
  27 C :    0.031582
  28 N :    0.058909
  29 C :   -0.118730
  30 C :    0.144941
  31 O :   -0.097042
  32 C :   -0.008202
  33 C :   -0.012705
  34 C :    0.144218
  35 O :   -0.098149
  36 C :   -0.112960
  37 N :    0.061288
  38 C :   -0.119487
  39 S :    0.205358
  40 C :   -0.087015
  41 C :   -0.056932
  42 C :    0.033801
  43 C :   -0.100050
  44 S :    0.186024
  45 C :   -0.082595
  46 C :   -0.010971
  47 C :    0.308517
  48 C :   -0.290746
  49 C :   -0.193425
  50 N :    0.195885
  51 C :   -0.196115
  52 N :    0.192030
  53 C :    0.002865
  54 C :   -0.112457
  55 S :    0.201471
  56 C :    0.028557
  57 C :   -0.091250
  58 C :    0.308980
  59 C :   -0.351329
  60 C :   -0.182131
  61 N :    0.148762
  62 C :   -0.196714
  63 N :    0.154859
  64 C :    0.042918
  65 C :   -0.028155
  66 C :    0.155330
  67 O :   -0.147270
  68 C :   -0.018364
  69 C :    0.009320
  70 C :   -0.037339
  71 C :   -0.063200
  72 C :    0.088099
  73 H :    0.048296
  74 H :    0.066395
  75 H :    0.047574
  76 H :    0.001226
  77 H :    0.037721
  78 H :    0.030453
  79 H :    0.022316
  80 H :    0.022971
  81 H :    0.031261
  82 H :    0.038443
  83 H :    0.012476
  84 H :   -0.000986
  85 H :   -0.015881
  86 H :   -0.011542
  87 H :    0.031696
  88 H :    0.025458
  89 H :    0.039251
Sum of atomic charges:   -0.0000000

LOEWDIN ATOMIC CHARGES
----------------------
   0 C :   -0.207972
   1 S :    0.327875
   2 C :   -0.052053
   3 O :   -0.164014
   4 N :   -0.043261
   5 C :    0.074903
   6 O :   -0.159560
   7 C :    0.041367
   8 C :   -0.022684
   9 C :   -0.170098
  10 C :   -0.002415
  11 C :   -0.067787
  12 C :   -0.175730
  13 S :    0.473033
  14 C :   -0.180045
  15 C :   -0.058500
  16 C :    0.072395
  17 C :   -0.086020
  18 C :   -0.020464
  19 N :   -0.016502
  20 C :   -0.022120
  21 N :   -0.014546
  22 C :   -0.005472
  23 C :   -0.183467
  24 S :    0.460858
  25 C :   -0.187997
  26 C :   -0.042531
  27 C :   -0.039273
  28 N :    0.007600
  29 C :   -0.034192
  30 C :    0.056086
  31 O :   -0.089431
  32 C :   -0.011509
  33 C :   -0.010764
  34 C :    0.056033
  35 O :   -0.089917
  36 C :   -0.036616
  37 N :    0.009464
  38 C :   -0.196844
  39 S :    0.491409
  40 C :   -0.174616
  41 C :   -0.010205
  42 C :   -0.050516
  43 C :   -0.188624
  44 S :    0.463551
  45 C :   -0.161635
  46 C :   -0.072272
  47 C :    0.071451
  48 C :   -0.085266
  49 C :   -0.021515
  50 N :   -0.014423
  51 C :   -0.020922
  52 N :   -0.015133
  53 C :    0.017806
  54 C :   -0.175990
  55 S :    0.490451
  56 C :    0.038213
  57 C :   -0.094920
  58 C :    0.077873
  59 C :   -0.140821
  60 C :   -0.017837
  61 N :   -0.053261
  62 C :   -0.023743
  63 N :   -0.053697
  64 C :   -0.011185
  65 C :   -0.050580
  66 C :    0.085644
  67 O :   -0.135609
  68 C :    0.018358
  69 C :   -0.005296
  70 C :    0.001428
  71 C :   -0.008445
  72 C :   -0.042920
  73 H :    0.035335
  74 H :    0.041072
  75 H :    0.035229
  76 H :    0.036240
  77 H :    0.042038
  78 H :    0.044342
  79 H :    0.047273
  80 H :    0.047386
  81 H :    0.044627
  82 H :    0.044120
  83 H :    0.042318
  84 H :    0.041098
  85 H :    0.031709
  86 H :    0.036314
  87 H :    0.038606
  88 H :    0.035262
  89 H :    0.042446

  Mayer bond orders larger than 0.100000
B(  0-C ,  1-S ) :   1.0360 B(  0-C ,  5-C ) :   0.9505 B(  0-C ,  8-C ) :   1.7304
B(  1-S ,  2-C ) :   0.9880 B(  2-C ,  3-O ) :   2.1370 B(  2-C ,  4-N ) :   1.0660
B(  4-N ,  5-C ) :   1.0796 B(  4-N ,  7-C ) :   0.9272 B(  5-C ,  6-O ) :   2.0650
B(  7-C , 73-H ) :   0.9774 B(  7-C , 74-H ) :   0.9576 B(  7-C , 75-H ) :   0.9762
B(  8-C ,  9-C ) :   1.1829 B(  8-C , 76-H ) :   0.9248 B(  9-C , 10-C ) :   1.4374
B(  9-C , 13-S ) :   1.0813 B( 10-C , 11-C ) :   1.2896 B( 10-C , 77-H ) :   0.9704
B( 11-C , 12-C ) :   1.4018 B( 11-C , 16-C ) :   0.9994 B( 12-C , 13-S ) :   1.1378
B( 12-C , 14-C ) :   1.2120 B( 14-C , 15-C ) :   1.4176 B( 14-C , 24-S ) :   1.1165
B( 15-C , 16-C ) :   0.9879 B( 15-C , 22-C ) :   1.2806 B( 16-C , 17-C ) :   1.7179
B( 17-C , 18-C ) :   1.1367 B( 17-C , 20-C ) :   1.1373 B( 18-C , 19-N ) :   2.9960
B( 20-C , 21-N ) :   2.9994 B( 22-C , 23-C ) :   1.4462 B( 22-C , 78-H ) :   0.9849
B( 23-C , 24-S ) :   1.0823 B( 23-C , 25-C ) :   1.1944 B( 25-C , 26-C ) :   1.3594
B( 25-C , 38-C ) :   0.1488 B( 25-C , 39-S ) :   1.1558 B( 26-C , 27-C ) :   1.1919
B( 26-C , 37-N ) :   1.4359 B( 27-C , 28-N ) :   1.4321 B( 27-C , 38-C ) :   1.3652
B( 28-N , 29-C ) :   1.7174 B( 29-C , 30-C ) :   0.8869 B( 29-C , 36-C ) :   1.0956
B( 30-C , 31-O ) :   2.2409 B( 30-C , 32-C ) :   1.0239 B( 32-C , 33-C ) :   1.6885
B( 32-C , 79-H ) :   0.9944 B( 33-C , 34-C ) :   1.0204 B( 33-C , 80-H ) :   0.9948
B( 34-C , 35-O ) :   2.2409 B( 34-C , 36-C ) :   0.8876 B( 36-C , 37-N ) :   1.7133
B( 38-C , 39-S ) :   1.1451 B( 38-C , 40-C ) :   1.1903 B( 40-C , 41-C ) :   1.4449
B( 40-C , 44-S ) :   1.0909 B( 41-C , 42-C ) :   1.2855 B( 41-C , 81-H ) :   0.9860
B( 42-C , 43-C ) :   1.4138 B( 42-C , 47-C ) :   0.9882 B( 43-C , 44-S ) :   1.1095
B( 43-C , 45-C ) :   1.2202 B( 45-C , 46-C ) :   1.3766 B( 45-C , 55-S ) :   1.1576
B( 46-C , 47-C ) :   0.9984 B( 46-C , 53-C ) :   1.3215 B( 47-C , 48-C ) :   1.7208
B( 48-C , 49-C ) :   1.1354 B( 48-C , 51-C ) :   1.1356 B( 49-C , 50-N ) :   2.9976
B( 51-C , 52-N ) :   2.9956 B( 53-C , 54-C ) :   1.4019 B( 53-C , 82-H ) :   0.9718
B( 54-C , 55-S ) :   1.0755 B( 54-C , 56-C ) :   1.2067 B( 56-C , 57-C ) :   1.6037
B( 56-C , 83-H ) :   0.9157 B( 57-C , 58-C ) :   1.0784 B( 57-C , 66-C ) :   0.9328
B( 58-C , 59-C ) :   1.6304 B( 58-C , 64-C ) :   0.9815 B( 59-C , 60-C ) :   1.1453
B( 59-C , 62-C ) :   1.1376 B( 60-C , 61-N ) :   2.9689 B( 62-C , 63-N ) :   2.9832
B( 64-C , 65-C ) :   1.3362 B( 64-C , 71-C ) :   1.3587 B( 65-C , 66-C ) :   0.9598
B( 65-C , 68-C ) :   1.3704 B( 66-C , 67-O ) :   2.1802 B( 68-C , 69-C ) :   1.3549
B( 68-C , 84-H ) :   1.0077 B( 69-C , 70-C ) :   1.3741 B( 69-C , 85-H ) :   0.9945
B( 70-C , 71-C ) :   1.3662 B( 70-C , 72-C ) :   1.0511 B( 71-C , 86-H ) :   0.9834
B( 72-C , 87-H ) :   0.9557 B( 72-C , 88-H ) :   0.9600 B( 72-C , 89-H ) :   0.9527

-----------------------------------------------------------------------------
         ABSORPTION SPECTRUM VIA TRANSITION ELECTRIC DIPOLE MOMENTS
-----------------------------------------------------------------------------
State   Energy  Wavelength   fosc         T2         TX        TY        TZ
        (cm-1)    (nm)                  (au**2)     (au)      (au)      (au)
-----------------------------------------------------------------------------
   0   10445.2    957.4   1.052480715  33.17207  -3.13873   3.61719   3.19943
   1   12895.8    775.4   0.064075868   1.63576  -0.76056  -0.62167   0.81905
   2   14989.0    667.2   0.156412142   3.43538  -0.96075   1.30023   0.90649
   3   18367.3    544.4   0.165088899   2.95902   0.94775   1.08430  -0.94079
   4   19186.0    521.2   0.071951763   1.23461  -0.47978  -0.80695   0.59435
   5   20911.5    478.2   0.742154834  11.68383  -2.03380   1.24529   2.44883
   6   22170.7    451.0   0.169345089   2.51460  -0.86892  -0.26147   1.30046
   7   24436.2    409.2   0.778976237  10.49460  -0.87396   2.97631   0.93402
   8   24496.1    408.2   0.007822381   0.10513   0.23366  -0.22064   0.04297
   9   25528.9    391.7   0.231641360   2.98717   0.92747  -1.22866  -0.78572
  10   25852.5    386.8   0.000605298   0.00771  -0.05755  -0.05269   0.04024
  11   26093.2    383.2   0.041091151   0.51844  -0.09838  -0.69896   0.14218
  12   26576.2    376.3   0.001258377   0.01559   0.03345  -0.03390   0.11541
  13   26671.7    374.9   0.021820118   0.26933   0.47911  -0.10517  -0.16946
  14   27822.9    359.4   0.040536029   0.47964   0.24923  -0.60262   0.23317
  15   28271.1    353.7   0.092391602   1.07589  -0.57956   0.72921   0.45633
  16   28691.0    348.5   0.008698445   0.09981  -0.26400   0.17257   0.01827
  17   28800.7    347.2   0.151574417   1.73260  -0.81179  -0.89456   0.52285
  18   29106.7    343.6   0.095125021   1.07592   0.95760  -0.32211  -0.23488
  19   29581.5    338.0   0.150231626   1.67192  -0.37564  -0.91328   0.83470
  20   29930.1    334.1   0.014023815   0.15425  -0.08564   0.14008   0.35679
  21   30557.4    327.3   0.106685448   1.14938  -0.88532   0.03293   0.60374
  22   30565.1    327.2   0.022666459   0.24414   0.39917  -0.05630  -0.28571
  23   31484.6    317.6   0.243835543   2.54962  -0.87582   1.17109   0.64117
  24   31795.1    314.5   0.071498953   0.74031   0.24512   0.82438  -0.02513
  25   32304.2    309.6   0.006396618   0.06519   0.24214  -0.06420  -0.04932
  26   32492.7    307.8   0.167576136   1.69786  -0.25018  -1.27378  -0.11295
  27   32705.1    305.8   0.270261954   2.72048   0.83326   1.10475  -0.89760
  28   33032.3    302.7   0.024233453   0.24152   0.38463  -0.16953  -0.25464
  29   33166.2    301.5   0.057735477   0.57309  -0.41863   0.07272   0.62654
  30   33362.4    299.7   0.014481666   0.14290  -0.07243   0.34333  -0.14064
  31   33688.8    296.8   0.036294098   0.35467  -0.36236  -0.45554  -0.12589
  32   33765.7    296.2   0.186694832   1.82025  -1.18874  -0.10855   0.62878
  33   33806.8    295.8   0.019866236   0.19346  -0.38456   0.15696   0.14469
  34   33845.7    295.5   0.026330253   0.25611  -0.00482   0.28401  -0.41884
  35   34036.2    293.8   0.003729747   0.03608   0.15971  -0.09193  -0.04602
  36   34472.3    290.1   0.150834783   1.44048  -0.82278   0.81208   0.32254
  37   34491.7    289.9   0.027909748   0.26639  -0.31333  -0.25586   0.32055
  38   34842.5    287.0   0.009357888   0.08842  -0.15720   0.25075  -0.02885
  39   34878.4    286.7   0.002684353   0.02534  -0.02649  -0.13222   0.08458
  40   35142.8    284.6   0.210594450   1.97281   0.83744  -1.12514  -0.07461
  41   35303.8    283.3   0.041336949   0.38547  -0.18766  -0.48746   0.33561
  42   35666.4    280.4   0.098670926   0.91076   0.33903  -0.84788  -0.27735
  43   35709.9    280.0   0.032236944   0.29719  -0.01909  -0.54353  -0.03748
  44   35839.2    279.0   0.117792118   1.08201   0.31947  -0.98219   0.12354
  45   36383.8    274.8   0.033266073   0.30100  -0.24454   0.39624  -0.29016
  46   36570.6    273.4   0.303446500   2.73166   0.90231   1.19889  -0.69293
  47   36737.8    272.2   0.145321243   1.30224  -0.41124   0.97383  -0.42986
  48   36843.7    271.4   0.153389661   1.37059  -0.74639  -0.69711   0.57231
  49   37260.3    268.4   0.211028413   1.86453  -0.32749  -1.23303   0.48675
  50   37571.4    266.2   0.111668970   0.97848   0.42222  -0.88824   0.10598
  51   37863.5    264.1   0.021493390   0.18688  -0.12224  -0.25376   0.32794
  52   37886.7    263.9   0.166301764   1.44506   0.21207   0.72980  -0.93139
  53   37990.1    263.2   0.049764206   0.43124  -0.00945   0.65113  -0.08475
  54   38182.3    261.9   0.040842215   0.35215   0.53539  -0.19910  -0.16082
  55   38318.2    261.0   0.013314637   0.11439  -0.03826   0.32754  -0.07514
  56   38426.2    260.2   0.018545321   0.15888  -0.12037   0.27849   0.25853
  57   38673.7    258.6   0.112798160   0.96020  -0.37268  -0.30122   0.85474
  58   38845.6    257.4   0.042917919   0.36372  -0.22628   0.31087   0.46462
  59   39092.7    255.8   0.013483162   0.11355   0.21428   0.23900  -0.10250
  60   39350.2    254.1   0.006393249   0.05349   0.14254   0.18118  -0.01854
  61   39468.6    253.4   0.045518456   0.37967   0.27122   0.50121  -0.23432
  62   39801.7    251.2   0.002582399   0.02136  -0.10125   0.10507   0.00837
  63   39914.1    250.5   0.007671379   0.06327  -0.14651   0.13833   0.15058
  64   40241.3    248.5   0.081211382   0.66439  -0.45481  -0.59215   0.32694
  65   40286.6    248.2   0.110486891   0.90287  -0.51268  -0.54381   0.58677

FINAL SINGLE POINT ENERGY     -5283.418908460934

DIPOLE MOMENT
-------------
                                X             Y             Z
Electronic contribution:    -18.57498      22.04407      19.07608
Nuclear contribution   :     20.29533     -21.56190     -18.76723
                        -----------------------------------------
Total Dipole Moment    :      1.72035       0.48217       0.30885
                        -----------------------------------------
Magnitude (a.u.)       :      1.81314
Magnitude (Debye)      :      4.60864

Rotational constants in cm-1:     0.001654     0.000218     0.000195
Rotational constants in MHz :    49.577618     6.548679     5.849533

                             ****ORCA TERMINATED NORMALLY****
TOTAL RUN TIME: 0 days 0 hours 8 minutes 19 seconds 416 msec
