                         Program Version 4.2.0 -  RELEASE  -
|  1> # ORCA input file
|  2> # SCF done       -193.212998706738          0.000893123141
|  3> ! CAM-B3LYP def2-SVP def2/J RIJCOSX Grid4 TightSCF
|  4> %maxcore 5000
|  5> %tddft
|  6>     Mode sTDDFT
|  7>     Ethresh 5.0
|  8>     maxcore 5000
|  9> end
| 10>
| 11> %pal
| 12>   nprocs 6
| 13>   end
| 14> * xyz 0 1
| 15>    C       -1.16945        -1.94980        -1.04931
| 16>    C       -1.91114        -1.76098        -2.18379
| 17>    C       -1.31158        -1.25151        -3.34530
| 18>    C        0.02021        -0.93721        -3.35680
| 19>    C        0.81349        -1.11691        -2.20559
| 20>    C        2.18806        -0.78484        -2.20949
| 21>    C        2.92681        -0.97247        -1.07280
| 22>    C        2.31694        -1.51631         0.09570
| 23>    C        0.99022        -1.83633         0.13012
| 24>    C        0.20419        -1.63775        -1.02705
| 25>    C        3.33428        -1.67092         1.14717
| 26>    O        3.18790        -2.04526         2.28745
| 27>    C        4.63248        -1.32555         0.48984
| 28>    C        4.33089        -0.70002        -0.78141
| 29>    C        5.11428         0.19473        -1.46279
| 30>    C        6.38742         0.60947        -1.02777
| 31>    N        7.41958         0.98393        -0.69155
| 32>    C        4.69457         0.87620        -2.62495
| 33>    N        4.39839         1.45932        -3.56752
| 34>    C        5.78243        -1.71756         1.10018
| 35>    C        7.08299        -1.86274         0.56513
| 36>    C        7.48713        -1.94958        -0.75950
| 37>    C        8.85985        -2.13168        -0.87643
| 38>    C        9.51105        -2.19950         0.36917
| 39>    S        8.43452        -2.04511         1.67497
| 40>    C       10.89947        -2.38886         0.14053
| 41>    C       11.12386        -2.42447        -1.25118
| 42>    C        9.85230        -2.25355        -1.93378
| 43>    C        9.61856        -2.19469        -3.27602
| 44>    C       10.64906        -2.31356        -4.23259
| 45>    N       11.47979        -2.42139        -5.01500
| 46>    C        8.31518        -2.01371        -3.78623
| 47>    N        7.24998        -1.87725        -4.18827
| 48>    C       12.46765        -2.62546        -1.57091
| 49>    C       13.23534        -2.74968        -0.43249
| 50>    S       12.32127        -2.60885         1.04841
| 51>    C       14.63617        -3.01807        -0.29838
| 52>    N       15.07196        -3.17880         0.94945
| 53>    C       16.35933        -3.48054         1.07619
| 54>    N       17.20809        -3.59690         0.04911
| 55>    C       16.67362        -3.39104        -1.13894
| 56>    N       15.40862        -3.11310        -1.38541
| 57>    C       16.84381        -3.71381         2.40635
| 58>    C       16.10200        -3.62212         3.56635
| 59>    C       16.86580        -3.95250         4.68364
| 60>    C       18.19100        -4.29528         4.34926
| 61>    S       18.49436        -4.20175         2.67230
| 62>    C       18.87768        -4.63640         5.54439
| 63>    C       17.98418        -4.50714         6.62941
| 64>    C       16.69615        -4.05813         6.12346
| 65>    C       15.56843        -3.78182         6.83752
| 66>    C       15.50148        -3.86856         8.24580
| 67>    N       15.41517        -3.91007         9.38773
| 68>    C       14.37381        -3.36542         6.20980
| 69>    N       13.40003        -3.03402         5.70360
| 70>    C       18.54889        -4.85595         7.84940
| 71>    C       19.87207        -5.25496         7.71721
| 72>    S       20.41443        -5.16699         6.03457
| 73>    C       20.84310        -5.67187         8.65391
| 74>    C       20.73320        -5.98982         9.97795
| 75>    C       21.86621        -6.34320        10.82335
| 76>    C       23.19619        -6.20348        10.52127
| 77>    C       24.24477        -6.55794        11.39738
| 78>    N       25.14669        -6.83229        12.05241
| 79>    C       23.72933        -5.67152         9.32811
| 80>    N       24.24625        -5.23080         8.40154
| 81>    C       21.34403        -6.81786        12.09879
| 82>    C       19.92591        -6.70543        12.07516
| 83>    C       19.15048        -7.06179        13.14072
| 84>    C       19.77269        -7.56129        14.30586
| 85>    C       19.02756        -7.94168        15.43914
| 86>    C       19.65267        -8.42707        16.55565
| 87>    C       21.04968        -8.55276        16.58715
| 88>    C       21.80259        -8.19134        15.50315
| 89>    C       21.19200        -7.68659        14.33687
| 90>    C       21.96723        -7.30768        13.21689
| 91>    C       19.49090        -6.17379        10.77530
| 92>    O       18.34292        -5.97701        10.43775
| 93>    H       -1.62505        -2.34245        -0.15203
| 94>    H       -2.96315        -2.00378        -2.19245
| 95>    H       -1.91105        -1.10874        -4.23180
| 96>    H        0.48538        -0.54174        -4.24764
| 97>    H        2.62766        -0.40331        -3.11784
| 98>    H        0.54585        -2.23882         1.02826
| 99>    H        5.65971        -2.02926         2.13361
|100>    H        6.80100        -1.92919        -1.58608
|101>    H       12.88479        -2.68989        -2.55927
|102>    H       17.33472        -3.46481        -1.99324
|103>    H       15.06715        -3.33334         3.56218
|104>    H       18.03922        -4.84425         8.79585
|105>    H       21.83228        -5.76197         8.22005
|106>    H       18.07643        -6.96060        13.09293
|107>    H       17.95247        -7.84226        15.40813
|108>    H       19.07448        -8.71684        17.42022
|109>    H       21.52695        -8.93741        17.47592
|110>    H       22.87843        -8.28504        15.52383
|111>    H       23.03807        -7.41973        13.27369
|112> *
|113>
|114>                          ****END OF INPUT****

CARTESIAN COORDINATES (ANGSTROEM)
---------------------------------
  C     -1.169450   -1.949800   -1.049310
  C     -1.911140   -1.760980   -2.183790
  C     -1.311580   -1.251510   -3.345300
  C      0.020210   -0.937210   -3.356800
  C      0.813490   -1.116910   -2.205590
  C      2.188060   -0.784840   -2.209490
  C      2.926810   -0.972470   -1.072800
  C      2.316940   -1.516310    0.095700
  C      0.990220   -1.836330    0.130120
  C      0.204190   -1.637750   -1.027050
  C      3.334280   -1.670920    1.147170
  O      3.187900   -2.045260    2.287450
  C      4.632480   -1.325550    0.489840
  C      4.330890   -0.700020   -0.781410
  C      5.114280    0.194730   -1.462790
  C      6.387420    0.609470   -1.027770
  N      7.419580    0.983930   -0.691550
  C      4.694570    0.876200   -2.624950
  N      4.398390    1.459320   -3.567520
  C      5.782430   -1.717560    1.100180
  C      7.082990   -1.862740    0.565130
  C      7.487130   -1.949580   -0.759500
  C      8.859850   -2.131680   -0.876430
  C      9.511050   -2.199500    0.369170
  S      8.434520   -2.045110    1.674970
  C     10.899470   -2.388860    0.140530
  C     11.123860   -2.424470   -1.251180
  C      9.852300   -2.253550   -1.933780
  C      9.618560   -2.194690   -3.276020
  C     10.649060   -2.313560   -4.232590
  N     11.479790   -2.421390   -5.015000
  C      8.315180   -2.013710   -3.786230
  N      7.249980   -1.877250   -4.188270
  C     12.467650   -2.625460   -1.570910
  C     13.235340   -2.749680   -0.432490
  S     12.321270   -2.608850    1.048410
  C     14.636170   -3.018070   -0.298380
  N     15.071960   -3.178800    0.949450
  C     16.359330   -3.480540    1.076190
  N     17.208090   -3.596900    0.049110
  C     16.673620   -3.391040   -1.138940
  N     15.408620   -3.113100   -1.385410
  C     16.843810   -3.713810    2.406350
  C     16.102000   -3.622120    3.566350
  C     16.865800   -3.952500    4.683640
  C     18.191000   -4.295280    4.349260
  S     18.494360   -4.201750    2.672300
  C     18.877680   -4.636400    5.544390
  C     17.984180   -4.507140    6.629410
  C     16.696150   -4.058130    6.123460
  C     15.568430   -3.781820    6.837520
  C     15.501480   -3.868560    8.245800
  N     15.415170   -3.910070    9.387730
  C     14.373810   -3.365420    6.209800
  N     13.400030   -3.034020    5.703600
  C     18.548890   -4.855950    7.849400
  C     19.872070   -5.254960    7.717210
  S     20.414430   -5.166990    6.034570
  C     20.843100   -5.671870    8.653910
  C     20.733200   -5.989820    9.977950
  C     21.866210   -6.343200   10.823350
  C     23.196190   -6.203480   10.521270
  C     24.244770   -6.557940   11.397380
  N     25.146690   -6.832290   12.052410
  C     23.729330   -5.671520    9.328110
  N     24.246250   -5.230800    8.401540
  C     21.344030   -6.817860   12.098790
  C     19.925910   -6.705430   12.075160
  C     19.150480   -7.061790   13.140720
  C     19.772690   -7.561290   14.305860
  C     19.027560   -7.941680   15.439140
  C     19.652670   -8.427070   16.555650
  C     21.049680   -8.552760   16.587150
  C     21.802590   -8.191340   15.503150
  C     21.192000   -7.686590   14.336870
  C     21.967230   -7.307680   13.216890
  C     19.490900   -6.173790   10.775300
  O     18.342920   -5.977010   10.437750
  H     -1.625050   -2.342450   -0.152030
  H     -2.963150   -2.003780   -2.192450
  H     -1.911050   -1.108740   -4.231800
  H      0.485380   -0.541740   -4.247640
  H      2.627660   -0.403310   -3.117840
  H      0.545850   -2.238820    1.028260
  H      5.659710   -2.029260    2.133610
  H      6.801000   -1.929190   -1.586080
  H     12.884790   -2.689890   -2.559270
  H     17.334720   -3.464810   -1.993240
  H     15.067150   -3.333340    3.562180
  H     18.039220   -4.844250    8.795850
  H     21.832280   -5.761970    8.220050
  H     18.076430   -6.960600   13.092930
  H     17.952470   -7.842260   15.408130
  H     19.074480   -8.716840   17.420220
  H     21.526950   -8.937410   17.475920
  H     22.878430   -8.285040   15.523830
  H     23.038070   -7.419730   13.273690

 Total Charge           Charge          ....    0
 Multiplicity           Mult            ....    1
 Number of Electrons    NEL             ....  542
 Basis Dimension        Dim             .... 1203

ORBITAL ENERGIES
----------------

  NO   OCC          E(Eh)            E(eV)
   0   2.0000     -89.003436     -2421.9066
   1   2.0000     -89.002593     -2421.8837
   2   2.0000     -88.998428     -2421.7703
   3   2.0000     -88.996317     -2421.7129
   4   2.0000     -19.222637      -523.0745
   5   2.0000     -19.216093      -522.8965
   6   2.0000     -14.437868      -392.8744
   7   2.0000     -14.437341      -392.8600
   8   2.0000     -14.433906      -392.7666
   9   2.0000     -14.433800      -392.7637
  10   2.0000     -14.432801      -392.7365
  11   2.0000     -14.432070      -392.7166
  12   2.0000     -14.430830      -392.6828
  13   2.0000     -14.421573      -392.4310
  14   2.0000     -14.418802      -392.3555
  15   2.0000     -14.417405      -392.3175
  16   2.0000     -14.413826      -392.2201
  17   2.0000     -10.384595      -282.5792
  18   2.0000     -10.382823      -282.5310
  19   2.0000     -10.373843      -282.2866
  20   2.0000     -10.373618      -282.2805
  21   2.0000     -10.368647      -282.1452
  22   2.0000     -10.367872      -282.1241
  23   2.0000     -10.367318      -282.1091
  24   2.0000     -10.360153      -281.9141
  25   2.0000     -10.356454      -281.8134
  26   2.0000     -10.351554      -281.6801
  27   2.0000     -10.346815      -281.5512
  28   2.0000     -10.346029      -281.5298
  29   2.0000     -10.345338      -281.5110
  30   2.0000     -10.345007      -281.5020
  31   2.0000     -10.343582      -281.4632
  32   2.0000     -10.343418      -281.4587
  33   2.0000     -10.341508      -281.4067
  34   2.0000     -10.337906      -281.3087
  35   2.0000     -10.335985      -281.2565
  36   2.0000     -10.334104      -281.2053
  37   2.0000     -10.333150      -281.1793
  38   2.0000     -10.332863      -281.1715
  39   2.0000     -10.331876      -281.1446
  40   2.0000     -10.331481      -281.1339
  41   2.0000     -10.329622      -281.0833
  42   2.0000     -10.326317      -280.9934
  43   2.0000     -10.324456      -280.9427
  44   2.0000     -10.323422      -280.9146
  45   2.0000     -10.320433      -280.8333
  46   2.0000     -10.319700      -280.8133
  47   2.0000     -10.317268      -280.7471
  48   2.0000     -10.316047      -280.7139
  49   2.0000     -10.315766      -280.7063
  50   2.0000     -10.315073      -280.6874
  51   2.0000     -10.314642      -280.6757
  52   2.0000     -10.312618      -280.6206
  53   2.0000     -10.311581      -280.5924
  54   2.0000     -10.311423      -280.5881
  55   2.0000     -10.311295      -280.5846
  56   2.0000     -10.308297      -280.5030
  57   2.0000     -10.305615      -280.4300
  58   2.0000     -10.303781      -280.3801
  59   2.0000     -10.302834      -280.3544
  60   2.0000     -10.300093      -280.2798
  61   2.0000     -10.299846      -280.2731
  62   2.0000     -10.299497      -280.2636
  63   2.0000     -10.298859      -280.2462
  64   2.0000     -10.297845      -280.2186
  65   2.0000     -10.297742      -280.2158
  66   2.0000     -10.297423      -280.2071
  67   2.0000     -10.296700      -280.1875
  68   2.0000     -10.290898      -280.0296
  69   2.0000     -10.289965      -280.0042
  70   2.0000     -10.288663      -279.9687
  71   2.0000     -10.288127      -279.9542
  72   2.0000     -10.287948      -279.9493
  73   2.0000     -10.287532      -279.9380
  74   2.0000     -10.286421      -279.9077
  75   2.0000     -10.285948      -279.8949
  76   2.0000     -10.285614      -279.8858
  77   2.0000     -10.284969      -279.8682
  78   2.0000      -8.097459      -220.3431
  79   2.0000      -8.097274      -220.3380
  80   2.0000      -8.093080      -220.2239
  81   2.0000      -8.090310      -220.1485
  82   2.0000      -6.066625      -165.0813
  83   2.0000      -6.066358      -165.0740
  84   2.0000      -6.062322      -164.9642
  85   2.0000      -6.062221      -164.9614
  86   2.0000      -6.062204      -164.9610
  87   2.0000      -6.060121      -164.9043
  88   2.0000      -6.059902      -164.8983
  89   2.0000      -6.059455      -164.8861
  90   2.0000      -6.058027      -164.8473
  91   2.0000      -6.055666      -164.7831
  92   2.0000      -6.055151      -164.7690
  93   2.0000      -6.052996      -164.7104
  94   2.0000      -1.140868       -31.0446
  95   2.0000      -1.138298       -30.9747
  96   2.0000      -1.131710       -30.7954
  97   2.0000      -1.057212       -28.7682
  98   2.0000      -1.052765       -28.6472
  99   2.0000      -1.029267       -28.0078
 100   2.0000      -1.026381       -27.9292
 101   2.0000      -1.023869       -27.8609
 102   2.0000      -1.022513       -27.8240
 103   2.0000      -1.020016       -27.7560
 104   2.0000      -1.017183       -27.6790
 105   2.0000      -1.012448       -27.5501
 106   2.0000      -1.010367       -27.4935
 107   2.0000      -1.003509       -27.3069
 108   2.0000      -1.001956       -27.2646
 109   2.0000      -0.999623       -27.2011
 110   2.0000      -0.998896       -27.1813
 111   2.0000      -0.997254       -27.1367
 112   2.0000      -0.993095       -27.0235
 113   2.0000      -0.975075       -26.5331
 114   2.0000      -0.972317       -26.4581
 115   2.0000      -0.966594       -26.3023
 116   2.0000      -0.962534       -26.1919
 117   2.0000      -0.932130       -25.3645
 118   2.0000      -0.928536       -25.2667
 119   2.0000      -0.922711       -25.1083
 120   2.0000      -0.919347       -25.0167
 121   2.0000      -0.902557       -24.5598
 122   2.0000      -0.900270       -24.4976
 123   2.0000      -0.884424       -24.0664
 124   2.0000      -0.882388       -24.0110
 125   2.0000      -0.881795       -23.9949
 126   2.0000      -0.879441       -23.9308
 127   2.0000      -0.875285       -23.8177
 128   2.0000      -0.870429       -23.6856
 129   2.0000      -0.866695       -23.5840
 130   2.0000      -0.863616       -23.5002
 131   2.0000      -0.840381       -22.8679
 132   2.0000      -0.830880       -22.6094
 133   2.0000      -0.828810       -22.5531
 134   2.0000      -0.828478       -22.5440
 135   2.0000      -0.812462       -22.1082
 136   2.0000      -0.806415       -21.9437
 137   2.0000      -0.785889       -21.3851
 138   2.0000      -0.783117       -21.3097
 139   2.0000      -0.770855       -20.9760
 140   2.0000      -0.766025       -20.8446
 141   2.0000      -0.765662       -20.8347
 142   2.0000      -0.757869       -20.6227
 143   2.0000      -0.737585       -20.0707
 144   2.0000      -0.725643       -19.7457
 145   2.0000      -0.715598       -19.4724
 146   2.0000      -0.707919       -19.2635
 147   2.0000      -0.707783       -19.2598
 148   2.0000      -0.704171       -19.1615
 149   2.0000      -0.701836       -19.0979
 150   2.0000      -0.700825       -19.0704
 151   2.0000      -0.693247       -18.8642
 152   2.0000      -0.690991       -18.8028
 153   2.0000      -0.688192       -18.7266
 154   2.0000      -0.681070       -18.5329
 155   2.0000      -0.676238       -18.4014
 156   2.0000      -0.668533       -18.1917
 157   2.0000      -0.665753       -18.1161
 158   2.0000      -0.654528       -17.8106
 159   2.0000      -0.648607       -17.6495
 160   2.0000      -0.639273       -17.3955
 161   2.0000      -0.637033       -17.3345
 162   2.0000      -0.634717       -17.2715
 163   2.0000      -0.630788       -17.1646
 164   2.0000      -0.626554       -17.0494
 165   2.0000      -0.622788       -16.9469
 166   2.0000      -0.615804       -16.7569
 167   2.0000      -0.609533       -16.5862
 168   2.0000      -0.607820       -16.5396
 169   2.0000      -0.604995       -16.4628
 170   2.0000      -0.600078       -16.3290
 171   2.0000      -0.595206       -16.1964
 172   2.0000      -0.592190       -16.1143
 173   2.0000      -0.573345       -15.6015
 174   2.0000      -0.572233       -15.5713
 175   2.0000      -0.566263       -15.4088
 176   2.0000      -0.560166       -15.2429
 177   2.0000      -0.558951       -15.2098
 178   2.0000      -0.557394       -15.1675
 179   2.0000      -0.552421       -15.0321
 180   2.0000      -0.549720       -14.9586
 181   2.0000      -0.548159       -14.9162
 182   2.0000      -0.546157       -14.8617
 183   2.0000      -0.544296       -14.8111
 184   2.0000      -0.541660       -14.7393
 185   2.0000      -0.538780       -14.6609
 186   2.0000      -0.535493       -14.5715
 187   2.0000      -0.531457       -14.4617
 188   2.0000      -0.529162       -14.3992
 189   2.0000      -0.525770       -14.3069
 190   2.0000      -0.523822       -14.2539
 191   2.0000      -0.520502       -14.1636
 192   2.0000      -0.518949       -14.1213
 193   2.0000      -0.513062       -13.9611
 194   2.0000      -0.512812       -13.9543
 195   2.0000      -0.512144       -13.9361
 196   2.0000      -0.510765       -13.8986
 197   2.0000      -0.509076       -13.8527
 198   2.0000      -0.508870       -13.8470
 199   2.0000      -0.506760       -13.7896
 200   2.0000      -0.504779       -13.7357
 201   2.0000      -0.502690       -13.6789
 202   2.0000      -0.501903       -13.6575
 203   2.0000      -0.498966       -13.5776
 204   2.0000      -0.495699       -13.4887
 205   2.0000      -0.495181       -13.4745
 206   2.0000      -0.491400       -13.3717
 207   2.0000      -0.487398       -13.2628
 208   2.0000      -0.485273       -13.2050
 209   2.0000      -0.479721       -13.0539
 210   2.0000      -0.478360       -13.0168
 211   2.0000      -0.477539       -12.9945
 212   2.0000      -0.472764       -12.8646
 213   2.0000      -0.467984       -12.7345
 214   2.0000      -0.467652       -12.7255
 215   2.0000      -0.465265       -12.6605
 216   2.0000      -0.463892       -12.6231
 217   2.0000      -0.462154       -12.5758
 218   2.0000      -0.460621       -12.5341
 219   2.0000      -0.459340       -12.4993
 220   2.0000      -0.455982       -12.4079
 221   2.0000      -0.453334       -12.3358
 222   2.0000      -0.451881       -12.2963
 223   2.0000      -0.451655       -12.2902
 224   2.0000      -0.450636       -12.2624
 225   2.0000      -0.447571       -12.1790
 226   2.0000      -0.445660       -12.1270
 227   2.0000      -0.445284       -12.1168
 228   2.0000      -0.444914       -12.1067
 229   2.0000      -0.444149       -12.0859
 230   2.0000      -0.442801       -12.0492
 231   2.0000      -0.442366       -12.0374
 232   2.0000      -0.441455       -12.0126
 233   2.0000      -0.439864       -11.9693
 234   2.0000      -0.439110       -11.9488
 235   2.0000      -0.436864       -11.8877
 236   2.0000      -0.436449       -11.8764
 237   2.0000      -0.432900       -11.7798
 238   2.0000      -0.431962       -11.7543
 239   2.0000      -0.431248       -11.7349
 240   2.0000      -0.430150       -11.7050
 241   2.0000      -0.429434       -11.6855
 242   2.0000      -0.426537       -11.6067
 243   2.0000      -0.422923       -11.5083
 244   2.0000      -0.421293       -11.4640
 245   2.0000      -0.417663       -11.3652
 246   2.0000      -0.413153       -11.2425
 247   2.0000      -0.411513       -11.1978
 248   2.0000      -0.408930       -11.1275
 249   2.0000      -0.408763       -11.1230
 250   2.0000      -0.403638       -10.9835
 251   2.0000      -0.386379       -10.5139
 252   2.0000      -0.381331       -10.3765
 253   2.0000      -0.375246       -10.2110
 254   2.0000      -0.369610       -10.0576
 255   2.0000      -0.363530        -9.8921
 256   2.0000      -0.360428        -9.8078
 257   2.0000      -0.359920        -9.7939
 258   2.0000      -0.353222        -9.6116
 259   2.0000      -0.345807        -9.4099
 260   2.0000      -0.342518        -9.3204
 261   2.0000      -0.338345        -9.2068
 262   2.0000      -0.334580        -9.1044
 263   2.0000      -0.329661        -8.9705
 264   2.0000      -0.324806        -8.8384
 265   2.0000      -0.319768        -8.7013
 266   2.0000      -0.316560        -8.6140
 267   2.0000      -0.297970        -8.1082
 268   2.0000      -0.295528        -8.0417
 269   2.0000      -0.279214        -7.5978
 270   2.0000      -0.274788        -7.4774
 271   0.0000      -0.120357        -3.2751
 272   0.0000      -0.114288        -3.1099
 273   0.0000      -0.094977        -2.5845
 274   0.0000      -0.090161        -2.4534
 275   0.0000      -0.064458        -1.7540

MULLIKEN ATOMIC CHARGES
-----------------------
   0 C :   -0.015149
   1 C :    0.035277
   2 C :    0.036098
   3 C :   -0.016737
   4 C :    0.094210
   5 C :   -0.079261
   6 C :    0.030048
   7 C :    0.017777
   8 C :   -0.083595
   9 C :    0.096160
  10 C :    0.135404
  11 O :   -0.142007
  12 C :   -0.138077
  13 C :    0.266193
  14 C :   -0.329109
  15 C :   -0.202528
  16 N :    0.173027
  17 C :   -0.169914
  18 N :    0.159722
  19 C :    0.087179
  20 C :   -0.108157
  21 C :   -0.002228
  22 C :   -0.000613
  23 C :   -0.077102
  24 S :    0.225164
  25 C :   -0.094725
  26 C :    0.008424
  27 C :    0.299893
  28 C :   -0.284442
  29 C :   -0.195858
  30 N :    0.186736
  31 C :   -0.184017
  32 N :    0.169117
  33 C :   -0.025623
  34 C :   -0.069950
  35 S :    0.254416
  36 C :   -0.016352
  37 N :   -0.072925
  38 C :   -0.040065
  39 N :   -0.105553
  40 C :    0.123859
  41 N :   -0.080568
  42 C :   -0.059090
  43 C :   -0.033168
  44 C :    0.016692
  45 C :   -0.095356
  46 S :    0.263029
  47 C :   -0.088237
  48 C :   -0.003067
  49 C :    0.311631
  50 C :   -0.296695
  51 C :   -0.193091
  52 N :    0.195198
  53 C :   -0.191801
  54 N :    0.175659
  55 C :   -0.004535
  56 C :   -0.111054
  57 S :    0.213429
  58 C :    0.033440
  59 C :   -0.084202
  60 C :    0.316277
  61 C :   -0.355391
  62 C :   -0.181232
  63 N :    0.147112
  64 C :   -0.193325
  65 N :    0.154402
  66 C :    0.050305
  67 C :   -0.002942
  68 C :   -0.081721
  69 C :    0.101607
  70 C :   -0.019093
  71 C :    0.037868
  72 C :    0.038736
  73 C :   -0.022892
  74 C :    0.099606
  75 C :   -0.086526
  76 C :    0.156244
  77 O :   -0.149439
  78 H :   -0.017820
  79 H :   -0.004431
  80 H :   -0.003748
  81 H :   -0.008731
  82 H :   -0.000139
  83 H :   -0.011434
  84 H :    0.021627
  85 H :    0.026024
  86 H :    0.024487
  87 H :    0.027987
  88 H :    0.018531
  89 H :    0.040368
  90 H :    0.010512
  91 H :   -0.007783
  92 H :   -0.014460
  93 H :   -0.004018
  94 H :   -0.004447
  95 H :   -0.007332
  96 H :   -0.007720
Sum of atomic charges:   -0.0000000

LOEWDIN ATOMIC CHARGES
----------------------
   0 C :   -0.009241
   1 C :   -0.012639
   2 C :   -0.012193
   3 C :   -0.005181
   4 C :   -0.004762
   5 C :    0.019038
   6 C :   -0.022949
   7 C :   -0.058182
   8 C :    0.033340
   9 C :   -0.009048
  10 C :    0.083827
  11 O :   -0.142638
  12 C :   -0.085864
  13 C :    0.065491
  14 C :   -0.134710
  15 C :   -0.016092
  16 N :   -0.045055
  17 C :   -0.018076
  18 N :   -0.044581
  19 C :    0.040305
  20 C :   -0.176117
  21 C :    0.007934
  22 C :   -0.059609
  23 C :   -0.167058
  24 S :    0.509529
  25 C :   -0.170230
  26 C :   -0.067744
  27 C :    0.080094
  28 C :   -0.096503
  29 C :   -0.019393
  30 N :   -0.024719
  31 C :   -0.012763
  32 N :   -0.031995
  33 C :    0.010886
  34 C :   -0.193804
  35 S :    0.530980
  36 C :    0.038106
  37 N :   -0.118533
  38 C :    0.036376
  39 N :   -0.126769
  40 C :    0.085054
  41 N :   -0.107702
  42 C :   -0.192608
  43 C :    0.006008
  44 C :   -0.062810
  45 C :   -0.176688
  46 S :    0.528434
  47 C :   -0.164889
  48 C :   -0.069538
  49 C :    0.074592
  50 C :   -0.092794
  51 C :   -0.023139
  52 N :   -0.013990
  53 C :   -0.014982
  54 N :   -0.031106
  55 C :    0.016276
  56 C :   -0.172291
  57 S :    0.502487
  58 C :    0.041552
  59 C :   -0.089639
  60 C :    0.077047
  61 C :   -0.140754
  62 C :   -0.016785
  63 N :   -0.052446
  64 C :   -0.024427
  65 N :   -0.052592
  66 C :   -0.027200
  67 C :   -0.056218
  68 C :    0.034718
  69 C :   -0.007757
  70 C :   -0.008814
  71 C :   -0.011094
  72 C :   -0.012365
  73 C :   -0.005326
  74 C :   -0.005852
  75 C :    0.020257
  76 C :    0.087269
  77 O :   -0.135699
  78 H :    0.031736
  79 H :    0.032974
  80 H :    0.033480
  81 H :    0.035137
  82 H :    0.040479
  83 H :    0.039464
  84 H :    0.046063
  85 H :    0.042660
  86 H :    0.049919
  87 H :    0.027561
  88 H :    0.045240
  89 H :    0.043767
  90 H :    0.042930
  91 H :    0.040861
  92 H :    0.032907
  93 H :    0.033326
  94 H :    0.033507
  95 H :    0.035186
  96 H :    0.039161

  Mayer bond orders larger than 0.100000
B(  0-C ,  1-C ) :   1.4884 B(  0-C ,  9-C ) :   1.2454 B(  0-C , 78-H ) :   0.9973
B(  1-C ,  2-C ) :   1.2618 B(  1-C , 79-H ) :   0.9887 B(  2-C ,  3-C ) :   1.4890
B(  2-C , 80-H ) :   0.9885 B(  3-C ,  4-C ) :   1.2423 B(  3-C , 81-H ) :   0.9974
B(  4-C ,  5-C ) :   1.2049 B(  4-C ,  9-C ) :   1.2568 B(  5-C ,  6-C ) :   1.4596
B(  5-C , 82-H ) :   0.9944 B(  6-C ,  7-C ) :   1.2151 B(  6-C , 13-C ) :   0.9966
B(  7-C ,  8-C ) :   1.4731 B(  7-C , 10-C ) :   0.9238 B(  8-C ,  9-C ) :   1.1850
B(  8-C , 83-H ) :   1.0158 B( 10-C , 11-O ) :   2.2662 B( 10-C , 12-C ) :   0.9360
B( 12-C , 13-C ) :   1.0304 B( 12-C , 19-C ) :   1.6863 B( 13-C , 14-C ) :   1.6557
B( 14-C , 15-C ) :   1.1717 B( 14-C , 17-C ) :   1.1281 B( 15-C , 16-N ) :   2.9960
B( 17-C , 18-N ) :   2.9930 B( 19-C , 20-C ) :   1.1279 B( 19-C , 84-H ) :   0.9241
B( 20-C , 21-C ) :   1.4008 B( 20-C , 24-S ) :   1.0998 B( 21-C , 22-C ) :   1.3540
B( 21-C , 85-H ) :   0.9787 B( 22-C , 23-C ) :   1.4218 B( 22-C , 27-C ) :   0.9973
B( 23-C , 24-S ) :   1.1547 B( 23-C , 25-C ) :   1.1873 B( 25-C , 26-C ) :   1.4231
B( 25-C , 35-S ) :   1.1458 B( 26-C , 27-C ) :   0.9933 B( 26-C , 33-C ) :   1.2745
B( 27-C , 28-C ) :   1.7221 B( 28-C , 29-C ) :   1.1323 B( 28-C , 31-C ) :   1.1334
B( 29-C , 30-N ) :   3.0038 B( 31-C , 32-N ) :   2.9819 B( 33-C , 34-C ) :   1.4708
B( 33-C , 86-H ) :   1.0090 B( 34-C , 35-S ) :   1.1145 B( 34-C , 36-C ) :   1.0281
B( 36-C , 37-N ) :   1.5563 B( 36-C , 41-N ) :   1.5868 B( 37-N , 38-C ) :   1.5820
B( 38-C , 39-N ) :   1.5936 B( 38-C , 42-C ) :   1.0367 B( 39-N , 40-C ) :   1.4955
B( 40-C , 41-N ) :   1.5080 B( 40-C , 87-H ) :   0.9762 B( 42-C , 43-C ) :   1.4744
B( 42-C , 46-S ) :   1.1121 B( 43-C , 44-C ) :   1.2693 B( 43-C , 88-H ) :   1.0023
B( 44-C , 45-C ) :   1.4227 B( 44-C , 49-C ) :   0.9964 B( 45-C , 46-S ) :   1.1363
B( 45-C , 47-C ) :   1.1940 B( 47-C , 48-C ) :   1.3971 B( 47-C , 57-S ) :   1.1654
B( 48-C , 49-C ) :   0.9950 B( 48-C , 55-C ) :   1.3064 B( 49-C , 50-C ) :   1.7176
B( 50-C , 51-C ) :   1.1347 B( 50-C , 53-C ) :   1.1378 B( 51-C , 52-N ) :   2.9972
B( 53-C , 54-N ) :   2.9933 B( 55-C , 56-C ) :   1.4085 B( 55-C , 89-H ) :   0.9711
B( 56-C , 57-S ) :   1.0854 B( 56-C , 58-C ) :   1.1996 B( 58-C , 59-C ) :   1.6085
B( 58-C , 90-H ) :   0.9124 B( 59-C , 60-C ) :   1.0748 B( 59-C , 76-C ) :   0.9328
B( 60-C , 61-C ) :   1.6240 B( 60-C , 66-C ) :   0.9855 B( 61-C , 62-C ) :   1.1502
B( 61-C , 64-C ) :   1.1381 B( 62-C , 63-N ) :   2.9619 B( 64-C , 65-N ) :   2.9742
B( 66-C , 67-C ) :   1.2138 B( 66-C , 75-C ) :   1.4451 B( 67-C , 68-C ) :   1.4683
B( 67-C , 76-C ) :   0.9557 B( 68-C , 69-C ) :   1.1760 B( 68-C , 91-H ) :   1.0179
B( 69-C , 70-C ) :   1.2425 B( 69-C , 74-C ) :   1.2545 B( 70-C , 71-C ) :   1.4890
B( 70-C , 92-H ) :   0.9987 B( 71-C , 72-C ) :   1.2590 B( 71-C , 93-H ) :   0.9885
B( 72-C , 73-C ) :   1.4900 B( 72-C , 94-H ) :   0.9879 B( 73-C , 74-C ) :   1.2387
B( 73-C , 95-H ) :   0.9980 B( 74-C , 75-C ) :   1.2061 B( 75-C , 96-H ) :   0.9910
B( 76-C , 77-O ) :   2.1738

-----------------------------------------------------------------------------
         ABSORPTION SPECTRUM VIA TRANSITION ELECTRIC DIPOLE MOMENTS
-----------------------------------------------------------------------------
State   Energy  Wavelength   fosc         T2         TX        TY        TZ
        (cm-1)    (nm)                  (au**2)     (au)      (au)      (au)
-----------------------------------------------------------------------------
   0   15756.6    634.7   0.339919293   7.10215   2.42390  -0.69190   0.86495
   1   16292.4    613.8   0.209697159   4.23725   0.73547  -0.47736   1.86238
   2   21741.2    460.0   1.253007469  18.97346  -3.86568   1.36179  -1.47497
   3   22798.6    438.6   0.816782153  11.79432   1.43941  -0.72269   3.03317
   4   23278.0    429.6   0.006426152   0.09088   0.23883  -0.16730  -0.07650
   5   24978.1    400.4   0.135516589   1.78611  -0.26522   0.42123  -1.24030
   6   25161.7    397.4   0.028256882   0.36971  -0.51230  -0.32712   0.01596
   7   26038.5    384.0   0.005230113   0.06613   0.24785  -0.06212   0.02895
   8   27213.3    367.5   0.013108795   0.15858  -0.09369   0.04148  -0.38482
   9   27556.7    362.9   0.020073895   0.23982  -0.29731   0.20543  -0.33049
  10   28119.7    355.6   0.052469136   0.61428  -0.48028   0.17549  -0.59399
  11   28682.4    348.6   0.014285564   0.16397  -0.38212  -0.12005  -0.05947
  12   29266.1    341.7   0.007681362   0.08641   0.24083   0.09136   0.14163
  13   29321.1    341.1   0.070309560   0.78942   0.73581  -0.28557   0.40800
  14   29706.6    336.6   0.103553314   1.14759   0.96285  -0.01848  -0.46922
  15   29931.8    334.1   0.600823686   6.60831  -1.68705   0.35690  -1.90651
  16   30033.6    333.0   0.164196990   1.79984   0.49753  -0.63973  -1.06914
  17   30393.3    329.0   0.339363165   3.67589  -0.96723  -0.43285   1.59781
  18   30666.4    326.1   0.237738083   2.55218   1.48189   0.26442   0.53503
  19   30946.8    323.1   0.132164905   1.40597   1.15122  -0.21383   0.18695
  20   31018.0    322.4   0.821574927   8.71984  -1.85168  -0.46127   2.25352
  21   31984.6    312.7   0.256627369   2.64142   1.57387   0.08315   0.39680
  22   32080.7    311.7   0.071328957   0.73198   0.82200  -0.06056   0.22940
  23   32488.8    307.8   0.050625013   0.51299  -0.28797  -0.40278   0.51752
  24   32654.2    306.2   0.215186869   2.16946   0.12964  -0.39276   1.41365
  25   32821.7    304.7   0.005326315   0.05342  -0.21850  -0.06815  -0.03218
  26   33263.3    300.6   0.011503502   0.11385   0.32098   0.00225  -0.10403
  27   33389.9    299.5   0.101377792   0.99955   0.87927  -0.05775   0.47232
  28   33532.3    298.2   0.003015998   0.02961   0.06746   0.02072   0.15694
  29   33788.5    296.0   0.188244780   1.83413  -1.08694  -0.00797  -0.80786
  30   34002.2    294.1   0.004032347   0.03904   0.11267   0.00931  -0.16205
  31   34119.2    293.1   0.084651061   0.81679   0.60680   0.63349  -0.21743
  32   34199.1    292.4   0.113468091   1.09228  -0.98862  -0.33037   0.07594
  33   34351.9    291.1   0.002333080   0.02236  -0.12002  -0.08882  -0.00804
  34   34594.8    289.1   0.119109826   1.13348  -0.94570  -0.19737   0.44740
  35   34636.8    288.7   0.103130300   0.98022   0.58030   0.11202  -0.79431
  36   34664.0    288.5   0.419754131   3.98650  -1.02366  -0.42283   1.66128
  37   35003.8    285.7   0.129506703   1.21802   0.74831   0.63413   0.50588
  38   35160.5    284.4   0.270387841   2.53168  -1.39225  -0.22472   0.73677
  39   35298.9    283.3   0.399857681   3.72924   1.86551  -0.39510  -0.30496
  40   35640.0    280.6   0.173792114   1.60535  -0.40162  -0.19771   1.18531
  41   35838.2    279.0   0.003901973   0.03584   0.03968   0.15492   0.10134
  42   36249.2    275.9   0.002269726   0.02061  -0.09287  -0.10884   0.01187
  43   36390.0    274.8   0.002563088   0.02319  -0.07334  -0.12976   0.03118
  44   36664.8    272.7   0.061034005   0.54802  -0.41559  -0.25256  -0.55814
  45   37395.9    267.4   0.007052316   0.06208  -0.02172  -0.01692  -0.24764
  46   37463.5    266.9   0.004200141   0.03691   0.02582  -0.11122   0.15451
  47   37905.1    263.8   0.026519102   0.23032  -0.39333   0.01157   0.27473
  48   38092.2    262.5   0.003365447   0.02909   0.00993  -0.02018   0.16906
  49   38252.7    261.4   0.128352260   1.10463   1.05091  -0.01351   0.00595
  50   38415.2    260.3   0.005716614   0.04899  -0.21171   0.00595   0.06429
  51   38523.9    259.6   0.019650547   0.16793  -0.29691   0.02052   0.28169
  52   38585.7    259.2   0.013713971   0.11701   0.31113  -0.00111  -0.14215
  53   39597.6    252.5   0.020742103   0.17245  -0.35256  -0.03509   0.21660
  54   39770.8    251.4   0.002035036   0.01685  -0.11978  -0.00342  -0.04987
  55   39995.1    250.0   0.012743289   0.10489  -0.18828  -0.14349   0.22103
  56   40044.1    249.7   0.007418224   0.06099  -0.03449   0.19792  -0.14362
  57   40066.7    249.6   0.069281703   0.56926  -0.08984   0.54432  -0.51469
  58   40228.7    248.6   0.024270869   0.19862   0.22793   0.24874  -0.29120
  59   40295.5    248.2   0.135995259   1.11107   1.03051  -0.03669   0.21856

FINAL SINGLE POINT ENERGY     -4676.858349818916

DIPOLE MOMENT
-------------
                                X             Y             Z
Electronic contribution:     27.74632      10.40018     -22.40273
Nuclear contribution   :    -29.10143     -12.76353      23.94764
                        -----------------------------------------
Total Dipole Moment    :     -1.35511      -2.36335       1.54491
                        -----------------------------------------
Magnitude (a.u.)       :      3.13185
Magnitude (Debye)      :      7.96054

Rotational constants in cm-1:     0.001559     0.000190     0.000171
Rotational constants in MHz :    46.730802     5.690406     5.134296

                             ****ORCA TERMINATED NORMALLY****
TOTAL RUN TIME: 0 days 0 hours 9 minutes 5 seconds 222 msec
