                         Program Version 4.2.0 -  RELEASE  -
|  1> # ORCA input file
|  2> # SCF done       -208.489983363249          0.000807372077
|  3> ! CAM-B3LYP def2-SVP def2/J RIJCOSX Grid4 TightSCF
|  4> %maxcore 5000
|  5> %tddft
|  6>     Mode sTDDFT
|  7>     Ethresh 5.0
|  8>     maxcore 5000
|  9> end
| 10>
| 11> %pal
| 12>   nprocs 6
| 13>   end
| 14> * xyz 0 1
| 15>    C      -11.36517         0.36851        -1.63130
| 16>    C      -12.45597         0.78247        -0.91939
| 17>    F      -13.21268         1.79209        -1.37196
| 18>    C      -12.79876         0.15694         0.29548
| 19>    F      -13.87398         0.58348         0.97419
| 20>    C      -12.04592        -0.87487         0.78178
| 21>    C      -10.91663        -1.32482         0.07098
| 22>    C      -10.56755        -0.69202        -1.15672
| 23>    C       -9.43619        -1.12543        -1.88628
| 24>    C       -8.67695        -2.15673        -1.40043
| 25>    C       -9.03582        -2.78558        -0.17636
| 26>    C      -10.12395        -2.39341         0.54691
| 27>    C       -8.08194        -3.87662         0.11296
| 28>    O       -8.17640        -4.68599         1.01323
| 29>    C       -7.09999        -3.84868        -0.99027
| 30>    C       -7.47192        -2.80321        -1.91600
| 31>    C       -6.78740        -2.42482        -3.04358
| 32>    C       -5.58056        -3.00140        -3.49051
| 33>    N       -4.59161        -3.40548        -3.91248
| 34>    C       -7.19365        -1.38206        -3.90058
| 35>    N       -7.47769        -0.54982        -4.63907
| 36>    C       -6.12010        -4.79199        -1.17769
| 37>    C       -5.64905        -5.68343        -0.20363
| 38>    C       -5.54469        -5.51680         1.17601
| 39>    O       -5.76508        -4.34850         1.80999
| 40>    C       -5.29773        -4.33126         3.14630
| 41>    C       -5.57718        -5.66207         3.85704
| 42>    C       -7.07345        -5.94904         3.94442
| 43>    O       -4.89263        -6.70664         3.17264
| 44>    C       -5.08362        -6.67099         1.83735
| 45>    C       -4.80625        -7.72944         0.97490
| 46>    S       -4.99687        -7.24430        -0.68097
| 47>    C       -4.42641        -9.06293         1.28328
| 48>    C       -3.86267        -9.87334         0.26823
| 49>    C       -3.41973       -11.20935         0.51341
| 50>    N       -2.90168       -11.93132        -0.49386
| 51>    C       -2.82139       -11.40442        -1.68307
| 52>    C       -3.25462       -10.08322        -1.92444
| 53>    N       -3.75200        -9.35430        -0.96566
| 54>    C       -3.52067       -11.81945         1.78679
| 55>    C       -4.19864       -11.06519         2.76856
| 56>    C       -4.64488        -9.70538         2.52070
| 57>    N       -5.34184        -9.22661         3.55110
| 58>    S       -5.42209       -10.34199         4.69631
| 59>    N       -4.59450       -11.49753         3.96480
| 60>    C       -3.04100       -13.14298         1.96546
| 61>    C       -2.82526       -13.84685         3.14927
| 62>    O       -2.81496       -13.28285         4.38115
| 63>    C       -2.13526       -14.08363         5.32587
| 64>    C       -2.61208       -15.53832         5.25452
| 65>    C       -4.10219       -15.63195         5.56999
| 66>    O       -2.30202       -16.06952         3.96516
| 67>    C       -2.50670       -15.20133         2.94644
| 68>    C       -2.37140       -15.53680         1.59803
| 69>    S       -2.65575       -14.12744         0.59177
| 70>    C       -1.95434       -16.72386         0.97762
| 71>    C       -1.89987       -18.01062         1.44368
| 72>    C       -0.99667       -18.98239         0.77416
| 73>    O       -0.41622       -18.83403        -0.27710
| 74>    C       -0.92305       -20.14066         1.69194
| 75>    C       -0.15748       -21.26583         1.59711
| 76>    C       -0.23965       -22.24103         2.61751
| 77>    C       -1.11502       -22.02613         3.72082
| 78>    C       -1.18799       -22.99943         4.73717
| 79>    C       -0.43050       -24.13445         4.66021
| 80>    C        0.43312       -24.34705         3.56776
| 81>    C        0.52749       -23.42087         2.56686
| 82>    F        1.16524       -25.46935         3.51797
| 83>    F       -0.50316       -25.05907         5.62815
| 84>    C       -1.90285       -20.85324         3.78686
| 85>    C       -1.81112       -19.92705         2.78417
| 86>    C       -2.51535       -18.66545         2.56407
| 87>    C       -3.69424       -18.30039         3.16584
| 88>    C       -4.49436       -17.23847         2.70620
| 89>    N       -5.18203       -16.39157         2.34773
| 90>    C       -4.26777       -18.98593         4.25200
| 91>    N       -4.76332       -19.48017         5.16315
| 92>    H      -11.11621         0.85878        -2.55954
| 93>    H      -12.32262        -1.34424         1.71292
| 94>    H       -9.20285        -0.63049        -2.81508
| 95>    H      -10.37693        -2.89020         1.47137
| 96>    H       -5.69837        -4.91999        -2.16676
| 97>    H       -5.81789        -3.50745         3.63668
| 98>    H       -4.21619        -4.13667         3.14967
| 99>    H       -5.12564        -5.64856         4.85406
|100>    H       -7.55904        -5.75493         2.99006
|101>    H       -7.52587        -5.31603         4.70253
|102>    H       -7.22041        -6.99232         4.21173
|103>    H       -2.40631       -12.02270        -2.46553
|104>    H       -3.18804        -9.62778        -2.90163
|105>    H       -2.34899       -13.64897         6.30223
|106>    H       -1.05285       -14.04610         5.13494
|107>    H       -2.03467       -16.15529         5.95127
|108>    H       -4.68089       -15.05108         4.85500
|109>    H       -4.28312       -15.24263         6.56805
|110>    H       -4.43584       -16.66520         5.53420
|111>    H       -1.54419       -16.59255        -0.02011
|112>    H        0.50176       -21.41285         0.75511
|113>    H       -1.84725       -22.85427         5.57882
|114>    H        1.19307       -23.59900         1.73642
|115>    H       -2.55558       -20.71460         4.63374
|116> *
|117>
|118>                          ****END OF INPUT****

CARTESIAN COORDINATES (ANGSTROEM)
---------------------------------
  C    -11.365170    0.368510   -1.631300
  C    -12.455970    0.782470   -0.919390
  F    -13.212680    1.792090   -1.371960
  C    -12.798760    0.156940    0.295480
  F    -13.873980    0.583480    0.974190
  C    -12.045920   -0.874870    0.781780
  C    -10.916630   -1.324820    0.070980
  C    -10.567550   -0.692020   -1.156720
  C     -9.436190   -1.125430   -1.886280
  C     -8.676950   -2.156730   -1.400430
  C     -9.035820   -2.785580   -0.176360
  C    -10.123950   -2.393410    0.546910
  C     -8.081940   -3.876620    0.112960
  O     -8.176400   -4.685990    1.013230
  C     -7.099990   -3.848680   -0.990270
  C     -7.471920   -2.803210   -1.916000
  C     -6.787400   -2.424820   -3.043580
  C     -5.580560   -3.001400   -3.490510
  N     -4.591610   -3.405480   -3.912480
  C     -7.193650   -1.382060   -3.900580
  N     -7.477690   -0.549820   -4.639070
  C     -6.120100   -4.791990   -1.177690
  C     -5.649050   -5.683430   -0.203630
  C     -5.544690   -5.516800    1.176010
  O     -5.765080   -4.348500    1.809990
  C     -5.297730   -4.331260    3.146300
  C     -5.577180   -5.662070    3.857040
  C     -7.073450   -5.949040    3.944420
  O     -4.892630   -6.706640    3.172640
  C     -5.083620   -6.670990    1.837350
  C     -4.806250   -7.729440    0.974900
  S     -4.996870   -7.244300   -0.680970
  C     -4.426410   -9.062930    1.283280
  C     -3.862670   -9.873340    0.268230
  C     -3.419730  -11.209350    0.513410
  N     -2.901680  -11.931320   -0.493860
  C     -2.821390  -11.404420   -1.683070
  C     -3.254620  -10.083220   -1.924440
  N     -3.752000   -9.354300   -0.965660
  C     -3.520670  -11.819450    1.786790
  C     -4.198640  -11.065190    2.768560
  C     -4.644880   -9.705380    2.520700
  N     -5.341840   -9.226610    3.551100
  S     -5.422090  -10.341990    4.696310
  N     -4.594500  -11.497530    3.964800
  C     -3.041000  -13.142980    1.965460
  C     -2.825260  -13.846850    3.149270
  O     -2.814960  -13.282850    4.381150
  C     -2.135260  -14.083630    5.325870
  C     -2.612080  -15.538320    5.254520
  C     -4.102190  -15.631950    5.569990
  O     -2.302020  -16.069520    3.965160
  C     -2.506700  -15.201330    2.946440
  C     -2.371400  -15.536800    1.598030
  S     -2.655750  -14.127440    0.591770
  C     -1.954340  -16.723860    0.977620
  C     -1.899870  -18.010620    1.443680
  C     -0.996670  -18.982390    0.774160
  O     -0.416220  -18.834030   -0.277100
  C     -0.923050  -20.140660    1.691940
  C     -0.157480  -21.265830    1.597110
  C     -0.239650  -22.241030    2.617510
  C     -1.115020  -22.026130    3.720820
  C     -1.187990  -22.999430    4.737170
  C     -0.430500  -24.134450    4.660210
  C      0.433120  -24.347050    3.567760
  C      0.527490  -23.420870    2.566860
  F      1.165240  -25.469350    3.517970
  F     -0.503160  -25.059070    5.628150
  C     -1.902850  -20.853240    3.786860
  C     -1.811120  -19.927050    2.784170
  C     -2.515350  -18.665450    2.564070
  C     -3.694240  -18.300390    3.165840
  C     -4.494360  -17.238470    2.706200
  N     -5.182030  -16.391570    2.347730
  C     -4.267770  -18.985930    4.252000
  N     -4.763320  -19.480170    5.163150
  H    -11.116210    0.858780   -2.559540
  H    -12.322620   -1.344240    1.712920
  H     -9.202850   -0.630490   -2.815080
  H    -10.376930   -2.890200    1.471370
  H     -5.698370   -4.919990   -2.166760
  H     -5.817890   -3.507450    3.636680
  H     -4.216190   -4.136670    3.149670
  H     -5.125640   -5.648560    4.854060
  H     -7.559040   -5.754930    2.990060
  H     -7.525870   -5.316030    4.702530
  H     -7.220410   -6.992320    4.211730
  H     -2.406310  -12.022700   -2.465530
  H     -3.188040   -9.627780   -2.901630
  H     -2.348990  -13.648970    6.302230
  H     -1.052850  -14.046100    5.134940
  H     -2.034670  -16.155290    5.951270
  H     -4.680890  -15.051080    4.855000
  H     -4.283120  -15.242630    6.568050
  H     -4.435840  -16.665200    5.534200
  H     -1.544190  -16.592550   -0.020110
  H      0.501760  -21.412850    0.755110
  H     -1.847250  -22.854270    5.578820
  H      1.193070  -23.599000    1.736420
  H     -2.555580  -20.714600    4.633740

 Total Charge           Charge          ....    0
 Multiplicity           Mult            ....    1
 Number of Electrons    NEL             ....  548
 Basis Dimension        Dim             .... 1210

ORBITAL ENERGIES
----------------

  NO   OCC          E(Eh)            E(eV)
   0   2.0000     -89.038900     -2422.8716
   1   2.0000     -88.960247     -2420.7314
   2   2.0000     -88.959574     -2420.7131
   3   2.0000     -24.794437      -674.6909
   4   2.0000     -24.793501      -674.6655
   5   2.0000     -24.793193      -674.6571
   6   2.0000     -24.793100      -674.6546
   7   2.0000     -19.273748      -524.4653
   8   2.0000     -19.266976      -524.2811
   9   2.0000     -19.261713      -524.1379
  10   2.0000     -19.255814      -523.9773
  11   2.0000     -19.208592      -522.6924
  12   2.0000     -19.208318      -522.6849
  13   2.0000     -14.449626      -393.1943
  14   2.0000     -14.449408      -393.1884
  15   2.0000     -14.443721      -393.0336
  16   2.0000     -14.443217      -393.0199
  17   2.0000     -14.413192      -392.2029
  18   2.0000     -14.409057      -392.0904
  19   2.0000     -14.408537      -392.0762
  20   2.0000     -14.407882      -392.0584
  21   2.0000     -10.376897      -282.3697
  22   2.0000     -10.375989      -282.3450
  23   2.0000     -10.375854      -282.3413
  24   2.0000     -10.375663      -282.3361
  25   2.0000     -10.359282      -281.8904
  26   2.0000     -10.358628      -281.8726
  27   2.0000     -10.354485      -281.7599
  28   2.0000     -10.350550      -281.6528
  29   2.0000     -10.349434      -281.6224
  30   2.0000     -10.348024      -281.5840
  31   2.0000     -10.347557      -281.5713
  32   2.0000     -10.343715      -281.4668
  33   2.0000     -10.343313      -281.4558
  34   2.0000     -10.341707      -281.4122
  35   2.0000     -10.341521      -281.4071
  36   2.0000     -10.339515      -281.3525
  37   2.0000     -10.339218      -281.3444
  38   2.0000     -10.339202      -281.3440
  39   2.0000     -10.339101      -281.3413
  40   2.0000     -10.338863      -281.3348
  41   2.0000     -10.334110      -281.2054
  42   2.0000     -10.333542      -281.1900
  43   2.0000     -10.332704      -281.1672
  44   2.0000     -10.329816      -281.0886
  45   2.0000     -10.321026      -280.8494
  46   2.0000     -10.319823      -280.8166
  47   2.0000     -10.318199      -280.7725
  48   2.0000     -10.318041      -280.7682
  49   2.0000     -10.316413      -280.7239
  50   2.0000     -10.315205      -280.6910
  51   2.0000     -10.314104      -280.6610
  52   2.0000     -10.312289      -280.6117
  53   2.0000     -10.311993      -280.6036
  54   2.0000     -10.309766      -280.5430
  55   2.0000     -10.305061      -280.4150
  56   2.0000     -10.304808      -280.4081
  57   2.0000     -10.304726      -280.4059
  58   2.0000     -10.304532      -280.4006
  59   2.0000     -10.304139      -280.3899
  60   2.0000     -10.300907      -280.3019
  61   2.0000     -10.300482      -280.2904
  62   2.0000     -10.300363      -280.2871
  63   2.0000     -10.296752      -280.1889
  64   2.0000     -10.296487      -280.1817
  65   2.0000     -10.296255      -280.1753
  66   2.0000     -10.296142      -280.1723
  67   2.0000     -10.295806      -280.1631
  68   2.0000     -10.295775      -280.1623
  69   2.0000     -10.295402      -280.1521
  70   2.0000     -10.294895      -280.1383
  71   2.0000     -10.289199      -279.9833
  72   2.0000     -10.288335      -279.9598
  73   2.0000     -10.286620      -279.9132
  74   2.0000     -10.286322      -279.9050
  75   2.0000     -10.266813      -279.3742
  76   2.0000     -10.259482      -279.1747
  77   2.0000      -8.130216      -221.2344
  78   2.0000      -8.053457      -219.1457
  79   2.0000      -8.052751      -219.1265
  80   2.0000      -6.101162      -166.0211
  81   2.0000      -6.093365      -165.8089
  82   2.0000      -6.093350      -165.8085
  83   2.0000      -6.023267      -163.9014
  84   2.0000      -6.022630      -163.8841
  85   2.0000      -6.018893      -163.7824
  86   2.0000      -6.018227      -163.7643
  87   2.0000      -6.014791      -163.6708
  88   2.0000      -6.014013      -163.6496
  89   2.0000      -1.316351       -35.8197
  90   2.0000      -1.315915       -35.8079
  91   2.0000      -1.301517       -35.4161
  92   2.0000      -1.301144       -35.4059
  93   2.0000      -1.196576       -32.5605
  94   2.0000      -1.192764       -32.4568
  95   2.0000      -1.156767       -31.4772
  96   2.0000      -1.152906       -31.3722
  97   2.0000      -1.135913       -30.9098
  98   2.0000      -1.123441       -30.5704
  99   2.0000      -1.121922       -30.5291
 100   2.0000      -1.108022       -30.1508
 101   2.0000      -1.035734       -28.1838
 102   2.0000      -1.013708       -27.5844
 103   2.0000      -1.012761       -27.5586
 104   2.0000      -0.998484       -27.1701
 105   2.0000      -0.998205       -27.1626
 106   2.0000      -0.997881       -27.1537
 107   2.0000      -0.995001       -27.0753
 108   2.0000      -0.989452       -26.9244
 109   2.0000      -0.987613       -26.8743
 110   2.0000      -0.983599       -26.7651
 111   2.0000      -0.974959       -26.5300
 112   2.0000      -0.974154       -26.5081
 113   2.0000      -0.964637       -26.2491
 114   2.0000      -0.926509       -25.2116
 115   2.0000      -0.925341       -25.1798
 116   2.0000      -0.907972       -24.7072
 117   2.0000      -0.899408       -24.4741
 118   2.0000      -0.895654       -24.3720
 119   2.0000      -0.891103       -24.2482
 120   2.0000      -0.888827       -24.1862
 121   2.0000      -0.887342       -24.1458
 122   2.0000      -0.883872       -24.0514
 123   2.0000      -0.881965       -23.9995
 124   2.0000      -0.877532       -23.8788
 125   2.0000      -0.865508       -23.5517
 126   2.0000      -0.839439       -22.8423
 127   2.0000      -0.834725       -22.7140
 128   2.0000      -0.834402       -22.7052
 129   2.0000      -0.828844       -22.5540
 130   2.0000      -0.820057       -22.3149
 131   2.0000      -0.816272       -22.2119
 132   2.0000      -0.805035       -21.9061
 133   2.0000      -0.801130       -21.7999
 134   2.0000      -0.792646       -21.5690
 135   2.0000      -0.780785       -21.2462
 136   2.0000      -0.774048       -21.0629
 137   2.0000      -0.761045       -20.7091
 138   2.0000      -0.760180       -20.6855
 139   2.0000      -0.757963       -20.6252
 140   2.0000      -0.748089       -20.3565
 141   2.0000      -0.739988       -20.1361
 142   2.0000      -0.738474       -20.0949
 143   2.0000      -0.721690       -19.6382
 144   2.0000      -0.717513       -19.5245
 145   2.0000      -0.714917       -19.4539
 146   2.0000      -0.710955       -19.3461
 147   2.0000      -0.707969       -19.2648
 148   2.0000      -0.698029       -18.9943
 149   2.0000      -0.685903       -18.6644
 150   2.0000      -0.680642       -18.5212
 151   2.0000      -0.675689       -18.3864
 152   2.0000      -0.674806       -18.3624
 153   2.0000      -0.668725       -18.1969
 154   2.0000      -0.665338       -18.1048
 155   2.0000      -0.654211       -17.8020
 156   2.0000      -0.652339       -17.7511
 157   2.0000      -0.648273       -17.6404
 158   2.0000      -0.645668       -17.5695
 159   2.0000      -0.640279       -17.4229
 160   2.0000      -0.637330       -17.3426
 161   2.0000      -0.635771       -17.3002
 162   2.0000      -0.634864       -17.2755
 163   2.0000      -0.631783       -17.1917
 164   2.0000      -0.624651       -16.9976
 165   2.0000      -0.611466       -16.6388
 166   2.0000      -0.610639       -16.6163
 167   2.0000      -0.607783       -16.5386
 168   2.0000      -0.603061       -16.4101
 169   2.0000      -0.597811       -16.2673
 170   2.0000      -0.596165       -16.2225
 171   2.0000      -0.592883       -16.1332
 172   2.0000      -0.589241       -16.0341
 173   2.0000      -0.581073       -15.8118
 174   2.0000      -0.580668       -15.8008
 175   2.0000      -0.579232       -15.7617
 176   2.0000      -0.577954       -15.7269
 177   2.0000      -0.575710       -15.6659
 178   2.0000      -0.570530       -15.5249
 179   2.0000      -0.570097       -15.5131
 180   2.0000      -0.568675       -15.4744
 181   2.0000      -0.558411       -15.1951
 182   2.0000      -0.557349       -15.1662
 183   2.0000      -0.549315       -14.9476
 184   2.0000      -0.548855       -14.9351
 185   2.0000      -0.547741       -14.9048
 186   2.0000      -0.546042       -14.8586
 187   2.0000      -0.542889       -14.7728
 188   2.0000      -0.542497       -14.7621
 189   2.0000      -0.541175       -14.7261
 190   2.0000      -0.538485       -14.6529
 191   2.0000      -0.533883       -14.5277
 192   2.0000      -0.533652       -14.5214
 193   2.0000      -0.531468       -14.4620
 194   2.0000      -0.529284       -14.4025
 195   2.0000      -0.528652       -14.3854
 196   2.0000      -0.527320       -14.3491
 197   2.0000      -0.525366       -14.2959
 198   2.0000      -0.524326       -14.2676
 199   2.0000      -0.524074       -14.2608
 200   2.0000      -0.520209       -14.1556
 201   2.0000      -0.512926       -13.9574
 202   2.0000      -0.510907       -13.9025
 203   2.0000      -0.507481       -13.8093
 204   2.0000      -0.506905       -13.7936
 205   2.0000      -0.505283       -13.7495
 206   2.0000      -0.502598       -13.6764
 207   2.0000      -0.500343       -13.6150
 208   2.0000      -0.498507       -13.5651
 209   2.0000      -0.494116       -13.4456
 210   2.0000      -0.493467       -13.4279
 211   2.0000      -0.491429       -13.3725
 212   2.0000      -0.490008       -13.3338
 213   2.0000      -0.488366       -13.2891
 214   2.0000      -0.483740       -13.1632
 215   2.0000      -0.481361       -13.0985
 216   2.0000      -0.477542       -12.9946
 217   2.0000      -0.476053       -12.9540
 218   2.0000      -0.475090       -12.9278
 219   2.0000      -0.470505       -12.8031
 220   2.0000      -0.467553       -12.7228
 221   2.0000      -0.463859       -12.6222
 222   2.0000      -0.463741       -12.6190
 223   2.0000      -0.460768       -12.5381
 224   2.0000      -0.459992       -12.5170
 225   2.0000      -0.458076       -12.4649
 226   2.0000      -0.457763       -12.4564
 227   2.0000      -0.455243       -12.3878
 228   2.0000      -0.447941       -12.1891
 229   2.0000      -0.447538       -12.1781
 230   2.0000      -0.445797       -12.1308
 231   2.0000      -0.443739       -12.0748
 232   2.0000      -0.441487       -12.0135
 233   2.0000      -0.440575       -11.9887
 234   2.0000      -0.439627       -11.9629
 235   2.0000      -0.439139       -11.9496
 236   2.0000      -0.437475       -11.9043
 237   2.0000      -0.429941       -11.6993
 238   2.0000      -0.424952       -11.5635
 239   2.0000      -0.424437       -11.5495
 240   2.0000      -0.422327       -11.4921
 241   2.0000      -0.419850       -11.4247
 242   2.0000      -0.418362       -11.3842
 243   2.0000      -0.417341       -11.3564
 244   2.0000      -0.414695       -11.2844
 245   2.0000      -0.414428       -11.2772
 246   2.0000      -0.412280       -11.2187
 247   2.0000      -0.407685       -11.0937
 248   2.0000      -0.404017       -10.9939
 249   2.0000      -0.403269       -10.9735
 250   2.0000      -0.402868       -10.9626
 251   2.0000      -0.395239       -10.7550
 252   2.0000      -0.391586       -10.6556
 253   2.0000      -0.388247       -10.5647
 254   2.0000      -0.384835       -10.4719
 255   2.0000      -0.379424       -10.3246
 256   2.0000      -0.377164       -10.2632
 257   2.0000      -0.370697       -10.0872
 258   2.0000      -0.359759        -9.7895
 259   2.0000      -0.351502        -9.5649
 260   2.0000      -0.347898        -9.4668
 261   2.0000      -0.346267        -9.4224
 262   2.0000      -0.334374        -9.0988
 263   2.0000      -0.331470        -9.0198
 264   2.0000      -0.327291        -8.9060
 265   2.0000      -0.318051        -8.6546
 266   2.0000      -0.311529        -8.4771
 267   2.0000      -0.310108        -8.4385
 268   2.0000      -0.297886        -8.1059
 269   2.0000      -0.295418        -8.0387
 270   2.0000      -0.289411        -7.8753
 271   2.0000      -0.287158        -7.8140
 272   2.0000      -0.279615        -7.6087
 273   2.0000      -0.240980        -6.5574
 274   0.0000      -0.122641        -3.3372
 275   0.0000      -0.081173        -2.2088
 276   0.0000      -0.074788        -2.0351
 277   0.0000      -0.051293        -1.3957
 278   0.0000      -0.050939        -1.3861

MULLIKEN ATOMIC CHARGES
-----------------------
   0 C :   -0.105920
   1 C :    0.238710
   2 F :   -0.173636
   3 C :    0.236414
   4 F :   -0.174648
   5 C :   -0.105150
   6 C :    0.116927
   7 C :    0.111710
   8 C :   -0.084627
   9 C :    0.049189
  10 C :   -0.001879
  11 C :   -0.087837
  12 C :    0.150875
  13 O :   -0.149098
  14 C :   -0.100010
  15 C :    0.315340
  16 C :   -0.354019
  17 C :   -0.200477
  18 N :    0.157128
  19 C :   -0.184952
  20 N :    0.138251
  21 C :    0.033226
  22 C :   -0.149288
  23 C :    0.189612
  24 O :   -0.277645
  25 C :    0.244914
  26 C :    0.012147
  27 C :    0.056244
  28 O :   -0.266410
  29 C :    0.168204
  30 C :   -0.248185
  31 S :    0.180632
  32 C :    0.170065
  33 C :   -0.040265
  34 C :   -0.043282
  35 N :   -0.069061
  36 C :    0.047146
  37 C :    0.046764
  38 N :   -0.066908
  39 C :    0.184630
  40 C :   -0.033365
  41 C :   -0.021228
  42 N :   -0.263157
  43 S :    0.528184
  44 N :   -0.260488
  45 C :   -0.218893
  46 C :    0.151497
  47 O :   -0.278467
  48 C :    0.229324
  49 C :    0.018662
  50 C :    0.066247
  51 O :   -0.283906
  52 C :    0.171930
  53 C :   -0.141128
  54 S :    0.181981
  55 C :    0.081035
  56 C :   -0.150865
  57 C :    0.138733
  58 O :   -0.145768
  59 C :    0.014335
  60 C :   -0.087025
  61 C :    0.112180
  62 C :    0.115501
  63 C :   -0.110897
  64 C :    0.240454
  65 C :    0.236246
  66 C :   -0.105122
  67 F :   -0.174897
  68 F :   -0.174744
  69 C :   -0.094090
  70 C :    0.043495
  71 C :    0.300901
  72 C :   -0.335131
  73 C :   -0.216760
  74 N :    0.164529
  75 C :   -0.167438
  76 N :    0.129309
  77 H :    0.005999
  78 H :   -0.005209
  79 H :   -0.009092
  80 H :   -0.018845
  81 H :    0.020606
  82 H :    0.028146
  83 H :    0.029658
  84 H :    0.015869
  85 H :    0.046156
  86 H :    0.012513
  87 H :    0.022196
  88 H :    0.024946
  89 H :    0.026624
  90 H :    0.025747
  91 H :    0.029603
  92 H :    0.026255
  93 H :    0.044977
  94 H :    0.014136
  95 H :    0.036794
  96 H :    0.016251
  97 H :   -0.011495
  98 H :    0.003269
  99 H :   -0.002026
 100 H :   -0.009084
Sum of atomic charges:   -0.0000000

LOEWDIN ATOMIC CHARGES
----------------------
   0 C :   -0.029361
   1 C :    0.064143
   2 F :   -0.051339
   3 C :    0.065965
   4 F :   -0.052226
   5 C :   -0.035355
   6 C :   -0.009403
   7 C :   -0.008474
   8 C :    0.015674
   9 C :   -0.022041
  10 C :   -0.047410
  11 C :    0.022403
  12 C :    0.082227
  13 O :   -0.145351
  14 C :   -0.102350
  15 C :    0.075461
  16 C :   -0.146329
  17 C :   -0.023338
  18 N :   -0.057241
  19 C :   -0.017480
  20 N :   -0.061009
  21 C :    0.055626
  22 C :   -0.208109
  23 C :    0.020987
  24 O :   -0.066969
  25 C :    0.081501
  26 C :    0.054741
  27 C :   -0.064263
  28 O :   -0.073909
  29 C :    0.000108
  30 C :   -0.171736
  31 S :    0.478204
  32 C :   -0.036793
  33 C :   -0.011929
  34 C :   -0.011864
  35 N :   -0.042077
  36 C :    0.024296
  37 C :    0.024309
  38 N :   -0.041107
  39 C :   -0.036982
  40 C :   -0.043234
  41 C :   -0.042674
  42 N :   -0.273116
  43 S :    0.668104
  44 N :   -0.269668
  45 C :   -0.166034
  46 C :    0.000661
  47 O :   -0.075287
  48 C :    0.077938
  49 C :    0.057384
  50 C :   -0.058496
  51 O :   -0.070214
  52 C :    0.014164
  53 C :   -0.206830
  54 S :    0.488905
  55 C :    0.048946
  56 C :   -0.099126
  57 C :    0.081899
  58 O :   -0.147884
  59 C :   -0.053183
  60 C :    0.027707
  61 C :   -0.011803
  62 C :   -0.006328
  63 C :   -0.032722
  64 C :    0.065378
  65 C :    0.064135
  66 C :   -0.033588
  67 F :   -0.052526
  68 F :   -0.051831
  69 C :    0.006124
  70 C :   -0.016173
  71 C :    0.067355
  72 C :   -0.143863
  73 C :   -0.016775
  74 N :   -0.058735
  75 C :   -0.018530
  76 N :   -0.068123
  77 H :    0.047120
  78 H :    0.042997
  79 H :    0.039178
  80 H :    0.036799
  81 H :    0.044156
  82 H :    0.032714
  83 H :    0.022473
  84 H :    0.029672
  85 H :    0.034295
  86 H :    0.029293
  87 H :    0.030614
  88 H :    0.032553
  89 H :    0.033318
  90 H :    0.032089
  91 H :    0.020920
  92 H :    0.032822
  93 H :    0.037307
  94 H :    0.032858
  95 H :    0.034311
  96 H :    0.044381
  97 H :    0.039447
  98 H :    0.045912
  99 H :    0.044086
 100 H :    0.037531

  Mayer bond orders larger than 0.100000
B(  0-C ,  1-C ) :   1.4405 B(  0-C ,  5-C ) :   0.1088 B(  0-C ,  7-C ) :   1.1892
B(  0-C , 77-H ) :   1.0065 B(  1-C ,  2-F ) :   1.1323 B(  1-C ,  3-C ) :   1.1938
B(  3-C ,  4-F ) :   1.1308 B(  3-C ,  5-C ) :   1.4422 B(  5-C ,  6-C ) :   1.1942
B(  5-C , 78-H ) :   1.0064 B(  6-C ,  7-C ) :   1.2598 B(  6-C , 11-C ) :   1.1834
B(  7-C ,  8-C ) :   1.2140 B(  8-C ,  9-C ) :   1.4542 B(  8-C , 79-H ) :   0.9891
B(  9-C , 10-C ) :   1.2251 B(  9-C , 15-C ) :   0.9815 B( 10-C , 11-C ) :   1.4790
B( 10-C , 12-C ) :   0.9361 B( 11-C , 80-H ) :   1.0157 B( 12-C , 13-O ) :   2.1632
B( 12-C , 14-C ) :   0.9750 B( 14-C , 15-C ) :   1.0976 B( 14-C , 21-C ) :   1.5309
B( 15-C , 16-C ) :   1.6197 B( 16-C , 17-C ) :   1.1443 B( 16-C , 19-C ) :   1.1490
B( 17-C , 18-N ) :   2.9857 B( 19-C , 20-N ) :   2.9584 B( 21-C , 22-C ) :   1.2345
B( 21-C , 81-H ) :   0.9270 B( 22-C , 23-C ) :   1.4178 B( 22-C , 30-C ) :   0.1077
B( 22-C , 31-S ) :   1.0101 B( 23-C , 24-O ) :   1.1808 B( 23-C , 29-C ) :   1.2030
B( 24-O , 25-C ) :   0.9435 B( 25-C , 26-C ) :   1.0372 B( 25-C , 82-H ) :   0.9512
B( 25-C , 83-H ) :   0.9456 B( 26-C , 27-C ) :   1.0581 B( 26-C , 28-O ) :   0.9346
B( 26-C , 84-H ) :   0.9349 B( 27-C , 85-H ) :   0.9481 B( 27-C , 86-H ) :   0.9589
B( 27-C , 87-H ) :   0.9519 B( 28-O , 29-C ) :   1.1901 B( 29-C , 30-C ) :   1.4284
B( 30-C , 31-S ) :   1.1355 B( 30-C , 32-C ) :   1.1501 B( 32-C , 33-C ) :   1.2742
B( 32-C , 39-C ) :   0.1285 B( 32-C , 41-C ) :   1.2040 B( 33-C , 34-C ) :   1.1510
B( 33-C , 38-N ) :   1.3965 B( 34-C , 35-N ) :   1.3964 B( 34-C , 39-C ) :   1.2707
B( 35-N , 36-C ) :   1.6555 B( 36-C , 37-C ) :   1.1988 B( 36-C , 88-H ) :   0.9740
B( 37-C , 38-N ) :   1.6565 B( 37-C , 89-H ) :   0.9747 B( 39-C , 40-C ) :   1.1987
B( 39-C , 45-C ) :   1.1587 B( 40-C , 41-C ) :   1.0863 B( 40-C , 44-N ) :   1.5295
B( 41-C , 42-N ) :   1.5241 B( 42-N , 43-S ) :   1.2889 B( 42-N , 44-N ) :   0.1564
B( 43-S , 44-N ) :   1.2938 B( 45-C , 46-C ) :   1.4466 B( 45-C , 53-C ) :   0.1071
B( 45-C , 54-S ) :   1.1339 B( 46-C , 47-O ) :   1.1681 B( 46-C , 52-C ) :   1.2086
B( 47-O , 48-C ) :   0.9596 B( 48-C , 49-C ) :   1.0408 B( 48-C , 90-H ) :   0.9505
B( 48-C , 91-H ) :   0.9443 B( 49-C , 50-C ) :   1.0719 B( 49-C , 51-O ) :   0.9118
B( 49-C , 92-H ) :   0.9340 B( 50-C , 93-H ) :   0.9480 B( 50-C , 94-H ) :   0.9559
B( 50-C , 95-H ) :   0.9515 B( 51-O , 52-C ) :   1.1699 B( 52-C , 53-C ) :   1.4064
B( 53-C , 54-S ) :   1.0227 B( 53-C , 55-C ) :   1.2026 B( 55-C , 56-C ) :   1.5816
B( 55-C , 96-H ) :   0.9236 B( 56-C , 57-C ) :   0.9507 B( 56-C , 71-C ) :   1.0919
B( 57-C , 58-O ) :   2.2682 B( 57-C , 59-C ) :   0.9128 B( 59-C , 60-C ) :   1.4799
B( 59-C , 70-C ) :   1.2220 B( 60-C , 61-C ) :   1.1887 B( 60-C , 97-H ) :   1.0158
B( 61-C , 62-C ) :   1.2623 B( 61-C , 66-C ) :   1.1939 B( 62-C , 63-C ) :   1.1913
B( 62-C , 69-C ) :   1.2071 B( 63-C , 64-C ) :   1.4394 B( 63-C , 66-C ) :   0.1091
B( 63-C , 98-H ) :   1.0066 B( 64-C , 65-C ) :   1.1963 B( 64-C , 68-F ) :   1.1303
B( 65-C , 66-C ) :   1.4418 B( 65-C , 67-F ) :   1.1303 B( 66-C , 99-H ) :   1.0066
B( 69-C , 70-C ) :   1.4641 B( 69-C ,100-H ) :   0.9933 B( 70-C , 71-C ) :   0.9909
B( 71-C , 72-C ) :   1.6064 B( 72-C , 73-C ) :   1.1859 B( 72-C , 75-C ) :   1.1535
B( 73-C , 74-N ) :   2.9602 B( 75-C , 76-N ) :   2.9173

-----------------------------------------------------------------------------
         ABSORPTION SPECTRUM VIA TRANSITION ELECTRIC DIPOLE MOMENTS
-----------------------------------------------------------------------------
State   Energy  Wavelength   fosc         T2         TX        TY        TZ
        (cm-1)    (nm)                  (au**2)     (au)      (au)      (au)
-----------------------------------------------------------------------------
   0   10415.5    960.1   1.087828095  34.38404  -1.83931   5.41658  -1.28905
   1   18236.5    548.4   0.023713917   0.42809   0.16794   0.01993   0.63205
   2   18903.9    529.0   0.011229247   0.19556  -0.36547   0.23632   0.07834
   3   19684.0    508.0   0.046015773   0.76961   0.41909   0.34279   0.69027
   4   20451.9    489.0   0.615897057   9.91401   1.09577  -2.69709   1.19960
   5   20852.7    479.6   0.147905000   2.33505   0.33876   1.49005   0.00602
   6   23160.4    431.8   0.002151570   0.03058   0.02759   0.03827  -0.16840
   7   24778.1    403.6   0.013921254   0.18496  -0.31715  -0.27730   0.08651
   8   25570.6    391.1   0.005727062   0.07373   0.00627  -0.15285   0.22435
   9   26151.2    382.4   0.017953532   0.22601  -0.15142   0.07816   0.44382
  10   26311.5    380.1   0.060687448   0.75933   0.72009  -0.07948  -0.48423
  11   26981.6    370.6   0.013625958   0.16626   0.10435   0.34511   0.19044
  12   27426.3    364.6   0.028560025   0.34282   0.52902  -0.11427  -0.22339
  13   27631.8    361.9   0.280315126   3.33974   0.90084  -1.57472  -0.22019
  14   27856.3    359.0   0.015067248   0.17807   0.01605   0.31514   0.28017
  15   28235.5    354.2   0.061658822   0.71891  -0.51876   0.66651  -0.07459
  16   28528.0    350.5   0.014386735   0.16602   0.30786  -0.16506   0.20976
  17   28713.1    348.3   0.024761499   0.28390  -0.28626   0.08697   0.44091
  18   29061.0    344.1   0.133586574   1.51331  -0.86101   0.87799   0.03332
  19   29360.9    340.6   0.009040392   0.10137   0.23712  -0.17324  -0.12300
  20   30079.0    332.5   0.010284300   0.11256  -0.12120  -0.03265   0.31113
  21   30251.3    330.6   0.146373756   1.59292   0.54344  -0.06934  -1.13701
  22   31065.6    321.9   0.068863171   0.72976   0.70935  -0.28232   0.38325
  23   32082.2    311.7   0.085760681   0.88003   0.67532  -0.64297  -0.10281
  24   32238.9    310.2   0.063342977   0.64684  -0.74463   0.28983  -0.09147
  25   32320.4    309.4   0.242097556   2.46598   1.21276  -0.97136  -0.22726
  26   32445.7    308.2   0.019462499   0.19748   0.30129   0.18299  -0.27059
  27   32710.4    305.7   0.357474028   3.59778   0.55052  -1.73123   0.54547
  28   33270.4    300.6   0.093425950   0.92445  -0.80647   0.52286  -0.02608
  29   33616.2    297.5   0.056529057   0.55360  -0.08638  -0.64541   0.35998
  30   33903.9    295.0   0.024395269   0.23688   0.32770  -0.24978   0.25904
  31   34027.1    293.9   0.028292729   0.27373   0.47644  -0.17063  -0.13277
  32   34477.3    290.0   0.148713081   1.42001  -0.75914   0.29449   0.87005
  33   34758.0    287.7   0.017219971   0.16310   0.36781   0.07866   0.14707
  34   35035.0    285.4   0.011360190   0.10675  -0.13270   0.29494  -0.04632
  35   35128.3    284.7   0.023096045   0.21645   0.42144  -0.05286  -0.18985
  36   35214.4    284.0   0.052286748   0.48882   0.41697  -0.54879   0.11744
  37   35613.1    280.8   0.019675170   0.18188  -0.27792   0.29958  -0.12202
  38   36005.0    277.7   0.057821342   0.52869  -0.33904   0.60365   0.22215
  39   36114.4    276.9   0.336692764   3.06922  -1.51194   0.20457   0.86105
  40   36639.7    272.9   0.080573125   0.72396   0.71882  -0.15662  -0.42746
  41   36902.3    271.0   0.372652223   3.32450   1.21173  -1.32829  -0.30310
  42   37097.8    269.6   0.559678356   4.96668   1.21453  -0.79260  -1.69216
  43   37127.9    269.3   0.188040752   1.66735   0.20114  -0.64060   1.10297
  44   37634.0    265.7   0.065803158   0.57563  -0.37837  -0.20190   0.62586
  45   38022.1    263.0   0.015472338   0.13397   0.26240  -0.12907  -0.22012
  46   38252.1    261.4   0.048698038   0.41911   0.48345  -0.37066  -0.21909
  47   38426.5    260.2   0.010756127   0.09215  -0.03428  -0.11960  -0.27690
  48   38796.7    257.8   0.017832495   0.15132  -0.25152  -0.09488   0.28117
  49   39000.6    256.4   0.001172777   0.00990  -0.08622  -0.04647  -0.01748
  50   39091.8    255.8   0.144608684   1.21782   0.44899  -0.38098  -0.93332
  51   39571.0    252.7   0.110428222   0.91871   0.11120   0.51300  -0.80198
  52   39871.5    250.8   0.077503420   0.63993   0.09107   0.69396  -0.38737
  53   40086.2    249.5   0.130896620   1.07500  -0.72155   0.70174   0.24885

FINAL SINGLE POINT ENERGY     -4627.020957821816

DIPOLE MOMENT
-------------
                                X             Y             Z
Electronic contribution:     -6.75789      -6.52489     -18.76363
Nuclear contribution   :      7.99288       6.61070      21.82506
                        -----------------------------------------
Total Dipole Moment    :      1.23499       0.08581       3.06143
                        -----------------------------------------
Magnitude (a.u.)       :      3.30225
Magnitude (Debye)      :      8.39366

Rotational constants in cm-1:     0.002617     0.000216     0.000208
Rotational constants in MHz :    78.467645     6.462692     6.233571

                             ****ORCA TERMINATED NORMALLY****
TOTAL RUN TIME: 0 days 0 hours 10 minutes 19 seconds 839 msec
