                         Program Version 4.2.0 -  RELEASE  -
|  1> # ORCA input file
|  2> # SCF done       -226.157645833575          0.000670937134
|  3> ! CAM-B3LYP def2-SVP def2/J RIJCOSX Grid4 TightSCF
|  4> %maxcore 5000
|  5> %tddft
|  6>     Mode sTDDFT
|  7>     Ethresh 5.0
|  8>     maxcore 5000
|  9> end
| 10>
| 11> %pal
| 12>   nprocs 6
| 13>   end
| 14> * xyz 0 1
| 15>    C       -4.17514         3.50447         1.67908
| 16>    C       -4.60753         4.31050         2.69433
| 17>    F       -4.40803         5.63313         2.63535
| 18>    C       -5.26737         3.76371         3.81401
| 19>    F       -5.67919         4.57870         4.79352
| 20>    C       -5.48636         2.41758         3.90233
| 21>    C       -5.05304         1.56076         2.87180
| 22>    C       -4.38497         2.11173         1.73966
| 23>    C       -3.93992         1.27234         0.69321
| 24>    C       -4.15700        -0.07904         0.77402
| 25>    C       -4.82702        -0.61656         1.90579
| 26>    C       -5.26697         0.16656         2.93400
| 27>    C       -4.94847        -2.07814         1.76222
| 28>    O       -5.45482        -2.82503         2.57138
| 29>    C       -4.32007        -2.41110         0.45931
| 30>    C       -3.82205        -1.17523        -0.13109
| 31>    C       -3.15369        -1.02538        -1.31840
| 32>    C       -2.80551        -2.04672        -2.22845
| 33>    N       -2.47812        -2.80600        -3.02612
| 34>    C       -2.69873         0.21541        -1.81689
| 35>    N       -2.29938         1.18468        -2.28396
| 36>    C       -4.19282        -3.63819        -0.13217
| 37>    C       -4.62355        -4.92262         0.25838
| 38>    C       -5.34758        -5.39524         1.34672
| 39>    C       -5.54323        -6.76786         1.28804
| 40>    C       -4.96343        -7.36433         0.14582
| 41>    S       -4.18633        -6.23297        -0.85174
| 42>    C       -5.21565        -8.75905         0.18949
| 43>    C       -5.94991        -9.04401         1.35416
| 44>    C       -6.19272        -7.80494         2.07626
| 45>    C       -6.90234        -7.65307         3.22936
| 46>    C       -7.51301        -8.74714         3.88185
| 47>    N       -8.02317        -9.62618         4.41183
| 48>    C       -7.11042        -6.40358         3.85527
| 49>    N       -7.30878        -5.40955         4.38952
| 50>    C       -6.24112       -10.40061         1.48971
| 51>    C       -5.74577       -11.14357         0.43395
| 52>    S       -4.90982       -10.14848        -0.74591
| 53>    C       -5.86938       -12.56770         0.24273
| 54>    C       -5.77502       -13.17556        -1.01826
| 55>    F       -5.54147       -12.41557        -2.09785
| 56>    C       -5.94781       -14.53445        -1.20949
| 57>    F       -5.88291       -14.99583        -2.46368
| 58>    C       -6.22095       -15.41264        -0.14810
| 59>    C       -6.28635       -14.80643         1.11659
| 60>    C       -6.11433       -13.44880         1.30768
| 61>    F       -6.16582       -12.98930         2.56301
| 62>    F       -6.51153       -15.56200         2.20132
| 63>    C       -6.44331       -16.82474        -0.33681
| 64>    C       -6.09573       -17.60567        -1.42481
| 65>    C       -6.51246       -18.92825        -1.27201
| 66>    C       -7.19020       -19.14586        -0.05991
| 67>    S       -7.28946       -17.74613         0.89721
| 68>    C       -7.58364       -20.50598        -0.00070
| 69>    C       -7.16197       -21.14988        -1.17872
| 70>    C       -6.46634       -20.18003        -2.01308
| 71>    C       -5.89073       -20.40397        -3.22777
| 72>    C       -5.93194       -21.66864        -3.85449
| 73>    N       -5.97443       -22.69014        -4.37236
| 74>    C       -5.21550       -19.39119        -3.94340
| 75>    N       -4.65881       -18.57685        -4.52673
| 76>    C       -7.52375       -22.49345        -1.21306
| 77>    C       -8.18152       -22.88981        -0.05859
| 78>    S       -8.40010       -21.54942         1.06346
| 79>    C       -8.72290       -24.17410         0.19144
| 80>    C       -9.10900       -24.72617         1.37206
| 81>    C      -10.08945       -25.85100         1.37327
| 82>    O      -10.41289       -26.52907         0.42819
| 83>    C      -10.61744       -25.89389         2.75259
| 84>    C      -11.64228       -26.64206         3.25662
| 85>    C      -12.00304       -26.48652         4.61399
| 86>    C      -11.29383       -25.55339         5.42575
| 87>    C      -11.66778       -25.39521         6.77538
| 88>    C      -12.69578       -26.13006         7.29579
| 89>    C      -13.39511       -27.05436         6.49304
| 90>    C      -13.05645       -27.23049         5.18064
| 91>    F      -14.39912       -27.75924         7.02928
| 92>    F      -13.05064       -25.97771         8.57728
| 93>    C      -10.22937       -24.80056         4.87989
| 94>    C       -9.89408       -24.97303         3.56398
| 95>    C       -8.84486       -24.36700         2.75055
| 96>    C       -7.68582       -23.82012         3.23359
| 97>    C       -6.58632       -23.49446         2.41252
| 98>    N       -5.66768       -23.25308         1.76814
| 99>    C       -7.43629       -23.60354         4.60425
|100>    N       -7.19882       -23.39659         5.70744
|101>    H       -3.67174         3.93937         0.82975
|102>    H       -5.99282         2.01404         4.76506
|103>    H       -3.43862         1.72467        -0.14651
|104>    H       -5.77193        -0.27480         3.77975
|105>    H       -3.67116        -3.65077        -1.08175
|106>    H       -5.69807        -4.74668         2.13014
|107>    H       -6.80031       -10.81884         2.30528
|108>    H       -5.55621       -17.23795        -2.27741
|109>    H       -7.30454       -23.17512        -2.01493
|110>    H       -8.93530       -24.76928        -0.69195
|111>    H      -12.17276       -27.34125         2.62842
|112>    H      -11.14036       -24.69521         7.40438
|113>    H      -13.60173       -27.94159         4.58008
|114>    H       -9.71278       -24.09517         5.51136
|115> *
|116>
|117>                          ****END OF INPUT****

CARTESIAN COORDINATES (ANGSTROEM)
---------------------------------
  C     -4.175140    3.504470    1.679080
  C     -4.607530    4.310500    2.694330
  F     -4.408030    5.633130    2.635350
  C     -5.267370    3.763710    3.814010
  F     -5.679190    4.578700    4.793520
  C     -5.486360    2.417580    3.902330
  C     -5.053040    1.560760    2.871800
  C     -4.384970    2.111730    1.739660
  C     -3.939920    1.272340    0.693210
  C     -4.157000   -0.079040    0.774020
  C     -4.827020   -0.616560    1.905790
  C     -5.266970    0.166560    2.934000
  C     -4.948470   -2.078140    1.762220
  O     -5.454820   -2.825030    2.571380
  C     -4.320070   -2.411100    0.459310
  C     -3.822050   -1.175230   -0.131090
  C     -3.153690   -1.025380   -1.318400
  C     -2.805510   -2.046720   -2.228450
  N     -2.478120   -2.806000   -3.026120
  C     -2.698730    0.215410   -1.816890
  N     -2.299380    1.184680   -2.283960
  C     -4.192820   -3.638190   -0.132170
  C     -4.623550   -4.922620    0.258380
  C     -5.347580   -5.395240    1.346720
  C     -5.543230   -6.767860    1.288040
  C     -4.963430   -7.364330    0.145820
  S     -4.186330   -6.232970   -0.851740
  C     -5.215650   -8.759050    0.189490
  C     -5.949910   -9.044010    1.354160
  C     -6.192720   -7.804940    2.076260
  C     -6.902340   -7.653070    3.229360
  C     -7.513010   -8.747140    3.881850
  N     -8.023170   -9.626180    4.411830
  C     -7.110420   -6.403580    3.855270
  N     -7.308780   -5.409550    4.389520
  C     -6.241120  -10.400610    1.489710
  C     -5.745770  -11.143570    0.433950
  S     -4.909820  -10.148480   -0.745910
  C     -5.869380  -12.567700    0.242730
  C     -5.775020  -13.175560   -1.018260
  F     -5.541470  -12.415570   -2.097850
  C     -5.947810  -14.534450   -1.209490
  F     -5.882910  -14.995830   -2.463680
  C     -6.220950  -15.412640   -0.148100
  C     -6.286350  -14.806430    1.116590
  C     -6.114330  -13.448800    1.307680
  F     -6.165820  -12.989300    2.563010
  F     -6.511530  -15.562000    2.201320
  C     -6.443310  -16.824740   -0.336810
  C     -6.095730  -17.605670   -1.424810
  C     -6.512460  -18.928250   -1.272010
  C     -7.190200  -19.145860   -0.059910
  S     -7.289460  -17.746130    0.897210
  C     -7.583640  -20.505980   -0.000700
  C     -7.161970  -21.149880   -1.178720
  C     -6.466340  -20.180030   -2.013080
  C     -5.890730  -20.403970   -3.227770
  C     -5.931940  -21.668640   -3.854490
  N     -5.974430  -22.690140   -4.372360
  C     -5.215500  -19.391190   -3.943400
  N     -4.658810  -18.576850   -4.526730
  C     -7.523750  -22.493450   -1.213060
  C     -8.181520  -22.889810   -0.058590
  S     -8.400100  -21.549420    1.063460
  C     -8.722900  -24.174100    0.191440
  C     -9.109000  -24.726170    1.372060
  C    -10.089450  -25.851000    1.373270
  O    -10.412890  -26.529070    0.428190
  C    -10.617440  -25.893890    2.752590
  C    -11.642280  -26.642060    3.256620
  C    -12.003040  -26.486520    4.613990
  C    -11.293830  -25.553390    5.425750
  C    -11.667780  -25.395210    6.775380
  C    -12.695780  -26.130060    7.295790
  C    -13.395110  -27.054360    6.493040
  C    -13.056450  -27.230490    5.180640
  F    -14.399120  -27.759240    7.029280
  F    -13.050640  -25.977710    8.577280
  C    -10.229370  -24.800560    4.879890
  C     -9.894080  -24.973030    3.563980
  C     -8.844860  -24.367000    2.750550
  C     -7.685820  -23.820120    3.233590
  C     -6.586320  -23.494460    2.412520
  N     -5.667680  -23.253080    1.768140
  C     -7.436290  -23.603540    4.604250
  N     -7.198820  -23.396590    5.707440
  H     -3.671740    3.939370    0.829750
  H     -5.992820    2.014040    4.765060
  H     -3.438620    1.724670   -0.146510
  H     -5.771930   -0.274800    3.779750
  H     -3.671160   -3.650770   -1.081750
  H     -5.698070   -4.746680    2.130140
  H     -6.800310  -10.818840    2.305280
  H     -5.556210  -17.237950   -2.277410
  H     -7.304540  -23.175120   -2.014930
  H     -8.935300  -24.769280   -0.691950
  H    -12.172760  -27.341250    2.628420
  H    -11.140360  -24.695210    7.404380
  H    -13.601730  -27.941590    4.580080
  H     -9.712780  -24.095170    5.511360

 Total Charge           Charge          ....    0
 Multiplicity           Mult            ....    1
 Number of Electrons    NEL             ....  606
 Basis Dimension        Dim             .... 1290

ORBITAL ENERGIES
----------------

  NO   OCC          E(Eh)            E(eV)
   0   2.0000     -89.006479     -2421.9894
   1   2.0000     -89.005403     -2421.9601
   2   2.0000     -89.004987     -2421.9488
   3   2.0000     -89.004338     -2421.9312
   4   2.0000     -24.829074      -675.6335
   5   2.0000     -24.828712      -675.6236
   6   2.0000     -24.824567      -675.5108
   7   2.0000     -24.824389      -675.5060
   8   2.0000     -24.803674      -674.9423
   9   2.0000     -24.803191      -674.9291
  10   2.0000     -24.800947      -674.8681
  11   2.0000     -24.800048      -674.8436
  12   2.0000     -19.226530      -523.1805
  13   2.0000     -19.224453      -523.1240
  14   2.0000     -14.439308      -392.9135
  15   2.0000     -14.439154      -392.9093
  16   2.0000     -14.439085      -392.9075
  17   2.0000     -14.435562      -392.8116
  18   2.0000     -14.425793      -392.5458
  19   2.0000     -14.425539      -392.5389
  20   2.0000     -14.425039      -392.5253
  21   2.0000     -14.420400      -392.3990
  22   2.0000     -10.405446      -283.1466
  23   2.0000     -10.405071      -283.1364
  24   2.0000     -10.404980      -283.1339
  25   2.0000     -10.404504      -283.1209
  26   2.0000     -10.387368      -282.6547
  27   2.0000     -10.387011      -282.6450
  28   2.0000     -10.384504      -282.5767
  29   2.0000     -10.383783      -282.5571
  30   2.0000     -10.377374      -282.3827
  31   2.0000     -10.376689      -282.3641
  32   2.0000     -10.376099      -282.3480
  33   2.0000     -10.375995      -282.3452
  34   2.0000     -10.363501      -282.0052
  35   2.0000     -10.362315      -281.9729
  36   2.0000     -10.354843      -281.7696
  37   2.0000     -10.354602      -281.7631
  38   2.0000     -10.353178      -281.7243
  39   2.0000     -10.352672      -281.7105
  40   2.0000     -10.349783      -281.6319
  41   2.0000     -10.349727      -281.6304
  42   2.0000     -10.349087      -281.6130
  43   2.0000     -10.348785      -281.6047
  44   2.0000     -10.348301      -281.5916
  45   2.0000     -10.347622      -281.5731
  46   2.0000     -10.346414      -281.5402
  47   2.0000     -10.345353      -281.5114
  48   2.0000     -10.339021      -281.3391
  49   2.0000     -10.338866      -281.3349
  50   2.0000     -10.338798      -281.3330
  51   2.0000     -10.338132      -281.3149
  52   2.0000     -10.337667      -281.3022
  53   2.0000     -10.335723      -281.2493
  54   2.0000     -10.334591      -281.2185
  55   2.0000     -10.334408      -281.2135
  56   2.0000     -10.328331      -281.0482
  57   2.0000     -10.327973      -281.0384
  58   2.0000     -10.326641      -281.0022
  59   2.0000     -10.323519      -280.9172
  60   2.0000     -10.322424      -280.8874
  61   2.0000     -10.320210      -280.8272
  62   2.0000     -10.319000      -280.7943
  63   2.0000     -10.317846      -280.7629
  64   2.0000     -10.317689      -280.7586
  65   2.0000     -10.317457      -280.7523
  66   2.0000     -10.317333      -280.7489
  67   2.0000     -10.317298      -280.7479
  68   2.0000     -10.317231      -280.7461
  69   2.0000     -10.316272      -280.7200
  70   2.0000     -10.313913      -280.6558
  71   2.0000     -10.313646      -280.6486
  72   2.0000     -10.313328      -280.6399
  73   2.0000     -10.311711      -280.5959
  74   2.0000     -10.310745      -280.5696
  75   2.0000     -10.310467      -280.5621
  76   2.0000     -10.310250      -280.5562
  77   2.0000     -10.309608      -280.5387
  78   2.0000     -10.307090      -280.4702
  79   2.0000     -10.306550      -280.4555
  80   2.0000     -10.306357      -280.4502
  81   2.0000     -10.305753      -280.4338
  82   2.0000     -10.303867      -280.3825
  83   2.0000     -10.303347      -280.3683
  84   2.0000     -10.302016      -280.3321
  85   2.0000     -10.296797      -280.1901
  86   2.0000      -8.100788      -220.4336
  87   2.0000      -8.099716      -220.4045
  88   2.0000      -8.099174      -220.3897
  89   2.0000      -8.099039      -220.3861
  90   2.0000      -6.070083      -165.1753
  91   2.0000      -6.068986      -165.1455
  92   2.0000      -6.068422      -165.1301
  93   2.0000      -6.068094      -165.1212
  94   2.0000      -6.065687      -165.0557
  95   2.0000      -6.064588      -165.0258
  96   2.0000      -6.064191      -165.0150
  97   2.0000      -6.063995      -165.0097
  98   2.0000      -6.063187      -164.9877
  99   2.0000      -6.062148      -164.9594
 100   2.0000      -6.061642      -164.9457
 101   2.0000      -6.061620      -164.9451
 102   2.0000      -1.352242       -36.7964
 103   2.0000      -1.351289       -36.7704
 104   2.0000      -1.334146       -36.3040
 105   2.0000      -1.333662       -36.2908
 106   2.0000      -1.326738       -36.1024
 107   2.0000      -1.323664       -36.0187
 108   2.0000      -1.311854       -35.6974
 109   2.0000      -1.308736       -35.6125
 110   2.0000      -1.142510       -31.0893
 111   2.0000      -1.140634       -31.0382
 112   2.0000      -1.059925       -28.8420
 113   2.0000      -1.059526       -28.8312
 114   2.0000      -1.032389       -28.0927
 115   2.0000      -1.030960       -28.0539
 116   2.0000      -1.030367       -28.0377
 117   2.0000      -1.027128       -27.9496
 118   2.0000      -1.023947       -27.8630
 119   2.0000      -1.016986       -27.6736
 120   2.0000      -1.015328       -27.6285
 121   2.0000      -1.013647       -27.5827
 122   2.0000      -1.012129       -27.5414
 123   2.0000      -1.009994       -27.4833
 124   2.0000      -1.006010       -27.3749
 125   2.0000      -1.002714       -27.2852
 126   2.0000      -1.001181       -27.2435
 127   2.0000      -0.989797       -26.9337
 128   2.0000      -0.986489       -26.8437
 129   2.0000      -0.974477       -26.5169
 130   2.0000      -0.969995       -26.3949
 131   2.0000      -0.942576       -25.6488
 132   2.0000      -0.940211       -25.5844
 133   2.0000      -0.936395       -25.4806
 134   2.0000      -0.928043       -25.2533
 135   2.0000      -0.917498       -24.9664
 136   2.0000      -0.908710       -24.7273
 137   2.0000      -0.903235       -24.5783
 138   2.0000      -0.899765       -24.4838
 139   2.0000      -0.895986       -24.3810
 140   2.0000      -0.888341       -24.1730
 141   2.0000      -0.886997       -24.1364
 142   2.0000      -0.880202       -23.9515
 143   2.0000      -0.878056       -23.8931
 144   2.0000      -0.871691       -23.7199
 145   2.0000      -0.870168       -23.6785
 146   2.0000      -0.870141       -23.6777
 147   2.0000      -0.847923       -23.0732
 148   2.0000      -0.844419       -22.9778
 149   2.0000      -0.841504       -22.8985
 150   2.0000      -0.825999       -22.4766
 151   2.0000      -0.815781       -22.1985
 152   2.0000      -0.791416       -21.5355
 153   2.0000      -0.790333       -21.5061
 154   2.0000      -0.786773       -21.4092
 155   2.0000      -0.775180       -21.0937
 156   2.0000      -0.773778       -21.0556
 157   2.0000      -0.769899       -20.9500
 158   2.0000      -0.757207       -20.6046
 159   2.0000      -0.749534       -20.3958
 160   2.0000      -0.744001       -20.2453
 161   2.0000      -0.728241       -19.8164
 162   2.0000      -0.726719       -19.7750
 163   2.0000      -0.725125       -19.7317
 164   2.0000      -0.718067       -19.5396
 165   2.0000      -0.716669       -19.5016
 166   2.0000      -0.713991       -19.4287
 167   2.0000      -0.706234       -19.2176
 168   2.0000      -0.701571       -19.0907
 169   2.0000      -0.697699       -18.9853
 170   2.0000      -0.695865       -18.9354
 171   2.0000      -0.692670       -18.8485
 172   2.0000      -0.687414       -18.7055
 173   2.0000      -0.684983       -18.6393
 174   2.0000      -0.675037       -18.3687
 175   2.0000      -0.669920       -18.2295
 176   2.0000      -0.665863       -18.1191
 177   2.0000      -0.662060       -18.0156
 178   2.0000      -0.658353       -17.9147
 179   2.0000      -0.654234       -17.8026
 180   2.0000      -0.649660       -17.6781
 181   2.0000      -0.646210       -17.5843
 182   2.0000      -0.645954       -17.5773
 183   2.0000      -0.644966       -17.5504
 184   2.0000      -0.639139       -17.3918
 185   2.0000      -0.636377       -17.3167
 186   2.0000      -0.630482       -17.1563
 187   2.0000      -0.628814       -17.1109
 188   2.0000      -0.627861       -17.0850
 189   2.0000      -0.624639       -16.9973
 190   2.0000      -0.621991       -16.9252
 191   2.0000      -0.615895       -16.7594
 192   2.0000      -0.608868       -16.5681
 193   2.0000      -0.603082       -16.4107
 194   2.0000      -0.602142       -16.3851
 195   2.0000      -0.600408       -16.3379
 196   2.0000      -0.594257       -16.1706
 197   2.0000      -0.591146       -16.0859
 198   2.0000      -0.589472       -16.0404
 199   2.0000      -0.588091       -16.0028
 200   2.0000      -0.586528       -15.9602
 201   2.0000      -0.582734       -15.8570
 202   2.0000      -0.578781       -15.7494
 203   2.0000      -0.576247       -15.6805
 204   2.0000      -0.573143       -15.5960
 205   2.0000      -0.570852       -15.5337
 206   2.0000      -0.561579       -15.2814
 207   2.0000      -0.560562       -15.2537
 208   2.0000      -0.560182       -15.2433
 209   2.0000      -0.557337       -15.1659
 210   2.0000      -0.555828       -15.1248
 211   2.0000      -0.552665       -15.0388
 212   2.0000      -0.552403       -15.0317
 213   2.0000      -0.550297       -14.9743
 214   2.0000      -0.549620       -14.9559
 215   2.0000      -0.546997       -14.8845
 216   2.0000      -0.545863       -14.8537
 217   2.0000      -0.545052       -14.8316
 218   2.0000      -0.539821       -14.6893
 219   2.0000      -0.536714       -14.6047
 220   2.0000      -0.535825       -14.5805
 221   2.0000      -0.533068       -14.5055
 222   2.0000      -0.532254       -14.4834
 223   2.0000      -0.526548       -14.3281
 224   2.0000      -0.524318       -14.2674
 225   2.0000      -0.521632       -14.1943
 226   2.0000      -0.520552       -14.1649
 227   2.0000      -0.519274       -14.1302
 228   2.0000      -0.518057       -14.0971
 229   2.0000      -0.514596       -14.0029
 230   2.0000      -0.513818       -13.9817
 231   2.0000      -0.511809       -13.9270
 232   2.0000      -0.511507       -13.9188
 233   2.0000      -0.509207       -13.8562
 234   2.0000      -0.507841       -13.8191
 235   2.0000      -0.504938       -13.7401
 236   2.0000      -0.503829       -13.7099
 237   2.0000      -0.502302       -13.6683
 238   2.0000      -0.501124       -13.6363
 239   2.0000      -0.500104       -13.6085
 240   2.0000      -0.497663       -13.5421
 241   2.0000      -0.492238       -13.3945
 242   2.0000      -0.489923       -13.3315
 243   2.0000      -0.488323       -13.2879
 244   2.0000      -0.480329       -13.0704
 245   2.0000      -0.476283       -12.9603
 246   2.0000      -0.473962       -12.8972
 247   2.0000      -0.473403       -12.8820
 248   2.0000      -0.472108       -12.8467
 249   2.0000      -0.469511       -12.7761
 250   2.0000      -0.469131       -12.7657
 251   2.0000      -0.468510       -12.7488
 252   2.0000      -0.466510       -12.6944
 253   2.0000      -0.465571       -12.6688
 254   2.0000      -0.462791       -12.5932
 255   2.0000      -0.460602       -12.5336
 256   2.0000      -0.459320       -12.4987
 257   2.0000      -0.457991       -12.4626
 258   2.0000      -0.456691       -12.4272
 259   2.0000      -0.453942       -12.3524
 260   2.0000      -0.452810       -12.3216
 261   2.0000      -0.451553       -12.2874
 262   2.0000      -0.450895       -12.2695
 263   2.0000      -0.450226       -12.2513
 264   2.0000      -0.449057       -12.2195
 265   2.0000      -0.448953       -12.2166
 266   2.0000      -0.448180       -12.1956
 267   2.0000      -0.447254       -12.1704
 268   2.0000      -0.446531       -12.1507
 269   2.0000      -0.445849       -12.1322
 270   2.0000      -0.438798       -11.9403
 271   2.0000      -0.437734       -11.9113
 272   2.0000      -0.435880       -11.8609
 273   2.0000      -0.435444       -11.8490
 274   2.0000      -0.434782       -11.8310
 275   2.0000      -0.432953       -11.7812
 276   2.0000      -0.431344       -11.7375
 277   2.0000      -0.429107       -11.6766
 278   2.0000      -0.427928       -11.6445
 279   2.0000      -0.417628       -11.3642
 280   2.0000      -0.413316       -11.2469
 281   2.0000      -0.412013       -11.2114
 282   2.0000      -0.408476       -11.1152
 283   2.0000      -0.404155       -10.9976
 284   2.0000      -0.394294       -10.7293
 285   2.0000      -0.391007       -10.6398
 286   2.0000      -0.382658       -10.4126
 287   2.0000      -0.372956       -10.1487
 288   2.0000      -0.362811        -9.8726
 289   2.0000      -0.360974        -9.8226
 290   2.0000      -0.352226        -9.5846
 291   2.0000      -0.347610        -9.4590
 292   2.0000      -0.344230        -9.3670
 293   2.0000      -0.343523        -9.3477
 294   2.0000      -0.335994        -9.1429
 295   2.0000      -0.332728        -9.0540
 296   2.0000      -0.326964        -8.8972
 297   2.0000      -0.323775        -8.8104
 298   2.0000      -0.321452        -8.7471
 299   2.0000      -0.308727        -8.4009
 300   2.0000      -0.304949        -8.2981
 301   2.0000      -0.286568        -7.7979
 302   2.0000      -0.270472        -7.3599
 303   0.0000      -0.125163        -3.4059
 304   0.0000      -0.119307        -3.2465
 305   0.0000      -0.098663        -2.6848
 306   0.0000      -0.098041        -2.6678
 307   0.0000      -0.069733        -1.8975

MULLIKEN ATOMIC CHARGES
-----------------------
   0 C :   -0.111242
   1 C :    0.243709
   2 F :   -0.169873
   3 C :    0.240348
   4 F :   -0.170323
   5 C :   -0.105276
   6 C :    0.120724
   7 C :    0.116804
   8 C :   -0.085834
   9 C :    0.048895
  10 C :   -0.002214
  11 C :   -0.084658
  12 C :    0.159436
  13 O :   -0.142815
  14 C :   -0.089710
  15 C :    0.331644
  16 C :   -0.365611
  17 C :   -0.177894
  18 N :    0.144185
  19 C :   -0.180866
  20 N :    0.150415
  21 C :    0.045111
  22 C :   -0.113267
  23 C :   -0.018794
  24 C :    0.001728
  25 C :   -0.082456
  26 S :    0.212004
  27 C :   -0.103621
  28 C :    0.007356
  29 C :    0.313168
  30 C :   -0.297076
  31 C :   -0.194126
  32 N :    0.182333
  33 C :   -0.192836
  34 N :    0.197243
  35 C :   -0.033831
  36 C :   -0.088039
  37 S :    0.230863
  38 C :   -0.004587
  39 C :    0.161877
  40 F :   -0.166737
  41 C :    0.168858
  42 F :   -0.159172
  43 C :    0.014224
  44 C :    0.153218
  45 C :    0.173306
  46 F :   -0.158459
  47 F :   -0.167662
  48 C :   -0.092554
  49 C :   -0.034941
  50 C :    0.011913
  51 C :   -0.098409
  52 S :    0.224598
  53 C :   -0.081431
  54 C :    0.028366
  55 C :    0.297491
  56 C :   -0.290653
  57 C :   -0.188405
  58 N :    0.179743
  59 C :   -0.189881
  60 N :    0.184410
  61 C :    0.008044
  62 C :   -0.096076
  63 S :    0.208771
  64 C :    0.051248
  65 C :   -0.140204
  66 C :    0.143542
  67 O :   -0.136353
  68 C :    0.014747
  69 C :   -0.082488
  70 C :    0.113933
  71 C :    0.113774
  72 C :   -0.108349
  73 C :    0.242892
  74 C :    0.242613
  75 C :   -0.107180
  76 F :   -0.169934
  77 F :   -0.169348
  78 C :   -0.080499
  79 C :    0.036517
  80 C :    0.242774
  81 C :   -0.317728
  82 C :   -0.208389
  83 N :    0.175401
  84 C :   -0.173445
  85 N :    0.158654
  86 H :    0.008186
  87 H :    0.001600
  88 H :   -0.005510
  89 H :   -0.004785
  90 H :   -0.003036
  91 H :    0.039837
  92 H :    0.020536
  93 H :    0.020711
  94 H :    0.020637
  95 H :    0.035941
  96 H :   -0.005672
  97 H :    0.006931
  98 H :    0.002468
  99 H :   -0.001477
Sum of atomic charges:   -0.0000000

LOEWDIN ATOMIC CHARGES
----------------------
   0 C :   -0.029100
   1 C :    0.067247
   2 F :   -0.047726
   3 C :    0.068510
   4 F :   -0.047945
   5 C :   -0.032294
   6 C :   -0.007897
   7 C :   -0.006155
   8 C :    0.018558
   9 C :   -0.024426
  10 C :   -0.052922
  11 C :    0.032483
  12 C :    0.087488
  13 O :   -0.133115
  14 C :   -0.095018
  15 C :    0.077423
  16 C :   -0.140834
  17 C :   -0.022826
  18 N :   -0.051681
  19 C :   -0.016972
  20 N :   -0.051980
  21 C :    0.042943
  22 C :   -0.174382
  23 C :    0.016227
  24 C :   -0.071634
  25 C :   -0.160704
  26 S :    0.503428
  27 C :   -0.188057
  28 C :   -0.058240
  29 C :    0.073729
  30 C :   -0.090892
  31 C :   -0.017062
  32 N :   -0.025950
  33 C :   -0.023739
  34 N :   -0.011801
  35 C :   -0.018036
  36 C :   -0.163377
  37 S :    0.506817
  38 C :   -0.080059
  39 C :    0.056278
  40 F :   -0.044942
  41 C :    0.065612
  42 F :   -0.032581
  43 C :   -0.077750
  44 C :    0.054419
  45 C :    0.066110
  46 F :   -0.032128
  47 F :   -0.044585
  48 C :   -0.164646
  49 C :   -0.016441
  50 C :   -0.060578
  51 C :   -0.184912
  52 S :    0.508186
  53 C :   -0.154751
  54 C :   -0.068083
  55 C :    0.078421
  56 C :   -0.093796
  57 C :   -0.017070
  58 N :   -0.024658
  59 C :   -0.018404
  60 N :   -0.023778
  61 C :    0.014597
  62 C :   -0.176288
  63 S :    0.512943
  64 C :    0.052491
  65 C :   -0.098370
  66 C :    0.083875
  67 O :   -0.137211
  68 C :   -0.054324
  69 C :    0.032172
  70 C :   -0.008749
  71 C :   -0.005285
  72 C :   -0.030213
  73 C :    0.068131
  74 C :    0.068157
  75 C :   -0.032270
  76 F :   -0.047502
  77 F :   -0.046908
  78 C :    0.014739
  79 C :   -0.021019
  80 C :    0.058999
  81 C :   -0.141660
  82 C :   -0.036665
  83 N :   -0.044850
  84 C :   -0.020575
  85 N :   -0.046640
  86 H :    0.048032
  87 H :    0.045804
  88 H :    0.040134
  89 H :    0.042329
  90 H :    0.041948
  91 H :    0.043007
  92 H :    0.040745
  93 H :    0.041109
  94 H :    0.048103
  95 H :    0.056146
  96 H :    0.041809
  97 H :    0.047602
  98 H :    0.045691
  99 H :    0.040014

  Mayer bond orders larger than 0.100000
B(  0-C ,  1-C ) :   1.4418 B(  0-C ,  5-C ) :   0.1088 B(  0-C ,  7-C ) :   1.1863
B(  0-C , 86-H ) :   1.0068 B(  1-C ,  2-F ) :   1.1365 B(  1-C ,  3-C ) :   1.1902
B(  3-C ,  4-F ) :   1.1350 B(  3-C ,  5-C ) :   1.4422 B(  5-C ,  6-C ) :   1.1919
B(  5-C , 87-H ) :   1.0073 B(  6-C ,  7-C ) :   1.2550 B(  6-C , 11-C ) :   1.1846
B(  7-C ,  8-C ) :   1.2207 B(  8-C ,  9-C ) :   1.4441 B(  8-C , 88-H ) :   0.9885
B(  9-C , 10-C ) :   1.2235 B(  9-C , 15-C ) :   0.9790 B( 10-C , 11-C ) :   1.4688
B( 10-C , 12-C ) :   0.9527 B( 11-C , 89-H ) :   1.0178 B( 12-C , 13-O ) :   2.1676
B( 12-C , 14-C ) :   0.9328 B( 13-O , 91-H ) :   0.1028 B( 14-C , 15-C ) :   1.0840
B( 14-C , 21-C ) :   1.5994 B( 15-C , 16-C ) :   1.6168 B( 16-C , 17-C ) :   1.1410
B( 16-C , 19-C ) :   1.1501 B( 17-C , 18-N ) :   2.9479 B( 19-C , 20-N ) :   2.9591
B( 21-C , 22-C ) :   1.2205 B( 21-C , 90-H ) :   0.8991 B( 22-C , 23-C ) :   1.3987
B( 22-C , 26-S ) :   1.0804 B( 23-C , 24-C ) :   1.3040 B( 23-C , 91-H ) :   0.9690
B( 24-C , 25-C ) :   1.3862 B( 24-C , 29-C ) :   0.9948 B( 25-C , 26-S ) :   1.1692
B( 25-C , 27-C ) :   1.1943 B( 27-C , 28-C ) :   1.4316 B( 27-C , 37-S ) :   1.1206
B( 28-C , 29-C ) :   0.9957 B( 28-C , 35-C ) :   1.2952 B( 29-C , 30-C ) :   1.7172
B( 30-C , 31-C ) :   1.1349 B( 30-C , 33-C ) :   1.1383 B( 31-C , 32-N ) :   2.9908
B( 33-C , 34-N ) :   2.9966 B( 35-C , 36-C ) :   1.4725 B( 35-C , 92-H ) :   0.9916
B( 36-C , 37-S ) :   1.1184 B( 36-C , 38-C ) :   1.0727 B( 38-C , 39-C ) :   1.2870
B( 38-C , 43-C ) :   0.1200 B( 38-C , 45-C ) :   1.2921 B( 39-C , 40-F ) :   1.1494
B( 39-C , 41-C ) :   1.3230 B( 41-C , 42-F ) :   1.1530 B( 41-C , 43-C ) :   1.2900
B( 43-C , 44-C ) :   1.2786 B( 43-C , 48-C ) :   1.0854 B( 44-C , 45-C ) :   1.3216
B( 44-C , 47-F ) :   1.1431 B( 45-C , 46-F ) :   1.1568 B( 48-C , 49-C ) :   1.4721
B( 48-C , 52-S ) :   1.1145 B( 49-C , 50-C ) :   1.2917 B( 49-C , 93-H ) :   0.9935
B( 50-C , 51-C ) :   1.4296 B( 50-C , 55-C ) :   0.9972 B( 51-C , 52-S ) :   1.1237
B( 51-C , 53-C ) :   1.1986 B( 53-C , 54-C ) :   1.4119 B( 53-C , 63-S ) :   1.1581
B( 54-C , 55-C ) :   0.9897 B( 54-C , 61-C ) :   1.3014 B( 55-C , 56-C ) :   1.7226
B( 56-C , 57-C ) :   1.1326 B( 56-C , 59-C ) :   1.1331 B( 57-C , 58-N ) :   2.9926
B( 59-C , 60-N ) :   2.9943 B( 61-C , 62-C ) :   1.4055 B( 61-C , 94-H ) :   1.0006
B( 62-C , 63-S ) :   1.0900 B( 62-C , 64-C ) :   1.1364 B( 64-C , 65-C ) :   1.6458
B( 64-C , 95-H ) :   0.9476 B( 65-C , 66-C ) :   0.9370 B( 65-C , 80-C ) :   1.0328
B( 66-C , 67-O ) :   2.2776 B( 66-C , 68-C ) :   0.9169 B( 68-C , 69-C ) :   1.4739
B( 68-C , 79-C ) :   1.2219 B( 69-C , 70-C ) :   1.1944 B( 69-C , 96-H ) :   1.0170
B( 70-C , 71-C ) :   1.2564 B( 70-C , 75-C ) :   1.1932 B( 71-C , 72-C ) :   1.1878
B( 71-C , 78-C ) :   1.2160 B( 72-C , 73-C ) :   1.4423 B( 72-C , 75-C ) :   0.1087
B( 72-C , 97-H ) :   1.0074 B( 73-C , 74-C ) :   1.1902 B( 73-C , 77-F ) :   1.1360
B( 74-C , 75-C ) :   1.4423 B( 74-C , 76-F ) :   1.1355 B( 75-C , 98-H ) :   1.0078
B( 78-C , 79-C ) :   1.4553 B( 78-C , 99-H ) :   0.9954 B( 79-C , 80-C ) :   1.0020
B( 80-C , 81-C ) :   1.6610 B( 81-C , 82-C ) :   1.1517 B( 81-C , 84-C ) :   1.1328
B( 82-C , 83-N ) :   3.0213 B( 84-C , 85-N ) :   2.9923

-----------------------------------------------------------------------------
         ABSORPTION SPECTRUM VIA TRANSITION ELECTRIC DIPOLE MOMENTS
-----------------------------------------------------------------------------
State   Energy  Wavelength   fosc         T2         TX        TY        TZ
        (cm-1)    (nm)                  (au**2)     (au)      (au)      (au)
-----------------------------------------------------------------------------
   0   14833.4    674.2   0.631750477  14.02108   0.81225   3.60721  -0.59107
   1   15744.7    635.1   0.151785910   3.17374  -0.26552  -1.75301  -0.17379
   2   20885.4    478.8   1.364853159  21.51391  -1.05318  -4.24785   1.53639
   3   22116.3    452.2   0.774849378  11.53401   0.64257   3.28711   0.56214
   4   24074.6    415.4   0.004310915   0.05895  -0.20654  -0.02429   0.12530
   5   24920.4    401.3   0.048823656   0.64499   0.10495   0.32694   0.72600
   6   25951.1    385.3   0.102351422   1.29841  -0.77402   0.08985   0.83141
   7   26274.7    380.6   0.039415315   0.49386  -0.04546   0.69104   0.11939
   8   27798.4    359.7   0.026107924   0.30919  -0.09689   0.54753  -0.00367
   9   28060.5    356.4   0.000299231   0.00351   0.02662   0.05250  -0.00680
  10   28310.5    353.2   0.143649931   1.67045   0.39486   1.22029   0.15948
  11   28971.2    345.2   0.516653454   5.87095   0.54490   2.27766   0.62154
  12   29252.1    341.9   0.093219661   1.04912  -0.56538  -0.80855   0.27516
  13   29415.8    340.0   0.103071107   1.15354   0.08949   0.89254   0.59067
  14   29532.4    338.6   0.110616805   1.23310  -0.02156  -0.97636  -0.52853
  15   29962.8    333.7   0.202184762   2.22147  -0.87773   0.19221   1.18917
  16   30334.5    329.7   0.297411176   3.22772   0.67638  -0.56786  -1.56454
  17   31091.2    321.6   0.831519709   8.80463   1.56071  -0.76757  -2.40409
  18   31342.8    319.1   0.087245603   0.91639  -0.29499   0.45766   0.78735
  19   31459.3    317.9   0.121143965   1.26773  -0.17183  -1.03171   0.41688
  20   31564.1    316.8   0.079255801   0.82663   0.44825   0.78280   0.11370
  21   32071.4    311.8   0.140578289   1.44303   0.80336   0.74569  -0.49152
  22   32171.8    310.8   0.028072215   0.28726  -0.24893  -0.20513  -0.42804
  23   32538.8    307.3   0.364253999   3.68534   0.57182   1.75981  -0.51132
  24   32952.2    303.5   0.045696015   0.45653   0.17175  -0.58508  -0.29105
  25   33198.7    301.2   0.166291012   1.64901  -0.09082   1.13201   0.59942
  26   33331.5    300.0   0.192634466   1.90263   1.04323   0.04682  -0.90117
  27   33429.6    299.1   0.143872462   1.41684  -0.54390  -1.05796   0.04173
  28   33847.2    295.4   0.001475932   0.01436  -0.01447   0.10204   0.06110
  29   33869.5    295.3   0.001455734   0.01415  -0.03398  -0.11236  -0.01927
  30   34403.1    290.7   0.011663490   0.11161   0.31114  -0.02608  -0.11883
  31   34411.8    290.6   0.036325985   0.34752  -0.58067  -0.10053  -0.01552
  32   34531.6    289.6   0.067962095   0.64793   0.10644  -0.59006  -0.53705
  33   34677.9    288.4   0.028444928   0.27004  -0.14729   0.15688   0.47301
  34   34889.5    286.6   0.096565057   0.91117  -0.46275  -0.50690   0.66339
  35   35116.7    284.8   0.722469242   6.77301   1.06411  -0.94861  -2.17734
  36   35243.7    283.7   0.306772052   2.86557  -0.94978  -0.61138   1.26083
  37   35656.3    280.5   0.088067031   0.81312   0.55413   0.65373   0.28051
  38   36053.2    277.4   0.290269488   2.65053   1.37083   0.45660  -0.75024
  39   36516.9    273.8   0.015666880   0.14124   0.30267   0.14443  -0.16961
  40   36642.4    272.9   0.004119551   0.03701  -0.08839  -0.06350  -0.15864
  41   37157.9    269.1   0.075525212   0.66914  -0.70123  -0.34996   0.23438
  42   37775.5    264.7   0.012070860   0.10520  -0.07358  -0.05392  -0.31125
  43   37974.1    263.3   0.075666261   0.65598   0.53688   0.30783  -0.52248
  44   38214.5    261.7   0.028222155   0.24313  -0.23850  -0.37632  -0.21127
  45   38383.9    260.5   0.009937149   0.08523   0.15799  -0.24370  -0.02968
  46   38440.7    260.1   0.086344574   0.73947   0.44879   0.11666  -0.72419
  47   38520.7    259.6   0.017128052   0.14638  -0.17050  -0.18645   0.28731
  48   38817.2    257.6   0.005959321   0.05054  -0.01448  -0.01312   0.22396
  49   39216.0    255.0   0.077177495   0.64789  -0.32585  -0.59618   0.43160
  50   39239.7    254.8   0.053817114   0.45151   0.26111   0.12824  -0.60571
  51   39319.0    254.3   0.041285862   0.34568   0.00042  -0.27033   0.52211
  52   39563.4    252.8   0.125428473   1.04370   0.37205   0.92129  -0.23772
  53   39662.7    252.1   0.003115602   0.02586   0.06775   0.08302  -0.11991
  54   39886.1    250.7   0.153098068   1.26364  -0.20781  -0.45324   1.00749
  55   40095.5    249.4   0.156094961   1.28165   0.14889   0.87753   0.69959

FINAL SINGLE POINT ENERGY     -5421.854626778400

DIPOLE MOMENT
-------------
                                X             Y             Z
Electronic contribution:     -0.63747       1.68985       3.71821
Nuclear contribution   :     -1.27669      -2.16696      -3.02278
                        -----------------------------------------
Total Dipole Moment    :     -1.91416      -0.47711       0.69543
                        -----------------------------------------
Magnitude (a.u.)       :      2.09172
Magnitude (Debye)      :      5.31672

Rotational constants in cm-1:     0.001364     0.000131     0.000121
Rotational constants in MHz :    40.900147     3.930314     3.623058

                             ****ORCA TERMINATED NORMALLY****
TOTAL RUN TIME: 0 days 0 hours 11 minutes 5 seconds 367 msec
