                         Program Version 4.2.0 -  RELEASE  -
|  1> # ORCA input file
|  2> # SCF done       -176.339013571719          0.000636009724
|  3> ! CAM-B3LYP def2-SVP def2/J RIJCOSX Grid4 TightSCF
|  4> %maxcore 5000
|  5> %tddft
|  6>     Mode sTDDFT
|  7>     Ethresh 5.0
|  8>     maxcore 5000
|  9> end
| 10>
| 11> %pal
| 12>   nprocs 6
| 13>   end
| 14> * xyz 0 1
| 15>    C        3.81791         0.11363        -6.10653
| 16>    N        3.66814        -1.14552        -6.37352
| 17>    C        4.69442        -1.78230        -5.72767
| 18>    C        5.52656        -0.81627        -4.99897
| 19>    C        6.65195        -1.49571        -4.33403
| 20>    O        7.55071        -1.01408        -3.68615
| 21>    C        6.41710        -2.91423        -4.68624
| 22>    C        5.20899        -3.03361        -5.54443
| 23>    N        4.99295        -4.33306        -5.88126
| 24>    C        5.95482        -5.00086        -5.30605
| 25>    C        6.88432        -4.17487        -4.54328
| 26>    C        4.96673         0.41767        -5.23694
| 27>    C        5.35969         1.69893        -4.77036
| 28>    C        6.33452         1.96054        -3.82791
| 29>    C        6.46903         3.36698        -3.69124
| 30>    C        5.46909         3.97538        -4.59330
| 31>    C        4.80028         2.96768        -5.21462
| 32>    C        5.16206         5.33741        -4.65812
| 33>    N        4.87011         6.44980        -4.67342
| 34>    C        7.34328         4.07609        -2.89558
| 35>    C        7.62435         5.45968        -2.99497
| 36>    C        8.44025         5.83870        -1.94428
| 37>    C        8.71479         4.65058        -1.14777
| 38>    C        8.09830         3.58685        -1.72944
| 39>    C        8.09304         2.27930        -1.22538
| 40>    N        8.09277         1.22819        -0.76515
| 41>    C        8.81958         7.18929        -1.75086
| 42>    N        9.20781         7.78811        -0.58310
| 43>    C        9.40968         7.15877         0.69371
| 44>    C        9.29244         9.19575        -0.71275
| 45>    O        9.57560         9.93301         0.20196
| 46>    C        8.99302         9.43552        -2.10925
| 47>    C        8.72555         8.19548        -2.72304
| 48>    C        8.46247         8.44173        -4.12700
| 49>    O        8.24171         7.71023        -5.06654
| 50>    N        8.53101         9.84644        -4.24860
| 51>    C        8.47018        10.47852        -5.53684
| 52>    C        8.76173        10.44743        -3.04356
| 53>    C        8.69104        11.83987        -2.77331
| 54>    C        7.80999        12.73789        -3.28197
| 55>    C        6.59655        12.51377        -4.00281
| 56>    C        6.03750        13.60849        -4.71740
| 57>    C        4.82161        13.49850        -5.47477
| 58>    N        4.27132        14.59729        -5.99889
| 59>    C        4.92472        15.72679        -5.97247
| 60>    C        6.23428        15.79287        -5.38380
| 61>    N        6.71579        14.76688        -4.73000
| 62>    C        6.98792        16.99232        -5.43926
| 63>    N        7.57915        17.97071        -5.50455
| 64>    C        4.31552        16.91181        -6.45893
| 65>    N        3.87642        17.89987        -6.83481
| 66>    C        4.15942        12.25293        -5.63024
| 67>    C        4.64710        11.19109        -4.84369
| 68>    C        5.83682        11.32174        -4.02615
| 69>    N        6.08292        10.18976        -3.35642
| 70>    S        4.98713         9.08321        -3.73977
| 71>    N        4.12527         9.96585        -4.75206
| 72>    C        3.07882        12.13090        -6.54768
| 73>    N        2.87451        13.04497        -7.49462
| 74>    C        1.77475        12.65012        -8.15089
| 75>    C        1.25334        11.37571        -7.58830
| 76>    C        0.03640        10.94985        -8.31631
| 77>    O       -0.64951         9.97340        -8.13102
| 78>    C       -0.12428        12.02135        -9.31697
| 79>    C        0.95461        13.03029        -9.18190
| 80>    N        0.79885        14.01879       -10.09572
| 81>    C       -0.27852        13.69882       -10.76790
| 82>    C       -0.90842        12.46688       -10.33049
| 83>    C        2.08636        11.05150        -6.57690
| 84>    H        3.12644         0.83759        -6.50146
| 85>    H        6.01643        -6.07001        -5.41435
| 86>    H        7.73675        -4.53596        -4.00288
| 87>    H        6.93667         1.22753        -3.32470
| 88>    H        3.99275         3.07849        -5.91403
| 89>    H        7.27655         6.10054        -3.77835
| 90>    H        9.32981         4.60701        -0.26983
| 91>    H        8.54285         6.55925         0.97566
| 92>    H        9.54792         7.95997         1.42079
| 93>    H       10.30503         6.53445         0.68574
| 94>    H        7.44513        10.72494        -5.82500
| 95>    H        8.86580         9.77371        -6.26961
| 96>    H        9.06592        11.39003        -5.53358
| 97>    H        9.39672        12.18648        -2.02846
| 98>    H        7.99211        13.78548        -3.07561
| 99>    H       -0.62475        14.32795       -11.56969
|100>    H       -1.79783        12.03893       -10.74868
|101>    H        2.08107        10.21518        -5.90797
|102> *
|103>
|104>                          ****END OF INPUT****

CARTESIAN COORDINATES (ANGSTROEM)
---------------------------------
  C      3.817910    0.113630   -6.106530
  N      3.668140   -1.145520   -6.373520
  C      4.694420   -1.782300   -5.727670
  C      5.526560   -0.816270   -4.998970
  C      6.651950   -1.495710   -4.334030
  O      7.550710   -1.014080   -3.686150
  C      6.417100   -2.914230   -4.686240
  C      5.208990   -3.033610   -5.544430
  N      4.992950   -4.333060   -5.881260
  C      5.954820   -5.000860   -5.306050
  C      6.884320   -4.174870   -4.543280
  C      4.966730    0.417670   -5.236940
  C      5.359690    1.698930   -4.770360
  C      6.334520    1.960540   -3.827910
  C      6.469030    3.366980   -3.691240
  C      5.469090    3.975380   -4.593300
  C      4.800280    2.967680   -5.214620
  C      5.162060    5.337410   -4.658120
  N      4.870110    6.449800   -4.673420
  C      7.343280    4.076090   -2.895580
  C      7.624350    5.459680   -2.994970
  C      8.440250    5.838700   -1.944280
  C      8.714790    4.650580   -1.147770
  C      8.098300    3.586850   -1.729440
  C      8.093040    2.279300   -1.225380
  N      8.092770    1.228190   -0.765150
  C      8.819580    7.189290   -1.750860
  N      9.207810    7.788110   -0.583100
  C      9.409680    7.158770    0.693710
  C      9.292440    9.195750   -0.712750
  O      9.575600    9.933010    0.201960
  C      8.993020    9.435520   -2.109250
  C      8.725550    8.195480   -2.723040
  C      8.462470    8.441730   -4.127000
  O      8.241710    7.710230   -5.066540
  N      8.531010    9.846440   -4.248600
  C      8.470180   10.478520   -5.536840
  C      8.761730   10.447430   -3.043560
  C      8.691040   11.839870   -2.773310
  C      7.809990   12.737890   -3.281970
  C      6.596550   12.513770   -4.002810
  C      6.037500   13.608490   -4.717400
  C      4.821610   13.498500   -5.474770
  N      4.271320   14.597290   -5.998890
  C      4.924720   15.726790   -5.972470
  C      6.234280   15.792870   -5.383800
  N      6.715790   14.766880   -4.730000
  C      6.987920   16.992320   -5.439260
  N      7.579150   17.970710   -5.504550
  C      4.315520   16.911810   -6.458930
  N      3.876420   17.899870   -6.834810
  C      4.159420   12.252930   -5.630240
  C      4.647100   11.191090   -4.843690
  C      5.836820   11.321740   -4.026150
  N      6.082920   10.189760   -3.356420
  S      4.987130    9.083210   -3.739770
  N      4.125270    9.965850   -4.752060
  C      3.078820   12.130900   -6.547680
  N      2.874510   13.044970   -7.494620
  C      1.774750   12.650120   -8.150890
  C      1.253340   11.375710   -7.588300
  C      0.036400   10.949850   -8.316310
  O     -0.649510    9.973400   -8.131020
  C     -0.124280   12.021350   -9.316970
  C      0.954610   13.030290   -9.181900
  N      0.798850   14.018790  -10.095720
  C     -0.278520   13.698820  -10.767900
  C     -0.908420   12.466880  -10.330490
  C      2.086360   11.051500   -6.576900
  H      3.126440    0.837590   -6.501460
  H      6.016430   -6.070010   -5.414350
  H      7.736750   -4.535960   -4.002880
  H      6.936670    1.227530   -3.324700
  H      3.992750    3.078490   -5.914030
  H      7.276550    6.100540   -3.778350
  H      9.329810    4.607010   -0.269830
  H      8.542850    6.559250    0.975660
  H      9.547920    7.959970    1.420790
  H     10.305030    6.534450    0.685740
  H      7.445130   10.724940   -5.825000
  H      8.865800    9.773710   -6.269610
  H      9.065920   11.390030   -5.533580
  H      9.396720   12.186480   -2.028460
  H      7.992110   13.785480   -3.075610
  H     -0.624750   14.327950  -11.569690
  H     -1.797830   12.038930  -10.748680
  H      2.081070   10.215180   -5.907970

 Total Charge           Charge          ....    0
 Multiplicity           Mult            ....    1
 Number of Electrons    NEL             ....  464
 Basis Dimension        Dim             .... 1060

ORBITAL ENERGIES
----------------

  NO   OCC          E(Eh)            E(eV)
   0   2.0000     -89.052773     -2423.2492
   1   2.0000     -19.228911      -523.2453
   2   2.0000     -19.213592      -522.8284
   3   2.0000     -19.206967      -522.6481
   4   2.0000     -19.205214      -522.6005
   5   2.0000     -14.475389      -393.8954
   6   2.0000     -14.473002      -393.8304
   7   2.0000     -14.469179      -393.7264
   8   2.0000     -14.459614      -393.4661
   9   2.0000     -14.458580      -393.4380
  10   2.0000     -14.455262      -393.3477
  11   2.0000     -14.433393      -392.7526
  12   2.0000     -14.431064      -392.6892
  13   2.0000     -14.428547      -392.6207
  14   2.0000     -14.428138      -392.6096
  15   2.0000     -14.425137      -392.5279
  16   2.0000     -14.416176      -392.2841
  17   2.0000     -14.407079      -392.0366
  18   2.0000     -14.404082      -391.9550
  19   2.0000     -10.394365      -282.8450
  20   2.0000     -10.391717      -282.7730
  21   2.0000     -10.388477      -282.6848
  22   2.0000     -10.387558      -282.6598
  23   2.0000     -10.384679      -282.5815
  24   2.0000     -10.366999      -282.1004
  25   2.0000     -10.363677      -282.0100
  26   2.0000     -10.359619      -281.8996
  27   2.0000     -10.358660      -281.8735
  28   2.0000     -10.357949      -281.8541
  29   2.0000     -10.354735      -281.7667
  30   2.0000     -10.353370      -281.7295
  31   2.0000     -10.351770      -281.6860
  32   2.0000     -10.349259      -281.6176
  33   2.0000     -10.347585      -281.5721
  34   2.0000     -10.346913      -281.5538
  35   2.0000     -10.343369      -281.4574
  36   2.0000     -10.338330      -281.3203
  37   2.0000     -10.337063      -281.2858
  38   2.0000     -10.336620      -281.2737
  39   2.0000     -10.333133      -281.1788
  40   2.0000     -10.330921      -281.1187
  41   2.0000     -10.330856      -281.1169
  42   2.0000     -10.327771      -281.0329
  43   2.0000     -10.327697      -281.0309
  44   2.0000     -10.326391      -280.9954
  45   2.0000     -10.325977      -280.9841
  46   2.0000     -10.325646      -280.9751
  47   2.0000     -10.325512      -280.9715
  48   2.0000     -10.323811      -280.9252
  49   2.0000     -10.323477      -280.9161
  50   2.0000     -10.323340      -280.9124
  51   2.0000     -10.322673      -280.8942
  52   2.0000     -10.321245      -280.8554
  53   2.0000     -10.320690      -280.8403
  54   2.0000     -10.319883      -280.8183
  55   2.0000     -10.316597      -280.7289
  56   2.0000     -10.316220      -280.7186
  57   2.0000     -10.313637      -280.6483
  58   2.0000     -10.310025      -280.5500
  59   2.0000     -10.309865      -280.5457
  60   2.0000     -10.307958      -280.4938
  61   2.0000     -10.299770      -280.2710
  62   2.0000     -10.298178      -280.2277
  63   2.0000     -10.289393      -279.9886
  64   2.0000     -10.288714      -279.9701
  65   2.0000     -10.288173      -279.9554
  66   2.0000     -10.287424      -279.9351
  67   2.0000     -10.285503      -279.8828
  68   2.0000     -10.282666      -279.8056
  69   2.0000      -8.142247      -221.5618
  70   2.0000      -6.113140      -166.3470
  71   2.0000      -6.105801      -166.1473
  72   2.0000      -6.105011      -166.1258
  73   2.0000      -1.154851       -31.4251
  74   2.0000      -1.148487       -31.2519
  75   2.0000      -1.146128       -31.1877
  76   2.0000      -1.144083       -31.1321
  77   2.0000      -1.127797       -30.6889
  78   2.0000      -1.121152       -30.5081
  79   2.0000      -1.096125       -29.8271
  80   2.0000      -1.084345       -29.5065
  81   2.0000      -1.078474       -29.3468
  82   2.0000      -1.077121       -29.3100
  83   2.0000      -1.075506       -29.2660
  84   2.0000      -1.059944       -28.8426
  85   2.0000      -1.050147       -28.5760
  86   2.0000      -1.031329       -28.0639
  87   2.0000      -1.016686       -27.6654
  88   2.0000      -1.014932       -27.6177
  89   2.0000      -1.005178       -27.3523
  90   2.0000      -1.001229       -27.2448
  91   2.0000      -1.000901       -27.2359
  92   2.0000      -0.992376       -27.0039
  93   2.0000      -0.986711       -26.8498
  94   2.0000      -0.953258       -25.9395
  95   2.0000      -0.941257       -25.6129
  96   2.0000      -0.935662       -25.4607
  97   2.0000      -0.924768       -25.1642
  98   2.0000      -0.915274       -24.9059
  99   2.0000      -0.913936       -24.8695
 100   2.0000      -0.896388       -24.3920
 101   2.0000      -0.887215       -24.1423
 102   2.0000      -0.879344       -23.9282
 103   2.0000      -0.871939       -23.7267
 104   2.0000      -0.862511       -23.4701
 105   2.0000      -0.860615       -23.4185
 106   2.0000      -0.856518       -23.3070
 107   2.0000      -0.852343       -23.1934
 108   2.0000      -0.842644       -22.9295
 109   2.0000      -0.824820       -22.4445
 110   2.0000      -0.813350       -22.1324
 111   2.0000      -0.809100       -22.0167
 112   2.0000      -0.795700       -21.6521
 113   2.0000      -0.784018       -21.3342
 114   2.0000      -0.782365       -21.2892
 115   2.0000      -0.774829       -21.0842
 116   2.0000      -0.770027       -20.9535
 117   2.0000      -0.754632       -20.5346
 118   2.0000      -0.746091       -20.3022
 119   2.0000      -0.735911       -20.0251
 120   2.0000      -0.733093       -19.9485
 121   2.0000      -0.720347       -19.6016
 122   2.0000      -0.716176       -19.4881
 123   2.0000      -0.713385       -19.4122
 124   2.0000      -0.704254       -19.1637
 125   2.0000      -0.696713       -18.9585
 126   2.0000      -0.694835       -18.9074
 127   2.0000      -0.690660       -18.7938
 128   2.0000      -0.683493       -18.5988
 129   2.0000      -0.679292       -18.4845
 130   2.0000      -0.666369       -18.1328
 131   2.0000      -0.665103       -18.0984
 132   2.0000      -0.654716       -17.8157
 133   2.0000      -0.653323       -17.7778
 134   2.0000      -0.643928       -17.5222
 135   2.0000      -0.642027       -17.4705
 136   2.0000      -0.636810       -17.3285
 137   2.0000      -0.630157       -17.1474
 138   2.0000      -0.617667       -16.8076
 139   2.0000      -0.610560       -16.6142
 140   2.0000      -0.606890       -16.5143
 141   2.0000      -0.601641       -16.3715
 142   2.0000      -0.600276       -16.3343
 143   2.0000      -0.596397       -16.2288
 144   2.0000      -0.591654       -16.0997
 145   2.0000      -0.586059       -15.9475
 146   2.0000      -0.582735       -15.8570
 147   2.0000      -0.580108       -15.7856
 148   2.0000      -0.577226       -15.7071
 149   2.0000      -0.574744       -15.6396
 150   2.0000      -0.572117       -15.5681
 151   2.0000      -0.569936       -15.5087
 152   2.0000      -0.564934       -15.3726
 153   2.0000      -0.562197       -15.2982
 154   2.0000      -0.554875       -15.0989
 155   2.0000      -0.550558       -14.9814
 156   2.0000      -0.548499       -14.9254
 157   2.0000      -0.546324       -14.8662
 158   2.0000      -0.540650       -14.7118
 159   2.0000      -0.535766       -14.5789
 160   2.0000      -0.535397       -14.5689
 161   2.0000      -0.534013       -14.5312
 162   2.0000      -0.530871       -14.4457
 163   2.0000      -0.529711       -14.4142
 164   2.0000      -0.527809       -14.3624
 165   2.0000      -0.525073       -14.2880
 166   2.0000      -0.519158       -14.1270
 167   2.0000      -0.517767       -14.0892
 168   2.0000      -0.515565       -14.0292
 169   2.0000      -0.513938       -13.9850
 170   2.0000      -0.509703       -13.8697
 171   2.0000      -0.507361       -13.8060
 172   2.0000      -0.504417       -13.7259
 173   2.0000      -0.503940       -13.7129
 174   2.0000      -0.500574       -13.6213
 175   2.0000      -0.499489       -13.5918
 176   2.0000      -0.495146       -13.4736
 177   2.0000      -0.492503       -13.4017
 178   2.0000      -0.491271       -13.3682
 179   2.0000      -0.490158       -13.3379
 180   2.0000      -0.490087       -13.3359
 181   2.0000      -0.486165       -13.2292
 182   2.0000      -0.485047       -13.1988
 183   2.0000      -0.483253       -13.1500
 184   2.0000      -0.481277       -13.0962
 185   2.0000      -0.477603       -12.9962
 186   2.0000      -0.474144       -12.9021
 187   2.0000      -0.471623       -12.8335
 188   2.0000      -0.469479       -12.7752
 189   2.0000      -0.467908       -12.7324
 190   2.0000      -0.461029       -12.5452
 191   2.0000      -0.458169       -12.4674
 192   2.0000      -0.453102       -12.3295
 193   2.0000      -0.451619       -12.2892
 194   2.0000      -0.450393       -12.2558
 195   2.0000      -0.447789       -12.1850
 196   2.0000      -0.447139       -12.1673
 197   2.0000      -0.444834       -12.1045
 198   2.0000      -0.443435       -12.0665
 199   2.0000      -0.439226       -11.9520
 200   2.0000      -0.438661       -11.9366
 201   2.0000      -0.430523       -11.7151
 202   2.0000      -0.423827       -11.5329
 203   2.0000      -0.421111       -11.4590
 204   2.0000      -0.419613       -11.4183
 205   2.0000      -0.416128       -11.3234
 206   2.0000      -0.412250       -11.2179
 207   2.0000      -0.409524       -11.1437
 208   2.0000      -0.383488       -10.4352
 209   2.0000      -0.381486       -10.3808
 210   2.0000      -0.379358       -10.3229
 211   2.0000      -0.374103       -10.1799
 212   2.0000      -0.372027       -10.1234
 213   2.0000      -0.371036       -10.0964
 214   2.0000      -0.367648       -10.0042
 215   2.0000      -0.357727        -9.7342
 216   2.0000      -0.352780        -9.5996
 217   2.0000      -0.352093        -9.5810
 218   2.0000      -0.351884        -9.5753
 219   2.0000      -0.351386        -9.5617
 220   2.0000      -0.347001        -9.4424
 221   2.0000      -0.345463        -9.4005
 222   2.0000      -0.344152        -9.3648
 223   2.0000      -0.340923        -9.2770
 224   2.0000      -0.334666        -9.1067
 225   2.0000      -0.333981        -9.0881
 226   2.0000      -0.328612        -8.9420
 227   2.0000      -0.324648        -8.8341
 228   2.0000      -0.320033        -8.7086
 229   2.0000      -0.303144        -8.2490
 230   2.0000      -0.293685        -7.9916
 231   2.0000      -0.251031        -6.8309
 232   0.0000      -0.154144        -4.1945
 233   0.0000      -0.137999        -3.7551
 234   0.0000      -0.115520        -3.1435
 235   0.0000      -0.094930        -2.5832
 236   0.0000      -0.072976        -1.9858

MULLIKEN ATOMIC CHARGES
-----------------------
   0 C :    0.053825
   1 N :   -0.022813
   2 C :    0.045206
   3 C :   -0.136069
   4 C :    0.216294
   5 O :   -0.114142
   6 C :   -0.016354
   7 C :    0.001467
   8 N :   -0.044425
   9 C :    0.096225
  10 C :   -0.089616
  11 C :    0.023168
  12 C :    0.065629
  13 C :   -0.104925
  14 C :    0.101530
  15 C :   -0.081872
  16 C :   -0.013295
  17 C :   -0.156739
  18 N :    0.113205
  19 C :    0.126685
  20 C :   -0.113936
  21 C :    0.036896
  22 C :   -0.030148
  23 C :   -0.081140
  24 C :   -0.194521
  25 N :    0.170062
  26 C :    0.162445
  27 N :   -0.276238
  28 C :    0.111912
  29 C :    0.139579
  30 O :   -0.171354
  31 C :   -0.002891
  32 C :   -0.068146
  33 C :    0.133789
  34 O :   -0.181198
  35 N :   -0.260672
  36 C :    0.139118
  37 C :    0.095828
  38 C :    0.010347
  39 C :   -0.051962
  40 C :    0.074108
  41 C :   -0.044729
  42 C :   -0.070638
  43 N :    0.125670
  44 C :   -0.138841
  45 C :   -0.143510
  46 N :    0.046430
  47 C :   -0.190255
  48 N :    0.231659
  49 C :   -0.183773
  50 N :    0.232092
  51 C :    0.139211
  52 C :    0.045869
  53 C :   -0.032991
  54 N :   -0.283935
  55 S :    0.616926
  56 N :   -0.283392
  57 C :   -0.130079
  58 N :   -0.023115
  59 C :    0.055865
  60 C :   -0.027190
  61 C :    0.212213
  62 O :   -0.118508
  63 C :   -0.043622
  64 C :   -0.020638
  65 N :   -0.053776
  66 C :    0.095323
  67 C :   -0.090728
  68 C :   -0.069876
  69 H :    0.010399
  70 H :    0.022635
  71 H :    0.006238
  72 H :    0.024740
  73 H :    0.004615
  74 H :    0.018223
  75 H :   -0.006423
  76 H :    0.040542
  77 H :    0.065998
  78 H :    0.043400
  79 H :    0.038114
  80 H :    0.056940
  81 H :    0.041167
  82 H :    0.036950
  83 H :    0.029796
  84 H :    0.011763
  85 H :   -0.003997
  86 H :    0.002374
Sum of atomic charges:   -0.0000000

LOEWDIN ATOMIC CHARGES
----------------------
   0 C :    0.086251
   1 N :   -0.075114
   2 C :    0.043524
   3 C :   -0.034364
   4 C :    0.069349
   5 O :   -0.117124
   6 C :   -0.033156
   7 C :    0.045419
   8 N :   -0.088879
   9 C :    0.091601
  10 C :   -0.022362
  11 C :   -0.040793
  12 C :   -0.018013
  13 C :    0.002920
  14 C :    0.044893
  15 C :   -0.083335
  16 C :    0.054678
  17 C :   -0.006233
  18 N :   -0.091349
  19 C :    0.037434
  20 C :    0.010474
  21 C :   -0.032186
  22 C :    0.043975
  23 C :   -0.071683
  24 C :   -0.038341
  25 N :   -0.041656
  26 C :    0.077438
  27 N :   -0.008956
  28 C :    0.028959
  29 C :    0.081169
  30 O :   -0.178651
  31 C :   -0.099295
  32 C :   -0.107158
  33 C :    0.074056
  34 O :   -0.177596
  35 N :    0.006030
  36 C :    0.031802
  37 C :    0.075862
  38 C :   -0.003334
  39 C :    0.003333
  40 C :   -0.011231
  41 C :   -0.006602
  42 C :    0.015002
  43 N :    0.032941
  44 C :   -0.020435
  45 C :   -0.022900
  46 N :   -0.003512
  47 C :   -0.037030
  48 N :   -0.000697
  49 C :   -0.032416
  50 N :    0.003015
  51 C :   -0.040765
  52 C :   -0.032173
  53 C :   -0.051956
  54 N :   -0.279441
  55 S :    0.759453
  56 N :   -0.285595
  57 C :    0.061678
  58 N :   -0.084623
  59 C :    0.036516
  60 C :   -0.036498
  61 C :    0.063193
  62 O :   -0.132506
  63 C :   -0.040718
  64 C :    0.033814
  65 N :   -0.095859
  66 C :    0.081078
  67 C :   -0.036530
  68 C :   -0.011626
  69 H :    0.025990
  70 H :    0.028721
  71 H :    0.039168
  72 H :    0.038108
  73 H :    0.037600
  74 H :    0.034697
  75 H :    0.036692
  76 H :    0.029119
  77 H :    0.044838
  78 H :    0.027083
  79 H :    0.022950
  80 H :    0.041606
  81 H :    0.034733
  82 H :    0.056200
  83 H :    0.045780
  84 H :    0.024737
  85 H :    0.034566
  86 H :    0.034249

  Mayer bond orders larger than 0.100000
B(  0-C ,  1-N ) :   1.7400 B(  0-C , 11-C ) :   1.0362 B(  0-C , 69-H ) :   0.9892
B(  1-N ,  2-C ) :   1.2681 B(  2-C ,  3-C ) :   1.0517 B(  2-C ,  7-C ) :   1.4941
B(  3-C ,  4-C ) :   0.8950 B(  3-C , 11-C ) :   1.5895 B(  4-C ,  5-O ) :   2.2343
B(  4-C ,  6-C ) :   0.9056 B(  6-C ,  7-C ) :   1.0451 B(  6-C , 10-C ) :   1.6486
B(  7-C ,  8-N ) :   1.2843 B(  8-N ,  9-C ) :   1.6865 B(  9-C , 10-C ) :   1.0379
B(  9-C , 70-H ) :   0.9878 B( 10-C , 71-H ) :   1.0108 B( 11-C , 12-C ) :   1.0273
B( 12-C , 13-C ) :   1.5581 B( 12-C , 16-C ) :   1.0525 B( 13-C , 14-C ) :   1.1154
B( 13-C , 72-H ) :   0.9960 B( 14-C , 15-C ) :   1.1025 B( 14-C , 19-C ) :   1.3816
B( 15-C , 16-C ) :   1.6506 B( 15-C , 17-C ) :   1.0876 B( 16-C , 73-H ) :   1.0170
B( 17-C , 18-N ) :   2.9677 B( 19-C , 20-C ) :   1.1300 B( 19-C , 23-C ) :   1.1066
B( 20-C , 21-C ) :   1.5431 B( 20-C , 74-H ) :   0.9852 B( 21-C , 22-C ) :   1.0306
B( 21-C , 26-C ) :   1.0570 B( 22-C , 23-C ) :   1.6628 B( 22-C , 75-H ) :   1.0276
B( 23-C , 24-C ) :   1.0829 B( 24-C , 25-N ) :   3.0050 B( 26-C , 27-N ) :   1.2141
B( 26-C , 32-C ) :   1.3470 B( 27-N , 28-C ) :   0.9596 B( 27-N , 29-C ) :   1.0091
B( 28-C , 76-H ) :   0.9706 B( 28-C , 77-H ) :   0.9464 B( 28-C , 78-H ) :   0.9718
B( 29-C , 30-O ) :   2.1718 B( 29-C , 31-C ) :   0.9708 B( 31-C , 32-C ) :   1.2501
B( 31-C , 37-C ) :   1.3521 B( 32-C , 33-C ) :   0.9765 B( 33-C , 34-O ) :   2.0984
B( 33-C , 35-N ) :   1.0332 B( 35-N , 36-C ) :   0.9692 B( 35-N , 37-C ) :   1.1910
B( 36-C , 79-H ) :   0.9582 B( 36-C , 80-H ) :   0.9565 B( 36-C , 81-H ) :   0.9676
B( 37-C , 38-C ) :   1.1300 B( 38-C , 39-C ) :   1.6552 B( 38-C , 82-H ) :   0.9460
B( 39-C , 40-C ) :   1.1775 B( 39-C , 83-H ) :   0.9409 B( 40-C , 41-C ) :   1.2314
B( 40-C , 51-C ) :   0.1407 B( 40-C , 53-C ) :   1.2078 B( 41-C , 42-C ) :   1.1229
B( 41-C , 46-N ) :   1.4563 B( 42-C , 43-N ) :   1.4800 B( 42-C , 51-C ) :   1.2414
B( 43-N , 44-C ) :   1.7485 B( 44-C , 45-C ) :   1.1895 B( 44-C , 49-C ) :   1.1398
B( 45-C , 46-N ) :   1.7393 B( 45-C , 47-C ) :   1.1364 B( 47-C , 48-N ) :   3.0544
B( 49-C , 50-N ) :   3.0477 B( 51-C , 52-C ) :   1.2519 B( 51-C , 57-C ) :   1.0328
B( 52-C , 53-C ) :   1.1024 B( 52-C , 56-N ) :   1.5093 B( 53-C , 54-N ) :   1.4730
B( 54-N , 55-S ) :   1.3001 B( 54-N , 56-N ) :   0.1372 B( 55-S , 56-N ) :   1.3053
B( 57-C , 58-N ) :   1.6050 B( 57-C , 59-C ) :   0.1309 B( 57-C , 68-C ) :   1.0792
B( 58-N , 59-C ) :   1.3714 B( 59-C , 60-C ) :   1.0185 B( 59-C , 64-C ) :   1.4109
B( 60-C , 61-C ) :   0.8642 B( 60-C , 68-C ) :   1.5967 B( 61-C , 62-O ) :   2.3280
B( 61-C , 63-C ) :   0.8835 B( 63-C , 64-C ) :   1.0404 B( 63-C , 67-C ) :   1.6209
B( 64-C , 65-N ) :   1.3134 B( 65-N , 66-C ) :   1.6567 B( 66-C , 67-C ) :   1.0676
B( 66-C , 84-H ) :   0.9892 B( 67-C , 85-H ) :   1.0092 B( 68-C , 86-H ) :   1.0066

-----------------------------------------------------------------------------
         ABSORPTION SPECTRUM VIA TRANSITION ELECTRIC DIPOLE MOMENTS
-----------------------------------------------------------------------------
State   Energy  Wavelength   fosc         T2         TX        TY        TZ
        (cm-1)    (nm)                  (au**2)     (au)      (au)      (au)
-----------------------------------------------------------------------------
   0    6203.0   1612.1   0.292299270  15.51329  -0.68397   3.78035  -0.86859
   1    9993.5   1000.6   0.203400656   6.70052   2.08524   0.13939   1.52738
   2   14967.4    668.1   0.113751356   2.50199  -0.87201  -0.90544  -0.96008
   3   16890.7    592.0   0.348378835   6.79017   1.98856  -0.39360   1.63734
   4   17407.3    574.5   0.002220249   0.04199  -0.07432  -0.19045  -0.01398
   5   18000.9    555.5   0.038150874   0.69773   0.35394  -0.75554  -0.04024
   6   18427.3    542.7   0.081626145   1.45829  -0.73722  -0.88252  -0.36872
   7   20318.0    492.2   0.111911785   1.81330  -0.85513  -0.46041  -0.93278
   8   20445.3    489.1   0.031207041   0.50250   0.43397  -0.36908   0.42184
   9   20915.1    478.1   0.022149611   0.34864  -0.45784  -0.25647  -0.27065
  10   20982.6    476.6   0.002026521   0.03180   0.11068   0.13049   0.05018
  11   21865.2    457.3   0.009694997   0.14597  -0.12613   0.30095  -0.19874
  12   21949.0    455.6   0.085880504   1.28811   0.25779  -1.01056   0.44770
  13   22311.8    448.2   0.043747011   0.64549  -0.60637  -0.10046  -0.51742
  14   22680.2    440.9   0.151933694   2.20537   0.12401   1.23892  -0.80936
  15   24120.4    414.6   0.002124050   0.02899   0.12688  -0.04944   0.10222
  16   24208.7    413.1   0.017366159   0.23616  -0.19181  -0.43598  -0.09638
  17   24317.6    411.2   0.022350724   0.30258   0.26383   0.21486   0.43221
  18   24602.2    406.5   0.012745498   0.17055  -0.14589   0.29361  -0.25112
  19   25123.2    398.0   0.232579951   3.04770  -0.68775  -1.32746  -0.90142
  20   25330.3    394.8   0.100304863   1.30364  -0.51791  -0.79283  -0.63783
  21   25383.6    394.0   0.102685405   1.33177   0.35198   0.99258   0.47187
  22   25485.1    392.4   0.006762167   0.08735  -0.04145  -0.00698   0.29255
  23   25552.2    391.4   0.127200886   1.63884   0.50691   1.03691   0.55381
  24   26348.3    379.5   0.029775090   0.37203  -0.19112  -0.57922   0.00017
  25   26570.1    376.4   0.142484935   1.76543   0.56703  -0.61711   1.03106
  26   26948.9    371.1   0.013349560   0.16308   0.02953   0.18976  -0.35525
  27   27317.1    366.1   0.094527689   1.13920  -0.63203  -0.71325  -0.48063
  28   27342.0    365.7   0.020746241   0.24980   0.01689   0.47195  -0.16362
  29   27494.5    363.7   0.032515918   0.38934  -0.46834  -0.30951  -0.27239
  30   28031.3    356.7   0.004156611   0.04882  -0.07555  -0.15617  -0.13682
  31   28202.5    354.6   0.009876208   0.11529  -0.13140  -0.30953  -0.04704
  32   28465.3    351.3   0.008914398   0.10310   0.01526  -0.29357   0.12916
  33   29011.0    344.7   0.181746113   2.06242   0.09751   1.41222   0.24199
  34   29040.9    344.3   0.008969023   0.10167  -0.06796   0.31078  -0.02178
  35   29112.2    343.5   0.022532094   0.25480   0.40060   0.24919  -0.17950
  36   29657.7    337.2   0.145000056   1.60955  -0.02446  -1.26662   0.06803
  37   29746.3    336.2   0.089509260   0.99063   0.22000   0.86968   0.43115
  38   29798.4    335.6   0.069232923   0.76488  -0.05846   0.81864  -0.30216
  39   30046.4    332.8   0.055793692   0.61132  -0.39634  -0.64683  -0.18932
  40   30253.0    330.5   0.012187686   0.13263  -0.16028   0.29988  -0.13041
  41   30756.9    325.1   0.105036595   1.12428  -0.09931   0.97081  -0.41467
  42   31148.2    321.0   0.004603856   0.04866   0.14126   0.15426   0.07005
  43   31430.5    318.2   0.024611776   0.25779   0.24247  -0.33569   0.29378
  44   31613.9    316.3   0.010568965   0.11006   0.07689   0.28629   0.14895
  45   31678.6    315.7   0.030598774   0.31799   0.14918   0.54249   0.03795
  46   31769.8    314.8   0.054077645   0.56038  -0.41002  -0.47034  -0.41356
  47   32134.4    311.2   0.014204483   0.14552   0.19254   0.31390   0.09957
  48   32172.2    310.8   0.055762145   0.57060   0.49277  -0.50643   0.26703
  49   32439.9    308.3   0.121377768   1.23178   0.74771  -0.37413   0.72989
  50   32512.9    307.6   0.032676941   0.33087  -0.15616  -0.48807  -0.26129
  51   32728.6    305.5   0.040682666   0.40922  -0.21715  -0.52401  -0.29578
  52   32881.0    304.1   0.006699847   0.06708   0.16997  -0.18407   0.06563
  53   32957.1    303.4   0.039332896   0.39290   0.12649   0.51685   0.33131
  54   33208.4    301.1   0.014298660   0.14175  -0.24509   0.11920  -0.25975
  55   33257.0    300.7   0.024532133   0.24284   0.19555   0.41330   0.18382
  56   33326.3    300.1   0.023557678   0.23271  -0.32283   0.29268  -0.20697
  57   33466.7    298.8   0.030515281   0.30018   0.54428   0.01279  -0.06145
  58   34017.6    294.0   0.007448191   0.07208   0.02388  -0.25197  -0.08957
  59   34181.0    292.6   0.008520461   0.08206   0.08735   0.24588   0.11824
  60   34371.4    290.9   0.007781997   0.07454  -0.19429   0.18772  -0.03934
  61   34471.2    290.1   0.013956290   0.13329   0.05401  -0.35122   0.08376
  62   34757.3    287.7   0.063613366   0.60253   0.50308   0.56397   0.17715
  63   34916.1    286.4   0.049442795   0.46618   0.18793  -0.58342   0.30081
  64   35004.5    285.7   0.002011452   0.01892   0.12792   0.00409   0.05037
  65   35180.2    284.3   0.003361858   0.03146  -0.07096  -0.12236  -0.10702
  66   35277.8    283.5   0.015506034   0.14470   0.24678   0.27046   0.10321
  67   35488.5    281.8   0.024818238   0.23023  -0.04952   0.47692  -0.01795
  68   35602.0    280.9   0.010963987   0.10138  -0.27161  -0.00422  -0.16611
  69   35950.2    278.2   0.002415884   0.02212  -0.00693  -0.12094   0.08630
  70   36347.0    275.1   0.080254411   0.72690  -0.38934   0.57679  -0.49258
  71   36461.5    274.3   0.828750576   7.48281  -0.60669   2.60876  -0.55599
  72   36490.1    274.0   0.043704212   0.39430   0.51780  -0.19902   0.29423
  73   36583.1    273.4   0.018036588   0.16231   0.01927  -0.38648   0.11213
  74   36801.6    271.7   0.060123414   0.53784  -0.25531   0.61686   0.30354
  75   36950.6    270.6   0.025820673   0.23005   0.28353   0.10347  -0.37276
  76   37066.0    269.8   0.001430981   0.01271   0.08426  -0.03036  -0.06847
  77   37092.7    269.6   0.042534839   0.37751   0.15658  -0.59135   0.05743
  78   37251.6    268.4   0.028537967   0.25220  -0.29927   0.20291  -0.34853
  79   37448.6    267.0   0.021925117   0.19274  -0.39001  -0.18145  -0.08781
  80   37713.7    265.2   0.004639308   0.04050   0.10012  -0.11447   0.13179
  81   37950.9    263.5   0.046560776   0.40390   0.53005   0.17792   0.30215
  82   38198.5    261.8   0.001149420   0.00991  -0.04898  -0.06851   0.05304
  83   38255.0    261.4   0.055087469   0.47407   0.35207   0.37782   0.45538
  84   38648.1    258.7   0.003071411   0.02616   0.10475  -0.11707   0.03854
  85   38752.3    258.0   0.012377904   0.10515   0.09905   0.29546  -0.08972
  86   38852.7    257.4   0.030078299   0.25486   0.21973  -0.42641   0.15735
  87   39065.4    256.0   0.317901800   2.67902   0.30416   1.57337  -0.33319
  88   39337.3    254.2   0.116891157   0.97826  -0.52988  -0.83288   0.06153
  89   39730.2    251.7   0.011105117   0.09202  -0.05550   0.29761  -0.01923
  90   39807.6    251.2   0.023937361   0.19796   0.36550   0.20361   0.15139
  91   40115.9    249.3   0.044095497   0.36187  -0.15611   0.54743  -0.19448
  92   40244.1    248.5   0.000530105   0.00434  -0.01330   0.06415  -0.00669

FINAL SINGLE POINT ENERGY     -3377.597084638513

DIPOLE MOMENT
-------------
                                X             Y             Z
Electronic contribution:    -12.19049      15.80569      -7.13450
Nuclear contribution   :     13.26589     -19.18165       8.07036
                        -----------------------------------------
Total Dipole Moment    :      1.07540      -3.37596       0.93586
                        -----------------------------------------
Magnitude (a.u.)       :      3.66462
Magnitude (Debye)      :      9.31472

Rotational constants in cm-1:     0.001512     0.000490     0.000381
Rotational constants in MHz :    45.321704    14.682992    11.411325

                             ****ORCA TERMINATED NORMALLY****
TOTAL RUN TIME: 0 days 0 hours 9 minutes 26 seconds 912 msec
