                         Program Version 4.2.0 -  RELEASE  -
|  1> # ORCA input file
|  2> # SCF done       -177.869270232657          0.000923569205
|  3> ! CAM-B3LYP def2-SVP def2/J RIJCOSX Grid4 TightSCF
|  4> %maxcore 5000
|  5> %tddft
|  6>     Mode sTDDFT
|  7>     Ethresh 5.0
|  8>     maxcore 5000
|  9> end
| 10>
| 11> %pal
| 12>   nprocs 6
| 13>   end
| 14> * xyz 0 1
| 15>    C       -0.97853         1.00152        -2.47447
| 16>    N       -1.86174         0.07586        -2.21401
| 17>    N       -1.57227        -1.18408        -2.14630
| 18>    C       -0.34883        -1.66704        -2.29343
| 19>    C        0.70726        -0.75159        -2.58228
| 20>    C        0.36631         0.63924        -2.69120
| 21>    N        1.42701         1.39620        -2.97203
| 22>    S        2.71713         0.45064        -3.07976
| 23>    N        2.00642        -0.95993        -2.78020
| 24>    C       -0.15910        -3.08220        -2.16918
| 25>    C       -1.11952        -3.99735        -1.80661
| 26>    C       -0.54118        -5.30292        -1.83933
| 27>    C        0.87013        -5.11986        -2.21442
| 28>    C        1.08766        -3.79034        -2.40354
| 29>    C        1.86301        -6.10682        -2.26469
| 30>    N        2.71702        -6.87435        -2.26674
| 31>    C       -1.17202        -6.50609        -1.60426
| 32>    C       -0.65352        -7.80551        -1.83041
| 33>    C       -1.59614        -8.75094        -1.44936
| 34>    C       -2.76110        -8.02963        -0.95250
| 35>    C       -2.53075        -6.69580        -1.06733
| 36>    C       -3.43652        -5.69858        -0.68427
| 37>    N       -4.21052        -4.91852        -0.35173
| 38>    C       -1.39824       -10.14361        -1.58708
| 39>    N       -2.11024       -11.16350        -1.00598
| 40>    C       -3.15693       -11.07974        -0.01268
| 41>    C       -2.64979       -10.51947         1.31194
| 42>    C       -1.60819       -12.42664        -1.37319
| 43>    O       -2.06419       -13.47337        -0.95799
| 44>    C       -0.52470       -12.13754        -2.28801
| 45>    C       -0.40824       -10.74482        -2.38901
| 46>    C        0.64292       -10.45030        -3.35500
| 47>    O        1.07059        -9.40980        -3.79784
| 48>    N        1.11678       -11.71543        -3.74161
| 49>    C        2.17044       -11.84878        -4.72210
| 50>    C        1.61514       -12.14297        -6.11252
| 51>    C        0.43189       -12.73707        -3.13841
| 52>    C        0.67949       -14.09336        -3.39109
| 53>    C       -0.07270       -15.08745        -2.81230
| 54>    C        0.04954       -16.47681        -2.97099
| 55>    C        1.09488       -17.31193        -3.40612
| 56>    N        2.30413       -17.02555        -4.06005
| 57>    O        2.45153       -15.94659        -4.61868
| 58>    O        3.15484       -17.89868        -4.06017
| 59>    C        0.79361       -18.65885        -3.03698
| 60>    C       -0.41093       -18.69882        -2.39724
| 61>    C       -0.95531       -17.38212        -2.37170
| 62>    C       -2.24491       -17.02746        -2.01412
| 63>    C       -3.00509       -15.93601        -2.54434
| 64>    C       -4.27442       -16.02011        -2.07104
| 65>    C       -4.37598       -17.15817        -1.19646
| 66>    N       -5.57003       -17.39747        -0.48994
| 67>    O       -5.74591       -18.47650         0.05025
| 68>    O       -6.38637       -16.49146        -0.47018
| 69>    C       -3.14478       -17.80456        -1.13945
| 70>    C       -2.64716       -18.85254        -0.31993
| 71>    C       -3.31286       -19.91045         0.20396
| 72>    C       -2.61965       -20.89998         0.97471
| 73>    N       -1.29871       -20.86239         1.07821
| 74>    N       -0.61072       -21.70279         1.78388
| 75>    C       -1.13948       -22.71471         2.41715
| 76>    C       -2.53138       -22.93006         2.34651
| 77>    C       -3.30889       -21.97177         1.61312
| 78>    N       -4.60679       -22.25451         1.64007
| 79>    S       -4.82259       -23.59350         2.49641
| 80>    N       -3.29065       -23.88695         2.88010
| 81>    H       -1.31820         2.02413        -2.51135
| 82>    H       -2.14013        -3.76738        -1.57313
| 83>    H        2.01375        -3.31744        -2.66971
| 84>    H        0.30883        -8.01372        -2.25417
| 85>    H       -3.67308        -8.46319        -0.59156
| 86>    H       -3.50260       -12.10799         0.13136
| 87>    H       -3.99271       -10.49291        -0.40064
| 88>    H       -1.85646       -11.15122         1.70416
| 89>    H       -3.46232       -10.49681         2.03251
| 90>    H       -2.26153        -9.51025         1.19347
| 91>    H        2.85973       -12.63626        -4.40978
| 92>    H        2.69882       -10.89176        -4.73056
| 93>    H        1.07878       -13.08863        -6.12548
| 94>    H        2.43337       -12.20082        -6.82398
| 95>    H        0.93934       -11.34916        -6.42211
| 96>    H        1.46610       -14.34695        -4.08420
| 97>    H       -0.86415       -14.78025        -2.14135
| 98>    H        1.43873       -19.48793        -3.26002
| 99>    H       -0.91818       -19.58689        -2.07551
|100>    H       -2.65443       -15.24273        -3.28277
|101>    H       -5.10258       -15.37455        -2.29330
|102>    H       -1.58244       -18.81756        -0.12001
|103>    H       -4.37009       -20.06727         0.06221
|104>    H       -0.47793       -23.35581         2.97728
|105> *
|106>
|107>                          ****END OF INPUT****

CARTESIAN COORDINATES (ANGSTROEM)
---------------------------------
  C     -0.978530    1.001520   -2.474470
  N     -1.861740    0.075860   -2.214010
  N     -1.572270   -1.184080   -2.146300
  C     -0.348830   -1.667040   -2.293430
  C      0.707260   -0.751590   -2.582280
  C      0.366310    0.639240   -2.691200
  N      1.427010    1.396200   -2.972030
  S      2.717130    0.450640   -3.079760
  N      2.006420   -0.959930   -2.780200
  C     -0.159100   -3.082200   -2.169180
  C     -1.119520   -3.997350   -1.806610
  C     -0.541180   -5.302920   -1.839330
  C      0.870130   -5.119860   -2.214420
  C      1.087660   -3.790340   -2.403540
  C      1.863010   -6.106820   -2.264690
  N      2.717020   -6.874350   -2.266740
  C     -1.172020   -6.506090   -1.604260
  C     -0.653520   -7.805510   -1.830410
  C     -1.596140   -8.750940   -1.449360
  C     -2.761100   -8.029630   -0.952500
  C     -2.530750   -6.695800   -1.067330
  C     -3.436520   -5.698580   -0.684270
  N     -4.210520   -4.918520   -0.351730
  C     -1.398240  -10.143610   -1.587080
  N     -2.110240  -11.163500   -1.005980
  C     -3.156930  -11.079740   -0.012680
  C     -2.649790  -10.519470    1.311940
  C     -1.608190  -12.426640   -1.373190
  O     -2.064190  -13.473370   -0.957990
  C     -0.524700  -12.137540   -2.288010
  C     -0.408240  -10.744820   -2.389010
  C      0.642920  -10.450300   -3.355000
  O      1.070590   -9.409800   -3.797840
  N      1.116780  -11.715430   -3.741610
  C      2.170440  -11.848780   -4.722100
  C      1.615140  -12.142970   -6.112520
  C      0.431890  -12.737070   -3.138410
  C      0.679490  -14.093360   -3.391090
  C     -0.072700  -15.087450   -2.812300
  C      0.049540  -16.476810   -2.970990
  C      1.094880  -17.311930   -3.406120
  N      2.304130  -17.025550   -4.060050
  O      2.451530  -15.946590   -4.618680
  O      3.154840  -17.898680   -4.060170
  C      0.793610  -18.658850   -3.036980
  C     -0.410930  -18.698820   -2.397240
  C     -0.955310  -17.382120   -2.371700
  C     -2.244910  -17.027460   -2.014120
  C     -3.005090  -15.936010   -2.544340
  C     -4.274420  -16.020110   -2.071040
  C     -4.375980  -17.158170   -1.196460
  N     -5.570030  -17.397470   -0.489940
  O     -5.745910  -18.476500    0.050250
  O     -6.386370  -16.491460   -0.470180
  C     -3.144780  -17.804560   -1.139450
  C     -2.647160  -18.852540   -0.319930
  C     -3.312860  -19.910450    0.203960
  C     -2.619650  -20.899980    0.974710
  N     -1.298710  -20.862390    1.078210
  N     -0.610720  -21.702790    1.783880
  C     -1.139480  -22.714710    2.417150
  C     -2.531380  -22.930060    2.346510
  C     -3.308890  -21.971770    1.613120
  N     -4.606790  -22.254510    1.640070
  S     -4.822590  -23.593500    2.496410
  N     -3.290650  -23.886950    2.880100
  H     -1.318200    2.024130   -2.511350
  H     -2.140130   -3.767380   -1.573130
  H      2.013750   -3.317440   -2.669710
  H      0.308830   -8.013720   -2.254170
  H     -3.673080   -8.463190   -0.591560
  H     -3.502600  -12.107990    0.131360
  H     -3.992710  -10.492910   -0.400640
  H     -1.856460  -11.151220    1.704160
  H     -3.462320  -10.496810    2.032510
  H     -2.261530   -9.510250    1.193470
  H      2.859730  -12.636260   -4.409780
  H      2.698820  -10.891760   -4.730560
  H      1.078780  -13.088630   -6.125480
  H      2.433370  -12.200820   -6.823980
  H      0.939340  -11.349160   -6.422110
  H      1.466100  -14.346950   -4.084200
  H     -0.864150  -14.780250   -2.141350
  H      1.438730  -19.487930   -3.260020
  H     -0.918180  -19.586890   -2.075510
  H     -2.654430  -15.242730   -3.282770
  H     -5.102580  -15.374550   -2.293300
  H     -1.582440  -18.817560   -0.120010
  H     -4.370090  -20.067270    0.062210
  H     -0.477930  -23.355810    2.977280

 Total Charge           Charge          ....    0
 Multiplicity           Mult            ....    1
 Number of Electrons    NEL             ....  466
 Basis Dimension        Dim             .... 1052

ORBITAL ENERGIES
----------------

  NO   OCC          E(Eh)            E(eV)
   0   2.0000     -89.053989     -2423.2822
   1   2.0000     -89.045314     -2423.0462
   2   2.0000     -19.243315      -523.6372
   3   2.0000     -19.241452      -523.5865
   4   2.0000     -19.238385      -523.5031
   5   2.0000     -19.236647      -523.4558
   6   2.0000     -19.211928      -522.7831
   7   2.0000     -19.204948      -522.5932
   8   2.0000     -14.651389      -398.6846
   9   2.0000     -14.646315      -398.5465
  10   2.0000     -14.473228      -393.8366
  11   2.0000     -14.467896      -393.6915
  12   2.0000     -14.465922      -393.6377
  13   2.0000     -14.465724      -393.6324
  14   2.0000     -14.458475      -393.4351
  15   2.0000     -14.457138      -393.3987
  16   2.0000     -14.447891      -393.1471
  17   2.0000     -14.447816      -393.1451
  18   2.0000     -14.443675      -393.0324
  19   2.0000     -14.442594      -393.0029
  20   2.0000     -14.412201      -392.1759
  21   2.0000     -14.402137      -391.9021
  22   2.0000     -10.392700      -282.7997
  23   2.0000     -10.387956      -282.6707
  24   2.0000     -10.359555      -281.8978
  25   2.0000     -10.354869      -281.7703
  26   2.0000     -10.350850      -281.6610
  27   2.0000     -10.347290      -281.5641
  28   2.0000     -10.346757      -281.5496
  29   2.0000     -10.340547      -281.3806
  30   2.0000     -10.339874      -281.3623
  31   2.0000     -10.337145      -281.2880
  32   2.0000     -10.335540      -281.2443
  33   2.0000     -10.332681      -281.1666
  34   2.0000     -10.331927      -281.1460
  35   2.0000     -10.330273      -281.1010
  36   2.0000     -10.329367      -281.0764
  37   2.0000     -10.328229      -281.0454
  38   2.0000     -10.327793      -281.0335
  39   2.0000     -10.326626      -281.0018
  40   2.0000     -10.326256      -280.9917
  41   2.0000     -10.324231      -280.9366
  42   2.0000     -10.321056      -280.8502
  43   2.0000     -10.320824      -280.8439
  44   2.0000     -10.320031      -280.8223
  45   2.0000     -10.317995      -280.7669
  46   2.0000     -10.313433      -280.6428
  47   2.0000     -10.313295      -280.6390
  48   2.0000     -10.311252      -280.5834
  49   2.0000     -10.307099      -280.4704
  50   2.0000     -10.306541      -280.4552
  51   2.0000     -10.306007      -280.4407
  52   2.0000     -10.303514      -280.3729
  53   2.0000     -10.302508      -280.3455
  54   2.0000     -10.300969      -280.3036
  55   2.0000     -10.296130      -280.1719
  56   2.0000     -10.294640      -280.1314
  57   2.0000     -10.294020      -280.1145
  58   2.0000     -10.292509      -280.0734
  59   2.0000     -10.289674      -279.9963
  60   2.0000     -10.287819      -279.9458
  61   2.0000     -10.285116      -279.8722
  62   2.0000     -10.283931      -279.8400
  63   2.0000     -10.283461      -279.8272
  64   2.0000     -10.275102      -279.5997
  65   2.0000     -10.264635      -279.3149
  66   2.0000      -8.145630      -221.6539
  67   2.0000      -8.137069      -221.4209
  68   2.0000      -6.116708      -166.4441
  69   2.0000      -6.108781      -166.2284
  70   2.0000      -6.108444      -166.2192
  71   2.0000      -6.108094      -166.2097
  72   2.0000      -6.100250      -165.9962
  73   2.0000      -6.099897      -165.9866
  74   2.0000      -1.320978       -35.9456
  75   2.0000      -1.317022       -35.8380
  76   2.0000      -1.156099       -31.4591
  77   2.0000      -1.152362       -31.3574
  78   2.0000      -1.148206       -31.2443
  79   2.0000      -1.144045       -31.1311
  80   2.0000      -1.137078       -30.9415
  81   2.0000      -1.133390       -30.8411
  82   2.0000      -1.128015       -30.6948
  83   2.0000      -1.121847       -30.5270
  84   2.0000      -1.081503       -29.4292
  85   2.0000      -1.071717       -29.1629
  86   2.0000      -1.021406       -27.7939
  87   2.0000      -1.018888       -27.7254
  88   2.0000      -1.008722       -27.4487
  89   2.0000      -0.999772       -27.2052
  90   2.0000      -0.998936       -27.1824
  91   2.0000      -0.997298       -27.1379
  92   2.0000      -0.987822       -26.8800
  93   2.0000      -0.980104       -26.6700
  94   2.0000      -0.945554       -25.7298
  95   2.0000      -0.943372       -25.6704
  96   2.0000      -0.940094       -25.5813
  97   2.0000      -0.923984       -25.1429
  98   2.0000      -0.921662       -25.0797
  99   2.0000      -0.916400       -24.9365
 100   2.0000      -0.913599       -24.8603
 101   2.0000      -0.892932       -24.2979
 102   2.0000      -0.887493       -24.1499
 103   2.0000      -0.882096       -24.0030
 104   2.0000      -0.880453       -23.9583
 105   2.0000      -0.865893       -23.5621
 106   2.0000      -0.852244       -23.1907
 107   2.0000      -0.847126       -23.0515
 108   2.0000      -0.831732       -22.6326
 109   2.0000      -0.830246       -22.5921
 110   2.0000      -0.821748       -22.3609
 111   2.0000      -0.805368       -21.9152
 112   2.0000      -0.797125       -21.6909
 113   2.0000      -0.780644       -21.2424
 114   2.0000      -0.776059       -21.1177
 115   2.0000      -0.771104       -20.9828
 116   2.0000      -0.765828       -20.8392
 117   2.0000      -0.750521       -20.4227
 118   2.0000      -0.749796       -20.4030
 119   2.0000      -0.732213       -19.9245
 120   2.0000      -0.731568       -19.9070
 121   2.0000      -0.725200       -19.7337
 122   2.0000      -0.720934       -19.6176
 123   2.0000      -0.718262       -19.5449
 124   2.0000      -0.714604       -19.4454
 125   2.0000      -0.694943       -18.9103
 126   2.0000      -0.688507       -18.7352
 127   2.0000      -0.684837       -18.6354
 128   2.0000      -0.674125       -18.3439
 129   2.0000      -0.673741       -18.3334
 130   2.0000      -0.668439       -18.1892
 131   2.0000      -0.661103       -17.9895
 132   2.0000      -0.655698       -17.8425
 133   2.0000      -0.649066       -17.6620
 134   2.0000      -0.646468       -17.5913
 135   2.0000      -0.642748       -17.4901
 136   2.0000      -0.640814       -17.4374
 137   2.0000      -0.632180       -17.2025
 138   2.0000      -0.627655       -17.0794
 139   2.0000      -0.622766       -16.9463
 140   2.0000      -0.616376       -16.7724
 141   2.0000      -0.614789       -16.7293
 142   2.0000      -0.611967       -16.6525
 143   2.0000      -0.603309       -16.4169
 144   2.0000      -0.597816       -16.2674
 145   2.0000      -0.591384       -16.0924
 146   2.0000      -0.588701       -16.0194
 147   2.0000      -0.586113       -15.9489
 148   2.0000      -0.581820       -15.8321
 149   2.0000      -0.579794       -15.7770
 150   2.0000      -0.579200       -15.7608
 151   2.0000      -0.574040       -15.6204
 152   2.0000      -0.571713       -15.5571
 153   2.0000      -0.569083       -15.4855
 154   2.0000      -0.567284       -15.4366
 155   2.0000      -0.563451       -15.3323
 156   2.0000      -0.556508       -15.1433
 157   2.0000      -0.552370       -15.0307
 158   2.0000      -0.549043       -14.9402
 159   2.0000      -0.545036       -14.8312
 160   2.0000      -0.540885       -14.7182
 161   2.0000      -0.539446       -14.6791
 162   2.0000      -0.535624       -14.5751
 163   2.0000      -0.532411       -14.4876
 164   2.0000      -0.530443       -14.4341
 165   2.0000      -0.526680       -14.3317
 166   2.0000      -0.518538       -14.1101
 167   2.0000      -0.518109       -14.0985
 168   2.0000      -0.513140       -13.9632
 169   2.0000      -0.511691       -13.9238
 170   2.0000      -0.511074       -13.9070
 171   2.0000      -0.506543       -13.7837
 172   2.0000      -0.505701       -13.7608
 173   2.0000      -0.503385       -13.6978
 174   2.0000      -0.503084       -13.6896
 175   2.0000      -0.496749       -13.5172
 176   2.0000      -0.493460       -13.4277
 177   2.0000      -0.490773       -13.3546
 178   2.0000      -0.489541       -13.3211
 179   2.0000      -0.489064       -13.3081
 180   2.0000      -0.487034       -13.2529
 181   2.0000      -0.482981       -13.1426
 182   2.0000      -0.480145       -13.0654
 183   2.0000      -0.476398       -12.9635
 184   2.0000      -0.473972       -12.8974
 185   2.0000      -0.470576       -12.8050
 186   2.0000      -0.467242       -12.7143
 187   2.0000      -0.465340       -12.6625
 188   2.0000      -0.462254       -12.5786
 189   2.0000      -0.455782       -12.4024
 190   2.0000      -0.449845       -12.2409
 191   2.0000      -0.449125       -12.2213
 192   2.0000      -0.448067       -12.1925
 193   2.0000      -0.443632       -12.0718
 194   2.0000      -0.441518       -12.0143
 195   2.0000      -0.440826       -11.9955
 196   2.0000      -0.440298       -11.9811
 197   2.0000      -0.436399       -11.8750
 198   2.0000      -0.434837       -11.8325
 199   2.0000      -0.431266       -11.7353
 200   2.0000      -0.428681       -11.6650
 201   2.0000      -0.425250       -11.5716
 202   2.0000      -0.416499       -11.3335
 203   2.0000      -0.412631       -11.2283
 204   2.0000      -0.400031       -10.8854
 205   2.0000      -0.398692       -10.8490
 206   2.0000      -0.394703       -10.7404
 207   2.0000      -0.393660       -10.7120
 208   2.0000      -0.393276       -10.7016
 209   2.0000      -0.391779       -10.6608
 210   2.0000      -0.388285       -10.5658
 211   2.0000      -0.386586       -10.5195
 212   2.0000      -0.383885       -10.4460
 213   2.0000      -0.379408       -10.3242
 214   2.0000      -0.377511       -10.2726
 215   2.0000      -0.375905       -10.2289
 216   2.0000      -0.371092       -10.0979
 217   2.0000      -0.368521       -10.0280
 218   2.0000      -0.367886       -10.0107
 219   2.0000      -0.363619        -9.8946
 220   2.0000      -0.361785        -9.8447
 221   2.0000      -0.348406        -9.4806
 222   2.0000      -0.342957        -9.3323
 223   2.0000      -0.336677        -9.1615
 224   2.0000      -0.334904        -9.1132
 225   2.0000      -0.333385        -9.0719
 226   2.0000      -0.320302        -8.7159
 227   2.0000      -0.305241        -8.3060
 228   2.0000      -0.304721        -8.2919
 229   2.0000      -0.301424        -8.2022
 230   2.0000      -0.297465        -8.0944
 231   2.0000      -0.282793        -7.6952
 232   2.0000      -0.244930        -6.6649
 233   0.0000      -0.150406        -4.0928
 234   0.0000      -0.129997        -3.5374
 235   0.0000      -0.091526        -2.4905
 236   0.0000      -0.085151        -2.3171
 237   0.0000      -0.073049        -1.9878

MULLIKEN ATOMIC CHARGES
-----------------------
   0 C :   -0.001041
   1 N :   -0.034319
   2 N :   -0.034834
   3 C :    0.007416
   4 C :    0.019281
   5 C :    0.039040
   6 N :   -0.252394
   7 S :    0.546005
   8 N :   -0.267579
   9 C :    0.034607
  10 C :   -0.106148
  11 C :    0.110189
  12 C :   -0.080726
  13 C :    0.003523
  14 C :   -0.184531
  15 N :    0.148796
  16 C :    0.125779
  17 C :   -0.103239
  18 C :    0.035678
  19 C :   -0.031593
  20 C :   -0.089565
  21 C :   -0.187209
  22 N :    0.159125
  23 C :    0.154637
  24 N :   -0.248923
  25 C :    0.091748
  26 C :   -0.008672
  27 C :    0.157899
  28 O :   -0.196668
  29 C :   -0.063966
  30 C :   -0.055270
  31 C :    0.154229
  32 O :   -0.172970
  33 N :   -0.249774
  34 C :    0.091822
  35 C :    0.006014
  36 C :    0.148413
  37 C :   -0.013747
  38 C :   -0.084961
  39 C :    0.087131
  40 C :    0.072298
  41 N :    0.277853
  42 O :   -0.259695
  43 O :   -0.241291
  44 C :    0.021998
  45 C :    0.006841
  46 C :    0.016161
  47 C :    0.040146
  48 C :    0.033801
  49 C :    0.015807
  50 C :    0.082683
  51 N :    0.266915
  52 O :   -0.245110
  53 O :   -0.247753
  54 C :    0.095131
  55 C :   -0.061435
  56 C :   -0.025138
  57 C :   -0.015569
  58 N :   -0.075922
  59 N :   -0.037314
  60 C :   -0.018644
  61 C :    0.054763
  62 C :    0.022596
  63 N :   -0.245843
  64 S :    0.535510
  65 N :   -0.255997
  66 H :    0.008819
  67 H :    0.022141
  68 H :    0.007817
  69 H :    0.030159
  70 H :   -0.009701
  71 H :    0.053295
  72 H :    0.029141
  73 H :    0.031261
  74 H :    0.034188
  75 H :    0.030123
  76 H :    0.041561
  77 H :    0.050219
  78 H :    0.019607
  79 H :    0.031131
  80 H :    0.026388
  81 H :    0.003281
  82 H :    0.034213
  83 H :    0.010014
  84 H :    0.008960
  85 H :   -0.004968
  86 H :    0.001177
  87 H :    0.038306
  88 H :    0.029866
  89 H :    0.007006
Sum of atomic charges:    0.0000000

LOEWDIN ATOMIC CHARGES
----------------------
   0 C :    0.014153
   1 N :   -0.032035
   2 N :   -0.039276
   3 C :   -0.002650
   4 C :   -0.057944
   5 C :   -0.068793
   6 N :   -0.267897
   7 S :    0.681638
   8 N :   -0.275986
   9 C :   -0.025641
  10 C :    0.018986
  11 C :    0.048879
  12 C :   -0.086170
  13 C :    0.058038
  14 C :   -0.035451
  15 N :   -0.053077
  16 C :    0.035241
  17 C :    0.020446
  18 C :   -0.036902
  19 C :    0.043918
  20 C :   -0.073753
  21 C :   -0.035967
  22 N :   -0.047999
  23 C :    0.075890
  24 N :    0.003208
  25 C :    0.035201
  26 C :   -0.060574
  27 C :    0.080719
  28 O :   -0.183355
  29 C :   -0.108118
  30 C :   -0.096621
  31 C :    0.082358
  32 O :   -0.165714
  33 N :    0.008186
  34 C :    0.039070
  35 C :   -0.058812
  36 C :    0.077243
  37 C :   -0.012386
  38 C :    0.014850
  39 C :    0.006388
  40 C :   -0.044175
  41 N :    0.287776
  42 O :   -0.220535
  43 O :   -0.205873
  44 C :    0.024728
  45 C :   -0.034833
  46 C :    0.040591
  47 C :    0.050095
  48 C :   -0.029594
  49 C :    0.017675
  50 C :   -0.032734
  51 N :    0.284648
  52 O :   -0.203787
  53 O :   -0.212534
  54 C :    0.006097
  55 C :    0.005015
  56 C :    0.000189
  57 C :   -0.004967
  58 N :   -0.056313
  59 N :   -0.037196
  60 C :    0.008307
  61 C :   -0.070877
  62 C :   -0.062680
  63 N :   -0.266845
  64 S :    0.677549
  65 N :   -0.274041
  66 H :    0.037316
  67 H :    0.042219
  68 H :    0.035942
  69 H :    0.039304
  70 H :    0.035622
  71 H :    0.040802
  72 H :    0.021324
  73 H :    0.033950
  74 H :    0.035978
  75 H :    0.024608
  76 H :    0.030960
  77 H :    0.040950
  78 H :    0.023916
  79 H :    0.034693
  80 H :    0.030450
  81 H :    0.029357
  82 H :    0.040789
  83 H :    0.040640
  84 H :    0.036261
  85 H :    0.030070
  86 H :    0.037060
  87 H :    0.041631
  88 H :    0.035708
  89 H :    0.035473

  Mayer bond orders larger than 0.100000
B(  0-C ,  1-N ) :   1.7083 B(  0-C ,  3-C ) :   0.1154 B(  0-C ,  5-C ) :   1.1372
B(  0-C , 66-H ) :   1.0171 B(  1-N ,  2-N ) :   1.2059 B(  2-N ,  3-C ) :   1.7538
B(  3-C ,  4-C ) :   1.1099 B(  3-C ,  9-C ) :   1.0417 B(  4-C ,  5-C ) :   1.1925
B(  4-C ,  8-N ) :   1.5375 B(  5-C ,  6-N ) :   1.4915 B(  6-N ,  7-S ) :   1.3040
B(  6-N ,  8-N ) :   0.1489 B(  7-S ,  8-N ) :   1.2728 B(  9-C , 10-C ) :   1.5745
B(  9-C , 13-C ) :   1.0765 B( 10-C , 11-C ) :   1.0652 B( 10-C , 67-H ) :   1.0180
B( 11-C , 12-C ) :   1.1101 B( 11-C , 16-C ) :   1.3907 B( 12-C , 13-C ) :   1.6395
B( 12-C , 14-C ) :   1.0888 B( 13-C , 68-H ) :   1.0084 B( 14-C , 15-N ) :   2.9905
B( 16-C , 17-C ) :   1.1203 B( 16-C , 20-C ) :   1.0988 B( 17-C , 18-C ) :   1.5276
B( 17-C , 69-H ) :   0.9868 B( 18-C , 19-C ) :   1.0159 B( 18-C , 23-C ) :   1.0682
B( 19-C , 20-C ) :   1.6766 B( 19-C , 70-H ) :   1.0266 B( 20-C , 21-C ) :   1.0827
B( 21-C , 22-N ) :   2.9859 B( 23-C , 24-N ) :   1.2031 B( 23-C , 30-C ) :   1.3409
B( 24-N , 25-C ) :   0.9369 B( 24-N , 27-C ) :   1.0532 B( 25-C , 26-C ) :   1.1177
B( 25-C , 71-H ) :   0.9219 B( 25-C , 72-H ) :   0.9509 B( 26-C , 73-H ) :   0.9612
B( 26-C , 74-H ) :   0.9663 B( 26-C , 75-H ) :   0.9670 B( 27-C , 28-O ) :   2.0136
B( 27-C , 29-C ) :   0.9905 B( 28-O , 82-H ) :   0.1066 B( 29-C , 30-C ) :   1.2991
B( 29-C , 36-C ) :   1.2494 B( 30-C , 31-C ) :   0.9577 B( 31-C , 32-O ) :   2.0947
B( 31-C , 33-N ) :   1.0514 B( 33-N , 34-C ) :   0.9339 B( 33-N , 36-C ) :   1.1811
B( 34-C , 35-C ) :   1.1243 B( 34-C , 76-H ) :   0.9478 B( 34-C , 77-H ) :   0.9288
B( 35-C , 78-H ) :   0.9676 B( 35-C , 79-H ) :   0.9674 B( 35-C , 80-H ) :   0.9635
B( 36-C , 37-C ) :   1.1906 B( 37-C , 38-C ) :   1.5097 B( 37-C , 81-H ) :   0.9444
B( 38-C , 39-C ) :   1.2052 B( 38-C , 82-H ) :   0.9399 B( 39-C , 40-C ) :   1.4237
B( 39-C , 46-C ) :   1.0157 B( 40-C , 41-N ) :   0.9605 B( 40-C , 44-C ) :   1.1624
B( 41-N , 42-O ) :   1.4569 B( 41-N , 43-O ) :   1.5408 B( 42-O , 43-O ) :   0.2510
B( 42-O , 81-H ) :   0.1076 B( 44-C , 45-C ) :   1.5383 B( 44-C , 83-H ) :   1.0073
B( 45-C , 46-C ) :   1.1472 B( 45-C , 84-H ) :   1.0049 B( 46-C , 47-C ) :   1.4892
B( 47-C , 48-C ) :   1.1254 B( 47-C , 54-C ) :   1.0365 B( 48-C , 49-C ) :   1.5825
B( 48-C , 85-H ) :   1.0027 B( 49-C , 50-C ) :   1.1242 B( 49-C , 86-H ) :   1.0084
B( 50-C , 51-N ) :   0.9455 B( 50-C , 54-C ) :   1.5265 B( 51-N , 52-O ) :   1.4933
B( 51-N , 53-O ) :   1.5351 B( 52-O , 53-O ) :   0.2609 B( 54-C , 55-C ) :   1.0802
B( 55-C , 56-C ) :   1.6644 B( 55-C , 87-H ) :   0.9472 B( 56-C , 57-C ) :   1.1130
B( 56-C , 88-H ) :   0.9720 B( 57-C , 58-N ) :   1.6555 B( 57-C , 60-C ) :   0.1091
B( 57-C , 62-C ) :   1.0869 B( 58-N , 59-N ) :   1.2149 B( 59-N , 60-C ) :   1.7139
B( 60-C , 61-C ) :   1.1317 B( 60-C , 89-H ) :   1.0159 B( 61-C , 62-C ) :   1.2002
B( 61-C , 65-N ) :   1.4984 B( 62-C , 63-N ) :   1.5592 B( 63-N , 64-S ) :   1.2834
B( 63-N , 65-N ) :   0.1490 B( 64-S , 65-N ) :   1.2948

-----------------------------------------------------------------------------
         ABSORPTION SPECTRUM VIA TRANSITION ELECTRIC DIPOLE MOMENTS
-----------------------------------------------------------------------------
State   Energy  Wavelength   fosc         T2         TX        TY        TZ
        (cm-1)    (nm)                  (au**2)     (au)      (au)      (au)
-----------------------------------------------------------------------------
   0    5503.4   1817.1   0.334674011  20.02005  -0.30510  -4.46377  -0.04177
   1   10007.2    999.3   0.061257275   2.01521  -0.22316   1.33762   0.41973
   2   11551.9    865.7   0.032218323   0.91817   0.18757   0.44220  -0.82912
   3   15188.0    658.4   0.025719534   0.55749   0.31717   0.64989  -0.18586
   4   15542.5    643.4   0.000811600   0.01719   0.00510  -0.12102  -0.05018
   5   15961.5    626.5   0.001026129   0.02116  -0.04650   0.01908  -0.13652
   6   16415.3    609.2   0.033871619   0.67930  -0.62320  -0.29473   0.45173
   7   18854.0    530.4   0.154627549   2.69997  -0.91577   0.76488   1.12973
   8   19677.7    508.2   0.005127516   0.08578   0.13270  -0.08566  -0.24665
   9   21317.6    469.1   0.029888197   0.46157  -0.18644   0.62382  -0.19406
  10   21990.3    454.7   0.020485927   0.30669   0.24286  -0.43371   0.24414
  11   22226.5    449.9   0.017679742   0.26187   0.03126   0.48013  -0.17426
  12   22899.6    436.7   0.256533272   3.68800   0.66954   1.62355  -0.77705
  13   23002.9    434.7   0.001297030   0.01856  -0.02726   0.10624  -0.08083
  14   23396.0    427.4   0.007632265   0.10740  -0.30484  -0.02260   0.11814
  15   23805.6    420.1   0.181601225   2.51140  -0.02180  -1.58027   0.11689
  16   24356.9    410.6   0.263884394   3.56671  -0.72615   1.73422  -0.17856
  17   24744.0    404.1   0.026059622   0.34672   0.53177   0.25191  -0.02192
  18   24850.6    402.4   0.095668241   1.26738   0.45963   0.64385  -0.80098
  19   24986.0    400.2   0.104044381   1.37087   0.64205  -0.94574  -0.25341
  20   25521.1    391.8   0.022181508   0.28613  -0.34543   0.10800  -0.39389
  21   25711.9    388.9   0.165418101   2.11799  -0.20409  -1.18778   0.81579
  22   26026.1    384.2   0.336954195   4.26223  -0.80462  -1.89443   0.16112
  23   26257.3    380.8   0.135398632   1.69762  -0.08037  -1.23653   0.40270
  24   26774.8    373.5   0.029976021   0.36857  -0.51536  -0.13636   0.29048
  25   27382.4    365.2   0.014328240   0.17227  -0.35465   0.17123   0.13102
  26   27746.6    360.4   0.201617323   2.39218   0.21102   1.51060  -0.25641
  27   27904.4    358.4   0.322108871   3.80019   1.86026  -0.19794  -0.54813
  28   28442.6    351.6   0.003276679   0.03793  -0.19394  -0.00592  -0.01668
  29   28595.3    349.7   0.002369967   0.02728   0.05554   0.15545  -0.00608
  30   29079.8    343.9   0.073390279   0.83085   0.30758  -0.81861   0.25716
  31   29601.2    337.8   0.026651904   0.29641   0.46550   0.05214  -0.27750
  32   30771.0    325.0   0.021849755   0.23377  -0.13612   0.46084  -0.05352
  33   30996.0    322.6   0.016124716   0.17126   0.30363  -0.23976  -0.14691
  34   31174.1    320.8   0.001648223   0.01741  -0.02072   0.10495   0.07722
  35   31204.7    320.5   0.150068981   1.58324   0.78006  -0.94112  -0.29840
  36   31462.5    317.8   0.013367320   0.13987  -0.15890   0.33846   0.00823
  37   31859.9    313.9   0.046626890   0.48180   0.08237   0.68143  -0.10333
  38   32260.0    310.0   0.017621185   0.17982   0.41007  -0.01513  -0.10695
  39   32530.8    307.4   0.039470565   0.39944  -0.61863   0.06882   0.10955
  40   33198.0    301.2   0.124456811   1.23419  -1.08976   0.17048   0.13252
  41   33259.2    300.7   0.098558827   0.97557   0.88784  -0.15230  -0.40512
  42   33488.2    298.6   0.096447643   0.94815   0.80065   0.52337  -0.18219
  43   33597.3    297.6   0.034750063   0.34051   0.09172   0.57622   0.00813
  44   33788.1    296.0   0.037681695   0.36715  -0.50246  -0.21645   0.26045
  45   34555.3    289.4   0.030117718   0.28693  -0.52143   0.09407   0.07870
  46   34701.9    288.2   0.014539901   0.13794  -0.30108  -0.17678   0.12665
  47   34831.8    287.1   0.000853254   0.00806   0.04772   0.06912   0.03177
  48   35113.5    284.8   0.045553220   0.42709  -0.46882   0.44470   0.09764
  49   35133.6    284.6   0.074485951   0.69795   0.01168  -0.81749   0.17182
  50   35329.8    283.0   0.073620557   0.68601   0.55483  -0.61037  -0.07500
  51   35728.3    279.9   0.025473801   0.23472   0.27166  -0.27779  -0.28941
  52   35822.3    279.2   0.007724573   0.07099  -0.03122   0.24909  -0.08926
  53   36034.0    277.5   0.007686678   0.07023  -0.05766  -0.08934  -0.24274
  54   36395.8    274.8   0.009576362   0.08662  -0.03676  -0.19619   0.21629
  55   36415.5    274.6   0.078562579   0.71024   0.27636   0.77795  -0.16927
  56   36555.6    273.6   0.006456445   0.05815   0.10870   0.21483  -0.01338
  57   36604.8    273.2   0.024794951   0.22300   0.45472  -0.04716  -0.11835
  58   36684.4    272.6   0.001103949   0.00991   0.06287   0.05777  -0.05115
  59   36840.3    271.4   0.053405266   0.47724   0.19901   0.65089  -0.11819
  60   36877.4    271.2   0.034247420   0.30573   0.29464  -0.46750   0.01922
  61   37117.5    269.4   0.042993561   0.38133  -0.40063   0.40147   0.24422
  62   37285.9    268.2   0.009567397   0.08447   0.21837   0.07610  -0.17606
  63   37601.7    265.9   0.030707680   0.26885  -0.25751   0.45000   0.00656
  64   37662.4    265.5   0.081573459   0.71304   0.64410   0.52527  -0.14922
  65   37756.2    264.9   0.004311354   0.03759  -0.17253   0.07909   0.03962
  66   38354.1    260.7   0.003004088   0.02579  -0.15972   0.01297  -0.01031
  67   38419.1    260.3   0.000998451   0.00856   0.01996   0.08905  -0.01507
  68   38542.3    259.5   0.032928788   0.28126   0.27902  -0.44499  -0.07346
  69   38922.5    256.9   0.034538471   0.29213  -0.11344  -0.44969   0.27757
  70   39020.6    256.3   0.047948701   0.40454   0.54135   0.21341  -0.25677
  71   39326.3    254.3   0.000177531   0.00149   0.01132   0.00834  -0.03590
  72   39449.1    253.5   0.000744074   0.00621  -0.01363   0.07666  -0.01214
  73   39621.1    252.4   0.022259202   0.18495   0.40972   0.13058   0.00523
  74   40034.2    249.8   0.059762258   0.49144   0.10819  -0.62041   0.30794
  75   40097.4    249.4   0.002855897   0.02345  -0.14450  -0.04943   0.01108

FINAL SINGLE POINT ENERGY     -3701.066024496874

DIPOLE MOMENT
-------------
                                X             Y             Z
Electronic contribution:     -2.67716       8.14984       9.56831
Nuclear contribution   :      2.98535      -8.14529      -9.94919
                        -----------------------------------------
Total Dipole Moment    :      0.30819       0.00455      -0.38088
                        -----------------------------------------
Magnitude (a.u.)       :      0.48997
Magnitude (Debye)      :      1.24541

Rotational constants in cm-1:     0.002476     0.000316     0.000291
Rotational constants in MHz :    74.216552     9.477038     8.734875

                             ****ORCA TERMINATED NORMALLY****
TOTAL RUN TIME: 0 days 0 hours 9 minutes 29 seconds 374 msec
