                         Program Version 4.2.0 -  RELEASE  -
|  1> # ORCA input file
|  2> # SCF done       -171.080703144211          0.000569898947
|  3> ! CAM-B3LYP def2-SVP def2/J RIJCOSX Grid4 TightSCF
|  4> %maxcore 5000
|  5> %tddft
|  6>     Mode sTDDFT
|  7>     Ethresh 5.0
|  8>     maxcore 5000
|  9> end
| 10>
| 11> %pal
| 12>   nprocs 6
| 13>   end
| 14> * xyz 0 1
| 15>    C       -3.98942         1.06799        -0.49861
| 16>    C       -4.88320         2.01045        -0.06873
| 17>    C       -5.45826         2.01439         1.22042
| 18>    N       -5.94449         2.07019         2.25822
| 19>    C       -5.41134         3.04017        -0.87463
| 20>    N       -5.91837         3.86753        -1.48781
| 21>    C       -3.62099        -0.14100         0.22835
| 22>    C       -3.05559        -1.07506        -0.68998
| 23>    C       -2.65985        -2.32102        -0.29461
| 24>    C       -2.80730        -2.69376         1.05985
| 25>    C       -3.35477        -1.75876         1.98633
| 26>    C       -3.75772        -0.47662         1.54944
| 27>    C       -3.49287        -2.14153         3.33624
| 28>    C       -3.11340        -3.38861         3.75199
| 29>    C       -2.57578        -4.30871         2.83915
| 30>    C       -2.42566        -3.96885         1.52204
| 31>    C       -2.98510        -0.46530        -2.02654
| 32>    O       -2.61392        -0.96141        -3.06370
| 33>    C       -3.42026         0.95390        -1.83233
| 34>    C       -3.14656         1.86664        -2.78872
| 35>    C       -3.20162         3.29937        -2.67990
| 36>    C       -2.77532         3.99975        -1.54060
| 37>    N       -2.87907         5.30054        -1.43501
| 38>    C       -3.39165         5.96782        -2.47075
| 39>    N       -3.72401         5.41675        -3.64029
| 40>    C       -3.63334         4.11403        -3.73926
| 41>    C       -3.58099         7.38166        -2.31422
| 42>    S       -3.08435         8.17395        -0.86292
| 43>    C       -3.66659         9.70506        -1.44251
| 44>    C       -4.22263         9.56735        -2.72221
| 45>    C       -4.16568         8.25073        -3.20502
| 46>    C       -4.77645        10.60582        -3.49016
| 47>    N       -5.23489        11.41972        -4.15680
| 48>    C       -3.52109        10.85007        -0.62099
| 49>    C       -4.01216        12.08856        -0.89233
| 50>    C       -3.82866        13.21846        -0.05498
| 51>    C       -3.07770        13.34792         1.09326
| 52>    C       -3.17567        14.68516         1.57157
| 53>    C       -4.07880        15.39097         0.63473
| 54>    C       -4.45049        14.51192        -0.32734
| 55>    C       -4.50291        16.72250         0.71720
| 56>    N       -4.88273        17.80539         0.76422
| 57>    C       -2.53922        15.23299         2.66006
| 58>    C       -2.60465        16.58487         3.11670
| 59>    C       -1.82173        16.72557         4.24337
| 60>    C       -1.19188        15.43842         4.51020
| 61>    C       -1.61672        14.54506         3.57830
| 62>    C       -1.21090        13.20763         3.50685
| 63>    N       -0.86198        12.11388         3.46064
| 64>    C       -1.64730        17.96003         4.92409
| 65>    C       -1.22693        18.18898         6.20006
| 66>    C       -0.94904        19.49910         6.76936
| 67>    C       -0.80088        20.67225         6.07680
| 68>    C       -0.51545        21.91463         6.68258
| 69>    N       -0.29120        22.95426         7.11437
| 70>    C       -0.86750        20.81147         4.67369
| 71>    N       -0.87513        21.00596         3.54207
| 72>    C       -0.76013        19.33434         8.20459
| 73>    C       -0.85740        17.94910         8.51881
| 74>    C       -1.14868        17.18201         7.29705
| 75>    O       -1.35224        15.98984         7.22715
| 76>    C       -0.70394        17.48421         9.79353
| 77>    C       -0.43936        18.40237        10.83369
| 78>    C       -0.35018        19.79193        10.52985
| 79>    C       -0.51588        20.24321         9.20066
| 80>    C       -0.09152        20.70047        11.57645
| 81>    C        0.07441        20.25932        12.86101
| 82>    C       -0.01158        18.89088        13.15860
| 83>    C       -0.26308        17.98212        12.16671
| 84>    H       -2.24139        -3.01503        -1.00826
| 85>    H       -4.15888         0.21452         2.27409
| 86>    H       -3.91039        -1.43104         4.03434
| 87>    H       -3.22618        -3.67364         4.78713
| 88>    H       -2.28124        -5.28810         3.18496
| 89>    H       -2.01257        -4.67303         0.81487
| 90>    H       -2.79993         1.46564        -3.73647
| 91>    H       -2.31180         3.48613        -0.70662
| 92>    H       -3.93907         3.68368        -4.68388
| 93>    H       -4.53860         7.93742        -4.16319
| 94>    H       -2.97812        10.68865         0.30048
| 95>    H       -4.58708        12.25032        -1.79323
| 96>    H       -2.48781        12.58523         1.56031
| 97>    H       -5.10022        14.70799        -1.16044
| 98>    H       -3.19264        17.35834         2.66168
| 99>    H       -0.49504        15.24051         5.30015
|100>    H       -1.91395        18.82342         4.32482
|101>    H       -0.78098        16.42778        10.00417
|102>    H       -0.44854        21.30153         9.00536
|103>    H       -0.02484        21.75275        11.34214
|104>    H        0.27331        20.96281        13.65549
|105>    H        0.12217        18.56057        14.17780
|106>    H       -0.33085        16.92741        12.38981
|107> *
|108>
|109>                          ****END OF INPUT****

CARTESIAN COORDINATES (ANGSTROEM)
---------------------------------
  C     -3.989420    1.067990   -0.498610
  C     -4.883200    2.010450   -0.068730
  C     -5.458260    2.014390    1.220420
  N     -5.944490    2.070190    2.258220
  C     -5.411340    3.040170   -0.874630
  N     -5.918370    3.867530   -1.487810
  C     -3.620990   -0.141000    0.228350
  C     -3.055590   -1.075060   -0.689980
  C     -2.659850   -2.321020   -0.294610
  C     -2.807300   -2.693760    1.059850
  C     -3.354770   -1.758760    1.986330
  C     -3.757720   -0.476620    1.549440
  C     -3.492870   -2.141530    3.336240
  C     -3.113400   -3.388610    3.751990
  C     -2.575780   -4.308710    2.839150
  C     -2.425660   -3.968850    1.522040
  C     -2.985100   -0.465300   -2.026540
  O     -2.613920   -0.961410   -3.063700
  C     -3.420260    0.953900   -1.832330
  C     -3.146560    1.866640   -2.788720
  C     -3.201620    3.299370   -2.679900
  C     -2.775320    3.999750   -1.540600
  N     -2.879070    5.300540   -1.435010
  C     -3.391650    5.967820   -2.470750
  N     -3.724010    5.416750   -3.640290
  C     -3.633340    4.114030   -3.739260
  C     -3.580990    7.381660   -2.314220
  S     -3.084350    8.173950   -0.862920
  C     -3.666590    9.705060   -1.442510
  C     -4.222630    9.567350   -2.722210
  C     -4.165680    8.250730   -3.205020
  C     -4.776450   10.605820   -3.490160
  N     -5.234890   11.419720   -4.156800
  C     -3.521090   10.850070   -0.620990
  C     -4.012160   12.088560   -0.892330
  C     -3.828660   13.218460   -0.054980
  C     -3.077700   13.347920    1.093260
  C     -3.175670   14.685160    1.571570
  C     -4.078800   15.390970    0.634730
  C     -4.450490   14.511920   -0.327340
  C     -4.502910   16.722500    0.717200
  N     -4.882730   17.805390    0.764220
  C     -2.539220   15.232990    2.660060
  C     -2.604650   16.584870    3.116700
  C     -1.821730   16.725570    4.243370
  C     -1.191880   15.438420    4.510200
  C     -1.616720   14.545060    3.578300
  C     -1.210900   13.207630    3.506850
  N     -0.861980   12.113880    3.460640
  C     -1.647300   17.960030    4.924090
  C     -1.226930   18.188980    6.200060
  C     -0.949040   19.499100    6.769360
  C     -0.800880   20.672250    6.076800
  C     -0.515450   21.914630    6.682580
  N     -0.291200   22.954260    7.114370
  C     -0.867500   20.811470    4.673690
  N     -0.875130   21.005960    3.542070
  C     -0.760130   19.334340    8.204590
  C     -0.857400   17.949100    8.518810
  C     -1.148680   17.182010    7.297050
  O     -1.352240   15.989840    7.227150
  C     -0.703940   17.484210    9.793530
  C     -0.439360   18.402370   10.833690
  C     -0.350180   19.791930   10.529850
  C     -0.515880   20.243210    9.200660
  C     -0.091520   20.700470   11.576450
  C      0.074410   20.259320   12.861010
  C     -0.011580   18.890880   13.158600
  C     -0.263080   17.982120   12.166710
  H     -2.241390   -3.015030   -1.008260
  H     -4.158880    0.214520    2.274090
  H     -3.910390   -1.431040    4.034340
  H     -3.226180   -3.673640    4.787130
  H     -2.281240   -5.288100    3.184960
  H     -2.012570   -4.673030    0.814870
  H     -2.799930    1.465640   -3.736470
  H     -2.311800    3.486130   -0.706620
  H     -3.939070    3.683680   -4.683880
  H     -4.538600    7.937420   -4.163190
  H     -2.978120   10.688650    0.300480
  H     -4.587080   12.250320   -1.793230
  H     -2.487810   12.585230    1.560310
  H     -5.100220   14.707990   -1.160440
  H     -3.192640   17.358340    2.661680
  H     -0.495040   15.240510    5.300150
  H     -1.913950   18.823420    4.324820
  H     -0.780980   16.427780   10.004170
  H     -0.448540   21.301530    9.005360
  H     -0.024840   21.752750   11.342140
  H      0.273310   20.962810   13.655490
  H      0.122170   18.560570   14.177800
  H     -0.330850   16.927410   12.389810

 Total Charge           Charge          ....    0
 Multiplicity           Mult            ....    1
 Number of Electrons    NEL             ....  460
 Basis Dimension        Dim             .... 1085

ORBITAL ENERGIES
----------------

  NO   OCC          E(Eh)            E(eV)
   0   2.0000     -88.983027     -2421.3513
   1   2.0000     -19.227655      -523.2111
   2   2.0000     -19.223533      -523.0989
   3   2.0000     -14.432107      -392.7176
   4   2.0000     -14.430175      -392.6650
   5   2.0000     -14.427467      -392.5913
   6   2.0000     -14.426993      -392.5784
   7   2.0000     -14.418103      -392.3365
   8   2.0000     -14.417967      -392.3328
   9   2.0000     -14.415006      -392.2523
  10   2.0000     -14.411563      -392.1586
  11   2.0000     -14.407464      -392.0470
  12   2.0000     -10.378304      -282.4080
  13   2.0000     -10.374883      -282.3149
  14   2.0000     -10.370087      -282.1844
  15   2.0000     -10.357878      -281.8522
  16   2.0000     -10.355514      -281.7879
  17   2.0000     -10.347114      -281.5593
  18   2.0000     -10.345091      -281.5042
  19   2.0000     -10.344103      -281.4774
  20   2.0000     -10.343341      -281.4566
  21   2.0000     -10.338056      -281.3128
  22   2.0000     -10.331943      -281.1465
  23   2.0000     -10.331793      -281.1424
  24   2.0000     -10.329536      -281.0810
  25   2.0000     -10.328928      -281.0644
  26   2.0000     -10.326515      -280.9988
  27   2.0000     -10.324512      -280.9443
  28   2.0000     -10.324391      -280.9409
  29   2.0000     -10.321370      -280.8588
  30   2.0000     -10.320376      -280.8317
  31   2.0000     -10.320193      -280.8267
  32   2.0000     -10.319213      -280.8001
  33   2.0000     -10.315904      -280.7100
  34   2.0000     -10.315346      -280.6948
  35   2.0000     -10.315282      -280.6931
  36   2.0000     -10.314685      -280.6768
  37   2.0000     -10.313521      -280.6452
  38   2.0000     -10.313200      -280.6364
  39   2.0000     -10.312221      -280.6098
  40   2.0000     -10.312167      -280.6083
  41   2.0000     -10.310272      -280.5568
  42   2.0000     -10.310225      -280.5555
  43   2.0000     -10.308532      -280.5094
  44   2.0000     -10.308506      -280.5087
  45   2.0000     -10.308188      -280.5001
  46   2.0000     -10.308098      -280.4976
  47   2.0000     -10.307844      -280.4907
  48   2.0000     -10.307665      -280.4858
  49   2.0000     -10.306762      -280.4613
  50   2.0000     -10.306444      -280.4526
  51   2.0000     -10.304421      -280.3975
  52   2.0000     -10.302417      -280.3430
  53   2.0000     -10.301784      -280.3258
  54   2.0000     -10.301089      -280.3069
  55   2.0000     -10.300879      -280.3012
  56   2.0000     -10.300704      -280.2964
  57   2.0000     -10.300570      -280.2927
  58   2.0000     -10.299907      -280.2747
  59   2.0000     -10.295522      -280.1554
  60   2.0000     -10.295030      -280.1420
  61   2.0000     -10.294773      -280.1350
  62   2.0000     -10.294293      -280.1219
  63   2.0000     -10.292525      -280.0738
  64   2.0000     -10.289475      -279.9908
  65   2.0000     -10.288970      -279.9771
  66   2.0000     -10.288692      -279.9695
  67   2.0000     -10.288147      -279.9547
  68   2.0000     -10.287658      -279.9414
  69   2.0000      -8.077940      -219.8119
  70   2.0000      -6.047017      -164.5477
  71   2.0000      -6.042878      -164.4351
  72   2.0000      -6.040489      -164.3701
  73   2.0000      -1.143004       -31.1027
  74   2.0000      -1.139171       -30.9984
  75   2.0000      -1.107194       -30.1283
  76   2.0000      -1.030808       -28.0497
  77   2.0000      -1.021974       -27.8093
  78   2.0000      -1.020159       -27.7599
  79   2.0000      -1.018178       -27.7060
  80   2.0000      -1.009998       -27.4834
  81   2.0000      -1.005613       -27.3641
  82   2.0000      -1.002872       -27.2895
  83   2.0000      -1.001475       -27.2515
  84   2.0000      -1.000885       -27.2355
  85   2.0000      -0.996256       -27.1095
  86   2.0000      -0.993629       -27.0380
  87   2.0000      -0.987861       -26.8811
  88   2.0000      -0.984665       -26.7941
  89   2.0000      -0.983079       -26.7509
  90   2.0000      -0.974262       -26.5110
  91   2.0000      -0.947260       -25.7763
  92   2.0000      -0.931888       -25.3580
  93   2.0000      -0.929019       -25.2799
  94   2.0000      -0.922332       -25.0979
  95   2.0000      -0.909491       -24.7485
  96   2.0000      -0.903616       -24.5886
  97   2.0000      -0.891790       -24.2669
  98   2.0000      -0.887393       -24.1472
  99   2.0000      -0.883741       -24.0478
 100   2.0000      -0.880807       -23.9680
 101   2.0000      -0.872569       -23.7438
 102   2.0000      -0.861773       -23.4500
 103   2.0000      -0.854401       -23.2494
 104   2.0000      -0.845477       -23.0066
 105   2.0000      -0.838691       -22.8219
 106   2.0000      -0.831571       -22.6282
 107   2.0000      -0.828965       -22.5573
 108   2.0000      -0.808997       -22.0139
 109   2.0000      -0.798443       -21.7267
 110   2.0000      -0.779725       -21.2174
 111   2.0000      -0.775153       -21.0930
 112   2.0000      -0.770990       -20.9797
 113   2.0000      -0.765746       -20.8370
 114   2.0000      -0.759856       -20.6767
 115   2.0000      -0.738757       -20.1026
 116   2.0000      -0.731119       -19.8948
 117   2.0000      -0.722698       -19.6656
 118   2.0000      -0.719892       -19.5893
 119   2.0000      -0.712370       -19.3846
 120   2.0000      -0.706967       -19.2376
 121   2.0000      -0.701589       -19.0912
 122   2.0000      -0.699764       -19.0415
 123   2.0000      -0.692617       -18.8471
 124   2.0000      -0.687673       -18.7125
 125   2.0000      -0.683545       -18.6002
 126   2.0000      -0.680950       -18.5296
 127   2.0000      -0.677303       -18.4304
 128   2.0000      -0.664652       -18.0861
 129   2.0000      -0.655359       -17.8332
 130   2.0000      -0.648651       -17.6507
 131   2.0000      -0.643561       -17.5122
 132   2.0000      -0.640386       -17.4258
 133   2.0000      -0.633192       -17.2300
 134   2.0000      -0.630179       -17.1480
 135   2.0000      -0.617614       -16.8061
 136   2.0000      -0.617317       -16.7981
 137   2.0000      -0.616237       -16.7687
 138   2.0000      -0.609539       -16.5864
 139   2.0000      -0.604306       -16.4440
 140   2.0000      -0.592555       -16.1242
 141   2.0000      -0.585195       -15.9240
 142   2.0000      -0.577578       -15.7167
 143   2.0000      -0.566084       -15.4039
 144   2.0000      -0.563642       -15.3375
 145   2.0000      -0.557607       -15.1733
 146   2.0000      -0.556510       -15.1434
 147   2.0000      -0.551095       -14.9960
 148   2.0000      -0.550792       -14.9878
 149   2.0000      -0.549796       -14.9607
 150   2.0000      -0.547793       -14.9062
 151   2.0000      -0.546794       -14.8790
 152   2.0000      -0.542788       -14.7700
 153   2.0000      -0.541644       -14.7389
 154   2.0000      -0.538157       -14.6440
 155   2.0000      -0.532312       -14.4850
 156   2.0000      -0.529860       -14.4182
 157   2.0000      -0.529758       -14.4154
 158   2.0000      -0.526505       -14.3269
 159   2.0000      -0.525379       -14.2963
 160   2.0000      -0.522086       -14.2067
 161   2.0000      -0.521574       -14.1928
 162   2.0000      -0.519454       -14.1351
 163   2.0000      -0.519032       -14.1236
 164   2.0000      -0.514835       -14.0094
 165   2.0000      -0.513834       -13.9821
 166   2.0000      -0.512931       -13.9576
 167   2.0000      -0.510016       -13.8782
 168   2.0000      -0.505707       -13.7610
 169   2.0000      -0.504987       -13.7414
 170   2.0000      -0.499373       -13.5886
 171   2.0000      -0.498962       -13.5775
 172   2.0000      -0.496090       -13.4993
 173   2.0000      -0.495071       -13.4716
 174   2.0000      -0.489816       -13.3286
 175   2.0000      -0.488742       -13.2993
 176   2.0000      -0.487657       -13.2698
 177   2.0000      -0.481249       -13.0955
 178   2.0000      -0.475905       -12.9500
 179   2.0000      -0.472975       -12.8703
 180   2.0000      -0.467492       -12.7211
 181   2.0000      -0.466691       -12.6993
 182   2.0000      -0.462070       -12.5736
 183   2.0000      -0.456088       -12.4108
 184   2.0000      -0.451323       -12.2811
 185   2.0000      -0.450544       -12.2599
 186   2.0000      -0.450123       -12.2485
 187   2.0000      -0.449636       -12.2352
 188   2.0000      -0.446240       -12.1428
 189   2.0000      -0.445708       -12.1283
 190   2.0000      -0.443909       -12.0794
 191   2.0000      -0.443652       -12.0724
 192   2.0000      -0.442289       -12.0353
 193   2.0000      -0.441144       -12.0041
 194   2.0000      -0.440453       -11.9853
 195   2.0000      -0.439361       -11.9556
 196   2.0000      -0.438059       -11.9202
 197   2.0000      -0.437426       -11.9030
 198   2.0000      -0.436160       -11.8685
 199   2.0000      -0.435508       -11.8508
 200   2.0000      -0.433325       -11.7914
 201   2.0000      -0.428510       -11.6604
 202   2.0000      -0.425825       -11.5873
 203   2.0000      -0.421881       -11.4800
 204   2.0000      -0.417724       -11.3669
 205   2.0000      -0.416123       -11.3233
 206   2.0000      -0.413134       -11.2420
 207   2.0000      -0.410829       -11.1792
 208   2.0000      -0.410551       -11.1717
 209   2.0000      -0.409140       -11.1333
 210   2.0000      -0.402877       -10.9628
 211   2.0000      -0.401372       -10.9219
 212   2.0000      -0.398925       -10.8553
 213   2.0000      -0.389942       -10.6109
 214   2.0000      -0.382156       -10.3990
 215   2.0000      -0.378207       -10.2915
 216   2.0000      -0.363051        -9.8791
 217   2.0000      -0.350479        -9.5370
 218   2.0000      -0.349276        -9.5043
 219   2.0000      -0.345462        -9.4005
 220   2.0000      -0.340706        -9.2711
 221   2.0000      -0.336898        -9.1675
 222   2.0000      -0.327695        -8.9170
 223   2.0000      -0.325345        -8.8531
 224   2.0000      -0.319807        -8.7024
 225   2.0000      -0.316099        -8.6015
 226   2.0000      -0.304195        -8.2776
 227   2.0000      -0.302822        -8.2402
 228   2.0000      -0.293411        -7.9841
 229   2.0000      -0.269366        -7.3298
 230   0.0000      -0.136744        -3.7210
 231   0.0000      -0.104105        -2.8328
 232   0.0000      -0.084116        -2.2889
 233   0.0000      -0.068287        -1.8582
 234   0.0000      -0.060564        -1.6480

MULLIKEN ATOMIC CHARGES
-----------------------
   0 C :    0.272921
   1 C :   -0.333199
   2 C :   -0.180873
   3 N :    0.162665
   4 C :   -0.186526
   5 N :    0.171886
   6 C :    0.033008
   7 C :    0.011250
   8 C :   -0.076475
   9 C :    0.094058
  10 C :    0.092222
  11 C :   -0.075884
  12 C :   -0.015407
  13 C :    0.037035
  14 C :    0.039517
  15 C :   -0.014562
  16 C :    0.137595
  17 O :   -0.133305
  18 C :   -0.115071
  19 C :    0.045808
  20 C :   -0.052592
  21 C :    0.064919
  22 N :   -0.056587
  23 C :   -0.046644
  24 N :   -0.040785
  25 C :    0.079752
  26 C :   -0.028599
  27 S :    0.222326
  28 C :   -0.062024
  29 C :   -0.069078
  30 C :    0.021006
  31 C :   -0.165302
  32 N :    0.119239
  33 C :    0.064258
  34 C :   -0.014668
  35 C :    0.115238
  36 C :   -0.119747
  37 C :    0.124228
  38 C :   -0.087620
  39 C :    0.003376
  40 C :   -0.178025
  41 N :    0.141658
  42 C :    0.105802
  43 C :   -0.074905
  44 C :    0.085434
  45 C :    0.054954
  46 C :   -0.124428
  47 C :   -0.169069
  48 N :    0.126695
  49 C :   -0.040739
  50 C :   -0.073074
  51 C :    0.312940
  52 C :   -0.338353
  53 C :   -0.182025
  54 N :    0.152990
  55 C :   -0.203747
  56 N :    0.168768
  57 C :    0.049128
  58 C :   -0.010966
  59 C :    0.147403
  60 O :   -0.146460
  61 C :   -0.076184
  62 C :    0.097388
  63 C :    0.097090
  64 C :   -0.082444
  65 C :   -0.019569
  66 C :    0.036202
  67 C :    0.038309
  68 C :   -0.015882
  69 H :   -0.008585
  70 H :   -0.003673
  71 H :   -0.007440
  72 H :   -0.000977
  73 H :   -0.002320
  74 H :   -0.014168
  75 H :    0.034572
  76 H :    0.020756
  77 H :    0.013586
  78 H :    0.012952
  79 H :    0.004575
  80 H :    0.001738
  81 H :    0.004047
  82 H :    0.012894
  83 H :    0.017993
  84 H :    0.010739
  85 H :    0.033166
  86 H :   -0.010755
  87 H :   -0.006087
  88 H :   -0.007439
  89 H :   -0.002346
  90 H :   -0.004005
  91 H :   -0.015475
Sum of atomic charges:    0.0000000

LOEWDIN ATOMIC CHARGES
----------------------
   0 C :    0.066822
   1 C :   -0.129574
   2 C :   -0.018454
   3 N :   -0.041958
   4 C :   -0.018131
   5 N :   -0.043107
   6 C :   -0.025496
   7 C :   -0.059430
   8 C :    0.036566
   9 C :   -0.007604
  10 C :   -0.004443
  11 C :    0.020048
  12 C :   -0.004597
  13 C :   -0.009551
  14 C :   -0.009080
  15 C :   -0.007907
  16 C :    0.084592
  17 O :   -0.134274
  18 C :   -0.075338
  19 C :    0.070039
  20 C :   -0.089509
  21 C :    0.067018
  22 N :   -0.084370
  23 C :    0.028208
  24 N :   -0.068078
  25 C :    0.077284
  26 C :   -0.185770
  27 S :    0.515704
  28 C :   -0.137539
  29 C :   -0.102416
  30 C :    0.011463
  31 C :   -0.026577
  32 N :   -0.055391
  33 C :   -0.008065
  34 C :   -0.008702
  35 C :   -0.004354
  36 C :   -0.027356
  37 C :    0.052795
  38 C :   -0.078201
  39 C :    0.062319
  40 C :   -0.032610
  41 N :   -0.054551
  42 C :    0.027191
  43 C :    0.027402
  44 C :   -0.030833
  45 C :    0.074557
  46 C :   -0.094863
  47 C :   -0.026016
  48 N :   -0.070093
  49 C :    0.073122
  50 C :   -0.080740
  51 C :    0.072917
  52 C :   -0.130415
  53 C :   -0.016411
  54 N :   -0.048332
  55 C :   -0.026206
  56 N :   -0.041153
  57 C :   -0.026035
  58 C :   -0.057607
  59 C :    0.084897
  60 O :   -0.135566
  61 C :    0.034834
  62 C :   -0.008017
  63 C :   -0.004916
  64 C :    0.020344
  65 C :   -0.004856
  66 C :   -0.011623
  67 C :   -0.010886
  68 C :   -0.008708
  69 H :    0.040925
  70 H :    0.039761
  71 H :    0.035621
  72 H :    0.034766
  73 H :    0.034167
  74 H :    0.033176
  75 H :    0.050504
  76 H :    0.029567
  77 H :    0.031501
  78 H :    0.047414
  79 H :    0.038395
  80 H :    0.040000
  81 H :    0.033051
  82 H :    0.042658
  83 H :    0.040759
  84 H :    0.037990
  85 H :    0.052636
  86 H :    0.039771
  87 H :    0.039554
  88 H :    0.035396
  89 H :    0.034101
  90 H :    0.033355
  91 H :    0.032516

  Mayer bond orders larger than 0.100000
B(  0-C ,  1-C ) :   1.6720 B(  0-C ,  6-C ) :   1.0068 B(  0-C , 18-C ) :   1.0002
B(  1-C ,  2-C ) :   1.1316 B(  1-C ,  4-C ) :   1.1610 B(  2-C ,  3-N ) :   2.9868
B(  4-C ,  5-N ) :   2.9923 B(  6-C ,  7-C ) :   1.2127 B(  6-C , 11-C ) :   1.4502
B(  7-C ,  8-C ) :   1.4677 B(  7-C , 16-C ) :   0.9236 B(  8-C ,  9-C ) :   1.1903
B(  8-C , 69-H ) :   1.0152 B(  9-C , 10-C ) :   1.2530 B(  9-C , 15-C ) :   1.2427
B( 10-C , 11-C ) :   1.2099 B( 10-C , 12-C ) :   1.2408 B( 11-C , 70-H ) :   0.9920
B( 12-C , 13-C ) :   1.4909 B( 12-C , 71-H ) :   0.9967 B( 13-C , 14-C ) :   1.2593
B( 13-C , 72-H ) :   0.9889 B( 14-C , 15-C ) :   1.4920 B( 14-C , 73-H ) :   0.9881
B( 15-C , 74-H ) :   0.9971 B( 16-C , 17-O ) :   2.2823 B( 16-C , 18-C ) :   0.9206
B( 18-C , 19-C ) :   1.7749 B( 19-C , 20-C ) :   1.0052 B( 19-C , 75-H ) :   0.9408
B( 20-C , 21-C ) :   1.3143 B( 20-C , 25-C ) :   1.3052 B( 21-C , 22-N ) :   1.5858
B( 21-C , 76-H ) :   0.9858 B( 22-N , 23-C ) :   1.5673 B( 23-C , 24-N ) :   1.5764
B( 23-C , 26-C ) :   1.0226 B( 24-N , 25-C ) :   1.5792 B( 25-C , 77-H ) :   0.9903
B( 26-C , 27-S ) :   1.1340 B( 26-C , 30-C ) :   1.4959 B( 27-S , 28-C ) :   1.1529
B( 28-C , 29-C ) :   1.4256 B( 28-C , 33-C ) :   1.1538 B( 29-C , 30-C ) :   1.2855
B( 29-C , 31-C ) :   1.1134 B( 30-C , 78-H ) :   1.0083 B( 31-C , 32-N ) :   2.9669
B( 33-C , 34-C ) :   1.6472 B( 33-C , 79-H ) :   0.9499 B( 34-C , 35-C ) :   1.1254
B( 34-C , 80-H ) :   0.9596 B( 35-C , 36-C ) :   1.5387 B( 35-C , 39-C ) :   1.0199
B( 36-C , 37-C ) :   1.1370 B( 36-C , 81-H ) :   0.9952 B( 37-C , 38-C ) :   1.0890
B( 37-C , 42-C ) :   1.4118 B( 38-C , 39-C ) :   1.6840 B( 38-C , 40-C ) :   1.0884
B( 39-C , 82-H ) :   1.0250 B( 40-C , 41-N ) :   2.9656 B( 42-C , 43-C ) :   1.1009
B( 42-C , 46-C ) :   1.1158 B( 43-C , 44-C ) :   1.5001 B( 43-C , 83-H ) :   1.0066
B( 44-C , 45-C ) :   1.0634 B( 44-C , 49-C ) :   1.1209 B( 45-C , 46-C ) :   1.6579
B( 45-C , 84-H ) :   1.0078 B( 46-C , 47-C ) :   1.0957 B( 47-C , 48-N ) :   2.9656
B( 49-C , 50-C ) :   1.5970 B( 49-C , 85-H ) :   0.9482 B( 50-C , 51-C ) :   1.0492
B( 50-C , 59-C ) :   0.9306 B( 51-C , 52-C ) :   1.6453 B( 51-C , 57-C ) :   0.9936
B( 52-C , 53-C ) :   1.1453 B( 52-C , 55-C ) :   1.1400 B( 53-C , 54-N ) :   2.9654
B( 55-C , 56-N ) :   2.9881 B( 57-C , 58-C ) :   1.2134 B( 57-C , 64-C ) :   1.4461
B( 58-C , 59-C ) :   0.9454 B( 58-C , 61-C ) :   1.4683 B( 59-C , 60-O ) :   2.2176
B( 61-C , 62-C ) :   1.1810 B( 61-C , 86-H ) :   1.0166 B( 62-C , 63-C ) :   1.2558
B( 62-C , 68-C ) :   1.2433 B( 63-C , 64-C ) :   1.2085 B( 63-C , 65-C ) :   1.2380
B( 64-C , 87-H ) :   0.9900 B( 65-C , 66-C ) :   1.4908 B( 65-C , 88-H ) :   0.9976
B( 66-C , 67-C ) :   1.2594 B( 66-C , 89-H ) :   0.9879 B( 67-C , 68-C ) :   1.4897
B( 67-C , 90-H ) :   0.9886 B( 68-C , 91-H ) :   0.9980

-----------------------------------------------------------------------------
         ABSORPTION SPECTRUM VIA TRANSITION ELECTRIC DIPOLE MOMENTS
-----------------------------------------------------------------------------
State   Energy  Wavelength   fosc         T2         TX        TY        TZ
        (cm-1)    (nm)                  (au**2)     (au)      (au)      (au)
-----------------------------------------------------------------------------
   0   13228.3    756.0   0.800125607  19.91266   1.07579   3.33743   2.75987
   1   17556.3    569.6   0.023129484   0.43372   0.31578   0.21015   0.53837
   2   21473.6    465.7   0.743789534  11.40307  -0.57726  -3.14112  -1.09692
   3   22102.8    452.4   0.241111540   3.59125   0.15735   1.81349   0.52700
   4   23074.5    433.4   0.211888465   3.02308  -0.24096   0.50165  -1.64723
   5   24505.7    408.1   0.042648991   0.57295   0.39691   0.08756   0.63855
   6   26033.3    384.1   0.036430859   0.46070  -0.09349  -0.20897  -0.63898
   7   26199.5    381.7   0.081124919   1.01938   0.39679  -0.91393   0.16331
   8   27026.6    370.0   0.170463989   2.07643   0.44687   1.09389   0.82470
   9   27670.4    361.4   0.197975869   2.35544   0.15650  -0.00368   1.52674
  10   28021.6    356.9   0.235503488   2.76682  -0.64107  -0.78351  -1.31983
  11   29037.9    344.4   0.010661615   0.12087   0.04474   0.10529   0.32831
  12   29352.4    340.7   0.170344711   1.91056  -0.33766   1.31912   0.23762
  13   29686.6    336.9   0.329112990   3.64973  -0.37418   1.74945   0.67019
  14   30038.1    332.9   0.010967094   0.12020   0.32358   0.04661   0.11542
  15   30259.9    330.5   0.123838023   1.34729   0.03233   0.39427  -1.09124
  16   30360.2    329.4   0.157935519   1.71258   0.14057  -0.69526  -1.09974
  17   30936.7    323.2   0.266520165   2.83616   0.72652  -0.44725   1.45200
  18   31042.4    322.1   0.172720466   1.83174  -0.12916   1.26167  -0.47250
  19   31299.6    319.5   0.092116579   0.96889  -0.52170  -0.80404  -0.22414
  20   32272.0    309.9   0.194754061   1.98672   0.17860  -0.77155   1.16599
  21   32608.9    306.7   0.018870205   0.19051   0.12483  -0.28017  -0.31054
  22   33180.4    301.4   0.072681279   0.72114   0.17846  -0.51565   0.65068
  23   33635.0    297.3   0.257569627   2.52104   0.58432  -1.41086   0.43482
  24   33770.1    296.1   0.253780783   2.47401   0.67082  -1.24029   0.69692
  25   34086.8    293.4   0.160949580   1.55446   0.14135   0.32734   1.19471
  26   34472.7    290.1   0.042554359   0.40639  -0.12711   0.03598  -0.62365
  27   34553.5    289.4   0.021047147   0.20053  -0.24622   0.36967   0.05699
  28   34660.4    288.5   0.048047519   0.45637  -0.03097   0.58161  -0.34225
  29   35008.7    285.6   0.442204228   4.15836   0.54516  -1.67665   1.02470
  30   35607.6    280.8   0.090220355   0.83414  -0.05452  -0.17784   0.89417
  31   35778.9    279.5   0.332040784   3.05520   0.10503   0.74506  -1.57767
  32   36420.6    274.6   0.197762366   1.78761  -0.36796   0.76418  -1.03356
  33   36627.9    273.0   0.054412589   0.48906   0.40154  -0.41431   0.39519
  34   37105.1    269.5   0.023404879   0.20766   0.08750  -0.15051   0.42113
  35   37136.2    269.3   0.003993197   0.03540  -0.09669  -0.11301  -0.11524
  36   37733.5    265.0   0.017495818   0.15265  -0.16030   0.30938  -0.17673
  37   38224.8    261.6   0.040349645   0.34751   0.15365  -0.50675  -0.25905
  38   38258.3    261.4   0.032286011   0.27782  -0.12737   0.27875  -0.42883
  39   38866.7    257.3   0.004653531   0.03942  -0.14882  -0.07428   0.10840
  40   38920.3    256.9   0.013353055   0.11295  -0.06013  -0.24084  -0.22656
  41   39289.3    254.5   0.076883186   0.64422  -0.12958  -0.67196  -0.41940
  42   39592.6    252.6   0.015915027   0.13233   0.03184  -0.03321  -0.36086
  43   39678.1    252.0   0.015181510   0.12596  -0.23838  -0.21438   0.15225
  44   39856.2    250.9   0.051572239   0.42599   0.34437  -0.35104  -0.42915
  45   39965.3    250.2   0.077400202   0.63758  -0.15026   0.59987   0.50513
  46   40252.7    248.4   0.153875146   1.25849   0.06838  -0.87181   0.70268

FINAL SINGLE POINT ENERGY     -3223.420168862449

DIPOLE MOMENT
-------------
                                X             Y             Z
Electronic contribution:     -6.17279      11.42133     -24.18230
Nuclear contribution   :      7.64987     -16.34793      26.75848
                        -----------------------------------------
Total Dipole Moment    :      1.47708      -4.92660       2.57619
                        -----------------------------------------
Magnitude (a.u.)       :      5.75238
Magnitude (Debye)      :     14.62139

Rotational constants in cm-1:     0.001557     0.000241     0.000212
Rotational constants in MHz :    46.692573     7.221127     6.369534

                             ****ORCA TERMINATED NORMALLY****
TOTAL RUN TIME: 0 days 0 hours 8 minutes 22 seconds 678 msec
