                         Program Version 4.2.0 -  RELEASE  -
|  1> # ORCA input file
|  2> # SCF done       -215.625209926816          0.000858651612
|  3> ! CAM-B3LYP def2-SVP def2/J RIJCOSX Grid4 TightSCF
|  4> %maxcore 5000
|  5> %tddft
|  6>     Mode sTDDFT
|  7>     Ethresh 5.0
|  8>     maxcore 5000
|  9> end
| 10>
| 11> %pal
| 12>   nprocs 6
| 13>   end
| 14> * xyz 0 1
| 15>    C       -5.86056        -0.77698        -0.95764
| 16>    C       -5.34162        -0.68823        -2.21884
| 17>    F       -4.80581         0.46108        -2.64760
| 18>    C       -5.36293        -1.80174        -3.08309
| 19>    F       -4.84678        -1.68683        -4.31380
| 20>    C       -5.90476        -2.98798        -2.67453
| 21>    C       -6.44912        -3.11085        -1.38119
| 22>    C       -6.42450        -1.98676        -0.50501
| 23>    C       -6.95724        -2.08937         0.80008
| 24>    C       -7.49764        -3.27829         1.21358
| 25>    C       -7.53272        -4.39260         0.32784
| 26>    C       -7.02307        -4.32267        -0.93734
| 27>    C       -8.19327        -5.53219         0.99112
| 28>    O       -8.43247        -6.61677         0.50091
| 29>    C       -8.58742        -5.03251         2.33155
| 30>    C       -8.08743        -3.67937         2.48461
| 31>    C       -8.07178        -2.96196         3.64930
| 32>    C       -8.49818        -3.47918         4.89210
| 33>    N       -8.77432        -3.87443         5.93347
| 34>    C       -7.56484        -1.65038         3.76131
| 35>    N       -7.16872        -0.58218         3.89831
| 36>    C       -9.46446        -5.67135         3.15210
| 37>    C       -9.85479        -7.03299         3.01382
| 38>    C      -11.15523        -7.52645         3.01918
| 39>    N      -12.32009        -6.75212         3.14466
| 40>    O      -12.19679        -5.53647         3.17221
| 41>    O      -13.38481        -7.33823         3.21903
| 42>    C      -11.13563        -8.93850         2.78574
| 43>    C       -9.84213        -9.31903         2.60821
| 44>    C       -8.98884        -8.16839         2.75540
| 45>    C       -7.60440        -8.17664         2.85355
| 46>    C       -6.80135        -7.35241         3.67283
| 47>    C       -5.52702        -7.86824         3.71079
| 48>    C       -5.45197        -8.99944         2.85752
| 49>    N       -4.28552        -9.73748         2.64804
| 50>    O       -3.26692        -9.36243         3.20578
| 51>    O       -4.34112       -10.73365         1.93337
| 52>    C       -6.70907        -9.18835         2.24959
| 53>    C       -7.00201       -10.01090         1.17053
| 54>    C       -8.10052        -9.84554         0.34157
| 55>    C       -8.52372       -10.70145        -0.66661
| 56>    S       -9.72641       -10.09058        -1.77510
| 57>    C       -9.71506       -11.52092        -2.72808
| 58>    C       -8.86531       -12.49896        -2.17444
| 59>    C       -8.18653       -12.04156        -1.00341
| 60>    C       -7.33770       -12.91335        -0.31296
| 61>    C       -7.13270       -14.19833        -0.77156
| 62>    C       -6.22067       -15.13236        -0.04844
| 63>    C       -7.82963       -14.64709        -1.90976
| 64>    C       -8.68977       -13.83207        -2.59343
| 65>    C      -10.52016       -11.55192        -3.90954
| 66>    C      -10.27485       -12.29690        -4.99584
| 67>    C      -11.16905       -12.34174        -6.18514
| 68>    C      -11.62174       -13.78344        -6.45000
| 69>    O      -12.53074       -14.44612        -6.06659
| 70>    C      -10.41954       -12.44638        -7.52122
| 71>    O       -9.99474       -11.65148        -8.29258
| 72>    C      -10.54609       -13.97112        -7.52015
| 73>    C      -10.84125       -14.73396        -8.74886
| 74>    C      -11.44459       -15.92794        -8.86385
| 75>    C      -11.91195       -16.35097       -10.22930
| 76>    O      -11.56844       -15.86618       -11.27774
| 77>    C      -12.89306       -17.41994        -9.98893
| 78>    C      -13.70180       -18.05356       -10.88977
| 79>    C      -14.61281       -19.02786       -10.42741
| 80>    C      -14.67680       -19.31799        -9.03245
| 81>    C      -15.59857       -20.28162        -8.57444
| 82>    C      -16.41356       -20.92978        -9.45941
| 83>    C      -16.34652       -20.64456       -10.83958
| 84>    C      -15.46579       -19.71348       -11.31454
| 85>    F      -17.15667       -21.29494       -11.68147
| 86>    F      -17.28616       -21.84461        -9.02444
| 87>    C      -13.82403       -18.65079        -8.12549
| 88>    C      -12.93281       -17.72139        -8.59729
| 89>    C      -11.93084       -16.91732        -7.90482
| 90>    C      -11.45211       -17.18761        -6.65412
| 91>    C      -10.37854       -16.52274        -6.03569
| 92>    N       -9.49697       -16.01219        -5.50416
| 93>    C      -11.94631       -18.21933        -5.82307
| 94>    N      -12.29037       -19.04357        -5.10409
| 95>    H       -5.83456         0.08391        -0.30803
| 96>    H       -5.91366        -3.83015        -3.34860
| 97>    H       -6.93089        -1.22209         1.44009
| 98>    H       -7.05658        -5.18100        -1.59117
| 99>    H       -9.97150        -5.10745         3.92728
|100>    H      -12.01569        -9.55174         2.76144
|101>    H       -9.48378       -10.32333         2.48836
|102>    H       -7.16563        -6.53814         4.27004
|103>    H       -4.70043        -7.50257         4.29147
|104>    H       -6.24805       -10.74456         0.92052
|105>    H       -8.64662        -8.91383         0.42665
|106>    H       -6.85153       -12.59841         0.59475
|107>    H       -6.80442       -15.87577         0.49512
|108>    H       -5.59494       -14.59884         0.66163
|109>    H       -5.58523       -15.66530        -0.75292
|110>    H       -7.69440       -15.66748        -2.23517
|111>    H       -9.25122       -14.22542        -3.42459
|112>    H      -11.35874       -10.86672        -3.91348
|113>    H       -9.39605       -12.92177        -5.04665
|114>    H      -11.95914       -11.59274        -6.12223
|115>    H       -9.64702       -14.36623        -7.02844
|116>    H      -10.62086       -14.21862        -9.67897
|117>    H      -13.64714       -17.81098       -11.94005
|118>    H      -15.66079       -20.51435        -7.52287
|119>    H      -15.42763       -19.50594       -12.37243
|120>    H      -13.90612       -18.88115        -7.07562
|121> *
|122>
|123>                          ****END OF INPUT****

CARTESIAN COORDINATES (ANGSTROEM)
---------------------------------
  C     -5.860560   -0.776980   -0.957640
  C     -5.341620   -0.688230   -2.218840
  F     -4.805810    0.461080   -2.647600
  C     -5.362930   -1.801740   -3.083090
  F     -4.846780   -1.686830   -4.313800
  C     -5.904760   -2.987980   -2.674530
  C     -6.449120   -3.110850   -1.381190
  C     -6.424500   -1.986760   -0.505010
  C     -6.957240   -2.089370    0.800080
  C     -7.497640   -3.278290    1.213580
  C     -7.532720   -4.392600    0.327840
  C     -7.023070   -4.322670   -0.937340
  C     -8.193270   -5.532190    0.991120
  O     -8.432470   -6.616770    0.500910
  C     -8.587420   -5.032510    2.331550
  C     -8.087430   -3.679370    2.484610
  C     -8.071780   -2.961960    3.649300
  C     -8.498180   -3.479180    4.892100
  N     -8.774320   -3.874430    5.933470
  C     -7.564840   -1.650380    3.761310
  N     -7.168720   -0.582180    3.898310
  C     -9.464460   -5.671350    3.152100
  C     -9.854790   -7.032990    3.013820
  C    -11.155230   -7.526450    3.019180
  N    -12.320090   -6.752120    3.144660
  O    -12.196790   -5.536470    3.172210
  O    -13.384810   -7.338230    3.219030
  C    -11.135630   -8.938500    2.785740
  C     -9.842130   -9.319030    2.608210
  C     -8.988840   -8.168390    2.755400
  C     -7.604400   -8.176640    2.853550
  C     -6.801350   -7.352410    3.672830
  C     -5.527020   -7.868240    3.710790
  C     -5.451970   -8.999440    2.857520
  N     -4.285520   -9.737480    2.648040
  O     -3.266920   -9.362430    3.205780
  O     -4.341120  -10.733650    1.933370
  C     -6.709070   -9.188350    2.249590
  C     -7.002010  -10.010900    1.170530
  C     -8.100520   -9.845540    0.341570
  C     -8.523720  -10.701450   -0.666610
  S     -9.726410  -10.090580   -1.775100
  C     -9.715060  -11.520920   -2.728080
  C     -8.865310  -12.498960   -2.174440
  C     -8.186530  -12.041560   -1.003410
  C     -7.337700  -12.913350   -0.312960
  C     -7.132700  -14.198330   -0.771560
  C     -6.220670  -15.132360   -0.048440
  C     -7.829630  -14.647090   -1.909760
  C     -8.689770  -13.832070   -2.593430
  C    -10.520160  -11.551920   -3.909540
  C    -10.274850  -12.296900   -4.995840
  C    -11.169050  -12.341740   -6.185140
  C    -11.621740  -13.783440   -6.450000
  O    -12.530740  -14.446120   -6.066590
  C    -10.419540  -12.446380   -7.521220
  O     -9.994740  -11.651480   -8.292580
  C    -10.546090  -13.971120   -7.520150
  C    -10.841250  -14.733960   -8.748860
  C    -11.444590  -15.927940   -8.863850
  C    -11.911950  -16.350970  -10.229300
  O    -11.568440  -15.866180  -11.277740
  C    -12.893060  -17.419940   -9.988930
  C    -13.701800  -18.053560  -10.889770
  C    -14.612810  -19.027860  -10.427410
  C    -14.676800  -19.317990   -9.032450
  C    -15.598570  -20.281620   -8.574440
  C    -16.413560  -20.929780   -9.459410
  C    -16.346520  -20.644560  -10.839580
  C    -15.465790  -19.713480  -11.314540
  F    -17.156670  -21.294940  -11.681470
  F    -17.286160  -21.844610   -9.024440
  C    -13.824030  -18.650790   -8.125490
  C    -12.932810  -17.721390   -8.597290
  C    -11.930840  -16.917320   -7.904820
  C    -11.452110  -17.187610   -6.654120
  C    -10.378540  -16.522740   -6.035690
  N     -9.496970  -16.012190   -5.504160
  C    -11.946310  -18.219330   -5.823070
  N    -12.290370  -19.043570   -5.104090
  H     -5.834560    0.083910   -0.308030
  H     -5.913660   -3.830150   -3.348600
  H     -6.930890   -1.222090    1.440090
  H     -7.056580   -5.181000   -1.591170
  H     -9.971500   -5.107450    3.927280
  H    -12.015690   -9.551740    2.761440
  H     -9.483780  -10.323330    2.488360
  H     -7.165630   -6.538140    4.270040
  H     -4.700430   -7.502570    4.291470
  H     -6.248050  -10.744560    0.920520
  H     -8.646620   -8.913830    0.426650
  H     -6.851530  -12.598410    0.594750
  H     -6.804420  -15.875770    0.495120
  H     -5.594940  -14.598840    0.661630
  H     -5.585230  -15.665300   -0.752920
  H     -7.694400  -15.667480   -2.235170
  H     -9.251220  -14.225420   -3.424590
  H    -11.358740  -10.866720   -3.913480
  H     -9.396050  -12.921770   -5.046650
  H    -11.959140  -11.592740   -6.122230
  H     -9.647020  -14.366230   -7.028440
  H    -10.620860  -14.218620   -9.678970
  H    -13.647140  -17.810980  -11.940050
  H    -15.660790  -20.514350   -7.522870
  H    -15.427630  -19.505940  -12.372430
  H    -13.906120  -18.881150   -7.075620

 Total Charge           Charge          ....    0
 Multiplicity           Mult            ....    1
 Number of Electrons    NEL             ....  550
 Basis Dimension        Dim             .... 1254

ORBITAL ENERGIES
----------------

  NO   OCC          E(Eh)            E(eV)
   0   2.0000     -88.995679     -2421.6955
   1   2.0000     -24.812147      -675.1729
   2   2.0000     -24.811408      -675.1527
   3   2.0000     -24.801020      -674.8701
   4   2.0000     -24.799868      -674.8387
   5   2.0000     -19.267096      -524.2843
   6   2.0000     -19.261869      -524.1421
   7   2.0000     -19.239043      -523.5210
   8   2.0000     -19.237089      -523.4678
   9   2.0000     -19.236696      -523.4571
  10   2.0000     -19.225391      -523.1495
  11   2.0000     -19.216991      -522.9209
  12   2.0000     -19.216900      -522.9184
  13   2.0000     -14.644299      -398.4916
  14   2.0000     -14.627609      -398.0375
  15   2.0000     -14.450805      -393.2264
  16   2.0000     -14.437891      -392.8750
  17   2.0000     -14.418056      -392.3353
  18   2.0000     -14.416380      -392.2896
  19   2.0000     -10.411368      -283.3077
  20   2.0000     -10.406725      -283.1814
  21   2.0000     -10.396732      -282.9095
  22   2.0000     -10.396054      -282.8910
  23   2.0000     -10.389428      -282.7107
  24   2.0000     -10.384283      -282.5707
  25   2.0000     -10.383710      -282.5551
  26   2.0000     -10.376745      -282.3656
  27   2.0000     -10.369473      -282.1677
  28   2.0000     -10.368365      -282.1375
  29   2.0000     -10.354839      -281.7695
  30   2.0000     -10.349968      -281.6369
  31   2.0000     -10.346141      -281.5328
  32   2.0000     -10.345773      -281.5228
  33   2.0000     -10.342884      -281.4442
  34   2.0000     -10.339802      -281.3603
  35   2.0000     -10.330675      -281.1119
  36   2.0000     -10.329549      -281.0813
  37   2.0000     -10.329345      -281.0758
  38   2.0000     -10.327959      -281.0381
  39   2.0000     -10.327700      -281.0310
  40   2.0000     -10.327605      -281.0284
  41   2.0000     -10.327454      -281.0243
  42   2.0000     -10.327292      -281.0199
  43   2.0000     -10.327038      -281.0130
  44   2.0000     -10.323001      -280.9031
  45   2.0000     -10.322970      -280.9023
  46   2.0000     -10.321511      -280.8626
  47   2.0000     -10.321189      -280.8538
  48   2.0000     -10.320968      -280.8478
  49   2.0000     -10.320340      -280.8307
  50   2.0000     -10.318612      -280.7837
  51   2.0000     -10.318595      -280.7832
  52   2.0000     -10.316760      -280.7333
  53   2.0000     -10.315914      -280.7103
  54   2.0000     -10.315283      -280.6931
  55   2.0000     -10.313917      -280.6560
  56   2.0000     -10.313863      -280.6545
  57   2.0000     -10.313638      -280.6483
  58   2.0000     -10.312831      -280.6264
  59   2.0000     -10.310708      -280.5686
  60   2.0000     -10.310636      -280.5667
  61   2.0000     -10.310202      -280.5549
  62   2.0000     -10.307293      -280.4757
  63   2.0000     -10.305376      -280.4235
  64   2.0000     -10.304264      -280.3933
  65   2.0000     -10.304126      -280.3895
  66   2.0000     -10.304045      -280.3873
  67   2.0000     -10.303895      -280.3832
  68   2.0000     -10.303004      -280.3590
  69   2.0000     -10.301761      -280.3252
  70   2.0000     -10.299032      -280.2509
  71   2.0000     -10.298756      -280.2434
  72   2.0000     -10.297807      -280.2176
  73   2.0000     -10.297559      -280.2108
  74   2.0000     -10.290646      -280.0227
  75   2.0000     -10.290227      -280.0113
  76   2.0000     -10.285480      -279.8821
  77   2.0000     -10.283018      -279.8151
  78   2.0000     -10.276999      -279.6514
  79   2.0000     -10.272440      -279.5273
  80   2.0000      -8.091136      -220.1710
  81   2.0000      -6.059953      -164.8997
  82   2.0000      -6.055893      -164.7892
  83   2.0000      -6.054083      -164.7400
  84   2.0000      -1.335569       -36.3427
  85   2.0000      -1.323558       -36.0158
  86   2.0000      -1.320601       -35.9354
  87   2.0000      -1.315007       -35.7832
  88   2.0000      -1.308682       -35.6111
  89   2.0000      -1.294990       -35.2385
  90   2.0000      -1.186895       -32.2970
  91   2.0000      -1.178350       -32.0645
  92   2.0000      -1.155733       -31.4491
  93   2.0000      -1.140106       -31.0239
  94   2.0000      -1.132966       -30.8296
  95   2.0000      -1.111848       -30.2549
  96   2.0000      -1.047030       -28.4911
  97   2.0000      -1.028138       -27.9770
  98   2.0000      -1.026259       -27.9259
  99   2.0000      -1.022347       -27.8195
 100   2.0000      -1.019952       -27.7543
 101   2.0000      -1.009840       -27.4792
 102   2.0000      -1.007411       -27.4131
 103   2.0000      -1.006710       -27.3940
 104   2.0000      -0.999141       -27.1880
 105   2.0000      -0.995907       -27.1000
 106   2.0000      -0.990059       -26.9409
 107   2.0000      -0.983393       -26.7595
 108   2.0000      -0.960384       -26.1334
 109   2.0000      -0.952029       -25.9060
 110   2.0000      -0.942052       -25.6345
 111   2.0000      -0.935080       -25.4448
 112   2.0000      -0.928430       -25.2639
 113   2.0000      -0.912110       -24.8198
 114   2.0000      -0.909654       -24.7529
 115   2.0000      -0.907622       -24.6977
 116   2.0000      -0.901470       -24.5303
 117   2.0000      -0.895919       -24.3792
 118   2.0000      -0.892589       -24.2886
 119   2.0000      -0.882987       -24.0273
 120   2.0000      -0.880347       -23.9555
 121   2.0000      -0.871407       -23.7122
 122   2.0000      -0.866970       -23.5914
 123   2.0000      -0.858430       -23.3591
 124   2.0000      -0.846765       -23.0416
 125   2.0000      -0.843943       -22.9648
 126   2.0000      -0.834689       -22.7130
 127   2.0000      -0.828821       -22.5534
 128   2.0000      -0.810192       -22.0464
 129   2.0000      -0.800999       -21.7963
 130   2.0000      -0.795560       -21.6483
 131   2.0000      -0.787714       -21.4348
 132   2.0000      -0.775055       -21.0903
 133   2.0000      -0.770445       -20.9649
 134   2.0000      -0.769144       -20.9295
 135   2.0000      -0.751519       -20.4499
 136   2.0000      -0.737677       -20.0732
 137   2.0000      -0.736410       -20.0387
 138   2.0000      -0.731578       -19.9073
 139   2.0000      -0.726239       -19.7620
 140   2.0000      -0.723111       -19.6769
 141   2.0000      -0.719648       -19.5826
 142   2.0000      -0.712260       -19.3816
 143   2.0000      -0.708400       -19.2766
 144   2.0000      -0.706143       -19.2151
 145   2.0000      -0.705059       -19.1856
 146   2.0000      -0.686440       -18.6790
 147   2.0000      -0.680981       -18.5304
 148   2.0000      -0.677491       -18.4355
 149   2.0000      -0.673947       -18.3390
 150   2.0000      -0.669084       -18.2067
 151   2.0000      -0.664877       -18.0922
 152   2.0000      -0.663169       -18.0457
 153   2.0000      -0.660032       -17.9604
 154   2.0000      -0.658051       -17.9065
 155   2.0000      -0.651735       -17.7346
 156   2.0000      -0.645091       -17.5538
 157   2.0000      -0.642285       -17.4775
 158   2.0000      -0.638196       -17.3662
 159   2.0000      -0.635348       -17.2887
 160   2.0000      -0.628667       -17.1069
 161   2.0000      -0.625977       -17.0337
 162   2.0000      -0.625674       -17.0254
 163   2.0000      -0.620819       -16.8933
 164   2.0000      -0.617498       -16.8030
 165   2.0000      -0.613676       -16.6990
 166   2.0000      -0.611589       -16.6422
 167   2.0000      -0.609038       -16.5728
 168   2.0000      -0.606663       -16.5081
 169   2.0000      -0.604000       -16.4357
 170   2.0000      -0.599666       -16.3177
 171   2.0000      -0.598159       -16.2767
 172   2.0000      -0.593168       -16.1409
 173   2.0000      -0.588620       -16.0172
 174   2.0000      -0.588015       -16.0007
 175   2.0000      -0.585679       -15.9371
 176   2.0000      -0.583183       -15.8692
 177   2.0000      -0.580600       -15.7989
 178   2.0000      -0.578748       -15.7485
 179   2.0000      -0.573785       -15.6135
 180   2.0000      -0.570538       -15.5251
 181   2.0000      -0.569282       -15.4910
 182   2.0000      -0.568200       -15.4615
 183   2.0000      -0.561510       -15.2795
 184   2.0000      -0.560907       -15.2631
 185   2.0000      -0.558060       -15.1856
 186   2.0000      -0.555917       -15.1273
 187   2.0000      -0.554213       -15.0809
 188   2.0000      -0.553037       -15.0489
 189   2.0000      -0.549571       -14.9546
 190   2.0000      -0.546627       -14.8745
 191   2.0000      -0.543780       -14.7970
 192   2.0000      -0.543383       -14.7862
 193   2.0000      -0.542640       -14.7660
 194   2.0000      -0.537851       -14.6357
 195   2.0000      -0.536282       -14.5930
 196   2.0000      -0.534603       -14.5473
 197   2.0000      -0.534101       -14.5336
 198   2.0000      -0.531784       -14.4706
 199   2.0000      -0.529684       -14.4134
 200   2.0000      -0.528717       -14.3871
 201   2.0000      -0.527168       -14.3450
 202   2.0000      -0.523198       -14.2369
 203   2.0000      -0.522019       -14.2048
 204   2.0000      -0.520163       -14.1543
 205   2.0000      -0.519547       -14.1376
 206   2.0000      -0.518794       -14.1171
 207   2.0000      -0.512617       -13.9490
 208   2.0000      -0.509467       -13.8633
 209   2.0000      -0.506652       -13.7867
 210   2.0000      -0.505391       -13.7524
 211   2.0000      -0.501867       -13.6565
 212   2.0000      -0.501528       -13.6473
 213   2.0000      -0.498698       -13.5703
 214   2.0000      -0.496634       -13.5141
 215   2.0000      -0.493708       -13.4345
 216   2.0000      -0.492581       -13.4038
 217   2.0000      -0.490349       -13.3431
 218   2.0000      -0.487073       -13.2539
 219   2.0000      -0.485265       -13.2047
 220   2.0000      -0.481187       -13.0938
 221   2.0000      -0.480936       -13.0869
 222   2.0000      -0.478704       -13.0262
 223   2.0000      -0.476438       -12.9645
 224   2.0000      -0.471713       -12.8360
 225   2.0000      -0.471125       -12.8200
 226   2.0000      -0.470495       -12.8028
 227   2.0000      -0.466347       -12.6900
 228   2.0000      -0.465855       -12.6766
 229   2.0000      -0.463967       -12.6252
 230   2.0000      -0.459681       -12.5086
 231   2.0000      -0.456398       -12.4192
 232   2.0000      -0.455107       -12.3841
 233   2.0000      -0.452749       -12.3199
 234   2.0000      -0.452573       -12.3151
 235   2.0000      -0.449539       -12.2326
 236   2.0000      -0.448061       -12.1924
 237   2.0000      -0.445744       -12.1293
 238   2.0000      -0.444653       -12.0996
 239   2.0000      -0.441105       -12.0031
 240   2.0000      -0.435533       -11.8515
 241   2.0000      -0.434827       -11.8322
 242   2.0000      -0.433417       -11.7939
 243   2.0000      -0.429843       -11.6966
 244   2.0000      -0.428739       -11.6666
 245   2.0000      -0.427472       -11.6321
 246   2.0000      -0.424806       -11.5596
 247   2.0000      -0.415847       -11.3158
 248   2.0000      -0.413143       -11.2422
 249   2.0000      -0.401734       -10.9317
 250   2.0000      -0.400419       -10.8960
 251   2.0000      -0.393670       -10.7123
 252   2.0000      -0.389226       -10.5914
 253   2.0000      -0.385467       -10.4891
 254   2.0000      -0.381875       -10.3914
 255   2.0000      -0.375694       -10.2231
 256   2.0000      -0.368321       -10.0225
 257   2.0000      -0.366283        -9.9671
 258   2.0000      -0.364440        -9.9169
 259   2.0000      -0.360550        -9.8111
 260   2.0000      -0.357801        -9.7363
 261   2.0000      -0.351907        -9.5759
 262   2.0000      -0.351813        -9.5733
 263   2.0000      -0.346191        -9.4203
 264   2.0000      -0.343325        -9.3423
 265   2.0000      -0.341686        -9.2978
 266   2.0000      -0.334553        -9.1037
 267   2.0000      -0.332074        -9.0362
 268   2.0000      -0.326415        -8.8822
 269   2.0000      -0.319820        -8.7027
 270   2.0000      -0.317424        -8.6376
 271   2.0000      -0.310038        -8.4366
 272   2.0000      -0.303820        -8.2674
 273   2.0000      -0.288261        -7.8440
 274   2.0000      -0.246349        -6.7035
 275   0.0000      -0.134174        -3.6511
 276   0.0000      -0.108411        -2.9500
 277   0.0000      -0.094936        -2.5833
 278   0.0000      -0.076148        -2.0721
 279   0.0000      -0.074670        -2.0319

MULLIKEN ATOMIC CHARGES
-----------------------
   0 C :   -0.110593
   1 C :    0.243279
   2 F :   -0.169211
   3 C :    0.241274
   4 F :   -0.170605
   5 C :   -0.108642
   6 C :    0.121003
   7 C :    0.119135
   8 C :   -0.090934
   9 C :    0.059004
  10 C :   -0.003750
  11 C :   -0.084016
  12 C :    0.176233
  13 O :   -0.156458
  14 C :   -0.116044
  15 C :    0.305212
  16 C :   -0.330709
  17 C :   -0.203988
  18 N :    0.169285
  19 C :   -0.182021
  20 N :    0.153370
  21 C :   -0.032303
  22 C :    0.017405
  23 C :    0.103948
  24 N :    0.272680
  25 O :   -0.253263
  26 O :   -0.241917
  27 C :   -0.014137
  28 C :    0.004663
  29 C :    0.033231
  30 C :    0.044558
  31 C :   -0.023890
  32 C :    0.034643
  33 C :    0.065382
  34 N :    0.278830
  35 O :   -0.268430
  36 O :   -0.285742
  37 C :    0.046750
  38 C :   -0.087989
  39 C :    0.065859
  40 C :   -0.147264
  41 S :    0.210705
  42 C :   -0.117604
  43 C :    0.111387
  44 C :    0.145514
  45 C :   -0.087174
  46 C :   -0.039652
  47 C :    0.083961
  48 C :    0.002352
  49 C :   -0.030851
  50 C :    0.048567
  51 C :    0.012406
  52 C :   -0.067705
  53 C :    0.113937
  54 O :   -0.114253
  55 C :    0.104783
  56 O :   -0.097214
  57 C :   -0.140331
  58 C :   -0.011534
  59 C :   -0.074871
  60 C :    0.134478
  61 O :   -0.123179
  62 C :    0.007268
  63 C :   -0.073347
  64 C :    0.112477
  65 C :    0.109590
  66 C :   -0.103534
  67 C :    0.244032
  68 C :    0.239106
  69 C :   -0.100073
  70 F :   -0.165679
  71 F :   -0.165500
  72 C :   -0.072307
  73 C :    0.031396
  74 C :    0.322258
  75 C :   -0.323802
  76 C :   -0.141944
  77 N :    0.117869
  78 C :   -0.184489
  79 N :    0.162800
  80 H :    0.009695
  81 H :   -0.000672
  82 H :   -0.004060
  83 H :   -0.014027
  84 H :    0.055468
  85 H :   -0.008343
  86 H :   -0.003493
  87 H :   -0.009362
  88 H :    0.006220
  89 H :    0.033632
  90 H :    0.042515
  91 H :   -0.022045
  92 H :    0.041966
  93 H :    0.033173
  94 H :    0.031928
  95 H :   -0.011225
  96 H :   -0.021839
  97 H :    0.008787
  98 H :    0.032470
  99 H :    0.051240
 100 H :    0.128108
 101 H :    0.050495
 102 H :   -0.002598
 103 H :    0.011233
 104 H :    0.004483
 105 H :    0.002567
Sum of atomic charges:   -0.0000000

LOEWDIN ATOMIC CHARGES
----------------------
   0 C :   -0.028828
   1 C :    0.067890
   2 F :   -0.047088
   3 C :    0.067937
   4 F :   -0.048639
   5 C :   -0.033146
   6 C :   -0.008806
   7 C :   -0.004788
   8 C :    0.018531
   9 C :   -0.020102
  10 C :   -0.051934
  11 C :    0.031106
  12 C :    0.095325
  13 O :   -0.151835
  14 C :   -0.090946
  15 C :    0.075164
  16 C :   -0.130975
  17 C :   -0.025088
  18 N :   -0.044304
  19 C :   -0.017621
  20 N :   -0.048569
  21 C :    0.088560
  22 C :   -0.028864
  23 C :   -0.018231
  24 N :    0.285961
  25 O :   -0.213212
  26 O :   -0.206346
  27 C :   -0.030973
  28 C :   -0.018607
  29 C :    0.008376
  30 C :    0.063586
  31 C :   -0.074974
  32 C :    0.056985
  33 C :   -0.101704
  34 N :    0.287694
  35 O :   -0.232349
  36 O :   -0.251547
  37 C :    0.031352
  38 C :   -0.022245
  39 C :    0.023767
  40 C :   -0.183359
  41 S :    0.516359
  42 C :   -0.136425
  43 C :   -0.050639
  44 C :   -0.013854
  45 C :   -0.025304
  46 C :    0.006204
  47 C :   -0.042188
  48 C :   -0.012763
  49 C :   -0.000245
  50 C :   -0.040064
  51 C :    0.010533
  52 C :   -0.069497
  53 C :    0.102374
  54 O :   -0.087740
  55 C :    0.095696
  56 O :   -0.080851
  57 C :   -0.105957
  58 C :    0.076536
  59 C :   -0.073416
  60 C :    0.086487
  61 O :   -0.124993
  62 C :   -0.057429
  63 C :    0.036333
  64 C :   -0.006753
  65 C :   -0.004084
  66 C :   -0.028045
  67 C :    0.070018
  68 C :    0.070750
  69 C :   -0.031325
  70 F :   -0.043653
  71 F :   -0.043437
  72 C :    0.022318
  73 C :   -0.022080
  74 C :    0.082263
  75 C :   -0.124795
  76 C :    0.011230
  77 N :   -0.071162
  78 C :   -0.017290
  79 N :   -0.038514
  80 H :    0.048460
  81 H :    0.044496
  82 H :    0.040681
  83 H :    0.038834
  84 H :    0.051695
  85 H :    0.034456
  86 H :    0.030049
  87 H :    0.028576
  88 H :    0.040546
  89 H :    0.037058
  90 H :    0.040385
  91 H :    0.033491
  92 H :    0.043931
  93 H :    0.038068
  94 H :    0.039147
  95 H :    0.035033
  96 H :    0.030226
  97 H :    0.036956
  98 H :    0.033112
  99 H :    0.054678
 100 H :    0.084838
 101 H :    0.052846
 102 H :    0.043149
 103 H :    0.049089
 104 H :    0.046717
 105 H :    0.041726

  Mayer bond orders larger than 0.100000
B(  0-C ,  1-C ) :   1.4414 B(  0-C ,  5-C ) :   0.1084 B(  0-C ,  7-C ) :   1.1880
B(  0-C , 80-H ) :   1.0070 B(  1-C ,  2-F ) :   1.1362 B(  1-C ,  3-C ) :   1.1897
B(  3-C ,  4-F ) :   1.1349 B(  3-C ,  5-C ) :   1.4442 B(  5-C ,  6-C ) :   1.1902
B(  5-C , 81-H ) :   1.0069 B(  6-C ,  7-C ) :   1.2555 B(  6-C , 11-C ) :   1.1915
B(  7-C ,  8-C ) :   1.2144 B(  8-C ,  9-C ) :   1.4485 B(  8-C , 82-H ) :   0.9925
B(  9-C , 10-C ) :   1.2213 B(  9-C , 15-C ) :   0.9954 B( 10-C , 11-C ) :   1.4664
B( 10-C , 12-C ) :   0.9519 B( 11-C , 83-H ) :   1.0167 B( 12-C , 13-O ) :   2.1448
B( 12-C , 14-C ) :   0.9601 B( 14-C , 15-C ) :   1.0398 B( 14-C , 21-C ) :   1.6237
B( 15-C , 16-C ) :   1.6668 B( 16-C , 17-C ) :   1.1459 B( 16-C , 19-C ) :   1.1377
B( 17-C , 18-N ) :   2.9823 B( 19-C , 20-N ) :   2.9707 B( 21-C , 22-C ) :   1.1190
B( 21-C , 84-H ) :   0.9228 B( 22-C , 23-C ) :   1.4722 B( 22-C , 29-C ) :   1.1161
B( 23-C , 24-N ) :   0.9382 B( 23-C , 27-C ) :   1.1872 B( 24-N , 25-O ) :   1.4906
B( 24-N , 26-O ) :   1.5328 B( 25-O , 26-O ) :   0.2648 B( 27-C , 28-C ) :   1.5162
B( 27-C , 85-H ) :   1.0182 B( 28-C , 29-C ) :   1.1569 B( 28-C , 86-H ) :   0.9932
B( 29-C , 30-C ) :   1.3477 B( 30-C , 31-C ) :   1.2759 B( 30-C , 37-C ) :   0.9933
B( 31-C , 32-C ) :   1.4211 B( 31-C , 87-H ) :   1.0050 B( 32-C , 33-C ) :   1.2088
B( 32-C , 88-H ) :   1.0109 B( 33-C , 34-N ) :   0.9899 B( 33-C , 37-C ) :   1.3254
B( 34-N , 35-O ) :   1.5219 B( 34-N , 36-O ) :   1.4691 B( 35-O , 36-O ) :   0.2347
B( 37-C , 38-C ) :   1.3871 B( 38-C , 39-C ) :   1.3405 B( 38-C , 89-H ) :   0.9469
B( 39-C , 40-C ) :   1.3348 B( 39-C , 90-H ) :   0.9141 B( 40-C , 41-S ) :   1.1151
B( 40-C , 44-C ) :   1.2098 B( 41-S , 42-C ) :   1.2193 B( 42-C , 43-C ) :   1.2967
B( 42-C , 50-C ) :   1.0932 B( 43-C , 44-C ) :   1.2361 B( 43-C , 49-C ) :   1.1963
B( 44-C , 45-C ) :   1.2486 B( 45-C , 46-C ) :   1.4798 B( 45-C , 91-H ) :   0.9971
B( 46-C , 47-C ) :   1.0526 B( 46-C , 48-C ) :   1.2417 B( 47-C , 92-H ) :   0.9505
B( 47-C , 93-H ) :   0.9611 B( 47-C , 94-H ) :   0.9545 B( 48-C , 49-C ) :   1.5317
B( 48-C , 95-H ) :   0.9939 B( 49-C , 96-H ) :   0.9905 B( 50-C , 51-C ) :   1.8145
B( 50-C , 97-H ) :   0.9567 B( 51-C , 52-C ) :   1.0176 B( 51-C , 98-H ) :   0.9589
B( 52-C , 53-C ) :   0.9027 B( 52-C , 55-C ) :   0.8743 B( 52-C , 99-H ) :   0.9167
B( 53-C , 54-O ) :   2.2600 B( 53-C , 57-C ) :   0.9003 B( 55-C , 56-O ) :   2.3267
B( 55-C , 57-C ) :   0.8820 B( 57-C , 58-C ) :   0.9921 B( 57-C ,100-H ) :   0.8199
B( 58-C , 59-C ) :   1.8291 B( 58-C ,101-H ) :   0.9404 B( 59-C , 60-C ) :   0.9194
B( 59-C , 74-C ) :   0.9803 B( 60-C , 61-O ) :   2.2894 B( 60-C , 62-C ) :   0.9249
B( 62-C , 63-C ) :   1.4668 B( 62-C , 73-C ) :   1.2171 B( 63-C , 64-C ) :   1.2026
B( 63-C ,102-H ) :   1.0160 B( 64-C , 65-C ) :   1.2497 B( 64-C , 69-C ) :   1.1914
B( 65-C , 66-C ) :   1.1890 B( 65-C , 72-C ) :   1.2290 B( 66-C , 67-C ) :   1.4452
B( 66-C , 69-C ) :   0.1072 B( 66-C ,103-H ) :   1.0060 B( 67-C , 68-C ) :   1.1851
B( 67-C , 71-F ) :   1.1409 B( 68-C , 69-C ) :   1.4470 B( 68-C , 70-F ) :   1.1399
B( 69-C ,104-H ) :   1.0063 B( 72-C , 73-C ) :   1.4444 B( 72-C ,105-H ) :   0.9903
B( 73-C , 74-C ) :   1.0129 B( 74-C , 75-C ) :   1.6704 B( 75-C , 76-C ) :   1.1810
B( 75-C , 78-C ) :   1.1245 B( 76-C , 77-N ) :   2.8870 B( 78-C , 79-N ) :   2.9867

-----------------------------------------------------------------------------
         ABSORPTION SPECTRUM VIA TRANSITION ELECTRIC DIPOLE MOMENTS
-----------------------------------------------------------------------------
State   Energy  Wavelength   fosc         T2         TX        TY        TZ
        (cm-1)    (nm)                  (au**2)     (au)      (au)      (au)
-----------------------------------------------------------------------------
   0    6983.9   1431.9   0.212543855  10.01899   0.02878  -2.43066  -2.02732
   1   15204.3    657.7   0.054748126   1.18544   0.10187  -0.04116  -1.08322
   2   17090.7    585.1   0.175222960   3.37525  -0.97959   0.10734  -1.55053
   3   20030.8    499.2   0.000727271   0.01195  -0.08836   0.01461  -0.06270
   4   20368.7    491.0   0.569011175   9.19674  -1.20437  -1.95724  -1.97874
   5   21115.2    473.6   0.013689683   0.21344   0.00306  -0.31832  -0.33482
   6   22550.8    443.4   0.018707983   0.27311  -0.22008  -0.16637  -0.44385
   7   22689.5    440.7   0.024912666   0.36147  -0.39277   0.25998  -0.37364
   8   23607.7    423.6   0.091967824   1.28250  -0.50837   0.97742  -0.26214
   9   24762.1    403.8   0.329370114   4.37898  -1.71358  -1.15123  -0.34245
  10   25218.4    396.5   0.008614682   0.11246  -0.22784   0.14440   0.19924
  11   26398.2    378.8   0.003035244   0.03785   0.14468  -0.06859   0.11052
  12   26942.0    371.2   0.014772923   0.18051   0.42453   0.00491   0.01619
  13   27119.2    368.7   0.273526501   3.32046  -1.35085   0.64717  -1.03771
  14   27626.0    362.0   0.114635714   1.36608   0.96440   0.33069   0.57154
  15   27751.9    360.3   0.203391184   2.41276   1.51874   0.26168   0.19425
  16   28579.2    349.9   0.015011896   0.17293   0.34252  -0.23023  -0.05100
  17   28844.6    346.7   0.050076615   0.57154  -0.07299   0.49702   0.56496
  18   28981.5    345.0   0.006831304   0.07760  -0.26020  -0.02856  -0.09528
  19   29002.4    344.8   0.050382559   0.57190   0.16832   0.54691  -0.49443
  20   29360.0    340.6   0.049416360   0.55410   0.72075   0.18338  -0.03159
  21   29543.7    338.5   0.031611054   0.35225  -0.26441   0.29839  -0.43965
  22   29738.4    336.3   0.071938510   0.79638   0.88807   0.08295   0.02882
  23   29896.5    334.5   0.094768691   1.04357  -0.60203  -0.24298  -0.78872
  24   30067.8    332.6   0.030931046   0.33866   0.33178   0.43717   0.19357
  25   30266.1    330.4   0.090952790   0.98932  -0.35036  -0.32676  -0.87166
  26   30302.6    330.0   0.075713764   0.82257   0.64373   0.43744  -0.46564
  27   30721.4    325.5   0.047658681   0.51071   0.40729  -0.09310  -0.57980
  28   30770.2    325.0   0.070352726   0.75271   0.79200   0.33193  -0.12355
  29   30815.0    324.5   0.075750319   0.80928  -0.76992  -0.18888   0.42524
  30   31168.1    320.8   0.003582328   0.03784   0.08441  -0.15533   0.08115
  31   31584.9    316.6   0.133891536   1.39556   0.34441   0.51936  -1.00360
  32   31756.5    314.9   0.084259707   0.87350  -0.87854   0.17039  -0.26951
  33   31857.5    313.9   0.043033330   0.44470   0.36547   0.53582  -0.15503
  34   31997.4    312.5   0.005185876   0.05336  -0.16630   0.09070  -0.13219
  35   32906.3    303.9   0.008211521   0.08215   0.27043   0.01757   0.09333
  36   33550.4    298.1   0.022972780   0.22542   0.40101   0.24817   0.05494
  37   33922.2    294.8   0.058377545   0.56655  -0.62546   0.00761   0.41868
  38   34093.0    293.3   0.204442871   1.97416  -0.73147  -0.11402  -1.19420
  39   34225.6    292.2   0.059873530   0.57592  -0.09500  -0.73665  -0.15569
  40   34279.9    291.7   0.038354483   0.36834   0.43930   0.28613  -0.30576
  41   34489.9    289.9   0.372834318   3.55876   0.55619   0.24724  -1.78558
  42   34541.0    289.5   0.172904178   1.64796  -0.39723  -0.00869   1.22069
  43   34977.5    285.9   0.489290569   4.60525   1.40890   1.18852   1.09894
  44   34986.4    285.8   0.454228545   4.27416  -1.34573  -0.90314  -1.28356
  45   35220.4    283.9   0.048824166   0.45637   0.11043  -0.41390   0.52236
  46   35325.2    283.1   0.225455740   2.10112  -0.86285  -0.45923   1.07038
  47   35494.8    281.7   0.048220758   0.44724  -0.40316  -0.12094   0.51969
  48   35612.1    280.8   0.021858444   0.20207  -0.32063   0.31473   0.01440
  49   35736.6    279.8   0.024162578   0.22259   0.25481   0.08641  -0.38755
  50   36531.9    273.7   0.053641536   0.48340   0.41969   0.12391  -0.54028
  51   36564.8    273.5   0.003188208   0.02871  -0.12180  -0.01352   0.11699
  52   36910.7    270.9   0.003630446   0.03238   0.07520  -0.04223   0.15793
  53   37033.5    270.0   0.005743118   0.05105  -0.16734  -0.15015  -0.02249
  54   37199.6    268.8   0.093969335   0.83162   0.18115   0.23891  -0.86123
  55   37293.2    268.1   0.024192065   0.21356  -0.33781  -0.31071  -0.05389
  56   37487.0    266.8   0.018902307   0.16600   0.29487   0.26353   0.09800
  57   37737.4    265.0   0.108285309   0.94465  -0.07273   0.83573  -0.49084
  58   37821.5    264.4   0.145753718   1.26869  -0.33331  -0.47069  -0.96749
  59   38199.5    261.8   0.212603770   1.83227   1.20725  -0.58556   0.17868
  60   38425.9    260.2   0.005140043   0.04404  -0.14760   0.07846  -0.12687
  61   38668.3    258.6   0.211362884   1.79949  -0.53547   1.22660   0.09063
  62   38892.9    257.1   0.082235421   0.69609  -0.16243   0.77755   0.25520
  63   38956.0    256.7   0.164188322   1.38753   0.89331   0.73632   0.21763
  64   39272.9    254.6   0.000182906   0.00153  -0.01550  -0.03220  -0.01602
  65   39515.7    253.1   0.019270202   0.16054   0.29843  -0.26577  -0.02916
  66   39665.2    252.1   0.022155694   0.18389   0.07416  -0.40132  -0.13164
  67   39918.4    250.5   0.349700087   2.88402  -1.07085  -1.28315   0.30137
  68   39941.4    250.4   0.126292050   1.04095   0.70830   0.67905  -0.27955
  69   39955.4    250.3   0.110878131   0.91358   0.18444   0.78282   0.51648
  70   40147.5    249.1   0.067434285   0.55297   0.02109   0.42176  -0.61208
  71   40264.7    248.4   0.090017638   0.73600   0.19523  -0.83403  -0.04776

FINAL SINGLE POINT ENERGY     -4062.986194078321

DIPOLE MOMENT
-------------
                                X             Y             Z
Electronic contribution:    -18.63961      15.33985     -25.84626
Nuclear contribution   :     17.22341     -18.96842      20.85312
                        -----------------------------------------
Total Dipole Moment    :     -1.41620      -3.62857      -4.99315
                        -----------------------------------------
Magnitude (a.u.)       :      6.33275
Magnitude (Debye)      :     16.09656

Rotational constants in cm-1:     0.001323     0.000238     0.000226
Rotational constants in MHz :    39.661747     7.126025     6.767002

                             ****ORCA TERMINATED NORMALLY****
TOTAL RUN TIME: 0 days 0 hours 12 minutes 53 seconds 275 msec
