                         Program Version 4.2.0 -  RELEASE  -
|  1> # ORCA input file
|  2> # SCF done       -196.181876000285          0.000294248758
|  3> ! CAM-B3LYP def2-SVP def2/J RIJCOSX Grid4 TightSCF
|  4> %maxcore 5000
|  5> %tddft
|  6>     Mode sTDDFT
|  7>     Ethresh 5.0
|  8>     maxcore 5000
|  9> end
| 10>
| 11> %pal
| 12>   nprocs 6
| 13>   end
| 14> * xyz 0 1
| 15>    C        2.28949        -1.87947        -8.46862
| 16>    S        0.91476        -1.16391        -9.17833
| 17>    C        1.38111         0.38791        -8.56683
| 18>    C        0.56114         1.59818        -8.84033
| 19>    F       -0.67594         1.51520        -8.31754
| 20>    F        1.11957         2.70100        -8.31997
| 21>    F        0.39428         1.83458       -10.15207
| 22>    C        2.52772         0.33301        -7.83909
| 23>    C        3.06874        -0.98415        -7.77782
| 24>    C        4.29627        -1.26769        -7.07206
| 25>    C        5.40046        -1.98871        -7.46837
| 26>    N        5.59266        -2.74781        -8.63845
| 27>    O        6.74118        -3.01655        -8.94044
| 28>    O        4.61680        -3.09231        -9.28423
| 29>    C        6.47815        -1.77277        -6.52365
| 30>    C        6.05802        -0.90819        -5.57402
| 31>    C        4.68004        -0.57589        -5.83223
| 32>    C        3.81953         0.09822        -4.99283
| 33>    C        2.41083        -0.11843        -4.87515
| 34>    C        1.96398         0.53752        -3.77127
| 35>    C        3.04740         1.26114        -3.17077
| 36>    N        2.81011         2.04022        -2.02658
| 37>    O        3.75578         2.44543        -1.36327
| 38>    O        1.64728         2.25653        -1.73383
| 39>    C        4.21059         1.04786        -3.92408
| 40>    C        5.45256         1.70183        -3.99696
| 41>    C        5.99695         2.59146        -3.10509
| 42>    C        7.23104         3.21681        -3.34202
| 43>    N        7.81285         4.10333        -2.46237
| 44>    C        7.28189         4.50404        -1.17866
| 45>    C        7.54272         3.45325        -0.10374
| 46>    C        9.04148         4.57223        -2.92183
| 47>    O        9.73068         5.37353        -2.31173
| 48>    C        9.23056         3.91822        -4.20180
| 49>    C        8.10492         3.10347        -4.43616
| 50>    C        8.28931         2.44366        -5.71246
| 51>    O        7.59421         1.66805        -6.33670
| 52>    N        9.54600         2.89151        -6.15831
| 53>    C       10.06888         2.48078        -7.44033
| 54>    C        9.89011         3.56423        -8.50040
| 55>    C       10.11945         3.77413        -5.28044
| 56>    C       11.39494         4.35927        -5.47105
| 57>    C       11.88110         5.27425        -4.59205
| 58>    C       13.16177         5.92066        -4.62327
| 59>    C       14.11712         5.56510        -5.59638
| 60>    C       15.32611         6.20896        -5.62192
| 61>    C       15.62445         7.21789        -4.69524
| 62>    C       16.99956         7.70220        -4.97350
| 63>    O       17.63509         8.56064        -4.41823
| 64>    N       17.43929         6.95288        -6.05512
| 65>    C       16.50343         6.03353        -6.50585
| 66>    O       16.65883         5.27861        -7.43148
| 67>    C       18.76321         7.08717        -6.62579
| 68>    C       19.77553         6.22960        -5.87491
| 69>    C       14.71867         7.58582        -3.73335
| 70>    C       13.47058         6.94077        -3.67428
| 71>    C       12.53628         7.31182        -2.63568
| 72>    C       12.49097         8.51588        -2.03136
| 73>    C       11.53762         8.85318        -1.01973
| 74>    S       11.65616        10.39461        -0.22042
| 75>    C       10.27396        10.03003         0.73867
| 76>    C        9.76989        11.00300         1.74252
| 77>    F       10.67377        11.28219         2.70016
| 78>    F        9.43150        12.18715         1.19973
| 79>    F        8.67810        10.54628         2.37156
| 80>    C        9.75019         8.79696         0.45381
| 81>    C       10.46648         8.12780        -0.54556
| 82>    H        2.45352        -2.93168        -8.58334
| 83>    H        2.99221         1.19331        -7.39303
| 84>    H        7.43485        -2.25119        -6.60769
| 85>    H        6.60547        -0.61088        -4.70222
| 86>    H        1.83975        -0.79073        -5.48398
| 87>    H        0.96796         0.53531        -3.36975
| 88>    H        6.02393         1.48586        -4.88974
| 89>    H        5.48077         2.81587        -2.18491
| 90>    H        6.21126         4.69798        -1.27231
| 91>    H        7.78919         5.43642        -0.91659
| 92>    H        7.04406         2.51854        -0.34678
| 93>    H        7.16276         3.80770         0.84975
| 94>    H        8.61036         3.26868        -0.00802
| 95>    H        9.50186         1.59064        -7.72640
| 96>    H       11.12205         2.20675        -7.33508
| 97>    H        8.83434         3.79076        -8.62692
| 98>    H       10.28492         3.21458        -9.44989
| 99>    H       10.40914         4.47831        -8.22016
|100>    H       11.95788         4.04601        -6.33679
|101>    H       11.22138         5.54889        -3.78541
|102>    H       13.91456         4.78794        -6.31515
|103>    H       19.04206         8.14199        -6.56651
|104>    H       18.69850         6.77644        -7.67108
|105>    H       19.82660         6.53576        -4.83259
|106>    H       20.75848         6.34633        -6.32184
|107>    H       19.49117         5.18087        -5.92345
|108>    H       14.98084         8.34056        -3.00939
|109>    H       11.81328         6.57534        -2.32422
|110>    H       13.17037         9.30872        -2.31250
|111>    H        8.88274         8.40162         0.95103
|112>    H       10.19608         7.15751        -0.91963
|113> *
|114>
|115>                          ****END OF INPUT****

CARTESIAN COORDINATES (ANGSTROEM)
---------------------------------
  C      2.289490   -1.879470   -8.468620
  S      0.914760   -1.163910   -9.178330
  C      1.381110    0.387910   -8.566830
  C      0.561140    1.598180   -8.840330
  F     -0.675940    1.515200   -8.317540
  F      1.119570    2.701000   -8.319970
  F      0.394280    1.834580  -10.152070
  C      2.527720    0.333010   -7.839090
  C      3.068740   -0.984150   -7.777820
  C      4.296270   -1.267690   -7.072060
  C      5.400460   -1.988710   -7.468370
  N      5.592660   -2.747810   -8.638450
  O      6.741180   -3.016550   -8.940440
  O      4.616800   -3.092310   -9.284230
  C      6.478150   -1.772770   -6.523650
  C      6.058020   -0.908190   -5.574020
  C      4.680040   -0.575890   -5.832230
  C      3.819530    0.098220   -4.992830
  C      2.410830   -0.118430   -4.875150
  C      1.963980    0.537520   -3.771270
  C      3.047400    1.261140   -3.170770
  N      2.810110    2.040220   -2.026580
  O      3.755780    2.445430   -1.363270
  O      1.647280    2.256530   -1.733830
  C      4.210590    1.047860   -3.924080
  C      5.452560    1.701830   -3.996960
  C      5.996950    2.591460   -3.105090
  C      7.231040    3.216810   -3.342020
  N      7.812850    4.103330   -2.462370
  C      7.281890    4.504040   -1.178660
  C      7.542720    3.453250   -0.103740
  C      9.041480    4.572230   -2.921830
  O      9.730680    5.373530   -2.311730
  C      9.230560    3.918220   -4.201800
  C      8.104920    3.103470   -4.436160
  C      8.289310    2.443660   -5.712460
  O      7.594210    1.668050   -6.336700
  N      9.546000    2.891510   -6.158310
  C     10.068880    2.480780   -7.440330
  C      9.890110    3.564230   -8.500400
  C     10.119450    3.774130   -5.280440
  C     11.394940    4.359270   -5.471050
  C     11.881100    5.274250   -4.592050
  C     13.161770    5.920660   -4.623270
  C     14.117120    5.565100   -5.596380
  C     15.326110    6.208960   -5.621920
  C     15.624450    7.217890   -4.695240
  C     16.999560    7.702200   -4.973500
  O     17.635090    8.560640   -4.418230
  N     17.439290    6.952880   -6.055120
  C     16.503430    6.033530   -6.505850
  O     16.658830    5.278610   -7.431480
  C     18.763210    7.087170   -6.625790
  C     19.775530    6.229600   -5.874910
  C     14.718670    7.585820   -3.733350
  C     13.470580    6.940770   -3.674280
  C     12.536280    7.311820   -2.635680
  C     12.490970    8.515880   -2.031360
  C     11.537620    8.853180   -1.019730
  S     11.656160   10.394610   -0.220420
  C     10.273960   10.030030    0.738670
  C      9.769890   11.003000    1.742520
  F     10.673770   11.282190    2.700160
  F      9.431500   12.187150    1.199730
  F      8.678100   10.546280    2.371560
  C      9.750190    8.796960    0.453810
  C     10.466480    8.127800   -0.545560
  H      2.453520   -2.931680   -8.583340
  H      2.992210    1.193310   -7.393030
  H      7.434850   -2.251190   -6.607690
  H      6.605470   -0.610880   -4.702220
  H      1.839750   -0.790730   -5.483980
  H      0.967960    0.535310   -3.369750
  H      6.023930    1.485860   -4.889740
  H      5.480770    2.815870   -2.184910
  H      6.211260    4.697980   -1.272310
  H      7.789190    5.436420   -0.916590
  H      7.044060    2.518540   -0.346780
  H      7.162760    3.807700    0.849750
  H      8.610360    3.268680   -0.008020
  H      9.501860    1.590640   -7.726400
  H     11.122050    2.206750   -7.335080
  H      8.834340    3.790760   -8.626920
  H     10.284920    3.214580   -9.449890
  H     10.409140    4.478310   -8.220160
  H     11.957880    4.046010   -6.336790
  H     11.221380    5.548890   -3.785410
  H     13.914560    4.787940   -6.315150
  H     19.042060    8.141990   -6.566510
  H     18.698500    6.776440   -7.671080
  H     19.826600    6.535760   -4.832590
  H     20.758480    6.346330   -6.321840
  H     19.491170    5.180870   -5.923450
  H     14.980840    8.340560   -3.009390
  H     11.813280    6.575340   -2.324220
  H     13.170370    9.308720   -2.312500
  H      8.882740    8.401620    0.951030
  H     10.196080    7.157510   -0.919630

 Total Charge           Charge          ....    0
 Multiplicity           Mult            ....    1
 Number of Electrons    NEL             ....  492
 Basis Dimension        Dim             .... 1101

ORBITAL ENERGIES
----------------

  NO   OCC          E(Eh)            E(eV)
   0   2.0000     -88.980757     -2421.2895
   1   2.0000     -88.970983     -2421.0235
   2   2.0000     -24.802313      -674.9052
   3   2.0000     -24.797660      -674.7786
   4   2.0000     -24.796727      -674.7532
   5   2.0000     -24.795980      -674.7329
   6   2.0000     -24.790772      -674.5912
   7   2.0000     -24.790533      -674.5847
   8   2.0000     -19.243004      -523.6288
   9   2.0000     -19.241338      -523.5834
  10   2.0000     -19.240742      -523.5672
  11   2.0000     -19.240513      -523.5610
  12   2.0000     -19.218274      -522.9558
  13   2.0000     -19.217545      -522.9360
  14   2.0000     -19.217066      -522.9229
  15   2.0000     -19.210008      -522.7309
  16   2.0000     -14.651217      -398.6799
  17   2.0000     -14.649075      -398.6216
  18   2.0000     -14.476271      -393.9194
  19   2.0000     -14.469966      -393.7478
  20   2.0000     -14.459126      -393.4528
  21   2.0000     -10.523833      -286.3681
  22   2.0000     -10.518026      -286.2100
  23   2.0000     -10.398113      -282.9470
  24   2.0000     -10.397411      -282.9279
  25   2.0000     -10.397270      -282.9241
  26   2.0000     -10.392758      -282.8013
  27   2.0000     -10.364659      -282.0367
  28   2.0000     -10.350532      -281.6523
  29   2.0000     -10.334257      -281.2094
  30   2.0000     -10.332630      -281.1651
  31   2.0000     -10.330462      -281.1062
  32   2.0000     -10.328464      -281.0518
  33   2.0000     -10.327650      -281.0296
  34   2.0000     -10.325288      -280.9654
  35   2.0000     -10.323759      -280.9238
  36   2.0000     -10.318717      -280.7866
  37   2.0000     -10.318497      -280.7806
  38   2.0000     -10.317557      -280.7550
  39   2.0000     -10.316478      -280.7256
  40   2.0000     -10.314072      -280.6602
  41   2.0000     -10.313675      -280.6494
  42   2.0000     -10.312488      -280.6171
  43   2.0000     -10.311530      -280.5910
  44   2.0000     -10.310049      -280.5507
  45   2.0000     -10.309819      -280.5444
  46   2.0000     -10.308975      -280.5215
  47   2.0000     -10.305109      -280.4163
  48   2.0000     -10.305108      -280.4163
  49   2.0000     -10.304446      -280.3982
  50   2.0000     -10.304273      -280.3935
  51   2.0000     -10.303872      -280.3826
  52   2.0000     -10.301556      -280.3196
  53   2.0000     -10.301486      -280.3177
  54   2.0000     -10.301423      -280.3160
  55   2.0000     -10.301203      -280.3100
  56   2.0000     -10.294809      -280.1360
  57   2.0000     -10.290901      -280.0297
  58   2.0000     -10.288601      -279.9671
  59   2.0000     -10.288599      -279.9670
  60   2.0000     -10.286492      -279.9097
  61   2.0000     -10.286134      -279.8999
  62   2.0000     -10.281626      -279.7773
  63   2.0000     -10.278828      -279.7011
  64   2.0000     -10.277812      -279.6735
  65   2.0000     -10.270392      -279.4716
  66   2.0000     -10.262746      -279.2635
  67   2.0000      -8.076653      -219.7769
  68   2.0000      -8.066810      -219.5090
  69   2.0000      -6.045836      -164.5156
  70   2.0000      -6.041451      -164.3962
  71   2.0000      -6.039149      -164.3336
  72   2.0000      -6.035949      -164.2465
  73   2.0000      -6.031921      -164.1369
  74   2.0000      -6.029062      -164.0591
  75   2.0000      -1.389003       -37.7967
  76   2.0000      -1.383403       -37.6443
  77   2.0000      -1.321017       -35.9467
  78   2.0000      -1.320190       -35.9242
  79   2.0000      -1.292931       -35.1825
  80   2.0000      -1.288130       -35.0518
  81   2.0000      -1.287897       -35.0455
  82   2.0000      -1.281975       -34.8843
  83   2.0000      -1.163473       -31.6597
  84   2.0000      -1.157001       -31.4836
  85   2.0000      -1.147509       -31.2253
  86   2.0000      -1.139941       -31.0194
  87   2.0000      -1.137419       -30.9507
  88   2.0000      -1.137281       -30.9470
  89   2.0000      -1.085910       -29.5491
  90   2.0000      -1.074622       -29.2420
  91   2.0000      -1.054638       -28.6981
  92   2.0000      -1.023025       -27.8379
  93   2.0000      -1.007390       -27.4125
  94   2.0000      -0.998473       -27.1698
  95   2.0000      -0.994942       -27.0737
  96   2.0000      -0.991455       -26.9789
  97   2.0000      -0.947144       -25.7731
  98   2.0000      -0.935477       -25.4556
  99   2.0000      -0.923860       -25.1395
 100   2.0000      -0.920009       -25.0347
 101   2.0000      -0.914520       -24.8853
 102   2.0000      -0.894547       -24.3419
 103   2.0000      -0.887890       -24.1607
 104   2.0000      -0.885419       -24.0935
 105   2.0000      -0.882052       -24.0019
 106   2.0000      -0.873595       -23.7717
 107   2.0000      -0.862531       -23.4707
 108   2.0000      -0.856098       -23.2956
 109   2.0000      -0.852366       -23.1941
 110   2.0000      -0.845000       -22.9936
 111   2.0000      -0.835322       -22.7303
 112   2.0000      -0.832586       -22.6558
 113   2.0000      -0.823790       -22.4165
 114   2.0000      -0.806388       -21.9429
 115   2.0000      -0.799000       -21.7419
 116   2.0000      -0.780273       -21.2323
 117   2.0000      -0.776355       -21.1257
 118   2.0000      -0.774508       -21.0754
 119   2.0000      -0.767717       -20.8906
 120   2.0000      -0.759779       -20.6746
 121   2.0000      -0.753866       -20.5137
 122   2.0000      -0.733033       -19.9469
 123   2.0000      -0.730537       -19.8789
 124   2.0000      -0.725279       -19.7358
 125   2.0000      -0.721583       -19.6353
 126   2.0000      -0.714772       -19.4499
 127   2.0000      -0.706087       -19.2136
 128   2.0000      -0.696111       -18.9421
 129   2.0000      -0.693734       -18.8775
 130   2.0000      -0.692097       -18.8329
 131   2.0000      -0.691394       -18.8138
 132   2.0000      -0.675247       -18.3744
 133   2.0000      -0.672494       -18.2995
 134   2.0000      -0.671281       -18.2665
 135   2.0000      -0.667399       -18.1608
 136   2.0000      -0.666861       -18.1462
 137   2.0000      -0.665667       -18.1137
 138   2.0000      -0.665246       -18.1023
 139   2.0000      -0.658451       -17.9174
 140   2.0000      -0.651185       -17.7196
 141   2.0000      -0.643402       -17.5079
 142   2.0000      -0.641062       -17.4442
 143   2.0000      -0.632269       -17.2049
 144   2.0000      -0.629723       -17.1356
 145   2.0000      -0.629354       -17.1256
 146   2.0000      -0.627745       -17.0818
 147   2.0000      -0.622696       -16.9444
 148   2.0000      -0.619938       -16.8694
 149   2.0000      -0.609299       -16.5799
 150   2.0000      -0.602746       -16.4016
 151   2.0000      -0.600791       -16.3484
 152   2.0000      -0.599142       -16.3035
 153   2.0000      -0.596554       -16.2330
 154   2.0000      -0.590852       -16.0779
 155   2.0000      -0.587004       -15.9732
 156   2.0000      -0.585916       -15.9436
 157   2.0000      -0.583015       -15.8646
 158   2.0000      -0.580965       -15.8089
 159   2.0000      -0.573026       -15.5928
 160   2.0000      -0.569883       -15.5073
 161   2.0000      -0.556888       -15.1537
 162   2.0000      -0.555349       -15.1118
 163   2.0000      -0.549900       -14.9635
 164   2.0000      -0.548375       -14.9220
 165   2.0000      -0.547912       -14.9094
 166   2.0000      -0.546715       -14.8769
 167   2.0000      -0.545815       -14.8524
 168   2.0000      -0.545602       -14.8466
 169   2.0000      -0.544242       -14.8096
 170   2.0000      -0.543087       -14.7781
 171   2.0000      -0.541396       -14.7321
 172   2.0000      -0.541202       -14.7269
 173   2.0000      -0.535969       -14.5845
 174   2.0000      -0.534965       -14.5571
 175   2.0000      -0.531527       -14.4636
 176   2.0000      -0.528147       -14.3716
 177   2.0000      -0.523836       -14.2543
 178   2.0000      -0.519180       -14.1276
 179   2.0000      -0.516912       -14.0659
 180   2.0000      -0.514000       -13.9867
 181   2.0000      -0.513445       -13.9716
 182   2.0000      -0.513004       -13.9595
 183   2.0000      -0.510123       -13.8812
 184   2.0000      -0.508963       -13.8496
 185   2.0000      -0.506020       -13.7695
 186   2.0000      -0.505663       -13.7598
 187   2.0000      -0.501295       -13.6409
 188   2.0000      -0.499162       -13.5829
 189   2.0000      -0.495815       -13.4918
 190   2.0000      -0.494764       -13.4632
 191   2.0000      -0.492205       -13.3936
 192   2.0000      -0.488019       -13.2797
 193   2.0000      -0.486469       -13.2375
 194   2.0000      -0.484837       -13.1931
 195   2.0000      -0.483948       -13.1689
 196   2.0000      -0.482998       -13.1431
 197   2.0000      -0.480912       -13.0863
 198   2.0000      -0.479416       -13.0456
 199   2.0000      -0.478682       -13.0256
 200   2.0000      -0.478487       -13.0203
 201   2.0000      -0.477950       -13.0057
 202   2.0000      -0.472743       -12.8640
 203   2.0000      -0.471262       -12.8237
 204   2.0000      -0.471146       -12.8205
 205   2.0000      -0.469376       -12.7724
 206   2.0000      -0.467894       -12.7320
 207   2.0000      -0.464547       -12.6410
 208   2.0000      -0.461383       -12.5549
 209   2.0000      -0.456838       -12.4312
 210   2.0000      -0.456615       -12.4251
 211   2.0000      -0.453254       -12.3337
 212   2.0000      -0.450452       -12.2574
 213   2.0000      -0.450024       -12.2458
 214   2.0000      -0.447551       -12.1785
 215   2.0000      -0.442816       -12.0496
 216   2.0000      -0.441287       -12.0080
 217   2.0000      -0.440028       -11.9738
 218   2.0000      -0.434456       -11.8221
 219   2.0000      -0.431013       -11.7284
 220   2.0000      -0.430285       -11.7086
 221   2.0000      -0.405577       -11.0363
 222   2.0000      -0.398700       -10.8492
 223   2.0000      -0.391937       -10.6652
 224   2.0000      -0.388882       -10.5820
 225   2.0000      -0.387536       -10.5454
 226   2.0000      -0.381728       -10.3874
 227   2.0000      -0.379167       -10.3177
 228   2.0000      -0.372467       -10.1353
 229   2.0000      -0.370489       -10.0815
 230   2.0000      -0.369366       -10.0510
 231   2.0000      -0.366533        -9.9739
 232   2.0000      -0.356434        -9.6991
 233   2.0000      -0.355617        -9.6768
 234   2.0000      -0.353737        -9.6257
 235   2.0000      -0.349366        -9.5067
 236   2.0000      -0.348310        -9.4780
 237   2.0000      -0.338542        -9.2122
 238   2.0000      -0.337198        -9.1756
 239   2.0000      -0.335513        -9.1298
 240   2.0000      -0.334732        -9.1085
 241   2.0000      -0.329747        -8.9729
 242   2.0000      -0.309315        -8.4169
 243   2.0000      -0.294973        -8.0266
 244   2.0000      -0.281282        -7.6541
 245   2.0000      -0.248314        -6.7570
 246   0.0000      -0.141724        -3.8565
 247   0.0000      -0.097805        -2.6614
 248   0.0000      -0.066211        -1.8017
 249   0.0000      -0.049144        -1.3373
 250   0.0000      -0.032925        -0.8959

MULLIKEN ATOMIC CHARGES
-----------------------
   0 C :   -0.051846
   1 S :    0.186086
   2 C :   -0.277122
   3 C :    0.547700
   4 F :   -0.163258
   5 F :   -0.157522
   6 F :   -0.160430
   7 C :    0.049727
   8 C :   -0.056398
   9 C :    0.089068
  10 C :    0.073263
  11 N :    0.267660
  12 O :   -0.244140
  13 O :   -0.253321
  14 C :    0.012987
  15 C :    0.044328
  16 C :    0.017862
  17 C :   -0.019374
  18 C :    0.028588
  19 C :    0.024316
  20 C :    0.061233
  21 N :    0.280076
  22 O :   -0.263510
  23 O :   -0.244244
  24 C :    0.094017
  25 C :   -0.085072
  26 C :   -0.005855
  27 C :    0.133565
  28 N :   -0.248013
  29 C :    0.096690
  30 C :    0.009278
  31 C :    0.178597
  32 O :   -0.231196
  33 C :   -0.073742
  34 C :   -0.055910
  35 C :    0.165834
  36 O :   -0.192820
  37 N :   -0.252316
  38 C :    0.094251
  39 C :    0.003207
  40 C :    0.146019
  41 C :    0.000328
  42 C :   -0.012905
  43 C :    0.115397
  44 C :   -0.102320
  45 C :    0.016238
  46 C :    0.022464
  47 C :    0.189738
  48 O :   -0.153033
  49 N :   -0.302382
  50 C :    0.191001
  51 O :   -0.157680
  52 C :    0.132540
  53 C :   -0.010608
  54 C :   -0.105988
  55 C :    0.103284
  56 C :   -0.054386
  57 C :    0.084880
  58 C :   -0.101723
  59 S :    0.170478
  60 C :   -0.249765
  61 C :    0.545144
  62 F :   -0.164690
  63 F :   -0.164656
  64 F :   -0.157519
  65 C :    0.052579
  66 C :    0.009330
  67 H :    0.047028
  68 H :    0.014457
  69 H :   -0.001769
  70 H :   -0.008185
  71 H :    0.006027
  72 H :    0.007183
  73 H :    0.023743
  74 H :   -0.000786
  75 H :    0.042058
  76 H :    0.036806
  77 H :    0.024555
  78 H :    0.029292
  79 H :    0.024255
  80 H :    0.049052
  81 H :    0.030727
  82 H :    0.031801
  83 H :    0.031604
  84 H :    0.018949
  85 H :   -0.025229
  86 H :    0.004841
  87 H :   -0.014005
  88 H :    0.032054
  89 H :    0.033966
  90 H :    0.029837
  91 H :    0.024167
  92 H :    0.025663
  93 H :   -0.004781
  94 H :    0.034476
  95 H :   -0.007520
  96 H :   -0.001870
  97 H :   -0.002407
Sum of atomic charges:   -0.0000000

LOEWDIN ATOMIC CHARGES
----------------------
   0 C :   -0.140443
   1 S :    0.490544
   2 C :   -0.250076
   3 C :    0.149812
   4 F :   -0.066577
   5 F :   -0.056888
   6 F :   -0.063183
   7 C :   -0.018819
   8 C :   -0.083181
   9 C :    0.014498
  10 C :   -0.036520
  11 N :    0.284369
  12 O :   -0.208530
  13 O :   -0.209205
  14 C :    0.010822
  15 C :   -0.027276
  16 C :    0.039975
  17 C :    0.041377
  18 C :   -0.038795
  19 C :    0.020511
  20 C :   -0.050480
  21 N :    0.287216
  22 O :   -0.224755
  23 O :   -0.208317
  24 C :    0.008425
  25 C :   -0.000190
  26 C :   -0.005090
  27 C :    0.059271
  28 N :    0.010434
  29 C :    0.038967
  30 C :   -0.057887
  31 C :    0.083787
  32 O :   -0.217205
  33 C :   -0.125926
  34 C :   -0.099750
  35 C :    0.084722
  36 O :   -0.178176
  37 N :    0.005259
  38 C :    0.037036
  39 C :   -0.059194
  40 C :    0.094195
  41 C :   -0.050125
  42 C :    0.051765
  43 C :   -0.025415
  44 C :    0.029562
  45 C :   -0.057667
  46 C :   -0.039385
  47 C :    0.087474
  48 O :   -0.154494
  49 N :   -0.034128
  50 C :    0.087380
  51 O :   -0.159567
  52 C :    0.044798
  53 C :   -0.059424
  54 C :    0.017247
  55 C :    0.014496
  56 C :   -0.020147
  57 C :   -0.016610
  58 C :   -0.165321
  59 S :    0.466021
  60 C :   -0.247490
  61 C :    0.148500
  62 F :   -0.067781
  63 F :   -0.067553
  64 F :   -0.056771
  65 C :   -0.031420
  66 C :   -0.044987
  67 H :    0.030308
  68 H :    0.038403
  69 H :    0.036226
  70 H :    0.029889
  71 H :    0.034606
  72 H :    0.039640
  73 H :    0.038463
  74 H :    0.028292
  75 H :    0.031266
  76 H :    0.034409
  77 H :    0.026349
  78 H :    0.034211
  79 H :    0.029587
  80 H :    0.039976
  81 H :    0.025628
  82 H :    0.033284
  83 H :    0.034610
  84 H :    0.023142
  85 H :    0.028332
  86 H :    0.037428
  87 H :    0.036130
  88 H :    0.032665
  89 H :    0.032983
  90 H :    0.028930
  91 H :    0.031099
  92 H :    0.027856
  93 H :    0.039355
  94 H :    0.036529
  95 H :    0.028257
  96 H :    0.036114
  97 H :    0.032317

  Mayer bond orders larger than 0.100000
B(  0-C ,  1-S ) :   1.1992 B(  0-C ,  8-C ) :   1.5531 B(  0-C , 67-H ) :   0.9564
B(  1-S ,  2-C ) :   1.1402 B(  2-C ,  3-C ) :   0.9594 B(  2-C ,  7-C ) :   1.5906
B(  3-C ,  4-F ) :   1.1772 B(  3-C ,  5-F ) :   1.1711 B(  3-C ,  6-F ) :   1.1781
B(  7-C ,  8-C ) :   1.2295 B(  7-C , 68-H ) :   0.9979 B(  8-C ,  9-C ) :   1.0064
B(  9-C , 10-C ) :   1.6131 B(  9-C , 16-C ) :   1.0572 B( 10-C , 11-N ) :   0.9378
B( 10-C , 14-C ) :   1.1053 B( 11-N , 12-O ) :   1.5394 B( 11-N , 13-O ) :   1.4990
B( 12-O , 13-O ) :   0.2626 B( 14-C , 15-C ) :   1.6109 B( 14-C , 69-H ) :   1.0110
B( 15-C , 16-C ) :   1.1131 B( 15-C , 70-H ) :   1.0023 B( 16-C , 17-C ) :   1.5030
B( 17-C , 18-C ) :   1.1483 B( 17-C , 24-C ) :   1.0080 B( 18-C , 19-C ) :   1.5567
B( 18-C , 71-H ) :   0.9980 B( 19-C , 20-C ) :   1.1543 B( 19-C , 72-H ) :   1.0078
B( 20-C , 21-N ) :   0.9666 B( 20-C , 24-C ) :   1.4255 B( 21-N , 22-O ) :   1.4527
B( 21-N , 23-O ) :   1.5389 B( 22-O , 23-O ) :   0.2468 B( 22-O , 74-H ) :   0.1094
B( 24-C , 25-C ) :   1.2070 B( 25-C , 26-C ) :   1.5154 B( 25-C , 73-H ) :   0.9439
B( 26-C , 27-C ) :   1.1864 B( 26-C , 74-H ) :   0.9425 B( 27-C , 28-N ) :   1.1453
B( 27-C , 34-C ) :   1.2950 B( 28-N , 29-C ) :   0.9339 B( 28-N , 31-C ) :   1.1006
B( 29-C , 30-C ) :   1.1248 B( 29-C , 75-H ) :   0.9467 B( 29-C , 76-H ) :   0.9328
B( 30-C , 77-H ) :   0.9674 B( 30-C , 78-H ) :   0.9676 B( 30-C , 79-H ) :   0.9631
B( 31-C , 32-O ) :   1.9271 B( 31-C , 33-C ) :   1.0044 B( 33-C , 34-C ) :   1.2947
B( 33-C , 40-C ) :   1.2814 B( 34-C , 35-C ) :   0.9794 B( 35-C , 36-O ) :   2.0289
B( 35-C , 37-N ) :   1.0534 B( 36-O , 73-H ) :   0.1031 B( 37-N , 38-C ) :   0.9373
B( 37-N , 40-C ) :   1.1819 B( 38-C , 39-C ) :   1.1213 B( 38-C , 80-H ) :   0.9275
B( 38-C , 81-H ) :   0.9493 B( 39-C , 82-H ) :   0.9634 B( 39-C , 83-H ) :   0.9680
B( 39-C , 84-H ) :   0.9683 B( 40-C , 41-C ) :   1.1583 B( 41-C , 42-C ) :   1.5900
B( 41-C , 85-H ) :   0.9620 B( 42-C , 43-C ) :   1.1034 B( 42-C , 86-H ) :   0.9627
B( 43-C , 44-C ) :   1.2647 B( 43-C , 55-C ) :   1.2997 B( 44-C , 45-C ) :   1.4336
B( 44-C , 87-H ) :   1.0061 B( 45-C , 46-C ) :   1.3188 B( 45-C , 50-C ) :   0.8767
B( 46-C , 47-C ) :   0.8703 B( 46-C , 54-C ) :   1.4176 B( 47-C , 48-O ) :   2.2294
B( 47-C , 49-N ) :   1.0662 B( 49-N , 50-C ) :   1.0641 B( 49-N , 52-C ) :   0.9158
B( 50-C , 51-O ) :   2.2255 B( 52-C , 53-C ) :   1.1244 B( 52-C , 88-H ) :   0.9432
B( 52-C , 89-H ) :   0.9420 B( 53-C , 90-H ) :   0.9698 B( 53-C , 91-H ) :   0.9702
B( 53-C , 92-H ) :   0.9693 B( 54-C , 55-C ) :   1.2931 B( 54-C , 93-H ) :   1.0072
B( 55-C , 56-C ) :   1.0696 B( 56-C , 57-C ) :   1.7542 B( 56-C , 94-H ) :   0.9536
B( 57-C , 58-C ) :   1.0909 B( 57-C , 95-H ) :   0.9600 B( 58-C , 59-S ) :   1.1348
B( 58-C , 60-C ) :   0.1023 B( 58-C , 66-C ) :   1.5259 B( 59-S , 60-C ) :   1.1420
B( 60-C , 61-C ) :   0.9644 B( 60-C , 65-C ) :   1.5571 B( 61-C , 62-F ) :   1.1746
B( 61-C , 63-F ) :   1.1739 B( 61-C , 64-F ) :   1.1736 B( 65-C , 66-C ) :   1.2617
B( 65-C , 96-H ) :   1.0023 B( 66-C , 97-H ) :   0.9765

-----------------------------------------------------------------------------
         ABSORPTION SPECTRUM VIA TRANSITION ELECTRIC DIPOLE MOMENTS
-----------------------------------------------------------------------------
State   Energy  Wavelength   fosc         T2         TX        TY        TZ
        (cm-1)    (nm)                  (au**2)     (au)      (au)      (au)
-----------------------------------------------------------------------------
   0    7288.2   1372.1   0.275702343  12.45360   2.85559   2.05040   0.30828
   1   14025.0    713.0   0.013401911   0.31458   0.02826   0.19452  -0.52531
   2   16597.2    602.5   0.279705683   5.54807  -2.01611  -1.06093   0.59817
   3   18160.1    550.7   0.006554931   0.11883  -0.30019  -0.16409   0.04232
   4   19053.0    524.9   0.102407220   1.76947  -0.26395   0.68900   1.10683
   5   23433.6    426.7   0.008098123   0.11377   0.10326   0.09565   0.30652
   6   23697.9    422.0   0.024451896   0.33969   0.51094   0.05266  -0.27542
   7   24206.6    413.1   0.010559755   0.14361   0.09326  -0.10364  -0.35238
   8   25138.0    397.8   0.023967415   0.31388  -0.26383   0.27925   0.40779
   9   25243.4    396.1   0.117487924   1.53222  -0.56674   0.50185   0.97937
  10   26094.7    383.2   0.354842849   4.47672   0.94802  -1.09833  -1.54002
  11   26771.6    373.5   0.090765608   1.11615  -0.82688   0.46117   0.46877
  12   27526.6    363.3   0.135056510   1.61525  -0.78735  -0.64824  -0.75837
  13   27794.8    359.8   0.093250345   1.10449  -0.18939  -0.91979  -0.47182
  14   28246.9    354.0   0.173135412   2.01786  -1.37706  -0.32662   0.12196
  15   28283.8    353.6   0.074580010   0.86808  -0.36085   0.10551   0.85249
  16   28774.4    347.5   0.205891527   2.35564   0.37873   1.06824   1.03492
  17   30273.5    330.3   0.218950872   2.38100  -1.45087  -0.27296   0.44886
  18   30533.8    327.5   0.068489302   0.73844   0.80113   0.06749  -0.30345
  19   31360.2    318.9   0.017385460   0.18251   0.15177   0.32750   0.22852
  20   31796.7    314.5   0.029239002   0.30273  -0.44480   0.03508   0.32196
  21   31831.0    314.2   0.001150716   0.01190  -0.09069   0.05830   0.01666
  22   31874.7    313.7   0.001698913   0.01755   0.08421   0.00809  -0.10193
  23   32395.9    308.7   0.044669892   0.45394   0.48662  -0.14795  -0.44187
  24   32528.9    307.4   0.289443388   2.92934  -1.50886   0.13955   0.79574
  25   32738.0    305.5   0.403613048   4.05871   1.09540  -0.89654  -1.43354
  26   32940.9    303.6   0.006493220   0.06489   0.07103   0.24446   0.00921
  27   33618.0    297.5   0.002347282   0.02299  -0.10331  -0.09383   0.05923
  28   33992.8    294.2   0.056537754   0.54755   0.57315   0.44934   0.13098
  29   34394.5    290.7   0.016575574   0.15866   0.21682   0.33351   0.02047
  30   34505.8    289.8   0.121916476   1.16318  -1.02046  -0.10266   0.33360
  31   34807.2    287.3   0.013609470   0.12872   0.33845   0.05150   0.10733
  32   35030.7    285.5   0.120200250   1.12962  -0.75186   0.50130   0.55948
  33   35108.6    284.8   0.163639060   1.53444   0.93362  -0.50452  -0.63895
  34   35382.8    282.6   0.019402603   0.18053  -0.29591  -0.25341   0.16955
  35   36133.3    276.8   0.227024325   2.06843   1.36884   0.19959  -0.39355
  36   36405.0    274.7   0.117421597   1.06185  -0.00295  -0.72040  -0.73680
  37   36939.2    270.7   0.094771819   0.84463  -0.32742   0.54360   0.66478
  38   37445.6    267.1   0.002045166   0.01798  -0.09622  -0.03222  -0.08766
  39   37841.8    264.3   0.001099492   0.00957  -0.04822  -0.00772   0.08474
  40   38025.0    263.0   0.005146233   0.04455   0.07407  -0.13423  -0.14509
  41   38339.6    260.8   0.160191581   1.37552   0.55144  -0.72062  -0.74307
  42   38505.9    259.7   0.020338268   0.17389   0.38637   0.08180  -0.13384
  43   38811.1    257.7   0.003247379   0.02755  -0.01347  -0.10983  -0.12370
  44   38927.6    256.9   0.004129336   0.03492  -0.12406  -0.04781  -0.13132
  45   38986.2    256.5   0.035919094   0.30331   0.29101   0.29044   0.36642
  46   39082.9    255.9   0.013951393   0.11752   0.00009  -0.18427  -0.28907
  47   39546.5    252.9   0.042422433   0.35315  -0.58335   0.03932   0.10632
  48   39974.3    250.2   0.404163385   3.32852   0.59242   1.36415   1.05672
  49   40151.8    249.1   0.059088910   0.48448  -0.64364   0.15520   0.21474

FINAL SINGLE POINT ENERGY     -4038.265609669938

DIPOLE MOMENT
-------------
                                X             Y             Z
Electronic contribution:    -73.15118      14.61636       6.27168
Nuclear contribution   :     74.50440     -15.55547      -6.54491
                        -----------------------------------------
Total Dipole Moment    :      1.35322      -0.93912      -0.27323
                        -----------------------------------------
Magnitude (a.u.)       :      1.66967
Magnitude (Debye)      :      4.24396

Rotational constants in cm-1:     0.001225     0.000419     0.000337
Rotational constants in MHz :    36.734401    12.567687    10.109801

                             ****ORCA TERMINATED NORMALLY****
TOTAL RUN TIME: 0 days 0 hours 9 minutes 56 seconds 494 msec
