                         Program Version 4.2.0 -  RELEASE  -
|  1> # ORCA input file
|  2> # SCF done       -196.405837208902          0.000736881349
|  3> ! CAM-B3LYP def2-SVP def2/J RIJCOSX Grid4 TightSCF
|  4> %maxcore 5000
|  5> %tddft
|  6>     Mode sTDDFT
|  7>     Ethresh 5.0
|  8>     maxcore 5000
|  9> end
| 10>
| 11> %pal
| 12>   nprocs 6
| 13>   end
| 14> * xyz 0 1
| 15>    C       -3.99416         0.84200         1.46809
| 16>    C       -3.72511        -0.45448         1.81964
| 17>    C       -4.52988        -1.54492         1.43673
| 18>    N       -5.15969        -2.45288         1.12400
| 19>    C       -2.59817        -0.85756         2.56445
| 20>    N       -1.71063        -1.23734         3.18503
| 21>    C       -3.14146         1.99983         1.71603
| 22>    C       -3.70755         3.13740         1.08107
| 23>    C       -3.11190         4.37549         1.10950
| 24>    C       -1.90612         4.50214         1.80633
| 25>    C       -1.35306         3.36508         2.44364
| 26>    C       -1.95088         2.11036         2.40725
| 27>    S        0.13489         3.74701         3.25172
| 28>    C       -0.00193         5.40585         2.73125
| 29>    C       -1.10512         5.66222         1.98842
| 30>   Br        1.31970         6.64129         3.22049
| 31>    C       -4.96051         2.74421         0.43233
| 32>    O       -5.73635         3.44857        -0.20563
| 33>    C       -5.13107         1.31251         0.71042
| 34>    C       -6.22862         0.62819         0.26138
| 35>    N       -7.13526         1.24851        -0.50971
| 36>    C       -8.27067         0.70801        -1.01035
| 37>    S       -8.87171        -0.81736        -0.44569
| 38>    C      -10.21347        -0.65902        -1.53502
| 39>    N      -11.10460        -1.73538        -1.57436
| 40>    O      -12.07595        -1.65772        -2.29887
| 41>    O      -10.82018        -2.69453        -0.87128
| 42>    C      -10.19932         0.49224        -2.27380
| 43>    C       -9.07571         1.29933        -1.99551
| 44>    C       -8.70431         2.50374        -2.67384
| 45>    C       -9.48558         3.17932        -3.54852
| 46>    C       -9.01856         4.25855        -4.33624
| 47>    S       -7.30213         4.58061        -4.38244
| 48>    C       -7.47053         5.64005        -5.73229
| 49>    C       -8.80915         5.87483        -6.03592
| 50>    C       -9.70141         5.07645        -5.24476
| 51>    C      -11.09737         5.20355        -5.47389
| 52>    S      -12.26030         4.31356        -4.48798
| 53>    C      -11.54105         6.05908        -6.45055
| 54>    C      -10.65958         6.82678        -7.22705
| 55>    C       -9.30779         6.75540        -7.02976
| 56>    O       -8.40882         7.50916        -7.72963
| 57>    N       -6.39545         6.19074        -6.38216
| 58>    C       -5.15946         5.64149        -6.52068
| 59>    S       -3.79019         6.68942        -6.71081
| 60>    C       -2.74014         5.30391        -6.70624
| 61>    N       -1.37143         5.53020        -6.88508
| 62>    O       -0.63257         4.56376        -6.89210
| 63>    O       -1.02465         6.69149        -7.02344
| 64>    C       -3.40594         4.11900        -6.55315
| 65>    C       -4.80088         4.28502        -6.47704
| 66>    C       -5.76536         3.22208        -6.40660
| 67>    C       -5.58149         2.04313        -5.77122
| 68>    C       -6.69248         1.19586        -5.52466
| 69>    C       -6.86347         0.25171        -4.56189
| 70>    C       -6.03589        -0.22401        -3.47365
| 71>    C       -5.01326         0.45249        -2.85149
| 72>    C       -4.14958        -0.11683        -1.89638
| 73>    N       -3.36534        -0.51669        -1.15780
| 74>    C       -4.74418         1.82684        -3.00982
| 75>    N       -4.52753         2.95501        -3.01779
| 76>    C       -6.60392        -1.48475        -3.01452
| 77>    C       -7.83992        -1.70292        -3.68158
| 78>    C       -8.08509        -0.59857        -4.61921
| 79>    O       -9.06438        -0.39622        -5.30157
| 80>    C       -8.65223        -2.77573        -3.40434
| 81>    C       -8.24562        -3.66425        -2.40341
| 82>    C       -7.01641        -3.43329        -1.73120
| 83>    C       -6.18309        -2.36258        -2.03126
| 84>    S       -6.72894        -4.61559        -0.50041
| 85>    C       -8.23686        -5.39302        -0.89462
| 86>    C       -8.92499        -4.80340        -1.90335
| 87>   Br       -8.76152        -6.91547         0.05448
| 88>    H       -3.56123         5.21780         0.60767
| 89>    H       -1.48889         1.27330         2.90356
| 90>    H       -1.34558         6.62882         1.58491
| 91>    H       -6.40611        -0.41480         0.48959
| 92>    H       -6.91504         2.24958        -0.68194
| 93>    H      -10.95090         0.71389        -3.00877
| 94>    H       -7.70006         2.86928        -2.49701
| 95>    H      -10.50377         2.86245        -3.70596
| 96>    H      -13.34428         4.84233        -5.05595
| 97>    H      -12.60029         6.16563        -6.63126
| 98>    H      -11.06626         7.49109        -7.97575
| 99>    H       -8.87843         8.05514        -8.37233
|100>    H       -6.55921         7.09864        -6.80431
|101>    H       -2.90304         3.16947        -6.54901
|102>    H       -6.74312         3.43833        -6.81816
|103>    H       -4.61932         1.79779        -5.35194
|104>    H       -7.56035         1.33605        -6.16333
|105>    H       -9.58515        -2.91254        -3.92974
|106>    H       -5.25647        -2.24002        -1.49485
|107>    H       -9.87918        -5.14243        -2.26172
|108> *
|109>
|110>                          ****END OF INPUT****

CARTESIAN COORDINATES (ANGSTROEM)
---------------------------------
  C     -3.994160    0.842000    1.468090
  C     -3.725110   -0.454480    1.819640
  C     -4.529880   -1.544920    1.436730
  N     -5.159690   -2.452880    1.124000
  C     -2.598170   -0.857560    2.564450
  N     -1.710630   -1.237340    3.185030
  C     -3.141460    1.999830    1.716030
  C     -3.707550    3.137400    1.081070
  C     -3.111900    4.375490    1.109500
  C     -1.906120    4.502140    1.806330
  C     -1.353060    3.365080    2.443640
  C     -1.950880    2.110360    2.407250
  S      0.134890    3.747010    3.251720
  C     -0.001930    5.405850    2.731250
  C     -1.105120    5.662220    1.988420
  Br     1.319700    6.641290    3.220490
  C     -4.960510    2.744210    0.432330
  O     -5.736350    3.448570   -0.205630
  C     -5.131070    1.312510    0.710420
  C     -6.228620    0.628190    0.261380
  N     -7.135260    1.248510   -0.509710
  C     -8.270670    0.708010   -1.010350
  S     -8.871710   -0.817360   -0.445690
  C    -10.213470   -0.659020   -1.535020
  N    -11.104600   -1.735380   -1.574360
  O    -12.075950   -1.657720   -2.298870
  O    -10.820180   -2.694530   -0.871280
  C    -10.199320    0.492240   -2.273800
  C     -9.075710    1.299330   -1.995510
  C     -8.704310    2.503740   -2.673840
  C     -9.485580    3.179320   -3.548520
  C     -9.018560    4.258550   -4.336240
  S     -7.302130    4.580610   -4.382440
  C     -7.470530    5.640050   -5.732290
  C     -8.809150    5.874830   -6.035920
  C     -9.701410    5.076450   -5.244760
  C    -11.097370    5.203550   -5.473890
  S    -12.260300    4.313560   -4.487980
  C    -11.541050    6.059080   -6.450550
  C    -10.659580    6.826780   -7.227050
  C     -9.307790    6.755400   -7.029760
  O     -8.408820    7.509160   -7.729630
  N     -6.395450    6.190740   -6.382160
  C     -5.159460    5.641490   -6.520680
  S     -3.790190    6.689420   -6.710810
  C     -2.740140    5.303910   -6.706240
  N     -1.371430    5.530200   -6.885080
  O     -0.632570    4.563760   -6.892100
  O     -1.024650    6.691490   -7.023440
  C     -3.405940    4.119000   -6.553150
  C     -4.800880    4.285020   -6.477040
  C     -5.765360    3.222080   -6.406600
  C     -5.581490    2.043130   -5.771220
  C     -6.692480    1.195860   -5.524660
  C     -6.863470    0.251710   -4.561890
  C     -6.035890   -0.224010   -3.473650
  C     -5.013260    0.452490   -2.851490
  C     -4.149580   -0.116830   -1.896380
  N     -3.365340   -0.516690   -1.157800
  C     -4.744180    1.826840   -3.009820
  N     -4.527530    2.955010   -3.017790
  C     -6.603920   -1.484750   -3.014520
  C     -7.839920   -1.702920   -3.681580
  C     -8.085090   -0.598570   -4.619210
  O     -9.064380   -0.396220   -5.301570
  C     -8.652230   -2.775730   -3.404340
  C     -8.245620   -3.664250   -2.403410
  C     -7.016410   -3.433290   -1.731200
  C     -6.183090   -2.362580   -2.031260
  S     -6.728940   -4.615590   -0.500410
  C     -8.236860   -5.393020   -0.894620
  C     -8.924990   -4.803400   -1.903350
  Br    -8.761520   -6.915470    0.054480
  H     -3.561230    5.217800    0.607670
  H     -1.488890    1.273300    2.903560
  H     -1.345580    6.628820    1.584910
  H     -6.406110   -0.414800    0.489590
  H     -6.915040    2.249580   -0.681940
  H    -10.950900    0.713890   -3.008770
  H     -7.700060    2.869280   -2.497010
  H    -10.503770    2.862450   -3.705960
  H    -13.344280    4.842330   -5.055950
  H    -12.600290    6.165630   -6.631260
  H    -11.066260    7.491090   -7.975750
  H     -8.878430    8.055140   -8.372330
  H     -6.559210    7.098640   -6.804310
  H     -2.903040    3.169470   -6.549010
  H     -6.743120    3.438330   -6.818160
  H     -4.619320    1.797790   -5.351940
  H     -7.560350    1.336050   -6.163330
  H     -9.585150   -2.912540   -3.929740
  H     -5.256470   -2.240020   -1.494850
  H     -9.879180   -5.142430   -2.261720

 Total Charge           Charge          ....    0
 Multiplicity           Mult            ....    1
 Number of Electrons    NEL             ....  598
 Basis Dimension        Dim             .... 1182

ORBITAL ENERGIES
----------------

  NO   OCC          E(Eh)            E(eV)
   0   2.0000    -482.883724    -13139.9342
   1   2.0000    -482.873666    -13139.6605
   2   2.0000     -88.989507     -2421.5276
   3   2.0000     -88.987435     -2421.4712
   4   2.0000     -88.979810     -2421.2637
   5   2.0000     -88.974174     -2421.1104
   6   2.0000     -88.963409     -2420.8174
   7   2.0000     -88.940678     -2420.1989
   8   2.0000     -62.561456     -1702.3838
   9   2.0000     -62.551403     -1702.1102
  10   2.0000     -56.395406     -1534.5970
  11   2.0000     -56.392690     -1534.5231
  12   2.0000     -56.392654     -1534.5221
  13   2.0000     -56.385321     -1534.3226
  14   2.0000     -56.382647     -1534.2498
  15   2.0000     -56.382620     -1534.2491
  16   2.0000     -19.281795      -524.6843
  17   2.0000     -19.242914      -523.6263
  18   2.0000     -19.242512      -523.6154
  19   2.0000     -19.239121      -523.5231
  20   2.0000     -19.238673      -523.5109
  21   2.0000     -19.228521      -523.2346
  22   2.0000     -19.216631      -522.9111
  23   2.0000     -14.653022      -398.7290
  24   2.0000     -14.650817      -398.6690
  25   2.0000     -14.491726      -394.3399
  26   2.0000     -14.490722      -394.3126
  27   2.0000     -14.422758      -392.4632
  28   2.0000     -14.422037      -392.4436
  29   2.0000     -14.420000      -392.3881
  30   2.0000     -14.410355      -392.1257
  31   2.0000     -10.379416      -282.4383
  32   2.0000     -10.374550      -282.3059
  33   2.0000     -10.367957      -282.1265
  34   2.0000     -10.365496      -282.0595
  35   2.0000     -10.365033      -282.0469
  36   2.0000     -10.364248      -282.0255
  37   2.0000     -10.358082      -281.8577
  38   2.0000     -10.356975      -281.8276
  39   2.0000     -10.348395      -281.5941
  40   2.0000     -10.346919      -281.5540
  41   2.0000     -10.346840      -281.5518
  42   2.0000     -10.346709      -281.5483
  43   2.0000     -10.345424      -281.5133
  44   2.0000     -10.340467      -281.3784
  45   2.0000     -10.337003      -281.2841
  46   2.0000     -10.326958      -281.0108
  47   2.0000     -10.325262      -280.9647
  48   2.0000     -10.324796      -280.9520
  49   2.0000     -10.324311      -280.9388
  50   2.0000     -10.318597      -280.7833
  51   2.0000     -10.318036      -280.7680
  52   2.0000     -10.316253      -280.7195
  53   2.0000     -10.315780      -280.7066
  54   2.0000     -10.315704      -280.7046
  55   2.0000     -10.313524      -280.6452
  56   2.0000     -10.312029      -280.6046
  57   2.0000     -10.310674      -280.5677
  58   2.0000     -10.308556      -280.5101
  59   2.0000     -10.307259      -280.4748
  60   2.0000     -10.307196      -280.4731
  61   2.0000     -10.305942      -280.4389
  62   2.0000     -10.305869      -280.4369
  63   2.0000     -10.305697      -280.4323
  64   2.0000     -10.304048      -280.3874
  65   2.0000     -10.301602      -280.3209
  66   2.0000     -10.301478      -280.3175
  67   2.0000     -10.301214      -280.3103
  68   2.0000     -10.300623      -280.2942
  69   2.0000     -10.297923      -280.2207
  70   2.0000     -10.297670      -280.2138
  71   2.0000     -10.297594      -280.2118
  72   2.0000     -10.295188      -280.1463
  73   2.0000     -10.294544      -280.1288
  74   2.0000     -10.293503      -280.1005
  75   2.0000     -10.293393      -280.0975
  76   2.0000     -10.291205      -280.0379
  77   2.0000     -10.291150      -280.0364
  78   2.0000     -10.287517      -279.9376
  79   2.0000     -10.285354      -279.8787
  80   2.0000     -10.283515      -279.8287
  81   2.0000      -8.790905      -239.2127
  82   2.0000      -8.780875      -238.9398
  83   2.0000      -8.085373      -220.0142
  84   2.0000      -8.081805      -219.9171
  85   2.0000      -8.074251      -219.7115
  86   2.0000      -8.070184      -219.6009
  87   2.0000      -8.058905      -219.2940
  88   2.0000      -8.035859      -218.6668
  89   2.0000      -6.627227      -180.3360
  90   2.0000      -6.617110      -180.0607
  91   2.0000      -6.612625      -179.9387
  92   2.0000      -6.612437      -179.9336
  93   2.0000      -6.602682      -179.6681
  94   2.0000      -6.602417      -179.6609
  95   2.0000      -6.055063      -164.7666
  96   2.0000      -6.051500      -164.6697
  97   2.0000      -6.050612      -164.6455
  98   2.0000      -6.047145      -164.5512
  99   2.0000      -6.046751      -164.5405
 100   2.0000      -6.043528      -164.4528
 101   2.0000      -6.043342      -164.4477
 102   2.0000      -6.039856      -164.3528
 103   2.0000      -6.039266      -164.3368
 104   2.0000      -6.036485      -164.2611
 105   2.0000      -6.035573      -164.2363
 106   2.0000      -6.031439      -164.1238
 107   2.0000      -6.028596      -164.0464
 108   2.0000      -6.024143      -163.9253
 109   2.0000      -6.020263      -163.8197
 110   2.0000      -6.006262      -163.4387
 111   2.0000      -6.001954      -163.3215
 112   2.0000      -5.995965      -163.1585
 113   2.0000      -2.743051       -74.6422
 114   2.0000      -2.739025       -74.5327
 115   2.0000      -2.738862       -74.5282
 116   2.0000      -2.733004       -74.3688
 117   2.0000      -2.728955       -74.2587
 118   2.0000      -2.728789       -74.2541
 119   2.0000      -2.727265       -74.2127
 120   2.0000      -2.727233       -74.2118
 121   2.0000      -2.717308       -73.9417
 122   2.0000      -2.717286       -73.9411
 123   2.0000      -1.323438       -36.0126
 124   2.0000      -1.320077       -35.9211
 125   2.0000      -1.173067       -31.9208
 126   2.0000      -1.143913       -31.1275
 127   2.0000      -1.142377       -31.0857
 128   2.0000      -1.139332       -31.0028
 129   2.0000      -1.131181       -30.7810
 130   2.0000      -1.100052       -29.9339
 131   2.0000      -1.099811       -29.9274
 132   2.0000      -1.026003       -27.9190
 133   2.0000      -1.022076       -27.8121
 134   2.0000      -1.017786       -27.6954
 135   2.0000      -1.013829       -27.5877
 136   2.0000      -1.011922       -27.5358
 137   2.0000      -1.007707       -27.4211
 138   2.0000      -1.002166       -27.2703
 139   2.0000      -0.998831       -27.1796
 140   2.0000      -0.994909       -27.0729
 141   2.0000      -0.988994       -26.9119
 142   2.0000      -0.987803       -26.8795
 143   2.0000      -0.951598       -25.8943
 144   2.0000      -0.944025       -25.6882
 145   2.0000      -0.941068       -25.6078
 146   2.0000      -0.932655       -25.3788
 147   2.0000      -0.925457       -25.1830
 148   2.0000      -0.910206       -24.7680
 149   2.0000      -0.907760       -24.7014
 150   2.0000      -0.906772       -24.6745
 151   2.0000      -0.899338       -24.4722
 152   2.0000      -0.892494       -24.2860
 153   2.0000      -0.884814       -24.0770
 154   2.0000      -0.884236       -24.0613
 155   2.0000      -0.881357       -23.9829
 156   2.0000      -0.878793       -23.9132
 157   2.0000      -0.866744       -23.5853
 158   2.0000      -0.857720       -23.3397
 159   2.0000      -0.850030       -23.1305
 160   2.0000      -0.849211       -23.1082
 161   2.0000      -0.831613       -22.6293
 162   2.0000      -0.828585       -22.5470
 163   2.0000      -0.824148       -22.4262
 164   2.0000      -0.822025       -22.3684
 165   2.0000      -0.797111       -21.6905
 166   2.0000      -0.794951       -21.6317
 167   2.0000      -0.782571       -21.2948
 168   2.0000      -0.769119       -20.9288
 169   2.0000      -0.761861       -20.7313
 170   2.0000      -0.758968       -20.6526
 171   2.0000      -0.750607       -20.4250
 172   2.0000      -0.737599       -20.0711
 173   2.0000      -0.730222       -19.8703
 174   2.0000      -0.723512       -19.6878
 175   2.0000      -0.718612       -19.5544
 176   2.0000      -0.711184       -19.3523
 177   2.0000      -0.703580       -19.1454
 178   2.0000      -0.699732       -19.0407
 179   2.0000      -0.689296       -18.7567
 180   2.0000      -0.685971       -18.6662
 181   2.0000      -0.679944       -18.5022
 182   2.0000      -0.671259       -18.2659
 183   2.0000      -0.665384       -18.1060
 184   2.0000      -0.663852       -18.0643
 185   2.0000      -0.658524       -17.9193
 186   2.0000      -0.655897       -17.8479
 187   2.0000      -0.649713       -17.6796
 188   2.0000      -0.641372       -17.4526
 189   2.0000      -0.636528       -17.3208
 190   2.0000      -0.635206       -17.2848
 191   2.0000      -0.633078       -17.2269
 192   2.0000      -0.632104       -17.2004
 193   2.0000      -0.631929       -17.1957
 194   2.0000      -0.624611       -16.9965
 195   2.0000      -0.621358       -16.9080
 196   2.0000      -0.618085       -16.8190
 197   2.0000      -0.608146       -16.5485
 198   2.0000      -0.602967       -16.4076
 199   2.0000      -0.601633       -16.3713
 200   2.0000      -0.597471       -16.2580
 201   2.0000      -0.596529       -16.2324
 202   2.0000      -0.593863       -16.1598
 203   2.0000      -0.586197       -15.9512
 204   2.0000      -0.585265       -15.9259
 205   2.0000      -0.580446       -15.7947
 206   2.0000      -0.573136       -15.5958
 207   2.0000      -0.569680       -15.5018
 208   2.0000      -0.567001       -15.4289
 209   2.0000      -0.561040       -15.2667
 210   2.0000      -0.556440       -15.1415
 211   2.0000      -0.555715       -15.1218
 212   2.0000      -0.548872       -14.9356
 213   2.0000      -0.546008       -14.8576
 214   2.0000      -0.544964       -14.8292
 215   2.0000      -0.544111       -14.8060
 216   2.0000      -0.542595       -14.7648
 217   2.0000      -0.536485       -14.5985
 218   2.0000      -0.534246       -14.5376
 219   2.0000      -0.532247       -14.4832
 220   2.0000      -0.527892       -14.3647
 221   2.0000      -0.524330       -14.2678
 222   2.0000      -0.522074       -14.2064
 223   2.0000      -0.518168       -14.1001
 224   2.0000      -0.516512       -14.0550
 225   2.0000      -0.515507       -14.0277
 226   2.0000      -0.511922       -13.9301
 227   2.0000      -0.509437       -13.8625
 228   2.0000      -0.506118       -13.7722
 229   2.0000      -0.504615       -13.7313
 230   2.0000      -0.502379       -13.6704
 231   2.0000      -0.501423       -13.6444
 232   2.0000      -0.498785       -13.5726
 233   2.0000      -0.497590       -13.5401
 234   2.0000      -0.495795       -13.4913
 235   2.0000      -0.493723       -13.4349
 236   2.0000      -0.491413       -13.3720
 237   2.0000      -0.488460       -13.2917
 238   2.0000      -0.484341       -13.1796
 239   2.0000      -0.478614       -13.0237
 240   2.0000      -0.475887       -12.9496
 241   2.0000      -0.473432       -12.8827
 242   2.0000      -0.467716       -12.7272
 243   2.0000      -0.467254       -12.7146
 244   2.0000      -0.463642       -12.6163
 245   2.0000      -0.459890       -12.5142
 246   2.0000      -0.458179       -12.4677
 247   2.0000      -0.457860       -12.4590
 248   2.0000      -0.454635       -12.3712
 249   2.0000      -0.453268       -12.3340
 250   2.0000      -0.452388       -12.3101
 251   2.0000      -0.449991       -12.2449
 252   2.0000      -0.448053       -12.1922
 253   2.0000      -0.446946       -12.1620
 254   2.0000      -0.443196       -12.0600
 255   2.0000      -0.442242       -12.0340
 256   2.0000      -0.440580       -11.9888
 257   2.0000      -0.438276       -11.9261
 258   2.0000      -0.436310       -11.8726
 259   2.0000      -0.431998       -11.7553
 260   2.0000      -0.428982       -11.6732
 261   2.0000      -0.427368       -11.6293
 262   2.0000      -0.424818       -11.5599
 263   2.0000      -0.421543       -11.4708
 264   2.0000      -0.419064       -11.4033
 265   2.0000      -0.415809       -11.3147
 266   2.0000      -0.410867       -11.1802
 267   2.0000      -0.409301       -11.1376
 268   2.0000      -0.404226       -10.9995
 269   2.0000      -0.403152       -10.9703
 270   2.0000      -0.393062       -10.6958
 271   2.0000      -0.390035       -10.6134
 272   2.0000      -0.386746       -10.5239
 273   2.0000      -0.386607       -10.5201
 274   2.0000      -0.386227       -10.5098
 275   2.0000      -0.379927       -10.3383
 276   2.0000      -0.376665       -10.2496
 277   2.0000      -0.373301       -10.1580
 278   2.0000      -0.371933       -10.1208
 279   2.0000      -0.370890       -10.0924
 280   2.0000      -0.367950       -10.0124
 281   2.0000      -0.367543       -10.0014
 282   2.0000      -0.363767        -9.8986
 283   2.0000      -0.362795        -9.8722
 284   2.0000      -0.351295        -9.5592
 285   2.0000      -0.350333        -9.5331
 286   2.0000      -0.346649        -9.4328
 287   2.0000      -0.339168        -9.2292
 288   2.0000      -0.338414        -9.2087
 289   2.0000      -0.331871        -9.0307
 290   2.0000      -0.317102        -8.6288
 291   2.0000      -0.314143        -8.5483
 292   2.0000      -0.306296        -8.3347
 293   2.0000      -0.305067        -8.3013
 294   2.0000      -0.292772        -7.9667
 295   2.0000      -0.287721        -7.8293
 296   2.0000      -0.284397        -7.7388
 297   2.0000      -0.276403        -7.5213
 298   2.0000      -0.230643        -6.2761
 299   0.0000      -0.095873        -2.6088
 300   0.0000      -0.087837        -2.3902
 301   0.0000      -0.071107        -1.9349
 302   0.0000      -0.066233        -1.8023
 303   0.0000      -0.058690        -1.5970

MULLIKEN ATOMIC CHARGES
-----------------------
   0 C :    0.344678
   1 C :   -0.325704
   2 C :   -0.170547
   3 N :    0.122398
   4 C :   -0.191910
   5 N :    0.151330
   6 C :    0.009693
   7 C :   -0.007666
   8 C :   -0.063040
   9 C :    0.118387
  10 C :   -0.091168
  11 C :   -0.019330
  12 S :    0.189786
  13 C :   -0.124424
  14 C :    0.039372
  15 Br:    0.024020
  16 C :    0.175099
  17 O :   -0.211103
  18 C :   -0.131041
  19 C :    0.013007
  20 N :   -0.017214
  21 C :   -0.129243
  22 S :    0.173396
  23 C :   -0.009044
  24 N :    0.274740
  25 O :   -0.240573
  26 O :   -0.263494
  27 C :    0.018006
  28 C :    0.133878
  29 C :   -0.084274
  30 C :    0.014350
  31 C :   -0.170312
  32 S :    0.167095
  33 C :   -0.198035
  34 C :    0.120591
  35 C :    0.137390
  36 C :   -0.078675
  37 S :    0.024233
  38 C :   -0.008939
  39 C :   -0.081720
  40 C :    0.135031
  41 O :   -0.214907
  42 N :   -0.007408
  43 C :   -0.091077
  44 S :    0.180704
  45 C :   -0.012132
  46 N :    0.277600
  47 O :   -0.246241
  48 O :   -0.266837
  49 C :    0.022591
  50 C :    0.084851
  51 C :   -0.030751
  52 C :    0.029269
  53 C :   -0.003289
  54 C :   -0.090007
  55 C :    0.310152
  56 C :   -0.370941
  57 C :   -0.170239
  58 N :    0.140225
  59 C :   -0.230648
  60 N :    0.165244
  61 C :    0.032409
  62 C :   -0.015387
  63 C :    0.137087
  64 O :   -0.150900
  65 C :   -0.080675
  66 C :    0.105785
  67 C :   -0.073042
  68 C :   -0.071167
  69 S :    0.224967
  70 C :   -0.133085
  71 C :    0.069883
  72 Br:    0.020953
  73 H :   -0.008732
  74 H :   -0.006670
  75 H :   -0.003385
  76 H :    0.044404
  77 H :    0.190512
  78 H :    0.019132
  79 H :    0.002056
  80 H :    0.012976
  81 H :    0.062993
  82 H :   -0.024353
  83 H :   -0.038825
  84 H :    0.194519
  85 H :    0.155855
  86 H :    0.015306
  87 H :    0.036855
  88 H :    0.027520
  89 H :    0.021998
  90 H :   -0.004912
  91 H :   -0.006471
  92 H :   -0.002791
Sum of atomic charges:   -0.0000000

LOEWDIN ATOMIC CHARGES
----------------------
   0 C :    0.084712
   1 C :   -0.140542
   2 C :    0.002178
   3 N :   -0.079900
   4 C :   -0.016501
   5 N :   -0.054704
   6 C :   -0.013870
   7 C :   -0.049192
   8 C :    0.027698
   9 C :   -0.033831
  10 C :   -0.143228
  11 C :   -0.006123
  12 S :    0.436284
  13 C :   -0.272413
  14 C :   -0.069003
  15 Br:    0.137516
  16 C :    0.097052
  17 O :   -0.164523
  18 C :   -0.139549
  19 C :    0.103131
  20 N :    0.078211
  21 C :   -0.119034
  22 S :    0.480738
  23 C :   -0.201577
  24 N :    0.274816
  25 O :   -0.208807
  26 O :   -0.228150
  27 C :    0.008910
  28 C :   -0.084086
  29 C :   -0.059737
  30 C :   -0.031617
  31 C :   -0.193905
  32 S :    0.520116
  33 C :   -0.132453
  34 C :   -0.088637
  35 C :   -0.045910
  36 C :   -0.158262
  37 S :    0.242947
  38 C :   -0.046392
  39 C :   -0.094033
  40 C :    0.053565
  41 O :   -0.059017
  42 N :    0.024186
  43 C :   -0.099954
  44 S :    0.458732
  45 C :   -0.206085
  46 N :    0.273765
  47 O :   -0.213031
  48 O :   -0.231826
  49 C :    0.015117
  50 C :   -0.110026
  51 C :    0.018200
  52 C :   -0.033489
  53 C :    0.069611
  54 C :   -0.095332
  55 C :    0.078048
  56 C :   -0.158791
  57 C :   -0.018310
  58 N :   -0.055881
  59 C :   -0.030879
  60 N :   -0.060054
  61 C :   -0.032709
  62 C :   -0.058912
  63 C :    0.082873
  64 O :   -0.146451
  65 C :    0.015915
  66 C :   -0.033962
  67 C :   -0.145848
  68 C :   -0.019068
  69 S :    0.469559
  70 C :   -0.272858
  71 C :   -0.064578
  72 Br:    0.137838
  73 H :    0.042529
  74 H :    0.041939
  75 H :    0.038921
  76 H :    0.032663
  77 H :    0.084935
  78 H :    0.048452
  79 H :    0.018093
  80 H :    0.020905
  81 H :   -0.023783
  82 H :    0.026985
  83 H :    0.027286
  84 H :    0.102813
  85 H :    0.089013
  86 H :    0.048178
  87 H :    0.035865
  88 H :    0.032930
  89 H :    0.046352
  90 H :    0.041222
  91 H :    0.037061
  92 H :    0.038968

  Mayer bond orders larger than 0.100000
B(  0-C ,  1-C ) :   1.6344 B(  0-C ,  6-C ) :   1.0076 B(  0-C , 18-C ) :   1.0931
B(  1-C ,  2-C ) :   1.1608 B(  1-C ,  4-C ) :   1.1415 B(  2-C ,  3-N ) :   2.9135
B(  4-C ,  5-N ) :   2.9719 B(  6-C ,  7-C ) :   1.2717 B(  6-C , 11-C ) :   1.4209
B(  7-C ,  8-C ) :   1.4247 B(  7-C , 16-C ) :   0.9819 B(  8-C ,  9-C ) :   1.2387
B(  8-C , 73-H ) :   1.0183 B(  9-C , 10-C ) :   1.3088 B(  9-C , 14-C ) :   1.1625
B( 10-C , 11-C ) :   1.3187 B( 10-C , 12-S ) :   1.0900 B( 11-C , 74-H ) :   0.9818
B( 12-S , 13-C ) :   1.0876 B( 13-C , 14-C ) :   1.6181 B( 13-C , 15-Br) :   1.0185
B( 14-C , 75-H ) :   1.0002 B( 16-C , 17-O ) :   2.0250 B( 16-C , 18-C ) :   1.0049
B( 17-O , 77-H ) :   0.1541 B( 18-C , 19-C ) :   1.4538 B( 19-C , 20-N ) :   1.3193
B( 19-C , 76-H ) :   0.9351 B( 20-N , 21-C ) :   1.1972 B( 20-N , 77-H ) :   0.8129
B( 21-C , 22-S ) :   1.1289 B( 21-C , 28-C ) :   1.3613 B( 22-S , 23-C ) :   1.0846
B( 23-C , 24-N ) :   0.9642 B( 23-C , 27-C ) :   1.4986 B( 24-N , 25-O ) :   1.5375
B( 24-N , 26-O ) :   1.4920 B( 25-O , 26-O ) :   0.2519 B( 27-C , 28-C ) :   1.2156
B( 27-C , 78-H ) :   0.9997 B( 28-C , 29-C ) :   1.0927 B( 29-C , 30-C ) :   1.6864
B( 29-C , 79-H ) :   0.9601 B( 30-C , 31-C ) :   1.1688 B( 30-C , 80-H ) :   0.9537
B( 31-C , 32-S ) :   1.1023 B( 31-C , 33-C ) :   0.1005 B( 31-C , 35-C ) :   1.3622
B( 32-S , 33-C ) :   1.1875 B( 33-C , 34-C ) :   1.3072 B( 33-C , 42-N ) :   1.1625
B( 34-C , 35-C ) :   1.2484 B( 34-C , 40-C ) :   1.1582 B( 35-C , 36-C ) :   1.2196
B( 36-C , 37-S ) :   1.0346 B( 36-C , 38-C ) :   1.5446 B( 37-S , 81-H ) :   0.9510
B( 38-C , 39-C ) :   1.2128 B( 38-C , 82-H ) :   0.9759 B( 39-C , 40-C ) :   1.4867
B( 39-C , 83-H ) :   0.9867 B( 40-C , 41-O ) :   1.1786 B( 41-O , 84-H ) :   0.9510
B( 42-N , 43-C ) :   1.1967 B( 42-N , 85-H ) :   0.8777 B( 43-C , 44-S ) :   1.1456
B( 43-C , 50-C ) :   1.3673 B( 44-S , 45-C ) :   1.0765 B( 45-C , 46-N ) :   0.9695
B( 45-C , 49-C ) :   1.4955 B( 46-N , 47-O ) :   1.5386 B( 46-N , 48-O ) :   1.5081
B( 47-O , 48-O ) :   0.2590 B( 49-C , 50-C ) :   1.2355 B( 49-C , 86-H ) :   1.0034
B( 50-C , 51-C ) :   1.0628 B( 51-C , 52-C ) :   1.6799 B( 51-C , 87-H ) :   0.9719
B( 52-C , 53-C ) :   1.1164 B( 52-C , 88-H ) :   0.9554 B( 53-C , 54-C ) :   1.6346
B( 53-C , 89-H ) :   0.9453 B( 54-C , 55-C ) :   1.0378 B( 54-C , 63-C ) :   0.9358
B( 55-C , 56-C ) :   1.5982 B( 55-C , 61-C ) :   1.0358 B( 56-C , 57-C ) :   1.1240
B( 56-C , 59-C ) :   1.1924 B( 57-C , 58-N ) :   2.9211 B( 59-C , 60-N ) :   2.9244
B( 61-C , 62-C ) :   1.2610 B( 61-C , 68-C ) :   1.3742 B( 62-C , 63-C ) :   0.9368
B( 62-C , 65-C ) :   1.4117 B( 63-C , 64-O ) :   2.2352 B( 65-C , 66-C ) :   1.2389
B( 65-C , 90-H ) :   1.0201 B( 66-C , 67-C ) :   1.2838 B( 66-C , 71-C ) :   1.1788
B( 67-C , 68-C ) :   1.3302 B( 67-C , 69-S ) :   1.1163 B( 68-C , 91-H ) :   0.9881
B( 69-S , 70-C ) :   1.0863 B( 70-C , 71-C ) :   1.6015 B( 70-C , 72-Br) :   1.0185
B( 71-C , 92-H ) :   0.9976

-----------------------------------------------------------------------------
         ABSORPTION SPECTRUM VIA TRANSITION ELECTRIC DIPOLE MOMENTS
-----------------------------------------------------------------------------
State   Energy  Wavelength   fosc         T2         TX        TY        TZ
        (cm-1)    (nm)                  (au**2)     (au)      (au)      (au)
-----------------------------------------------------------------------------
   0   12150.8    823.0   0.024537594   0.66482   0.43893  -0.64559  -0.23530
   1   16222.2    616.4   0.287300328   5.83046   0.74179  -0.83480   2.14087
   2   18978.0    526.9   0.245664480   4.26156   1.98405   0.56398  -0.08371
   3   20856.8    479.5   0.137402556   2.16881  -0.82958  -0.81644   0.90224
   4   21774.2    459.3   0.009469654   0.14317  -0.15831   0.32842   0.10125
   5   22116.9    452.1   0.111498477   1.65967   0.21982   0.80187  -0.98405
   6   23691.7    422.1   0.163724027   2.27506   0.54078   0.96733  -1.02318
   7   24182.0    413.5   0.304520606   4.14572  -1.88493  -0.51653  -0.57091
   8   24632.4    406.0   0.632707245   8.45611  -0.77424   2.16042  -1.78585
   9   25413.9    393.5   0.211922202   2.74524   1.43810   0.76067   0.31383
  10   26619.1    375.7   0.069394010   0.85823  -0.79347   0.27994  -0.38764
  11   26943.9    371.1   0.041936678   0.51240  -0.56259   0.06851  -0.43726
  12   27425.4    364.6   0.051635924   0.61983  -0.53248   0.45938   0.35393
  13   27581.1    362.6   0.091751470   1.09516   0.25660  -0.66734   0.76418
  14   28091.0    356.0   0.011706863   0.13720   0.22266   0.27559   0.10803
  15   28695.4    348.5   0.120072009   1.37754   0.27543  -0.85453   0.75594
  16   29100.3    343.6   0.002644550   0.02992  -0.16948  -0.02433   0.02456
  17   29415.8    340.0   0.062218949   0.69633  -0.70180  -0.42169  -0.16119
  18   29612.1    337.7   0.546883230   6.07996   0.97063   2.22310   0.44235
  19   29982.3    333.5   0.013573122   0.14904  -0.37546  -0.04287  -0.07893
  20   30071.5    332.5   0.309580924   3.38917  -1.66065  -0.79056  -0.08007
  21   30255.0    330.5   0.082520864   0.89793  -0.69321  -0.60903   0.21556
  22   30363.1    329.3   0.195243182   2.11693  -0.84676  -1.10754   0.41627
  23   30611.3    326.7   0.068903100   0.74102   0.70219   0.44755  -0.21829
  24   30688.3    325.9   0.027348525   0.29338   0.44096   0.28151   0.14034
  25   31690.8    315.5   0.070281545   0.73010   0.55423   0.59848  -0.25447
  26   32102.0    311.5   0.136131829   1.39606   0.92584   0.71537   0.16473
  27   32263.5    309.9   0.104172527   1.06296  -0.84946  -0.58130  -0.05892
  28   32390.9    308.7   0.112057241   1.13892  -0.68932  -0.77829  -0.24088
  29   32592.6    306.8   0.062777365   0.63410  -0.73400  -0.21115  -0.22531
  30   32748.7    305.4   0.502437527   5.05085  -1.27639  -1.76671   0.54811
  31   33296.1    300.3   0.142317119   1.40715   0.05118   0.85035  -0.82549
  32   33493.4    298.6   0.019340195   0.19010   0.11034   0.27935  -0.31605
  33   33638.3    297.3   0.476419167   4.66263   0.64032   2.04287  -0.28157
  34   33689.9    296.8   0.032492611   0.31751  -0.31406   0.41430  -0.21734
  35   34062.0    293.6   0.273540623   2.64379   0.18541   1.55690  -0.43068
  36   34312.1    291.4   0.022400044   0.21492   0.22770  -0.39100   0.10097
  37   34498.2    289.9   0.192170061   1.83385   0.29045  -1.29775   0.25560
  38   34599.8    289.0   0.005389223   0.05128  -0.11642   0.03156   0.19165
  39   34830.7    287.1   0.005430445   0.05133   0.06888  -0.20018  -0.08069
  40   34884.1    286.7   0.026677030   0.25176   0.45172  -0.19202   0.10412
  41   35445.2    282.1   0.018452303   0.17138   0.22878  -0.29326   0.18179
  42   35545.1    281.3   0.012786612   0.11843  -0.21335   0.09576   0.25246
  43   35693.2    280.2   0.008163373   0.07529  -0.06284   0.17914  -0.19812
  44   36078.0    277.2   0.023313609   0.21274  -0.11947  -0.14262  -0.42205
  45   36346.6    275.1   0.027704156   0.25093   0.48842   0.10911  -0.02177
  46   36567.9    273.5   0.031086446   0.27986  -0.52361   0.06547   0.03756
  47   36741.9    272.2   0.033671923   0.30170  -0.20805   0.43118  -0.26927
  48   37072.7    269.7   0.014926195   0.13255  -0.08980  -0.34857  -0.05464
  49   37223.3    268.6   0.004109379   0.03634  -0.18728  -0.03214  -0.01542
  50   37363.4    267.6   0.079139167   0.69730  -0.78786   0.18753  -0.20351
  51   37482.1    266.8   0.107052177   0.94026   0.67751  -0.37865   0.58126
  52   37501.9    266.7   0.008372494   0.07350  -0.18132  -0.12822   0.15550
  53   37617.2    265.8   0.056636330   0.49566   0.53212   0.46006  -0.02924
  54   37651.2    265.6   0.056299109   0.49226  -0.55722  -0.40764  -0.12492
  55   37921.8    263.7   0.017390677   0.15097  -0.36635   0.00307  -0.12944
  56   38212.8    261.7   0.117714602   1.01414   0.72875   0.64571  -0.25714
  57   38299.1    261.1   0.010193552   0.08762   0.25232   0.00464   0.15471
  58   38443.0    260.1   0.115208017   0.98660   0.02485   0.93823  -0.32511
  59   38607.3    259.0   0.024723363   0.21082   0.44343  -0.05124   0.10754
  60   38772.1    257.9   0.023504801   0.19958   0.15165   0.24534  -0.34116
  61   38971.0    256.6   0.334573309   2.82635  -1.52000   0.11448  -0.70911
  62   39260.3    254.7   0.022747004   0.19074   0.34878  -0.06140   0.25559
  63   39371.3    254.0   0.004789144   0.04005  -0.17044  -0.02635  -0.10150
  64   39423.6    253.7   0.026126363   0.21817  -0.35739  -0.13601   0.26822
  65   39723.7    251.7   0.095239621   0.78930   0.59466  -0.09468   0.65323
  66   39775.5    251.4   0.168254057   1.39260  -0.79246   0.62246  -0.61412
  67   40004.4    250.0   0.036438694   0.29987  -0.28633  -0.20724  -0.41825
  68   40192.0    248.8   0.050474700   0.41344   0.52759   0.08683   0.35714

FINAL SINGLE POINT ENERGY    -10414.429697258131

DIPOLE MOMENT
-------------
                                X             Y             Z
Electronic contribution:     65.89617     -49.72761      95.39595
Nuclear contribution   :    -68.44633      53.31334     -97.50625
                        -----------------------------------------
Total Dipole Moment    :     -2.55016       3.58572      -2.11030
                        -----------------------------------------
Magnitude (a.u.)       :      4.87997
Magnitude (Debye)      :     12.40389

Rotational constants in cm-1:     0.000701     0.000576     0.000370
Rotational constants in MHz :    21.011051    17.274245    11.092759

                             ****ORCA TERMINATED NORMALLY****
TOTAL RUN TIME: 0 days 0 hours 13 minutes 33 seconds 466 msec
