                         Program Version 4.2.0 -  RELEASE  -
|  1> # ORCA input file
|  2> # SCF done       -160.829968604164          0.000900484080
|  3> ! CAM-B3LYP def2-SVP def2/J RIJCOSX Grid4 TightSCF
|  4> %maxcore 5000
|  5> %tddft
|  6>     Mode sTDDFT
|  7>     Ethresh 5.0
|  8>     maxcore 5000
|  9> end
| 10>
| 11> %pal
| 12>   nprocs 6
| 13>   end
| 14> * xyz 0 1
| 15>    C       -8.16289        -0.31282         6.41460
| 16>    C       -7.01333        -0.84065         6.97445
| 17>    C       -6.82331        -2.20679         7.23483
| 18>    N       -6.62143        -3.31566         7.46373
| 19>    C       -5.91244        -0.05965         7.36474
| 20>    N       -4.98846         0.53861         7.69601
| 21>    C       -9.32267        -1.09217         5.96603
| 22>    C      -10.30995        -0.19646         5.49379
| 23>    C      -11.49416        -0.61061         4.94049
| 24>    C      -11.71404        -1.98847         4.83489
| 25>    C      -10.72670        -2.87807         5.31180
| 26>    C       -9.52920        -2.45475         5.88202
| 27>    S      -11.20865        -4.53583         5.08940
| 28>    C      -12.71195        -4.01001         4.37798
| 29>    C      -12.84384        -2.66659         4.29853
| 30>   Br      -13.98307        -5.28044         3.83973
| 31>    C       -9.80694         1.18569         5.63196
| 32>    O      -10.45126         2.20673         5.50368
| 33>    C       -8.39516         1.04688         6.06530
| 34>    C       -7.52195         2.14678         6.08557
| 35>    C       -7.61155         3.15537         5.14645
| 36>    C       -8.22693         2.97535         3.89760
| 37>    C       -8.74387         3.92109         3.01361
| 38>    C       -9.42282         3.37612         1.93868
| 39>    C       -9.41527         1.98183         1.92689
| 40>    S       -8.45521         1.36887         3.23890
| 41>    C      -10.15697         1.05776         1.17438
| 42>    C      -11.10905         1.25493         0.17561
| 43>    C      -11.74742         0.09321        -0.21138
| 44>    C      -11.31100        -1.04826         0.46461
| 45>    S      -10.05119        -0.62828         1.60082
| 46>    C      -11.77613        -2.36239         0.34804
| 47>    C      -11.25349        -3.41235         1.05972
| 48>    C      -11.71972        -4.72719         1.03232
| 49>    C      -11.18290        -5.81352         1.73735
| 50>    C      -11.87988        -6.98432         1.57764
| 51>    C      -12.99557        -6.86168         0.73551
| 52>    S      -13.12467        -5.22760         0.12858
| 53>    C      -13.93031        -7.83572         0.41098
| 54>    C      -13.99831        -9.16171         0.88477
| 55>    C      -15.06006        -9.86524         0.40454
| 56>    C      -15.89778        -9.14121        -0.48924
| 57>    S      -15.25025        -7.51492        -0.68104
| 58>    C      -17.03301        -9.63997        -1.06122
| 59>    C      -17.95284        -9.01803        -1.96435
| 60>    C      -17.72576        -7.81130        -2.62902
| 61>    C      -18.69358        -7.28417        -3.48307
| 62>    C      -19.87452        -8.01570        -3.65631
| 63>    N      -20.09303        -9.16266        -3.04069
| 64>    C      -19.18478        -9.65078        -2.22983
| 65>    N      -18.38753        -6.09420        -4.12042
| 66>    C      -19.12011        -5.26697        -4.90857
| 67>    S      -20.82752        -5.42094        -5.14626
| 68>    C      -20.81849        -3.98017        -6.11857
| 69>    N      -22.02837        -3.55980        -6.66617
| 70>    O      -22.02422        -2.55016        -7.34935
| 71>    O      -23.01170        -4.23942        -6.41563
| 72>    C      -19.57302        -3.42562        -6.24393
| 73>    C      -18.58205        -4.14642        -5.56017
| 74>    C      -17.17226        -3.80229        -5.54958
| 75>    C      -16.66225        -2.65266        -5.97674
| 76>    H      -12.22322         0.10205         4.58780
| 77>    H       -8.80801        -3.17556         6.22986
| 78>    H      -13.70482        -2.16997         3.88956
| 79>    H       -6.77254         2.22178         6.86234
| 80>    H       -7.15314         4.11479         5.34258
| 81>    H       -8.68570         4.97674         3.21133
| 82>    H       -9.93927         3.95936         1.19708
| 83>    H      -11.32575         2.22673        -0.23001
| 84>    H      -12.52317         0.05304        -0.95564
| 85>    H      -12.59625        -2.54161        -0.33539
| 86>    H      -10.40987        -3.22017         1.71226
| 87>    H      -10.30524        -5.71163         2.35098
| 88>    H      -11.61666        -7.91140         2.05252
| 89>    H      -13.27447        -9.55577         1.57440
| 90>    H      -15.27770       -10.88638         0.66193
| 91>    H      -17.29453       -10.64923        -0.76773
| 92>    H      -16.79008        -7.28645        -2.50734
| 93>    H      -20.66289        -7.69370        -4.31826
| 94>    H      -19.43369       -10.58979        -1.75458
| 95>    H      -17.44487        -5.76776        -3.94020
| 96>    H      -19.39905        -2.54060        -6.82687
| 97>    H      -16.49538        -4.56197        -5.17799
| 98>    H      -17.27445        -1.85480        -6.35656
| 99>    H      -15.60199        -2.47241        -5.95610
|100> *
|101>
|102>                          ****END OF INPUT****

CARTESIAN COORDINATES (ANGSTROEM)
---------------------------------
  C     -8.162890   -0.312820    6.414600
  C     -7.013330   -0.840650    6.974450
  C     -6.823310   -2.206790    7.234830
  N     -6.621430   -3.315660    7.463730
  C     -5.912440   -0.059650    7.364740
  N     -4.988460    0.538610    7.696010
  C     -9.322670   -1.092170    5.966030
  C    -10.309950   -0.196460    5.493790
  C    -11.494160   -0.610610    4.940490
  C    -11.714040   -1.988470    4.834890
  C    -10.726700   -2.878070    5.311800
  C     -9.529200   -2.454750    5.882020
  S    -11.208650   -4.535830    5.089400
  C    -12.711950   -4.010010    4.377980
  C    -12.843840   -2.666590    4.298530
  Br   -13.983070   -5.280440    3.839730
  C     -9.806940    1.185690    5.631960
  O    -10.451260    2.206730    5.503680
  C     -8.395160    1.046880    6.065300
  C     -7.521950    2.146780    6.085570
  C     -7.611550    3.155370    5.146450
  C     -8.226930    2.975350    3.897600
  C     -8.743870    3.921090    3.013610
  C     -9.422820    3.376120    1.938680
  C     -9.415270    1.981830    1.926890
  S     -8.455210    1.368870    3.238900
  C    -10.156970    1.057760    1.174380
  C    -11.109050    1.254930    0.175610
  C    -11.747420    0.093210   -0.211380
  C    -11.311000   -1.048260    0.464610
  S    -10.051190   -0.628280    1.600820
  C    -11.776130   -2.362390    0.348040
  C    -11.253490   -3.412350    1.059720
  C    -11.719720   -4.727190    1.032320
  C    -11.182900   -5.813520    1.737350
  C    -11.879880   -6.984320    1.577640
  C    -12.995570   -6.861680    0.735510
  S    -13.124670   -5.227600    0.128580
  C    -13.930310   -7.835720    0.410980
  C    -13.998310   -9.161710    0.884770
  C    -15.060060   -9.865240    0.404540
  C    -15.897780   -9.141210   -0.489240
  S    -15.250250   -7.514920   -0.681040
  C    -17.033010   -9.639970   -1.061220
  C    -17.952840   -9.018030   -1.964350
  C    -17.725760   -7.811300   -2.629020
  C    -18.693580   -7.284170   -3.483070
  C    -19.874520   -8.015700   -3.656310
  N    -20.093030   -9.162660   -3.040690
  C    -19.184780   -9.650780   -2.229830
  N    -18.387530   -6.094200   -4.120420
  C    -19.120110   -5.266970   -4.908570
  S    -20.827520   -5.420940   -5.146260
  C    -20.818490   -3.980170   -6.118570
  N    -22.028370   -3.559800   -6.666170
  O    -22.024220   -2.550160   -7.349350
  O    -23.011700   -4.239420   -6.415630
  C    -19.573020   -3.425620   -6.243930
  C    -18.582050   -4.146420   -5.560170
  C    -17.172260   -3.802290   -5.549580
  C    -16.662250   -2.652660   -5.976740
  H    -12.223220    0.102050    4.587800
  H     -8.808010   -3.175560    6.229860
  H    -13.704820   -2.169970    3.889560
  H     -6.772540    2.221780    6.862340
  H     -7.153140    4.114790    5.342580
  H     -8.685700    4.976740    3.211330
  H     -9.939270    3.959360    1.197080
  H    -11.325750    2.226730   -0.230010
  H    -12.523170    0.053040   -0.955640
  H    -12.596250   -2.541610   -0.335390
  H    -10.409870   -3.220170    1.712260
  H    -10.305240   -5.711630    2.350980
  H    -11.616660   -7.911400    2.052520
  H    -13.274470   -9.555770    1.574400
  H    -15.277700  -10.886380    0.661930
  H    -17.294530  -10.649230   -0.767730
  H    -16.790080   -7.286450   -2.507340
  H    -20.662890   -7.693700   -4.318260
  H    -19.433690  -10.589790   -1.754580
  H    -17.444870   -5.767760   -3.940200
  H    -19.399050   -2.540600   -6.826870
  H    -16.495380   -4.561970   -5.177990
  H    -17.274450   -1.854800   -6.356560
  H    -15.601990   -2.472410   -5.956100

 Total Charge           Charge          ....    0
 Multiplicity           Mult            ....    1
 Number of Electrons    NEL             ....  490
 Basis Dimension        Dim             .... 1016

ORBITAL ENERGIES
----------------

  NO   OCC          E(Eh)            E(eV)
   0   2.0000    -482.885357    -13139.9786
   1   2.0000     -88.989133     -2421.5174
   2   2.0000     -88.982532     -2421.3378
   3   2.0000     -88.977981     -2421.2140
   4   2.0000     -88.970494     -2421.0102
   5   2.0000     -88.970333     -2421.0059
   6   2.0000     -88.955937     -2420.6141
   7   2.0000     -62.562673     -1702.4169
   8   2.0000     -56.396613     -1534.6299
   9   2.0000     -56.393961     -1534.5577
  10   2.0000     -56.393908     -1534.5562
  11   2.0000     -19.233907      -523.3812
  12   2.0000     -19.233268      -523.3638
  13   2.0000     -19.186140      -522.0814
  14   2.0000     -14.646046      -398.5392
  15   2.0000     -14.490306      -394.3013
  16   2.0000     -14.423737      -392.4898
  17   2.0000     -14.382526      -391.3684
  18   2.0000     -14.381498      -391.3405
  19   2.0000     -10.377045      -282.3737
  20   2.0000     -10.355075      -281.7759
  21   2.0000     -10.352041      -281.6934
  22   2.0000     -10.348849      -281.6065
  23   2.0000     -10.341627      -281.4100
  24   2.0000     -10.341168      -281.3975
  25   2.0000     -10.340779      -281.3869
  26   2.0000     -10.340199      -281.3711
  27   2.0000     -10.339825      -281.3609
  28   2.0000     -10.337321      -281.2928
  29   2.0000     -10.325855      -280.9808
  30   2.0000     -10.324372      -280.9404
  31   2.0000     -10.321523      -280.8629
  32   2.0000     -10.320841      -280.8444
  33   2.0000     -10.318573      -280.7826
  34   2.0000     -10.317426      -280.7514
  35   2.0000     -10.317309      -280.7482
  36   2.0000     -10.317171      -280.7445
  37   2.0000     -10.317094      -280.7424
  38   2.0000     -10.315831      -280.7080
  39   2.0000     -10.315770      -280.7064
  40   2.0000     -10.314332      -280.6672
  41   2.0000     -10.313568      -280.6465
  42   2.0000     -10.310152      -280.5535
  43   2.0000     -10.308773      -280.5160
  44   2.0000     -10.308746      -280.5152
  45   2.0000     -10.306820      -280.4628
  46   2.0000     -10.304929      -280.4114
  47   2.0000     -10.302733      -280.3516
  48   2.0000     -10.302628      -280.3488
  49   2.0000     -10.301702      -280.3236
  50   2.0000     -10.300424      -280.2888
  51   2.0000     -10.299807      -280.2720
  52   2.0000     -10.293845      -280.1098
  53   2.0000     -10.291577      -280.0480
  54   2.0000     -10.290249      -280.0119
  55   2.0000     -10.288654      -279.9685
  56   2.0000     -10.287298      -279.9316
  57   2.0000     -10.287018      -279.9240
  58   2.0000     -10.286458      -279.9088
  59   2.0000     -10.286243      -279.9029
  60   2.0000     -10.285447      -279.8812
  61   2.0000     -10.283851      -279.8378
  62   2.0000     -10.274040      -279.5708
  63   2.0000     -10.273257      -279.5495
  64   2.0000     -10.262104      -279.2460
  65   2.0000      -8.791954      -239.2412
  66   2.0000      -8.084179      -219.9817
  67   2.0000      -8.078446      -219.8257
  68   2.0000      -8.074283      -219.7124
  69   2.0000      -8.066043      -219.4882
  70   2.0000      -8.066009      -219.4873
  71   2.0000      -8.051136      -219.0825
  72   2.0000      -6.628090      -180.3595
  73   2.0000      -6.613731      -179.9688
  74   2.0000      -6.613647      -179.9665
  75   2.0000      -6.053909      -164.7352
  76   2.0000      -6.049394      -164.6124
  77   2.0000      -6.048146      -164.5784
  78   2.0000      -6.045622      -164.5097
  79   2.0000      -6.044103      -164.4684
  80   2.0000      -6.043848      -164.4615
  81   2.0000      -6.039848      -164.3526
  82   2.0000      -6.039479      -164.3426
  83   2.0000      -6.035737      -164.2407
  84   2.0000      -6.035535      -164.2352
  85   2.0000      -6.035504      -164.2344
  86   2.0000      -6.031467      -164.1246
  87   2.0000      -6.031411      -164.1230
  88   2.0000      -6.027568      -164.0185
  89   2.0000      -6.027300      -164.0112
  90   2.0000      -6.020749      -163.8329
  91   2.0000      -6.016558      -163.7189
  92   2.0000      -6.012563      -163.6101
  93   2.0000      -2.743957       -74.6669
  94   2.0000      -2.739997       -74.5591
  95   2.0000      -2.739869       -74.5556
  96   2.0000      -2.728492       -74.2460
  97   2.0000      -2.728461       -74.2452
  98   2.0000      -1.314232       -35.7621
  99   2.0000      -1.132922       -30.8284
 100   2.0000      -1.102812       -30.0090
 101   2.0000      -1.099776       -29.9264
 102   2.0000      -1.055398       -28.7188
 103   2.0000      -1.028367       -27.9833
 104   2.0000      -1.015473       -27.6324
 105   2.0000      -1.009645       -27.4738
 106   2.0000      -1.006895       -27.3990
 107   2.0000      -1.005500       -27.3611
 108   2.0000      -0.989475       -26.9250
 109   2.0000      -0.984480       -26.7891
 110   2.0000      -0.966112       -26.2892
 111   2.0000      -0.962101       -26.1801
 112   2.0000      -0.943700       -25.6794
 113   2.0000      -0.930972       -25.3330
 114   2.0000      -0.927423       -25.2365
 115   2.0000      -0.921617       -25.0785
 116   2.0000      -0.905538       -24.6409
 117   2.0000      -0.900253       -24.4971
 118   2.0000      -0.891729       -24.2652
 119   2.0000      -0.887465       -24.1491
 120   2.0000      -0.875627       -23.8270
 121   2.0000      -0.873693       -23.7744
 122   2.0000      -0.870926       -23.6991
 123   2.0000      -0.868162       -23.6239
 124   2.0000      -0.859357       -23.3843
 125   2.0000      -0.855432       -23.2775
 126   2.0000      -0.850284       -23.1374
 127   2.0000      -0.841247       -22.8915
 128   2.0000      -0.832454       -22.6522
 129   2.0000      -0.831592       -22.6288
 130   2.0000      -0.815783       -22.1986
 131   2.0000      -0.810660       -22.0592
 132   2.0000      -0.792227       -21.5576
 133   2.0000      -0.787517       -21.4294
 134   2.0000      -0.773821       -21.0567
 135   2.0000      -0.756156       -20.5761
 136   2.0000      -0.742330       -20.1998
 137   2.0000      -0.735616       -20.0171
 138   2.0000      -0.731232       -19.8978
 139   2.0000      -0.721639       -19.6368
 140   2.0000      -0.708687       -19.2843
 141   2.0000      -0.701941       -19.1008
 142   2.0000      -0.695847       -18.9350
 143   2.0000      -0.681651       -18.5487
 144   2.0000      -0.671908       -18.2836
 145   2.0000      -0.671150       -18.2629
 146   2.0000      -0.666460       -18.1353
 147   2.0000      -0.663208       -18.0468
 148   2.0000      -0.655419       -17.8349
 149   2.0000      -0.652672       -17.7601
 150   2.0000      -0.648206       -17.6386
 151   2.0000      -0.641447       -17.4547
 152   2.0000      -0.637427       -17.3453
 153   2.0000      -0.632804       -17.2195
 154   2.0000      -0.629112       -17.1190
 155   2.0000      -0.627172       -17.0662
 156   2.0000      -0.626501       -17.0480
 157   2.0000      -0.624609       -16.9965
 158   2.0000      -0.620282       -16.8787
 159   2.0000      -0.616718       -16.7817
 160   2.0000      -0.613793       -16.7022
 161   2.0000      -0.604625       -16.4527
 162   2.0000      -0.598106       -16.2753
 163   2.0000      -0.584977       -15.9180
 164   2.0000      -0.582601       -15.8534
 165   2.0000      -0.575512       -15.6605
 166   2.0000      -0.573959       -15.6182
 167   2.0000      -0.571544       -15.5525
 168   2.0000      -0.563532       -15.3345
 169   2.0000      -0.553849       -15.0710
 170   2.0000      -0.552238       -15.0272
 171   2.0000      -0.547013       -14.8850
 172   2.0000      -0.542962       -14.7747
 173   2.0000      -0.538422       -14.6512
 174   2.0000      -0.536793       -14.6069
 175   2.0000      -0.533426       -14.5153
 176   2.0000      -0.531949       -14.4751
 177   2.0000      -0.530737       -14.4421
 178   2.0000      -0.527829       -14.3630
 179   2.0000      -0.524532       -14.2732
 180   2.0000      -0.523178       -14.2364
 181   2.0000      -0.516587       -14.0570
 182   2.0000      -0.515625       -14.0309
 183   2.0000      -0.513710       -13.9788
 184   2.0000      -0.512322       -13.9410
 185   2.0000      -0.510157       -13.8821
 186   2.0000      -0.506768       -13.7899
 187   2.0000      -0.502626       -13.6772
 188   2.0000      -0.498571       -13.5668
 189   2.0000      -0.496055       -13.4984
 190   2.0000      -0.494279       -13.4500
 191   2.0000      -0.492623       -13.4050
 192   2.0000      -0.490798       -13.3553
 193   2.0000      -0.487904       -13.2765
 194   2.0000      -0.482714       -13.1353
 195   2.0000      -0.481303       -13.0969
 196   2.0000      -0.479289       -13.0421
 197   2.0000      -0.476127       -12.9561
 198   2.0000      -0.466628       -12.6976
 199   2.0000      -0.464443       -12.6381
 200   2.0000      -0.461889       -12.5686
 201   2.0000      -0.461540       -12.5591
 202   2.0000      -0.460568       -12.5327
 203   2.0000      -0.457449       -12.4478
 204   2.0000      -0.455992       -12.4082
 205   2.0000      -0.446715       -12.1557
 206   2.0000      -0.443996       -12.0817
 207   2.0000      -0.442914       -12.0523
 208   2.0000      -0.441513       -12.0142
 209   2.0000      -0.438565       -11.9340
 210   2.0000      -0.430141       -11.7047
 211   2.0000      -0.427217       -11.6252
 212   2.0000      -0.425882       -11.5888
 213   2.0000      -0.419783       -11.4229
 214   2.0000      -0.415103       -11.2955
 215   2.0000      -0.414350       -11.2750
 216   2.0000      -0.410585       -11.1726
 217   2.0000      -0.403137       -10.9699
 218   2.0000      -0.397707       -10.8222
 219   2.0000      -0.395831       -10.7711
 220   2.0000      -0.390394       -10.6232
 221   2.0000      -0.384530       -10.4636
 222   2.0000      -0.382238       -10.4012
 223   2.0000      -0.381117       -10.3707
 224   2.0000      -0.380107       -10.3432
 225   2.0000      -0.377480       -10.2717
 226   2.0000      -0.374035       -10.1780
 227   2.0000      -0.371074       -10.0974
 228   2.0000      -0.364983        -9.9317
 229   2.0000      -0.362617        -9.8673
 230   2.0000      -0.358465        -9.7543
 231   2.0000      -0.351897        -9.5756
 232   2.0000      -0.349839        -9.5196
 233   2.0000      -0.346983        -9.4419
 234   2.0000      -0.342273        -9.3137
 235   2.0000      -0.332053        -9.0356
 236   2.0000      -0.329267        -8.9598
 237   2.0000      -0.325823        -8.8661
 238   2.0000      -0.312566        -8.5054
 239   2.0000      -0.302889        -8.2420
 240   2.0000      -0.293703        -7.9921
 241   2.0000      -0.279002        -7.5920
 242   2.0000      -0.275044        -7.4843
 243   2.0000      -0.253798        -6.9062
 244   2.0000      -0.210466        -5.7271
 245   0.0000      -0.135622        -3.6905
 246   0.0000      -0.080970        -2.2033
 247   0.0000      -0.055368        -1.5066
 248   0.0000      -0.049224        -1.3395
 249   0.0000      -0.040797        -1.1101

MULLIKEN ATOMIC CHARGES
-----------------------
   0 C :    0.334862
   1 C :   -0.378869
   2 C :   -0.182519
   3 N :    0.111785
   4 C :   -0.203864
   5 N :    0.127470
   6 C :    0.028182
   7 C :    0.016300
   8 C :   -0.080704
   9 C :    0.107443
  10 C :   -0.091435
  11 C :   -0.041750
  12 S :    0.152341
  13 C :   -0.133700
  14 C :    0.052091
  15 Br:    0.003394
  16 C :    0.109986
  17 O :   -0.160647
  18 C :   -0.239323
  19 C :    0.049492
  20 C :    0.020537
  21 C :   -0.025519
  22 C :    0.050889
  23 C :    0.033807
  24 C :   -0.040498
  25 S :    0.090843
  26 C :   -0.010263
  27 C :    0.013812
  28 C :    0.035130
  29 C :   -0.047403
  30 S :    0.112528
  31 C :    0.019960
  32 C :   -0.007560
  33 C :   -0.010814
  34 C :    0.026268
  35 C :    0.036647
  36 C :   -0.048097
  37 S :    0.098046
  38 C :   -0.027346
  39 C :    0.031818
  40 C :    0.044853
  41 C :   -0.011417
  42 S :    0.065166
  43 C :   -0.011934
  44 C :    0.051358
  45 C :   -0.028787
  46 C :    0.098622
  47 C :   -0.061262
  48 N :   -0.032849
  49 C :   -0.021502
  50 N :   -0.022503
  51 C :   -0.093316
  52 S :    0.150238
  53 C :   -0.012173
  54 N :    0.280800
  55 O :   -0.256921
  56 O :   -0.270535
  57 C :    0.013838
  58 C :    0.097248
  59 C :   -0.046901
  60 C :   -0.015273
  61 H :   -0.021664
  62 H :   -0.013833
  63 H :   -0.010904
  64 H :    0.035291
  65 H :   -0.001212
  66 H :   -0.006304
  67 H :   -0.008127
  68 H :   -0.007120
  69 H :   -0.005912
  70 H :   -0.001252
  71 H :    0.013744
  72 H :    0.004520
  73 H :   -0.002764
  74 H :   -0.000550
  75 H :    0.002208
  76 H :   -0.003280
  77 H :   -0.013988
  78 H :    0.019686
  79 H :    0.000228
  80 H :    0.135541
  81 H :    0.007484
  82 H :   -0.019914
  83 H :    0.021932
  84 H :    0.026118
Sum of atomic charges:   -0.0000000

LOEWDIN ATOMIC CHARGES
----------------------
   0 C :    0.060621
   1 C :   -0.181288
   2 C :   -0.021940
   3 N :   -0.092208
   4 C :   -0.021193
   5 N :   -0.081066
   6 C :   -0.004582
   7 C :   -0.048445
   8 C :    0.010862
   9 C :   -0.046610
  10 C :   -0.148581
  11 C :   -0.024075
  12 S :    0.415229
  13 C :   -0.284433
  14 C :   -0.067104
  15 Br:    0.130611
  16 C :    0.051195
  17 O :   -0.167927
  18 C :   -0.149213
  19 C :    0.046950
  20 C :   -0.069633
  21 C :   -0.086812
  22 C :   -0.044012
  23 C :   -0.005253
  24 C :   -0.197816
  25 S :    0.457386
  26 C :   -0.144076
  27 C :   -0.047404
  28 C :   -0.020139
  29 C :   -0.166890
  30 S :    0.428247
  31 C :   -0.017716
  32 C :   -0.065620
  33 C :   -0.123308
  34 C :   -0.037509
  35 C :   -0.016551
  36 C :   -0.183891
  37 S :    0.395602
  38 C :   -0.158704
  39 C :   -0.033023
  40 C :   -0.011964
  41 C :   -0.143228
  42 S :    0.389477
  43 C :   -0.027790
  44 C :   -0.044182
  45 C :   -0.030000
  46 C :    0.009887
  47 C :   -0.018405
  48 N :   -0.045259
  49 C :    0.013933
  50 N :    0.026067
  51 C :   -0.094812
  52 S :    0.475371
  53 C :   -0.218258
  54 N :    0.274788
  55 O :   -0.222940
  56 O :   -0.236416
  57 C :    0.008876
  58 C :   -0.113443
  59 C :   -0.032779
  60 C :   -0.038987
  61 H :    0.036072
  62 H :    0.038828
  63 H :    0.036061
  64 H :    0.042045
  65 H :    0.036630
  66 H :    0.036499
  67 H :    0.034144
  68 H :    0.034993
  69 H :    0.035751
  70 H :    0.031824
  71 H :    0.033157
  72 H :    0.034456
  73 H :    0.036479
  74 H :    0.037806
  75 H :    0.039526
  76 H :    0.041277
  77 H :    0.009831
  78 H :    0.010981
  79 H :    0.022129
  80 H :    0.092732
  81 H :    0.044705
  82 H :    0.022249
  83 H :    0.024386
  84 H :    0.027825

  Mayer bond orders larger than 0.100000
B(  0-C ,  1-C ) :   1.5291 B(  0-C ,  6-C ) :   0.9737 B(  0-C , 18-C ) :   1.2110
B(  1-C ,  2-C ) :   1.1546 B(  1-C ,  4-C ) :   1.1674 B(  2-C ,  3-N ) :   2.9503
B(  4-C ,  5-N ) :   2.9701 B(  6-C ,  7-C ) :   1.2866 B(  6-C , 11-C ) :   1.4250
B(  7-C ,  8-C ) :   1.4304 B(  7-C , 16-C ) :   0.8932 B(  8-C ,  9-C ) :   1.2282
B(  8-C , 61-H ) :   1.0203 B(  9-C , 10-C ) :   1.3274 B(  9-C , 14-C ) :   1.1590
B( 10-C , 11-C ) :   1.3083 B( 10-C , 12-S ) :   1.0723 B( 11-C , 62-H ) :   0.9816
B( 12-S , 13-C ) :   1.0739 B( 13-C , 14-C ) :   1.6164 B( 13-C , 15-Br) :   1.0058
B( 14-C , 63-H ) :   1.0012 B( 16-C , 17-O ) :   2.2436 B( 16-C , 18-C ) :   0.9715
B( 18-C , 19-C ) :   1.2913 B( 19-C , 20-C ) :   1.4702 B( 19-C , 64-H ) :   0.9470
B( 20-C , 21-C ) :   1.2942 B( 20-C , 65-H ) :   0.9630 B( 21-C , 22-C ) :   1.3137
B( 21-C , 25-S ) :   1.1011 B( 22-C , 23-C ) :   1.4238 B( 22-C , 66-H ) :   0.9970
B( 23-C , 24-C ) :   1.3305 B( 23-C , 67-H ) :   0.9935 B( 24-C , 25-S ) :   1.0742
B( 24-C , 26-C ) :   1.3008 B( 26-C , 27-C ) :   1.3083 B( 26-C , 30-S ) :   1.1177
B( 27-C , 28-C ) :   1.4497 B( 27-C , 68-H ) :   0.9974 B( 28-C , 29-C ) :   1.2592
B( 28-C , 69-H ) :   1.0014 B( 29-C , 30-S ) :   1.0608 B( 29-C , 31-C ) :   1.4056
B( 31-C , 32-C ) :   1.3168 B( 31-C , 70-H ) :   0.9765 B( 32-C , 33-C ) :   1.4202
B( 32-C , 71-H ) :   0.9689 B( 33-C , 34-C ) :   1.2194 B( 33-C , 37-S ) :   1.0795
B( 34-C , 35-C ) :   1.5051 B( 34-C , 72-H ) :   1.0003 B( 35-C , 36-C ) :   1.2360
B( 35-C , 73-H ) :   0.9976 B( 36-C , 37-S ) :   1.0494 B( 36-C , 38-C ) :   1.4500
B( 38-C , 39-C ) :   1.2003 B( 38-C , 42-S ) :   1.0634 B( 39-C , 40-C ) :   1.5838
B( 39-C , 74-H ) :   0.9950 B( 40-C , 41-C ) :   1.1357 B( 40-C , 75-H ) :   0.9998
B( 41-C , 42-S ) :   1.0205 B( 41-C , 43-C ) :   1.6087 B( 43-C , 44-C ) :   1.0944
B( 43-C , 76-H ) :   0.9690 B( 44-C , 45-C ) :   1.3878 B( 44-C , 49-C ) :   1.2776
B( 45-C , 46-C ) :   1.3716 B( 45-C , 77-H ) :   0.9523 B( 46-C , 47-C ) :   1.3156
B( 46-C , 50-N ) :   1.0998 B( 47-C , 48-N ) :   1.5520 B( 47-C , 78-H ) :   0.9801
B( 48-N , 49-C ) :   1.5988 B( 49-C , 79-H ) :   0.9888 B( 50-N , 51-C ) :   1.2094
B( 50-N , 80-H ) :   0.9004 B( 51-C , 52-S ) :   1.1433 B( 51-C , 58-C ) :   1.3740
B( 52-S , 53-C ) :   1.0683 B( 53-C , 54-N ) :   0.9843 B( 53-C , 57-C ) :   1.4862
B( 54-N , 55-O ) :   1.5261 B( 54-N , 56-O ) :   1.5037 B( 55-O , 56-O ) :   0.2535
B( 57-C , 58-C ) :   1.2564 B( 57-C , 81-H ) :   0.9998 B( 58-C , 59-C ) :   1.0544
B( 59-C , 60-C ) :   1.9745 B( 59-C , 82-H ) :   0.9568 B( 60-C , 83-H ) :   0.9540
B( 60-C , 84-H ) :   0.9477

-----------------------------------------------------------------------------
         ABSORPTION SPECTRUM VIA TRANSITION ELECTRIC DIPOLE MOMENTS
-----------------------------------------------------------------------------
State   Energy  Wavelength   fosc         T2         TX        TY        TZ
        (cm-1)    (nm)                  (au**2)     (au)      (au)      (au)
-----------------------------------------------------------------------------
   0    4017.8   2488.9   0.301109270  24.67246   2.76297   3.08326   2.74444
   1   11990.4    834.0   0.130906917   3.59421   0.97649   1.58626   0.35279
   2   14587.1    685.5   0.698829092  15.77170  -2.13929  -3.33571   0.26108
   3   16287.8    614.0   0.017732076   0.35840   0.45343   0.36631  -0.13648
   4   18668.8    535.7   0.009534535   0.16814   0.39999   0.08096   0.03985
   5   19412.4    515.1   0.092386668   1.56678  -0.09619   1.09826  -0.59275
   6   19646.2    509.0   0.041484458   0.69516  -0.46484   0.58610  -0.36820
   7   21050.5    475.0   0.033794734   0.52852   0.52385   0.43222  -0.25939
   8   21270.9    470.1   0.039489642   0.61118   0.73526  -0.14930   0.21973
   9   23520.3    425.2   0.181398870   2.53903   0.80713  -0.91099   1.02843
  10   24554.7    407.3   0.156356957   2.09632   0.95814  -0.95176   0.52195
  11   25393.4    393.8   0.017159163   0.22246   0.11427  -0.38077   0.25381
  12   25461.7    392.7   0.066220627   0.85621   0.35133  -0.72405   0.45665
  13   26469.0    377.8   0.015442572   0.19207   0.18083  -0.35946   0.17367
  14   27682.1    361.2   0.082431709   0.98033  -0.03657  -0.91307   0.38116
  15   28315.4    353.2   0.174802675   2.03236   1.14022  -0.41196   0.75004
  16   28808.4    347.1   0.023455126   0.26804   0.28802  -0.09602   0.41936
  17   29064.8    344.1   0.611445028   6.92572   1.40219  -1.71247   1.42374
  18   29617.6    337.6   0.006515883   0.07243  -0.23340   0.02288  -0.13202
  19   30100.4    332.2   0.005213541   0.05702  -0.02990  -0.21653  -0.09613
  20   30253.8    330.5   0.016225376   0.17656   0.25843  -0.18722   0.27336
  21   30340.6    329.6   0.047648607   0.51701   0.49117  -0.11387   0.51264
  22   31048.0    322.1   0.039364835   0.41740   0.06934  -0.32539   0.55382
  23   31122.3    321.3   0.030551163   0.32317  -0.18933   0.20092  -0.49695
  24   31638.7    316.1   0.015226640   0.15844  -0.25796  -0.07303  -0.29422
  25   31798.3    314.5   0.001092396   0.01131   0.00358  -0.09118   0.05462
  26   31992.4    312.6   0.095888802   0.98673   0.66187  -0.36133   0.64660
  27   32190.0    310.7   0.028610521   0.29260  -0.40489  -0.09159  -0.34681
  28   32311.2    309.5   0.044981191   0.45830  -0.35941   0.45638  -0.34763
  29   32632.9    306.4   0.082830283   0.83562   0.51650   0.73917  -0.14993
  30   32709.6    305.7   0.285571862   2.87419   1.24088   0.03417   1.15466
  31   32801.7    304.9   0.027826518   0.27928  -0.01831  -0.34320   0.40144
  32   33327.0    300.1   0.092910016   0.91779   0.53296   0.78948   0.10229
  33   33356.8    299.8   0.003392452   0.03348  -0.02230   0.17751  -0.03841
  34   33752.8    296.3   0.033880965   0.33046  -0.34397  -0.39006   0.24495
  35   33993.5    294.2   0.484287191   4.69011  -1.64519  -0.98678  -1.00486
  36   34221.9    292.2   0.007203602   0.06930  -0.26139   0.01191   0.02883
  37   34552.1    289.4   0.001332477   0.01270   0.11158   0.00305  -0.01536
  38   35266.9    283.6   0.184242616   1.71988   1.03152   0.46217   0.66502
  39   36110.0    276.9   0.004198798   0.03828  -0.12042   0.14129  -0.06177
  40   36238.6    275.9   0.002342460   0.02128   0.13968   0.02183   0.03595
  41   36563.1    273.5   0.036169842   0.32567  -0.11268   0.54517  -0.12557
  42   36913.0    270.9   0.008116363   0.07239  -0.09708  -0.21038  -0.13676
  43   37214.3    268.7   0.035713489   0.31594   0.53045  -0.08407   0.16579
  44   37768.0    264.8   0.087967691   0.76679  -0.46754   0.63471  -0.38123
  45   37801.2    264.5   0.091562973   0.79743  -0.78117  -0.12443  -0.41438
  46   37918.2    263.7   0.090674154   0.78725   0.66691  -0.50686   0.29252
  47   38180.0    261.9   0.035579491   0.30679  -0.49003   0.24391  -0.08466
  48   38664.7    258.6   0.127347920   1.08431  -0.57042  -0.82584   0.27733
  49   38894.5    257.1   0.014935053   0.12641   0.11049  -0.16464   0.29513
  50   39022.5    256.3   0.405910569   3.42445  -0.56836  -1.60201   0.73143
  51   39223.9    254.9   0.006350444   0.05330   0.05160  -0.07624   0.21172
  52   39848.1    251.0   0.082402987   0.68079  -0.73677  -0.14695  -0.34111
  53   40062.4    249.6   0.016709580   0.13731   0.16112   0.32903   0.05557

FINAL SINGLE POINT ENERGY     -7226.029080309306

DIPOLE MOMENT
-------------
                                X             Y             Z
Electronic contribution:     -1.92525     -19.84957      46.68613
Nuclear contribution   :      0.65272      17.71702     -50.07937
                        -----------------------------------------
Total Dipole Moment    :     -1.27253      -2.13255      -3.39323
                        -----------------------------------------
Magnitude (a.u.)       :      4.20489
Magnitude (Debye)      :     10.68799

Rotational constants in cm-1:     0.001787     0.000410     0.000352
Rotational constants in MHz :    53.582863    12.291291    10.543627

                             ****ORCA TERMINATED NORMALLY****
TOTAL RUN TIME: 0 days 0 hours 8 minutes 52 seconds 187 msec
