                         Program Version 4.2.0 -  RELEASE  -
|  1> # ORCA input file
|  2> # SCF done       -172.937898537185          0.000707381312
|  3> ! CAM-B3LYP def2-SVP def2/J RIJCOSX Grid4 TightSCF
|  4> %maxcore 5000
|  5> %tddft
|  6>     Mode sTDDFT
|  7>     Ethresh 5.0
|  8>     maxcore 5000
|  9> end
| 10>
| 11> %pal
| 12>   nprocs 6
| 13>   end
| 14> * xyz 0 1
| 15>    C       -9.64448        -4.24614        -6.05248
| 16>    C       -9.45971        -4.98514        -7.19290
| 17>    C       -9.41964        -6.39466        -7.22598
| 18>    N       -9.36726        -7.53756        -7.31907
| 19>    C       -9.29427        -4.44800        -8.48554
| 20>    N       -9.16506        -4.07178        -9.56329
| 21>    C       -9.88915        -4.78816        -4.72134
| 22>    C      -10.08786        -3.71322        -3.82045
| 23>    C      -10.35006        -3.90108        -2.48565
| 24>    C      -10.42782        -5.21662        -2.01619
| 25>    C      -10.22713        -6.28532        -2.92229
| 26>    C       -9.95673        -6.09370        -4.27172
| 27>    S      -10.36584        -7.82655        -2.13285
| 28>    C      -10.68951        -7.02621        -0.61813
| 29>    C      -10.69250        -5.67394        -0.69670
| 30>   Br      -10.98919        -8.05027         0.92363
| 31>    C       -9.96598        -2.43783        -4.54596
| 32>    O       -9.99231        -1.32125        -4.06472
| 33>    C       -9.70021        -2.80077        -5.95232
| 34>    C       -9.36878        -1.91992        -6.94572
| 35>    N       -9.56416        -0.58460        -6.94865
| 36>    C      -10.49580         0.14708        -6.25841
| 37>    S      -12.03427        -0.51845        -5.83161
| 38>    C      -12.51115         1.02532        -5.21642
| 39>    N      -13.78640         1.13760        -4.64744
| 40>    O      -14.12441         2.22837        -4.22699
| 41>    O      -14.46734         0.12740        -4.62146
| 42>    C      -11.55122         1.99137        -5.34686
| 43>    C      -10.37635         1.50905        -5.95937
| 44>    C       -9.19820         2.27980        -6.23343
| 45>    C       -9.01898         3.56722        -5.86675
| 46>    C       -7.84229         4.31907        -6.12135
| 47>    S       -6.39733         3.55140        -6.72800
| 48>    C       -5.50526         5.00999        -6.55123
| 49>    C       -6.24363         6.03342        -6.05417
| 50>    C       -5.70914         7.40491        -5.81132
| 51>    C       -7.60681         5.65999        -5.82469
| 52>    C       -8.58509         6.59581        -5.35633
| 53>    C       -9.89997         6.59738        -5.69419
| 54>    C      -10.88030         7.49684        -5.20101
| 55>    C      -10.72178         8.35323        -4.14861
| 56>    C      -11.72731         9.20862        -3.67909
| 57>    C      -11.58518        10.03439        -2.59015
| 58>    C      -12.55383        10.90892        -2.04257
| 59>    C      -12.13778        11.58591        -0.93623
| 60>    C      -10.81327        11.28563        -0.54546
| 61>    S      -10.10734        10.12116        -1.64155
| 62>    C      -10.11181        11.77986         0.53654
| 63>    C      -10.55436        12.69398         1.51921
| 64>    C       -9.62741        12.96487         2.47697
| 65>    C       -8.39430        12.28231         2.30672
| 66>    S       -8.46319        11.28203         0.86775
| 67>    C       -7.30765        12.37060         3.13435
| 68>    C       -6.07550        11.70764         2.99859
| 69>    S       -5.64358        10.61806         1.69060
| 70>    C       -4.06840        10.30398         2.30269
| 71>    C       -3.85481        10.99780         3.47064
| 72>    C       -4.98594        11.78140         3.85049
| 73>    O       -4.74905        12.44758         4.99979
| 74>    C       -3.48325        12.09927         5.35754
| 75>    N       -2.96139        12.65455         6.54953
| 76>    O       -1.82439        12.33410         6.84291
| 77>    O       -3.67116        13.40008         7.18919
| 78>    C       -2.88481        11.23125         4.48380
| 79>    H      -10.49721        -3.06066        -1.82566
| 80>    H       -9.81031        -6.94100        -4.92047
| 81>    H      -10.87458        -5.02461         0.14015
| 82>    H       -8.86504        -2.28763        -7.83063
| 83>    H       -8.98930        -0.04777        -7.58816
| 84>    H      -11.70474         2.99740        -5.00336
| 85>    H       -8.39472         1.78579        -6.76436
| 86>    H       -9.78728         4.08136        -5.30944
| 87>    H       -4.47054         5.02256        -6.83310
| 88>    H       -4.66790         7.46465        -6.11688
| 89>    H       -5.77553         7.65651        -4.75309
| 90>    H       -6.28349         8.14135        -6.37151
| 91>    H       -8.20238         7.39107        -4.73184
| 92>    H      -10.24059         5.89001        -6.43945
| 93>    H      -11.84556         7.47162        -5.69073
| 94>    H       -9.78125         8.37756        -3.61404
| 95>    H      -12.68141         9.21666        -4.18979
| 96>    H      -13.53076        11.00546        -2.48269
| 97>    H      -12.74455        12.28681        -0.39178
| 98>    H      -11.54120        13.11983         1.49506
| 99>    H       -9.78326        13.63096         3.30681
|100>    H       -7.38752        13.01515         3.99999
|101>    H       -3.41199         9.64244         1.77728
|102>    H       -1.89661        10.83027         4.57260
|103> *
|104>
|105>                          ****END OF INPUT****

CARTESIAN COORDINATES (ANGSTROEM)
---------------------------------
  C     -9.644480   -4.246140   -6.052480
  C     -9.459710   -4.985140   -7.192900
  C     -9.419640   -6.394660   -7.225980
  N     -9.367260   -7.537560   -7.319070
  C     -9.294270   -4.448000   -8.485540
  N     -9.165060   -4.071780   -9.563290
  C     -9.889150   -4.788160   -4.721340
  C    -10.087860   -3.713220   -3.820450
  C    -10.350060   -3.901080   -2.485650
  C    -10.427820   -5.216620   -2.016190
  C    -10.227130   -6.285320   -2.922290
  C     -9.956730   -6.093700   -4.271720
  S    -10.365840   -7.826550   -2.132850
  C    -10.689510   -7.026210   -0.618130
  C    -10.692500   -5.673940   -0.696700
  Br   -10.989190   -8.050270    0.923630
  C     -9.965980   -2.437830   -4.545960
  O     -9.992310   -1.321250   -4.064720
  C     -9.700210   -2.800770   -5.952320
  C     -9.368780   -1.919920   -6.945720
  N     -9.564160   -0.584600   -6.948650
  C    -10.495800    0.147080   -6.258410
  S    -12.034270   -0.518450   -5.831610
  C    -12.511150    1.025320   -5.216420
  N    -13.786400    1.137600   -4.647440
  O    -14.124410    2.228370   -4.226990
  O    -14.467340    0.127400   -4.621460
  C    -11.551220    1.991370   -5.346860
  C    -10.376350    1.509050   -5.959370
  C     -9.198200    2.279800   -6.233430
  C     -9.018980    3.567220   -5.866750
  C     -7.842290    4.319070   -6.121350
  S     -6.397330    3.551400   -6.728000
  C     -5.505260    5.009990   -6.551230
  C     -6.243630    6.033420   -6.054170
  C     -5.709140    7.404910   -5.811320
  C     -7.606810    5.659990   -5.824690
  C     -8.585090    6.595810   -5.356330
  C     -9.899970    6.597380   -5.694190
  C    -10.880300    7.496840   -5.201010
  C    -10.721780    8.353230   -4.148610
  C    -11.727310    9.208620   -3.679090
  C    -11.585180   10.034390   -2.590150
  C    -12.553830   10.908920   -2.042570
  C    -12.137780   11.585910   -0.936230
  C    -10.813270   11.285630   -0.545460
  S    -10.107340   10.121160   -1.641550
  C    -10.111810   11.779860    0.536540
  C    -10.554360   12.693980    1.519210
  C     -9.627410   12.964870    2.476970
  C     -8.394300   12.282310    2.306720
  S     -8.463190   11.282030    0.867750
  C     -7.307650   12.370600    3.134350
  C     -6.075500   11.707640    2.998590
  S     -5.643580   10.618060    1.690600
  C     -4.068400   10.303980    2.302690
  C     -3.854810   10.997800    3.470640
  C     -4.985940   11.781400    3.850490
  O     -4.749050   12.447580    4.999790
  C     -3.483250   12.099270    5.357540
  N     -2.961390   12.654550    6.549530
  O     -1.824390   12.334100    6.842910
  O     -3.671160   13.400080    7.189190
  C     -2.884810   11.231250    4.483800
  H    -10.497210   -3.060660   -1.825660
  H     -9.810310   -6.941000   -4.920470
  H    -10.874580   -5.024610    0.140150
  H     -8.865040   -2.287630   -7.830630
  H     -8.989300   -0.047770   -7.588160
  H    -11.704740    2.997400   -5.003360
  H     -8.394720    1.785790   -6.764360
  H     -9.787280    4.081360   -5.309440
  H     -4.470540    5.022560   -6.833100
  H     -4.667900    7.464650   -6.116880
  H     -5.775530    7.656510   -4.753090
  H     -6.283490    8.141350   -6.371510
  H     -8.202380    7.391070   -4.731840
  H    -10.240590    5.890010   -6.439450
  H    -11.845560    7.471620   -5.690730
  H     -9.781250    8.377560   -3.614040
  H    -12.681410    9.216660   -4.189790
  H    -13.530760   11.005460   -2.482690
  H    -12.744550   12.286810   -0.391780
  H    -11.541200   13.119830    1.495060
  H     -9.783260   13.630960    3.306810
  H     -7.387520   13.015150    3.999990
  H     -3.411990    9.642440    1.777280
  H     -1.896610   10.830270    4.572600

 Total Charge           Charge          ....    0
 Multiplicity           Mult            ....    1
 Number of Electrons    NEL             ....  514
 Basis Dimension        Dim             .... 1058

ORBITAL ENERGIES
----------------

  NO   OCC          E(Eh)            E(eV)
   0   2.0000    -482.886037    -13139.9971
   1   2.0000     -88.982033     -2421.3242
   2   2.0000     -88.976703     -2421.1792
   3   2.0000     -88.976271     -2421.1674
   4   2.0000     -88.955799     -2420.6104
   5   2.0000     -88.951418     -2420.4911
   6   2.0000     -88.948568     -2420.4136
   7   2.0000     -62.563731     -1702.4457
   8   2.0000     -56.397687     -1534.6591
   9   2.0000     -56.394961     -1534.5849
  10   2.0000     -56.394934     -1534.5842
  11   2.0000     -19.309612      -525.4412
  12   2.0000     -19.243873      -523.6524
  13   2.0000     -19.241541      -523.5890
  14   2.0000     -19.237827      -523.4879
  15   2.0000     -19.237322      -523.4741
  16   2.0000     -19.218163      -522.9528
  17   2.0000     -14.655357      -398.7925
  18   2.0000     -14.648920      -398.6174
  19   2.0000     -14.506855      -394.7516
  20   2.0000     -14.420752      -392.4086
  21   2.0000     -14.415757      -392.2727
  22   2.0000     -10.387081      -282.6468
  23   2.0000     -10.370875      -282.2059
  24   2.0000     -10.370437      -282.1939
  25   2.0000     -10.365273      -282.0534
  26   2.0000     -10.359657      -281.9006
  27   2.0000     -10.346813      -281.5511
  28   2.0000     -10.346113      -281.5321
  29   2.0000     -10.343250      -281.4541
  30   2.0000     -10.343054      -281.4488
  31   2.0000     -10.326219      -280.9907
  32   2.0000     -10.323895      -280.9275
  33   2.0000     -10.319075      -280.7963
  34   2.0000     -10.318424      -280.7786
  35   2.0000     -10.315960      -280.7115
  36   2.0000     -10.314480      -280.6713
  37   2.0000     -10.313045      -280.6322
  38   2.0000     -10.312490      -280.6171
  39   2.0000     -10.312225      -280.6099
  40   2.0000     -10.311076      -280.5786
  41   2.0000     -10.309483      -280.5353
  42   2.0000     -10.308616      -280.5117
  43   2.0000     -10.307286      -280.4755
  44   2.0000     -10.306192      -280.4458
  45   2.0000     -10.304503      -280.3998
  46   2.0000     -10.303290      -280.3668
  47   2.0000     -10.302046      -280.3329
  48   2.0000     -10.301475      -280.3174
  49   2.0000     -10.298325      -280.2317
  50   2.0000     -10.297195      -280.2009
  51   2.0000     -10.293916      -280.1117
  52   2.0000     -10.293869      -280.1104
  53   2.0000     -10.292938      -280.0851
  54   2.0000     -10.292873      -280.0833
  55   2.0000     -10.292557      -280.0747
  56   2.0000     -10.292236      -280.0660
  57   2.0000     -10.290928      -280.0304
  58   2.0000     -10.289609      -279.9945
  59   2.0000     -10.288730      -279.9706
  60   2.0000     -10.284478      -279.8549
  61   2.0000     -10.283133      -279.8183
  62   2.0000     -10.281926      -279.7854
  63   2.0000     -10.281877      -279.7841
  64   2.0000     -10.280829      -279.7556
  65   2.0000     -10.280771      -279.7540
  66   2.0000     -10.278823      -279.7010
  67   2.0000     -10.273233      -279.5489
  68   2.0000      -8.793149      -239.2738
  69   2.0000      -8.077105      -219.7892
  70   2.0000      -8.072275      -219.6578
  71   2.0000      -8.071192      -219.6283
  72   2.0000      -8.051712      -219.0982
  73   2.0000      -8.047541      -218.9847
  74   2.0000      -8.044912      -218.9132
  75   2.0000      -6.629474      -180.3972
  76   2.0000      -6.614886      -180.0002
  77   2.0000      -6.614651      -179.9938
  78   2.0000      -6.046739      -164.5401
  79   2.0000      -6.042342      -164.4205
  80   2.0000      -6.041975      -164.4105
  81   2.0000      -6.040550      -164.3717
  82   2.0000      -6.038656      -164.3202
  83   2.0000      -6.037678      -164.2936
  84   2.0000      -6.036100      -164.2506
  85   2.0000      -6.033632      -164.1835
  86   2.0000      -6.033491      -164.1796
  87   2.0000      -6.021011      -163.8400
  88   2.0000      -6.017337      -163.7401
  89   2.0000      -6.016833      -163.7263
  90   2.0000      -6.014622      -163.6662
  91   2.0000      -6.013878      -163.6459
  92   2.0000      -6.013227      -163.6282
  93   2.0000      -6.010691      -163.5592
  94   2.0000      -6.008412      -163.4972
  95   2.0000      -6.005771      -163.4253
  96   2.0000      -2.745323       -74.7040
  97   2.0000      -2.741245       -74.5931
  98   2.0000      -2.741106       -74.5893
  99   2.0000      -2.729488       -74.2731
 100   2.0000      -2.729477       -74.2728
 101   2.0000      -1.326757       -36.1029
 102   2.0000      -1.318747       -35.8849
 103   2.0000      -1.229424       -33.4543
 104   2.0000      -1.143013       -31.1030
 105   2.0000      -1.137721       -30.9590
 106   2.0000      -1.135660       -30.9029
 107   2.0000      -1.102745       -30.0072
 108   2.0000      -1.025059       -27.8933
 109   2.0000      -1.015787       -27.6410
 110   2.0000      -1.006735       -27.3946
 111   2.0000      -1.002425       -27.2774
 112   2.0000      -0.997394       -27.1405
 113   2.0000      -0.994977       -27.0747
 114   2.0000      -0.990960       -26.9654
 115   2.0000      -0.988826       -26.9073
 116   2.0000      -0.976748       -26.5787
 117   2.0000      -0.943970       -25.6867
 118   2.0000      -0.935695       -25.4616
 119   2.0000      -0.922902       -25.1134
 120   2.0000      -0.921400       -25.0726
 121   2.0000      -0.910299       -24.7705
 122   2.0000      -0.902656       -24.5625
 123   2.0000      -0.900022       -24.4908
 124   2.0000      -0.890590       -24.2342
 125   2.0000      -0.887145       -24.1405
 126   2.0000      -0.885495       -24.0955
 127   2.0000      -0.877811       -23.8864
 128   2.0000      -0.867845       -23.6153
 129   2.0000      -0.858196       -23.3527
 130   2.0000      -0.852014       -23.1845
 131   2.0000      -0.849606       -23.1189
 132   2.0000      -0.836803       -22.7706
 133   2.0000      -0.830882       -22.6094
 134   2.0000      -0.830331       -22.5945
 135   2.0000      -0.821713       -22.3600
 136   2.0000      -0.804318       -21.8866
 137   2.0000      -0.799013       -21.7422
 138   2.0000      -0.785030       -21.3618
 139   2.0000      -0.773167       -21.0389
 140   2.0000      -0.766079       -20.8461
 141   2.0000      -0.763524       -20.7766
 142   2.0000      -0.751325       -20.4446
 143   2.0000      -0.741449       -20.1759
 144   2.0000      -0.730058       -19.8659
 145   2.0000      -0.711898       -19.3717
 146   2.0000      -0.709653       -19.3106
 147   2.0000      -0.707461       -19.2510
 148   2.0000      -0.698001       -18.9936
 149   2.0000      -0.689696       -18.7676
 150   2.0000      -0.680617       -18.5205
 151   2.0000      -0.679026       -18.4772
 152   2.0000      -0.674910       -18.3652
 153   2.0000      -0.661362       -17.9966
 154   2.0000      -0.652169       -17.7464
 155   2.0000      -0.647202       -17.6112
 156   2.0000      -0.643857       -17.5202
 157   2.0000      -0.640567       -17.4307
 158   2.0000      -0.640468       -17.4280
 159   2.0000      -0.638057       -17.3624
 160   2.0000      -0.634352       -17.2616
 161   2.0000      -0.630166       -17.1477
 162   2.0000      -0.627858       -17.0849
 163   2.0000      -0.624208       -16.9856
 164   2.0000      -0.623643       -16.9702
 165   2.0000      -0.621560       -16.9135
 166   2.0000      -0.611524       -16.6404
 167   2.0000      -0.607803       -16.5392
 168   2.0000      -0.602983       -16.4080
 169   2.0000      -0.599604       -16.3160
 170   2.0000      -0.596126       -16.2214
 171   2.0000      -0.589536       -16.0421
 172   2.0000      -0.585322       -15.9274
 173   2.0000      -0.584903       -15.9160
 174   2.0000      -0.579683       -15.7740
 175   2.0000      -0.566342       -15.4110
 176   2.0000      -0.565356       -15.3841
 177   2.0000      -0.558950       -15.2098
 178   2.0000      -0.557411       -15.1679
 179   2.0000      -0.554450       -15.0873
 180   2.0000      -0.552689       -15.0394
 181   2.0000      -0.546085       -14.8597
 182   2.0000      -0.544436       -14.8149
 183   2.0000      -0.543708       -14.7950
 184   2.0000      -0.534181       -14.5358
 185   2.0000      -0.530236       -14.4284
 186   2.0000      -0.528130       -14.3712
 187   2.0000      -0.523015       -14.2320
 188   2.0000      -0.519834       -14.1454
 189   2.0000      -0.514715       -14.0061
 190   2.0000      -0.512902       -13.9568
 191   2.0000      -0.511526       -13.9193
 192   2.0000      -0.508795       -13.8450
 193   2.0000      -0.506047       -13.7702
 194   2.0000      -0.502635       -13.6774
 195   2.0000      -0.502520       -13.6743
 196   2.0000      -0.500648       -13.6233
 197   2.0000      -0.496092       -13.4994
 198   2.0000      -0.494688       -13.4612
 199   2.0000      -0.492922       -13.4131
 200   2.0000      -0.491902       -13.3853
 201   2.0000      -0.486790       -13.2462
 202   2.0000      -0.479000       -13.0343
 203   2.0000      -0.478628       -13.0241
 204   2.0000      -0.477934       -13.0052
 205   2.0000      -0.471533       -12.8311
 206   2.0000      -0.468043       -12.7361
 207   2.0000      -0.464575       -12.6417
 208   2.0000      -0.461026       -12.5451
 209   2.0000      -0.460118       -12.5205
 210   2.0000      -0.459083       -12.4923
 211   2.0000      -0.454616       -12.3707
 212   2.0000      -0.454026       -12.3547
 213   2.0000      -0.453042       -12.3279
 214   2.0000      -0.451539       -12.2870
 215   2.0000      -0.446655       -12.1541
 216   2.0000      -0.445984       -12.1358
 217   2.0000      -0.444780       -12.1031
 218   2.0000      -0.441284       -12.0079
 219   2.0000      -0.440816       -11.9952
 220   2.0000      -0.435332       -11.8460
 221   2.0000      -0.432745       -11.7756
 222   2.0000      -0.430262       -11.7080
 223   2.0000      -0.428499       -11.6601
 224   2.0000      -0.426692       -11.6109
 225   2.0000      -0.418662       -11.3924
 226   2.0000      -0.414265       -11.2727
 227   2.0000      -0.412261       -11.2182
 228   2.0000      -0.410825       -11.1791
 229   2.0000      -0.409163       -11.1339
 230   2.0000      -0.400353       -10.8942
 231   2.0000      -0.397710       -10.8222
 232   2.0000      -0.389495       -10.5987
 233   2.0000      -0.388398       -10.5688
 234   2.0000      -0.387212       -10.5366
 235   2.0000      -0.384906       -10.4738
 236   2.0000      -0.379646       -10.3307
 237   2.0000      -0.377286       -10.2665
 238   2.0000      -0.375411       -10.2155
 239   2.0000      -0.371709       -10.1147
 240   2.0000      -0.371298       -10.1035
 241   2.0000      -0.365822        -9.9545
 242   2.0000      -0.361725        -9.8430
 243   2.0000      -0.352533        -9.5929
 244   2.0000      -0.343115        -9.3366
 245   2.0000      -0.342055        -9.3078
 246   2.0000      -0.333727        -9.0812
 247   2.0000      -0.330991        -9.0067
 248   2.0000      -0.326908        -8.8956
 249   2.0000      -0.316432        -8.6105
 250   2.0000      -0.315938        -8.5971
 251   2.0000      -0.301495        -8.2041
 252   2.0000      -0.299100        -8.1389
 253   2.0000      -0.293846        -7.9959
 254   2.0000      -0.273745        -7.4490
 255   2.0000      -0.253899        -6.9090
 256   2.0000      -0.210929        -5.7397
 257   0.0000      -0.091212        -2.4820
 258   0.0000      -0.085816        -2.3352
 259   0.0000      -0.063684        -1.7329
 260   0.0000      -0.061431        -1.6716
 261   0.0000      -0.046802        -1.2735

MULLIKEN ATOMIC CHARGES
-----------------------
   0 C :    0.306966
   1 C :   -0.341202
   2 C :   -0.185493
   3 N :    0.148388
   4 C :   -0.211306
   5 N :    0.148414
   6 C :    0.011709
   7 C :   -0.003447
   8 C :   -0.068214
   9 C :    0.116374
  10 C :   -0.091322
  11 C :   -0.020368
  12 S :    0.187151
  13 C :   -0.123525
  14 C :    0.040043
  15 Br:    0.025060
  16 C :    0.146408
  17 O :   -0.153204
  18 C :   -0.157958
  19 C :    0.029558
  20 N :   -0.003986
  21 C :   -0.090266
  22 S :    0.197498
  23 C :    0.000414
  24 N :    0.274416
  25 O :   -0.249089
  26 O :   -0.260478
  27 C :   -0.003636
  28 C :    0.155969
  29 C :   -0.057708
  30 C :    0.013677
  31 C :   -0.132459
  32 S :    0.087196
  33 C :   -0.115534
  34 C :   -0.073266
  35 C :    0.117094
  36 C :    0.119023
  37 C :   -0.036784
  38 C :    0.005413
  39 C :   -0.005311
  40 C :    0.018946
  41 C :   -0.005909
  42 C :   -0.023228
  43 C :    0.041367
  44 C :    0.023223
  45 C :   -0.042492
  46 S :    0.065575
  47 C :   -0.038499
  48 C :    0.030723
  49 C :    0.035368
  50 C :   -0.025713
  51 S :    0.059656
  52 C :   -0.011293
  53 C :   -0.188285
  54 S :    0.139218
  55 C :   -0.133508
  56 C :    0.125124
  57 C :    0.191648
  58 O :   -0.183916
  59 C :    0.233113
  60 N :    0.273179
  61 O :   -0.250353
  62 O :   -0.230384
  63 C :   -0.068977
  64 H :   -0.008364
  65 H :   -0.005946
  66 H :   -0.001800
  67 H :    0.045442
  68 H :    0.163571
  69 H :    0.008032
  70 H :   -0.037089
  71 H :    0.000323
  72 H :    0.015515
  73 H :    0.008883
  74 H :    0.031067
  75 H :    0.032307
  76 H :   -0.010249
  77 H :   -0.002473
  78 H :   -0.013281
  79 H :    0.002573
  80 H :   -0.014348
  81 H :   -0.010691
  82 H :   -0.010391
  83 H :   -0.013327
  84 H :   -0.008087
  85 H :    0.004847
  86 H :    0.030816
  87 H :    0.011873
Sum of atomic charges:   -0.0000000

LOEWDIN ATOMIC CHARGES
----------------------
   0 C :    0.082375
   1 C :   -0.150315
   2 C :   -0.019362
   3 N :   -0.054399
   4 C :   -0.024005
   5 N :   -0.058544
   6 C :   -0.023052
   7 C :   -0.048589
   8 C :    0.023070
   9 C :   -0.031526
  10 C :   -0.144911
  11 C :   -0.007763
  12 S :    0.433827
  13 C :   -0.270980
  14 C :   -0.069661
  15 Br:    0.138246
  16 C :    0.068272
  17 O :   -0.156036
  18 C :   -0.150449
  19 C :    0.100637
  20 N :    0.071863
  21 C :   -0.112895
  22 S :    0.494180
  23 C :   -0.196165
  24 N :    0.274289
  25 O :   -0.215233
  26 O :   -0.226516
  27 C :   -0.002403
  28 C :   -0.075522
  29 C :   -0.049962
  30 C :   -0.022660
  31 C :   -0.168720
  32 S :    0.416751
  33 C :   -0.185389
  34 C :   -0.057325
  35 C :   -0.044413
  36 C :   -0.053650
  37 C :   -0.015936
  38 C :   -0.030599
  39 C :   -0.031635
  40 C :   -0.020711
  41 C :   -0.051270
  42 C :   -0.143394
  43 C :   -0.030478
  44 C :   -0.031221
  45 C :   -0.174768
  46 S :    0.367783
  47 C :   -0.179015
  48 C :   -0.033970
  49 C :   -0.030860
  50 C :   -0.151098
  51 S :    0.361769
  52 C :   -0.070835
  53 C :   -0.203025
  54 S :    0.471499
  55 C :   -0.192402
  56 C :   -0.084251
  57 C :    0.019077
  58 O :    0.001421
  59 C :    0.024864
  60 N :    0.271913
  61 O :   -0.211369
  62 O :   -0.192234
  63 C :   -0.009278
  64 H :    0.041892
  65 H :    0.041313
  66 H :    0.039471
  67 H :    0.044747
  68 H :    0.105735
  69 H :    0.042880
  70 H :    0.011212
  71 H :    0.035148
  72 H :    0.022156
  73 H :    0.033390
  74 H :    0.035304
  75 H :    0.037314
  76 H :    0.026992
  77 H :    0.030135
  78 H :    0.028989
  79 H :    0.019891
  80 H :    0.033933
  81 H :    0.034725
  82 H :    0.032766
  83 H :    0.032590
  84 H :    0.035199
  85 H :    0.046321
  86 H :    0.028125
  87 H :    0.046728

  Mayer bond orders larger than 0.100000
B(  0-C ,  1-C ) :   1.6257 B(  0-C ,  6-C ) :   1.0126 B(  0-C , 18-C ) :   1.1080
B(  1-C ,  2-C ) :   1.1438 B(  1-C ,  4-C ) :   1.1406 B(  2-C ,  3-N ) :   2.9691
B(  4-C ,  5-N ) :   2.9801 B(  6-C ,  7-C ) :   1.2752 B(  6-C , 11-C ) :   1.4121
B(  7-C ,  8-C ) :   1.4282 B(  7-C , 16-C ) :   0.9450 B(  8-C ,  9-C ) :   1.2430
B(  8-C , 64-H ) :   1.0175 B(  9-C , 10-C ) :   1.3071 B(  9-C , 14-C ) :   1.1640
B( 10-C , 11-C ) :   1.3300 B( 10-C , 12-S ) :   1.0854 B( 11-C , 65-H ) :   0.9796
B( 12-S , 13-C ) :   1.0877 B( 13-C , 14-C ) :   1.6167 B( 13-C , 15-Br) :   1.0191
B( 14-C , 66-H ) :   1.0001 B( 16-C , 17-O ) :   2.2145 B( 16-C , 18-C ) :   0.9454
B( 18-C , 19-C ) :   1.5232 B( 19-C , 20-N ) :   1.3042 B( 19-C , 67-H ) :   0.9331
B( 20-N , 21-C ) :   1.1158 B( 20-N , 68-H ) :   0.9061 B( 21-C , 22-S ) :   1.1383
B( 21-C , 28-C ) :   1.4070 B( 22-S , 23-C ) :   1.1130 B( 23-C , 24-N ) :   0.9615
B( 23-C , 27-C ) :   1.4957 B( 24-N , 25-O ) :   1.5340 B( 24-N , 26-O ) :   1.5184
B( 25-O , 26-O ) :   0.2614 B( 27-C , 28-C ) :   1.2216 B( 27-C , 69-H ) :   0.9967
B( 28-C , 29-C ) :   1.0779 B( 29-C , 30-C ) :   1.7021 B( 29-C , 70-H ) :   0.9655
B( 30-C , 31-C ) :   1.1577 B( 30-C , 71-H ) :   0.9649 B( 31-C , 32-S ) :   1.1181
B( 31-C , 36-C ) :   1.4395 B( 32-S , 33-C ) :   1.1305 B( 33-C , 34-C ) :   1.6136
B( 33-C , 72-H ) :   0.9652 B( 34-C , 35-C ) :   1.0965 B( 34-C , 36-C ) :   1.2144
B( 35-C , 73-H ) :   0.9503 B( 35-C , 74-H ) :   0.9411 B( 35-C , 75-H ) :   0.9446
B( 36-C , 37-C ) :   1.1146 B( 37-C , 38-C ) :   1.6783 B( 37-C , 76-H ) :   0.9444
B( 38-C , 39-C ) :   1.1450 B( 38-C , 77-H ) :   0.9749 B( 39-C , 40-C ) :   1.6360
B( 39-C , 78-H ) :   0.9798 B( 40-C , 41-C ) :   1.1782 B( 40-C , 79-H ) :   0.9592
B( 41-C , 42-C ) :   1.5468 B( 41-C , 80-H ) :   0.9845 B( 42-C , 43-C ) :   1.1482
B( 42-C , 46-S ) :   1.0310 B( 43-C , 44-C ) :   1.5844 B( 43-C , 81-H ) :   0.9992
B( 44-C , 45-C ) :   1.1896 B( 44-C , 82-H ) :   0.9946 B( 45-C , 46-S ) :   1.0467
B( 45-C , 47-C ) :   1.5124 B( 47-C , 48-C ) :   1.1860 B( 47-C , 51-S ) :   1.0381
B( 48-C , 49-C ) :   1.5946 B( 48-C , 83-H ) :   0.9921 B( 49-C , 50-C ) :   1.1400
B( 49-C , 84-H ) :   1.0004 B( 50-C , 51-S ) :   1.0340 B( 50-C , 52-C ) :   1.5700
B( 52-C , 53-C ) :   1.1742 B( 52-C , 85-H ) :   0.9732 B( 53-C , 54-S ) :   1.1064
B( 53-C , 55-C ) :   0.1083 B( 53-C , 57-C ) :   1.4421 B( 54-S , 55-C ) :   1.1863
B( 55-C , 56-C ) :   1.4151 B( 55-C , 86-H ) :   0.9759 B( 56-C , 57-C ) :   1.2312
B( 56-C , 63-C ) :   1.0606 B( 57-C , 58-O ) :   1.1218 B( 58-O , 59-C ) :   1.1235
B( 59-C , 60-N ) :   0.9171 B( 59-C , 63-C ) :   1.5772 B( 60-N , 61-O ) :   1.5328
B( 60-N , 62-O ) :   1.5149 B( 61-O , 62-O ) :   0.2796 B( 63-C , 87-H ) :   1.0245

-----------------------------------------------------------------------------
         ABSORPTION SPECTRUM VIA TRANSITION ELECTRIC DIPOLE MOMENTS
-----------------------------------------------------------------------------
State   Energy  Wavelength   fosc         T2         TX        TY        TZ
        (cm-1)    (nm)                  (au**2)     (au)      (au)      (au)
-----------------------------------------------------------------------------
   0   13476.4    742.0   1.325578334  32.38220   1.98944   3.40538   4.10216
   1   17784.5    562.3   0.196136895   3.63072  -0.92598   1.61720  -0.39742
   2   18993.7    526.5   0.088264118   1.52986   0.25225  -0.68101  -1.00123
   3   21375.1    467.8   0.454185561   6.99521  -0.50092   2.58319   0.26724
   4   22530.9    443.8   0.203191997   2.96895   0.43904  -1.52871   0.66276
   5   22743.6    439.7   0.022285008   0.32257   0.00245  -0.51871   0.23131
   6   23619.3    423.4   0.266827296   3.71911  -1.17225   1.33655  -0.74736
   7   25488.5    392.3   0.012664537   0.16358   0.13145  -0.14746  -0.35292
   8   26340.3    379.6   0.064759270   0.80939  -0.81719   0.23572   0.29329
   9   27278.0    366.6   0.381692661   4.60657  -1.99446   0.71017   0.35265
  10   28410.3    352.0   0.169645415   1.96581   0.82188  -0.83645  -0.76855
  11   29002.0    344.8   0.363456883   4.12572   0.03147  -1.00006   1.76766
  12   29473.5    339.3   0.120461461   1.34553   0.38983   0.81394  -0.72874
  13   29872.8    334.8   0.573670703   6.32211  -2.47878  -0.06731   0.41621
  14   30211.5    331.0   0.138817552   1.51268  -0.48495   1.09608  -0.27590
  15   30399.8    328.9   0.032120248   0.34784  -0.20486  -0.25819  -0.48909
  16   30899.0    323.6   0.040518507   0.43170   0.58650  -0.25424   0.15193
  17   31054.8    322.0   0.092202040   0.97743  -0.90005  -0.28498   0.29348
  18   31222.2    320.3   0.004127390   0.04352  -0.17397   0.08749  -0.07484
  19   31511.7    317.3   0.003690423   0.03855  -0.16909   0.09621  -0.02661
  20   32186.5    310.7   0.049509649   0.50640  -0.18474   0.12641   0.67549
  21   32246.6    310.1   0.038432629   0.39237  -0.12616   0.32907   0.51784
  22   32871.6    304.2   0.255771180   2.56157  -0.92394  -0.44347  -1.22933
  23   33313.2    300.2   0.093580015   0.92479   0.25614   0.89227  -0.25107
  24   33956.2    294.5   0.407212800   3.94800  -0.53493   0.43703   1.86302
  25   34517.3    289.7   0.026417268   0.25196   0.44517  -0.22624  -0.05099
  26   34601.3    289.0   0.036828956   0.35041   0.43103   0.34860   0.20761
  27   35418.9    282.3   0.041907693   0.38952  -0.33882   0.04660  -0.52207
  28   35702.6    280.1   0.061396734   0.56614  -0.45142  -0.17860   0.57485
  29   36220.1    276.1   0.020204403   0.18364  -0.01104  -0.21918   0.36808
  30   36512.5    273.9   0.088709403   0.79984   0.84635   0.27835  -0.07787
  31   36981.2    270.4   0.329194506   2.93054  -0.98950  -0.67507  -1.22299
  32   37255.3    268.4   0.012201180   0.10782  -0.01259  -0.26041  -0.19961
  33   37649.5    265.6   0.031786083   0.27794  -0.44109  -0.27574  -0.08570
  34   37700.3    265.3   0.000702510   0.00613  -0.00953  -0.03216  -0.07078
  35   37922.1    263.7   0.009098552   0.07899  -0.12185  -0.17769  -0.18046
  36   38426.9    260.2   0.077802730   0.66655   0.58774   0.56187  -0.07359
  37   38642.6    258.8   0.140076453   1.19337  -0.21581  -0.26392  -1.03785
  38   38859.4    257.3   0.122387878   1.03686  -0.27016   0.44051   0.87739
  39   39034.0    256.2   0.104470132   0.88110   0.19022  -0.88825  -0.23649
  40   39729.9    251.7   0.111612720   0.92485   0.56225   0.70159  -0.34133
  41   40094.3    249.4   0.003602833   0.02958  -0.01828  -0.16953   0.02257
  42   40234.2    248.5   0.069355653   0.56749   0.15105   0.51608  -0.52758

FINAL SINGLE POINT ENERGY     -7451.378730923051

DIPOLE MOMENT
-------------
                                X             Y             Z
Electronic contribution:    -21.41184    -164.30920      49.58290
Nuclear contribution   :     21.91945     165.92301     -50.20672
                        -----------------------------------------
Total Dipole Moment    :      0.50761       1.61381      -0.62382
                        -----------------------------------------
Magnitude (a.u.)       :      1.80311
Magnitude (Debye)      :      4.58314

Rotational constants in cm-1:     0.000951     0.000246     0.000221
Rotational constants in MHz :    28.523190     7.364529     6.612801

                             ****ORCA TERMINATED NORMALLY****
TOTAL RUN TIME: 0 days 0 hours 7 minutes 42 seconds 544 msec
