                         Program Version 4.2.0 -  RELEASE  -
|  1> # ORCA input file
|  2> # SCF done       -202.436739663356          0.000715429558
|  3> ! CAM-B3LYP def2-SVP def2/J RIJCOSX Grid4 TightSCF
|  4> %maxcore 5000
|  5> %tddft
|  6>     Mode sTDDFT
|  7>     Ethresh 5.0
|  8>     maxcore 5000
|  9> end
| 10>
| 11> %pal
| 12>   nprocs 6
| 13>   end
| 14> * xyz 0 1
| 15>    C       -3.69944       -11.78072       -13.15202
| 16>    C       -2.66326       -10.97317       -12.88663
| 17>    C       -2.00727       -10.06253       -13.78011
| 18>    C       -0.98507        -9.37422       -13.22462
| 19>    C       -0.74731        -9.67852       -11.85565
| 20>    S       -1.88547       -10.88794       -11.29762
| 21>    C        0.21406        -9.13454       -11.03516
| 22>    C        1.18038        -8.15341       -11.36498
| 23>    C        1.99088        -7.80757       -10.32907
| 24>    C        1.71845        -8.49052        -9.11821
| 25>    S        0.38180        -9.60524        -9.35449
| 26>    C        2.36645        -8.32415        -7.91800
| 27>    C        2.05621        -9.01191        -6.73960
| 28>    C        2.69007        -8.78595        -5.54916
| 29>    C        2.38327        -9.44388        -4.34531
| 30>    O        1.43788       -10.41476        -4.26634
| 31>    C        1.33889       -10.82509        -2.97094
| 32>    C        2.26531       -10.11339        -2.20428
| 33>    C        2.93020        -9.23853        -3.07456
| 34>    O        3.90817        -8.36113        -2.76221
| 35>    O        2.56582       -10.21162        -0.88039
| 36>    C        0.41619       -11.84705        -2.65643
| 37>    C       -0.00671       -12.20318        -1.40960
| 38>    C       -0.89518       -13.27144        -1.16519
| 39>    C       -1.39460       -13.57029         0.06825
| 40>    C       -2.26247       -14.65057         0.32723
| 41>    C       -2.80908       -14.89573         1.55056
| 42>    C       -3.65610       -15.98477         1.84384
| 43>    O       -3.93896       -16.94692         0.93267
| 44>    C       -4.76739       -17.86781         1.50671
| 45>    C       -5.01880       -17.47631         2.82607
| 46>    C       -4.31117       -16.28390         3.04026
| 47>    O       -4.26365       -15.55753         4.17737
| 48>    O       -5.76079       -18.06559         3.79746
| 49>    C       -5.13788       -18.98332         0.72982
| 50>    C       -6.00478       -19.98447         1.06043
| 51>    C       -6.23745       -21.09679         0.22918
| 52>    C       -7.09845       -22.10387         0.55235
| 53>    C       -7.31209       -23.25248        -0.23097
| 54>    S       -6.42835       -23.53940        -1.70449
| 55>    C       -7.20132       -25.08564        -1.95202
| 56>    C       -8.14599       -25.32934        -0.95768
| 57>    C       -8.19257       -24.31135         0.02583
| 58>    C       -9.06075       -24.38592         1.19914
| 59>    O       -9.12415       -23.51787         2.05716
| 60>    C       -9.85955       -25.62804         1.30584
| 61>    C      -10.60904       -25.84002         2.46041
| 62>    C      -11.37397       -26.98214         2.60433
| 63>    C      -11.40762       -27.92659         1.58841
| 64>    C      -10.67861       -27.72170         0.43205
| 65>    C       -9.89793       -26.57879         0.28039
| 66>    C       -9.14990       -26.40454        -0.98402
| 67>    O       -9.40408       -27.06816        -1.97088
| 68>    C       -6.73464       -25.87466        -3.03224
| 69>    C       -6.79522       -27.23198        -3.10838
| 70>    C       -6.29269       -27.93406        -4.22197
| 71>    C       -6.23439       -29.29990        -4.31131
| 72>    C       -5.81262       -30.07945        -5.45650
| 73>    C       -5.30518       -29.60537        -6.64119
| 74>    C       -4.91401       -30.42504        -7.71954
| 75>    N       -4.57495       -31.03406        -8.63245
| 76>    C       -5.08028       -28.24995        -6.95705
| 77>    N       -4.86120       -27.17509        -7.29886
| 78>    C       -6.01082       -31.48937        -5.13263
| 79>    C       -6.49903       -31.58812        -3.80749
| 80>    C       -6.62854       -30.23412        -3.22944
| 81>    O       -6.96010       -29.97383        -2.09210
| 82>    C       -6.78091       -32.79052        -3.20743
| 83>    C       -6.57631       -33.95604        -3.95330
| 84>    C       -6.09131       -33.84881        -5.27789
| 85>    C       -5.80267       -32.63192        -5.88329
| 86>    S       -5.91082       -35.41037        -6.02053
| 87>    C       -6.48184       -36.17392        -4.56051
| 88>    C       -6.79187       -35.30753        -3.56732
| 89>   Br       -6.61552       -38.04373        -4.48562
| 90>    H       -4.14279       -11.80030       -14.13185
| 91>    H       -4.11839       -12.42797       -12.40378
| 92>    H       -2.33319        -9.96496       -14.80040
| 93>    H       -0.38601        -8.65114       -13.74942
| 94>    H        1.24769        -7.73235       -12.35200
| 95>    H        2.77993        -7.07867       -10.39156
| 96>    H        3.16828        -7.59744        -7.88805
| 97>    H        1.26548        -9.74970        -6.77554
| 98>    H        3.47463        -8.04672        -5.47749
| 99>    H        4.08569        -8.43852        -1.81549
|100>    H        2.13429       -10.98933        -0.50966
|101>    H        0.00078       -12.35817        -3.51439
|102>    H        0.30446       -11.63389        -0.54250
|103>    H       -1.19002       -13.87681        -2.01212
|104>    H       -1.12106       -12.94569         0.90981
|105>    H       -2.50420       -15.31530        -0.49093
|106>    H       -2.61515       -14.23560         2.38348
|107>    H       -4.81208       -16.00147         4.83766
|108>    H       -6.10011       -18.91259         3.48964
|109>    H       -4.65399       -19.02380        -0.23729
|110>    H       -6.55932       -19.96390         1.98915
|111>    H       -5.68750       -21.15177        -0.70254
|112>    H       -7.66907       -22.05470         1.46946
|113>    H      -10.57436       -25.08853         3.23528
|114>    H      -11.94710       -27.13668         3.50644
|115>    H      -12.00522       -28.81920         1.69821
|116>    H      -10.69294       -28.43950        -0.37461
|117>    H       -6.21293       -25.33229        -3.81354
|118>    H       -7.22900       -27.80739        -2.30676
|119>    H       -5.95740       -27.34009        -5.06275
|120>    H       -7.14888       -32.83036        -2.19411
|121>    H       -5.43515       -32.60560        -6.89537
|122>    H       -7.15761       -35.60645        -2.60192
|123> *
|124>
|125>                          ****END OF INPUT****

CARTESIAN COORDINATES (ANGSTROEM)
---------------------------------
  C     -3.699440  -11.780720  -13.152020
  C     -2.663260  -10.973170  -12.886630
  C     -2.007270  -10.062530  -13.780110
  C     -0.985070   -9.374220  -13.224620
  C     -0.747310   -9.678520  -11.855650
  S     -1.885470  -10.887940  -11.297620
  C      0.214060   -9.134540  -11.035160
  C      1.180380   -8.153410  -11.364980
  C      1.990880   -7.807570  -10.329070
  C      1.718450   -8.490520   -9.118210
  S      0.381800   -9.605240   -9.354490
  C      2.366450   -8.324150   -7.918000
  C      2.056210   -9.011910   -6.739600
  C      2.690070   -8.785950   -5.549160
  C      2.383270   -9.443880   -4.345310
  O      1.437880  -10.414760   -4.266340
  C      1.338890  -10.825090   -2.970940
  C      2.265310  -10.113390   -2.204280
  C      2.930200   -9.238530   -3.074560
  O      3.908170   -8.361130   -2.762210
  O      2.565820  -10.211620   -0.880390
  C      0.416190  -11.847050   -2.656430
  C     -0.006710  -12.203180   -1.409600
  C     -0.895180  -13.271440   -1.165190
  C     -1.394600  -13.570290    0.068250
  C     -2.262470  -14.650570    0.327230
  C     -2.809080  -14.895730    1.550560
  C     -3.656100  -15.984770    1.843840
  O     -3.938960  -16.946920    0.932670
  C     -4.767390  -17.867810    1.506710
  C     -5.018800  -17.476310    2.826070
  C     -4.311170  -16.283900    3.040260
  O     -4.263650  -15.557530    4.177370
  O     -5.760790  -18.065590    3.797460
  C     -5.137880  -18.983320    0.729820
  C     -6.004780  -19.984470    1.060430
  C     -6.237450  -21.096790    0.229180
  C     -7.098450  -22.103870    0.552350
  C     -7.312090  -23.252480   -0.230970
  S     -6.428350  -23.539400   -1.704490
  C     -7.201320  -25.085640   -1.952020
  C     -8.145990  -25.329340   -0.957680
  C     -8.192570  -24.311350    0.025830
  C     -9.060750  -24.385920    1.199140
  O     -9.124150  -23.517870    2.057160
  C     -9.859550  -25.628040    1.305840
  C    -10.609040  -25.840020    2.460410
  C    -11.373970  -26.982140    2.604330
  C    -11.407620  -27.926590    1.588410
  C    -10.678610  -27.721700    0.432050
  C     -9.897930  -26.578790    0.280390
  C     -9.149900  -26.404540   -0.984020
  O     -9.404080  -27.068160   -1.970880
  C     -6.734640  -25.874660   -3.032240
  C     -6.795220  -27.231980   -3.108380
  C     -6.292690  -27.934060   -4.221970
  C     -6.234390  -29.299900   -4.311310
  C     -5.812620  -30.079450   -5.456500
  C     -5.305180  -29.605370   -6.641190
  C     -4.914010  -30.425040   -7.719540
  N     -4.574950  -31.034060   -8.632450
  C     -5.080280  -28.249950   -6.957050
  N     -4.861200  -27.175090   -7.298860
  C     -6.010820  -31.489370   -5.132630
  C     -6.499030  -31.588120   -3.807490
  C     -6.628540  -30.234120   -3.229440
  O     -6.960100  -29.973830   -2.092100
  C     -6.780910  -32.790520   -3.207430
  C     -6.576310  -33.956040   -3.953300
  C     -6.091310  -33.848810   -5.277890
  C     -5.802670  -32.631920   -5.883290
  S     -5.910820  -35.410370   -6.020530
  C     -6.481840  -36.173920   -4.560510
  C     -6.791870  -35.307530   -3.567320
  Br    -6.615520  -38.043730   -4.485620
  H     -4.142790  -11.800300  -14.131850
  H     -4.118390  -12.427970  -12.403780
  H     -2.333190   -9.964960  -14.800400
  H     -0.386010   -8.651140  -13.749420
  H      1.247690   -7.732350  -12.352000
  H      2.779930   -7.078670  -10.391560
  H      3.168280   -7.597440   -7.888050
  H      1.265480   -9.749700   -6.775540
  H      3.474630   -8.046720   -5.477490
  H      4.085690   -8.438520   -1.815490
  H      2.134290  -10.989330   -0.509660
  H      0.000780  -12.358170   -3.514390
  H      0.304460  -11.633890   -0.542500
  H     -1.190020  -13.876810   -2.012120
  H     -1.121060  -12.945690    0.909810
  H     -2.504200  -15.315300   -0.490930
  H     -2.615150  -14.235600    2.383480
  H     -4.812080  -16.001470    4.837660
  H     -6.100110  -18.912590    3.489640
  H     -4.653990  -19.023800   -0.237290
  H     -6.559320  -19.963900    1.989150
  H     -5.687500  -21.151770   -0.702540
  H     -7.669070  -22.054700    1.469460
  H    -10.574360  -25.088530    3.235280
  H    -11.947100  -27.136680    3.506440
  H    -12.005220  -28.819200    1.698210
  H    -10.692940  -28.439500   -0.374610
  H     -6.212930  -25.332290   -3.813540
  H     -7.229000  -27.807390   -2.306760
  H     -5.957400  -27.340090   -5.062750
  H     -7.148880  -32.830360   -2.194110
  H     -5.435150  -32.605600   -6.895370
  H     -7.157610  -35.606450   -2.601920

 Total Charge           Charge          ....    0
 Multiplicity           Mult            ....    1
 Number of Electrons    NEL             ....  572
 Basis Dimension        Dim             .... 1249

ORBITAL ENERGIES
----------------

  NO   OCC          E(Eh)            E(eV)
   0   2.0000    -482.883476    -13139.9274
   1   2.0000     -88.972827     -2421.0737
   2   2.0000     -88.972435     -2421.0630
   3   2.0000     -88.931850     -2419.9587
   4   2.0000     -88.928369     -2419.8639
   5   2.0000     -62.561165     -1702.3758
   6   2.0000     -56.395115     -1534.5891
   7   2.0000     -56.392402     -1534.5153
   8   2.0000     -56.392369     -1534.5144
   9   2.0000     -19.288581      -524.8690
  10   2.0000     -19.279144      -524.6122
  11   2.0000     -19.274614      -524.4889
  12   2.0000     -19.264053      -524.2015
  13   2.0000     -19.258381      -524.0472
  14   2.0000     -19.252122      -523.8769
  15   2.0000     -19.211898      -522.7823
  16   2.0000     -19.209357      -522.7132
  17   2.0000     -19.208191      -522.6814
  18   2.0000     -14.412061      -392.1721
  19   2.0000     -14.410557      -392.1312
  20   2.0000     -10.365515      -282.0600
  21   2.0000     -10.364228      -282.0250
  22   2.0000     -10.362453      -281.9767
  23   2.0000     -10.356378      -281.8114
  24   2.0000     -10.346935      -281.5544
  25   2.0000     -10.337294      -281.2921
  26   2.0000     -10.336711      -281.2762
  27   2.0000     -10.336344      -281.2662
  28   2.0000     -10.335035      -281.2306
  29   2.0000     -10.333935      -281.2007
  30   2.0000     -10.332970      -281.1744
  31   2.0000     -10.328717      -281.0587
  32   2.0000     -10.326771      -281.0057
  33   2.0000     -10.325936      -280.9830
  34   2.0000     -10.323627      -280.9202
  35   2.0000     -10.322218      -280.8818
  36   2.0000     -10.321363      -280.8586
  37   2.0000     -10.315016      -280.6859
  38   2.0000     -10.313747      -280.6513
  39   2.0000     -10.308478      -280.5080
  40   2.0000     -10.305258      -280.4203
  41   2.0000     -10.304404      -280.3971
  42   2.0000     -10.304234      -280.3925
  43   2.0000     -10.301679      -280.3229
  44   2.0000     -10.300081      -280.2795
  45   2.0000     -10.299118      -280.2533
  46   2.0000     -10.298535      -280.2374
  47   2.0000     -10.297083      -280.1979
  48   2.0000     -10.297025      -280.1963
  49   2.0000     -10.296614      -280.1851
  50   2.0000     -10.294470      -280.1268
  51   2.0000     -10.294123      -280.1173
  52   2.0000     -10.293180      -280.0917
  53   2.0000     -10.292741      -280.0797
  54   2.0000     -10.290115      -280.0083
  55   2.0000     -10.288337      -279.9599
  56   2.0000     -10.287788      -279.9450
  57   2.0000     -10.286904      -279.9209
  58   2.0000     -10.286447      -279.9085
  59   2.0000     -10.285552      -279.8841
  60   2.0000     -10.283468      -279.8274
  61   2.0000     -10.283041      -279.8158
  62   2.0000     -10.280429      -279.7447
  63   2.0000     -10.280428      -279.7447
  64   2.0000     -10.280366      -279.7430
  65   2.0000     -10.280316      -279.7416
  66   2.0000     -10.278853      -279.7018
  67   2.0000     -10.277545      -279.6662
  68   2.0000     -10.277365      -279.6613
  69   2.0000     -10.277302      -279.6596
  70   2.0000     -10.274706      -279.5890
  71   2.0000     -10.274600      -279.5861
  72   2.0000     -10.274532      -279.5842
  73   2.0000     -10.274171      -279.5744
  74   2.0000     -10.271566      -279.5035
  75   2.0000     -10.270916      -279.4858
  76   2.0000     -10.267771      -279.4002
  77   2.0000     -10.265567      -279.3403
  78   2.0000     -10.259931      -279.1869
  79   2.0000      -8.790575      -239.2037
  80   2.0000      -8.068639      -219.5588
  81   2.0000      -8.068468      -219.5542
  82   2.0000      -8.028151      -218.4571
  83   2.0000      -8.025136      -218.3751
  84   2.0000      -6.626861      -180.3261
  85   2.0000      -6.612322      -179.9304
  86   2.0000      -6.612118      -179.9249
  87   2.0000      -6.038148      -164.3064
  88   2.0000      -6.037692      -164.2940
  89   2.0000      -6.033902      -164.1908
  90   2.0000      -6.033741      -164.1864
  91   2.0000      -6.030931      -164.1100
  92   2.0000      -6.029666      -164.0756
  93   2.0000      -5.997878      -163.2106
  94   2.0000      -5.994959      -163.1311
  95   2.0000      -5.993983      -163.1046
  96   2.0000      -5.991065      -163.0252
  97   2.0000      -5.988950      -162.9676
  98   2.0000      -5.985637      -162.8775
  99   2.0000      -2.742722       -74.6333
 100   2.0000      -2.738644       -74.5223
 101   2.0000      -2.738520       -74.5189
 102   2.0000      -2.726952       -74.2041
 103   2.0000      -2.726922       -74.2033
 104   2.0000      -1.208797       -32.8930
 105   2.0000      -1.198960       -32.6254
 106   2.0000      -1.166826       -31.7510
 107   2.0000      -1.156271       -31.4637
 108   2.0000      -1.146207       -31.1899
 109   2.0000      -1.138464       -30.9792
 110   2.0000      -1.127261       -30.6743
 111   2.0000      -1.126260       -30.6471
 112   2.0000      -1.123129       -30.5619
 113   2.0000      -1.019061       -27.7301
 114   2.0000      -1.009620       -27.4732
 115   2.0000      -1.002791       -27.2873
 116   2.0000      -0.989818       -26.9343
 117   2.0000      -0.985289       -26.8111
 118   2.0000      -0.981765       -26.7152
 119   2.0000      -0.965055       -26.2605
 120   2.0000      -0.959065       -26.0975
 121   2.0000      -0.940942       -25.6043
 122   2.0000      -0.932146       -25.3650
 123   2.0000      -0.922988       -25.1158
 124   2.0000      -0.919248       -25.0140
 125   2.0000      -0.908760       -24.7286
 126   2.0000      -0.904712       -24.6185
 127   2.0000      -0.900714       -24.5097
 128   2.0000      -0.895469       -24.3669
 129   2.0000      -0.892724       -24.2923
 130   2.0000      -0.887803       -24.1583
 131   2.0000      -0.882301       -24.0086
 132   2.0000      -0.881642       -23.9907
 133   2.0000      -0.876178       -23.8420
 134   2.0000      -0.868742       -23.6397
 135   2.0000      -0.859332       -23.3836
 136   2.0000      -0.849940       -23.1280
 137   2.0000      -0.848441       -23.0873
 138   2.0000      -0.841894       -22.9091
 139   2.0000      -0.834772       -22.7153
 140   2.0000      -0.833826       -22.6896
 141   2.0000      -0.825962       -22.4756
 142   2.0000      -0.820111       -22.3164
 143   2.0000      -0.810290       -22.0491
 144   2.0000      -0.803826       -21.8732
 145   2.0000      -0.789081       -21.4720
 146   2.0000      -0.774274       -21.0691
 147   2.0000      -0.768709       -20.9176
 148   2.0000      -0.756078       -20.5739
 149   2.0000      -0.754257       -20.5244
 150   2.0000      -0.740098       -20.1391
 151   2.0000      -0.735802       -20.0222
 152   2.0000      -0.732385       -19.9292
 153   2.0000      -0.720737       -19.6123
 154   2.0000      -0.713741       -19.4219
 155   2.0000      -0.710072       -19.3220
 156   2.0000      -0.702162       -19.1068
 157   2.0000      -0.697018       -18.9668
 158   2.0000      -0.691403       -18.8140
 159   2.0000      -0.689841       -18.7715
 160   2.0000      -0.687062       -18.6959
 161   2.0000      -0.680250       -18.5105
 162   2.0000      -0.669796       -18.2261
 163   2.0000      -0.666241       -18.1293
 164   2.0000      -0.663259       -18.0482
 165   2.0000      -0.655302       -17.8317
 166   2.0000      -0.653415       -17.7803
 167   2.0000      -0.649149       -17.6642
 168   2.0000      -0.647994       -17.6328
 169   2.0000      -0.643761       -17.5176
 170   2.0000      -0.636224       -17.3125
 171   2.0000      -0.627978       -17.0881
 172   2.0000      -0.626309       -17.0427
 173   2.0000      -0.624269       -16.9872
 174   2.0000      -0.623805       -16.9746
 175   2.0000      -0.618771       -16.8376
 176   2.0000      -0.610070       -16.6008
 177   2.0000      -0.605574       -16.4785
 178   2.0000      -0.602209       -16.3870
 179   2.0000      -0.593546       -16.1512
 180   2.0000      -0.592375       -16.1193
 181   2.0000      -0.589336       -16.0367
 182   2.0000      -0.588722       -16.0199
 183   2.0000      -0.582158       -15.8413
 184   2.0000      -0.575613       -15.6632
 185   2.0000      -0.572417       -15.5763
 186   2.0000      -0.570010       -15.5108
 187   2.0000      -0.569531       -15.4977
 188   2.0000      -0.561231       -15.2719
 189   2.0000      -0.560280       -15.2460
 190   2.0000      -0.555167       -15.1069
 191   2.0000      -0.552637       -15.0380
 192   2.0000      -0.547571       -14.9002
 193   2.0000      -0.543189       -14.7809
 194   2.0000      -0.540344       -14.7035
 195   2.0000      -0.536792       -14.6068
 196   2.0000      -0.535659       -14.5760
 197   2.0000      -0.535426       -14.5697
 198   2.0000      -0.533043       -14.5048
 199   2.0000      -0.528342       -14.3769
 200   2.0000      -0.525887       -14.3101
 201   2.0000      -0.522512       -14.2183
 202   2.0000      -0.519590       -14.1388
 203   2.0000      -0.518958       -14.1216
 204   2.0000      -0.514763       -14.0074
 205   2.0000      -0.513031       -13.9603
 206   2.0000      -0.509531       -13.8650
 207   2.0000      -0.507312       -13.8047
 208   2.0000      -0.505326       -13.7506
 209   2.0000      -0.504634       -13.7318
 210   2.0000      -0.502901       -13.6846
 211   2.0000      -0.499425       -13.5901
 212   2.0000      -0.497995       -13.5511
 213   2.0000      -0.493440       -13.4272
 214   2.0000      -0.490772       -13.3546
 215   2.0000      -0.490117       -13.3368
 216   2.0000      -0.489631       -13.3235
 217   2.0000      -0.487666       -13.2701
 218   2.0000      -0.486506       -13.2385
 219   2.0000      -0.484859       -13.1937
 220   2.0000      -0.483944       -13.1688
 221   2.0000      -0.482132       -13.1195
 222   2.0000      -0.481184       -13.0937
 223   2.0000      -0.479271       -13.0416
 224   2.0000      -0.476624       -12.9696
 225   2.0000      -0.475088       -12.9278
 226   2.0000      -0.474202       -12.9037
 227   2.0000      -0.471362       -12.8264
 228   2.0000      -0.471191       -12.8218
 229   2.0000      -0.465309       -12.6617
 230   2.0000      -0.463584       -12.6148
 231   2.0000      -0.462391       -12.5823
 232   2.0000      -0.460299       -12.5254
 233   2.0000      -0.456785       -12.4298
 234   2.0000      -0.453586       -12.3427
 235   2.0000      -0.452451       -12.3118
 236   2.0000      -0.451515       -12.2864
 237   2.0000      -0.449938       -12.2434
 238   2.0000      -0.446286       -12.1441
 239   2.0000      -0.445001       -12.1091
 240   2.0000      -0.444319       -12.0905
 241   2.0000      -0.440951       -11.9989
 242   2.0000      -0.440168       -11.9776
 243   2.0000      -0.439388       -11.9564
 244   2.0000      -0.436581       -11.8800
 245   2.0000      -0.434958       -11.8358
 246   2.0000      -0.433106       -11.7854
 247   2.0000      -0.430766       -11.7217
 248   2.0000      -0.430315       -11.7095
 249   2.0000      -0.429015       -11.6741
 250   2.0000      -0.424635       -11.5549
 251   2.0000      -0.423294       -11.5184
 252   2.0000      -0.420436       -11.4406
 253   2.0000      -0.419006       -11.4017
 254   2.0000      -0.417640       -11.3646
 255   2.0000      -0.415349       -11.3022
 256   2.0000      -0.408908       -11.1270
 257   2.0000      -0.405291       -11.0285
 258   2.0000      -0.403334       -10.9753
 259   2.0000      -0.401780       -10.9330
 260   2.0000      -0.390881       -10.6364
 261   2.0000      -0.386372       -10.5137
 262   2.0000      -0.383998       -10.4491
 263   2.0000      -0.374345       -10.1864
 264   2.0000      -0.372905       -10.1473
 265   2.0000      -0.363747        -9.8980
 266   2.0000      -0.354957        -9.6589
 267   2.0000      -0.342809        -9.3283
 268   2.0000      -0.339872        -9.2484
 269   2.0000      -0.334985        -9.1154
 270   2.0000      -0.332221        -9.0402
 271   2.0000      -0.331027        -9.0077
 272   2.0000      -0.329127        -8.9560
 273   2.0000      -0.327433        -8.9099
 274   2.0000      -0.327056        -8.8996
 275   2.0000      -0.322013        -8.7624
 276   2.0000      -0.318889        -8.6774
 277   2.0000      -0.312007        -8.4901
 278   2.0000      -0.306858        -8.3500
 279   2.0000      -0.302261        -8.2249
 280   2.0000      -0.292323        -7.9545
 281   2.0000      -0.287653        -7.8274
 282   2.0000      -0.270801        -7.3689
 283   2.0000      -0.250210        -6.8086
 284   2.0000      -0.222819        -6.0632
 285   2.0000      -0.194333        -5.2881
 286   0.0000      -0.100777        -2.7423
 287   0.0000      -0.080392        -2.1876
 288   0.0000      -0.064808        -1.7635
 289   0.0000      -0.061732        -1.6798
 290   0.0000      -0.042105        -1.1457

MULLIKEN ATOMIC CHARGES
-----------------------
   0 C :   -0.034791
   1 C :   -0.060960
   2 C :    0.047000
   3 C :    0.029726
   4 C :   -0.071045
   5 S :    0.075406
   6 C :   -0.047866
   7 C :    0.024562
   8 C :    0.034024
   9 C :   -0.015706
  10 S :    0.071385
  11 C :   -0.019888
  12 C :    0.018685
  13 C :   -0.051558
  14 C :    0.086551
  15 O :   -0.218041
  16 C :    0.111480
  17 C :    0.060895
  18 C :    0.091261
  19 O :   -0.177089
  20 O :   -0.202746
  21 C :   -0.004644
  22 C :   -0.037769
  23 C :    0.024333
  24 C :    0.012522
  25 C :    0.033024
  26 C :   -0.049144
  27 C :    0.090824
  28 O :   -0.220150
  29 C :    0.106649
  30 C :    0.070646
  31 C :    0.088602
  32 O :   -0.176245
  33 O :   -0.189976
  34 C :    0.013030
  35 C :   -0.027684
  36 C :    0.030968
  37 C :   -0.029458
  38 C :   -0.102137
  39 S :    0.144483
  40 C :   -0.139571
  41 C :    0.058003
  42 C :    0.027863
  43 C :    0.125626
  44 O :   -0.178589
  45 C :   -0.004314
  46 C :   -0.023905
  47 C :    0.049832
  48 C :    0.047622
  49 C :   -0.019289
  50 C :   -0.001132
  51 C :    0.097945
  52 O :   -0.155662
  53 C :    0.054209
  54 C :    0.040990
  55 C :   -0.049216
  56 C :   -0.068778
  57 C :    0.330826
  58 C :   -0.353746
  59 C :   -0.186246
  60 N :    0.147949
  61 C :   -0.187894
  62 N :    0.142480
  63 C :    0.011297
  64 C :   -0.013315
  65 C :    0.146299
  66 O :   -0.149380
  67 C :   -0.069305
  68 C :    0.117415
  69 C :   -0.092507
  70 C :   -0.017500
  71 S :    0.185463
  72 C :   -0.123134
  73 C :    0.038978
  74 Br:    0.021314
  75 H :    0.016774
  76 H :    0.019481
  77 H :   -0.015063
  78 H :   -0.013964
  79 H :   -0.018596
  80 H :   -0.015610
  81 H :   -0.018327
  82 H :    0.006535
  83 H :   -0.000057
  84 H :    0.192546
  85 H :    0.189772
  86 H :    0.001004
  87 H :   -0.031546
  88 H :   -0.011985
  89 H :   -0.019238
  90 H :   -0.003874
  91 H :    0.000663
  92 H :    0.193836
  93 H :    0.192531
  94 H :    0.002594
  95 H :   -0.042171
  96 H :   -0.004056
  97 H :    0.015161
  98 H :   -0.001553
  99 H :   -0.005065
 100 H :   -0.004012
 101 H :    0.003686
 102 H :    0.007466
 103 H :    0.037826
 104 H :    0.011210
 105 H :   -0.012676
 106 H :   -0.008695
 107 H :   -0.004393
Sum of atomic charges:   -0.0000000

LOEWDIN ATOMIC CHARGES
----------------------
   0 C :   -0.083328
   1 C :   -0.138623
   2 C :   -0.036803
   3 C :   -0.026817
   4 C :   -0.182829
   5 S :    0.348167
   6 C :   -0.178874
   7 C :   -0.036205
   8 C :   -0.035003
   9 C :   -0.149125
  10 S :    0.363876
  11 C :   -0.056988
  12 C :   -0.029601
  13 C :   -0.036598
  14 C :    0.004772
  15 O :    0.001544
  16 C :   -0.015676
  17 C :   -0.013608
  18 C :   -0.006963
  19 O :   -0.048755
  20 O :   -0.059022
  21 C :   -0.027943
  22 C :   -0.055098
  23 C :   -0.019451
  24 C :   -0.034692
  25 C :   -0.013017
  26 C :   -0.045789
  27 C :    0.015059
  28 O :    0.001030
  29 C :   -0.023291
  30 C :   -0.002052
  31 C :   -0.010242
  32 O :   -0.048296
  33 O :   -0.049670
  34 C :   -0.010694
  35 C :   -0.058777
  36 C :    0.003560
  37 C :   -0.065664
  38 C :   -0.112711
  39 S :    0.461499
  40 C :   -0.141572
  41 C :   -0.072325
  42 C :   -0.098548
  43 C :    0.086132
  44 O :   -0.158073
  45 C :   -0.049054
  46 C :    0.013255
  47 C :   -0.006786
  48 C :   -0.006296
  49 C :    0.016172
  50 C :   -0.049031
  51 C :    0.084986
  52 O :   -0.134240
  53 C :    0.001075
  54 C :   -0.000820
  55 C :    0.067684
  56 C :   -0.091225
  57 C :    0.075664
  58 C :   -0.142024
  59 C :   -0.017804
  60 N :   -0.056316
  61 C :   -0.019850
  62 N :   -0.055271
  63 C :   -0.020219
  64 C :   -0.049268
  65 C :    0.085645
  66 O :   -0.141865
  67 C :    0.021047
  68 C :   -0.032771
  69 C :   -0.143834
  70 C :   -0.010022
  71 S :    0.431126
  72 C :   -0.271591
  73 C :   -0.070609
  74 Br:    0.135017
  75 H :    0.027219
  76 H :    0.025044
  77 H :    0.031859
  78 H :    0.031273
  79 H :    0.029610
  80 H :    0.032017
  81 H :    0.031222
  82 H :    0.025376
  83 H :    0.039399
  84 H :    0.102891
  85 H :    0.090731
  86 H :    0.040856
  87 H :    0.016098
  88 H :    0.029449
  89 H :    0.024754
  90 H :    0.030158
  91 H :    0.039518
  92 H :    0.103610
  93 H :    0.093321
  94 H :    0.043535
  95 H :    0.016929
  96 H :    0.023043
  97 H :    0.036730
  98 H :    0.035686
  99 H :    0.032489
 100 H :    0.032806
 101 H :    0.038006
 102 H :    0.035106
 103 H :    0.034640
 104 H :    0.041581
 105 H :    0.040234
 106 H :    0.040693
 107 H :    0.038426

  Mayer bond orders larger than 0.100000
B(  0-C ,  1-C ) :   1.8599 B(  0-C , 75-H ) :   0.9507 B(  0-C , 76-H ) :   0.9419
B(  1-C ,  2-C ) :   1.0829 B(  1-C ,  5-S ) :   1.0083 B(  2-C ,  3-C ) :   1.6559
B(  2-C , 77-H ) :   0.9927 B(  3-C ,  4-C ) :   1.1562 B(  3-C , 78-H ) :   0.9923
B(  4-C ,  5-S ) :   1.0415 B(  4-C ,  6-C ) :   1.5486 B(  6-C ,  7-C ) :   1.1778
B(  6-C , 10-S ) :   1.0393 B(  7-C ,  8-C ) :   1.5952 B(  7-C , 79-H ) :   0.9927
B(  8-C ,  9-C ) :   1.1443 B(  8-C , 80-H ) :   0.9996 B(  9-C , 10-S ) :   1.0284
B(  9-C , 11-C ) :   1.5511 B( 11-C , 12-C ) :   1.1602 B( 11-C , 81-H ) :   0.9831
B( 12-C , 13-C ) :   1.5659 B( 12-C , 82-H ) :   0.9832 B( 13-C , 14-C ) :   1.1875
B( 13-C , 83-H ) :   0.9754 B( 14-C , 15-O ) :   1.1282 B( 14-C , 16-C ) :   0.1083
B( 14-C , 18-C ) :   1.3478 B( 15-O , 16-C ) :   1.0960 B( 16-C , 17-C ) :   1.3146
B( 16-C , 21-C ) :   1.1666 B( 17-C , 18-C ) :   1.2661 B( 17-C , 20-O ) :   1.2242
B( 18-C , 19-O ) :   1.2677 B( 19-O , 84-H ) :   0.9533 B( 20-O , 85-H ) :   0.9530
B( 21-C , 22-C ) :   1.5784 B( 21-C , 86-H ) :   0.9630 B( 22-C , 23-C ) :   1.1718
B( 22-C , 87-H ) :   0.9670 B( 23-C , 24-C ) :   1.5874 B( 23-C , 88-H ) :   0.9909
B( 24-C , 25-C ) :   1.1494 B( 24-C , 89-H ) :   0.9848 B( 25-C , 26-C ) :   1.5802
B( 25-C , 90-H ) :   0.9911 B( 26-C , 27-C ) :   1.1751 B( 26-C , 91-H ) :   0.9716
B( 27-C , 28-O ) :   1.1357 B( 27-C , 29-C ) :   0.1078 B( 27-C , 31-C ) :   1.3558
B( 28-O , 29-C ) :   1.0876 B( 29-C , 30-C ) :   1.2932 B( 29-C , 34-C ) :   1.1902
B( 30-C , 31-C ) :   1.2667 B( 30-C , 33-O ) :   1.2351 B( 31-C , 32-O ) :   1.2697
B( 32-O , 92-H ) :   0.9524 B( 33-O , 93-H ) :   0.9601 B( 34-C , 35-C ) :   1.5418
B( 34-C , 94-H ) :   0.9609 B( 35-C , 36-C ) :   1.2101 B( 35-C , 95-H ) :   0.9702
B( 36-C , 37-C ) :   1.5299 B( 36-C , 96-H ) :   0.9871 B( 37-C , 38-C ) :   1.2071
B( 37-C , 97-H ) :   0.9612 B( 38-C , 39-S ) :   1.1242 B( 38-C , 42-C ) :   1.4104
B( 39-S , 40-C ) :   1.1222 B( 40-C , 41-C ) :   1.4592 B( 40-C , 53-C ) :   1.1119
B( 41-C , 42-C ) :   1.2393 B( 41-C , 51-C ) :   0.9467 B( 42-C , 43-C ) :   0.9793
B( 43-C , 44-O ) :   2.1396 B( 43-C , 45-C ) :   0.9610 B( 45-C , 46-C ) :   1.4010
B( 45-C , 50-C ) :   1.3481 B( 46-C , 47-C ) :   1.3619 B( 46-C , 98-H ) :   0.9928
B( 47-C , 48-C ) :   1.3547 B( 47-C , 99-H ) :   0.9921 B( 48-C , 49-C ) :   1.3641
B( 48-C ,100-H ) :   0.9927 B( 49-C , 50-C ) :   1.4019 B( 49-C ,101-H ) :   0.9924
B( 50-C , 51-C ) :   0.9321 B( 51-C , 52-O ) :   2.2159 B( 53-C , 54-C ) :   1.6002
B( 53-C ,102-H ) :   0.9583 B( 54-C , 55-C ) :   1.1865 B( 54-C ,103-H ) :   0.9619
B( 55-C , 56-C ) :   1.5311 B( 55-C ,104-H ) :   0.9607 B( 56-C , 57-C ) :   1.0692
B( 56-C , 65-C ) :   0.9459 B( 57-C , 58-C ) :   1.6193 B( 57-C , 63-C ) :   0.9999
B( 58-C , 59-C ) :   1.1450 B( 58-C , 61-C ) :   1.1478 B( 59-C , 60-N ) :   2.9659
B( 61-C , 62-N ) :   2.9603 B( 63-C , 64-C ) :   1.2741 B( 63-C , 70-C ) :   1.4112
B( 64-C , 65-C ) :   0.9422 B( 64-C , 67-C ) :   1.4252 B( 65-C , 66-O ) :   2.1972
B( 67-C , 68-C ) :   1.2473 B( 67-C ,105-H ) :   1.0151 B( 68-C , 69-C ) :   1.3059
B( 68-C , 73-C ) :   1.1606 B( 69-C , 70-C ) :   1.3326 B( 69-C , 71-S ) :   1.0848
B( 70-C ,106-H ) :   0.9779 B( 71-S , 72-C ) :   1.0863 B( 72-C , 73-C ) :   1.6206
B( 72-C , 74-Br) :   1.0169 B( 73-C ,107-H ) :   0.9999

-----------------------------------------------------------------------------
         ABSORPTION SPECTRUM VIA TRANSITION ELECTRIC DIPOLE MOMENTS
-----------------------------------------------------------------------------
State   Energy  Wavelength   fosc         T2         TX        TY        TZ
        (cm-1)    (nm)                  (au**2)     (au)      (au)      (au)
-----------------------------------------------------------------------------
   0   11952.1    836.7   1.238679610  34.11864   1.54648   5.15555  -2.26877
   1   14741.1    678.4   1.041666087  23.26351  -0.27212   0.06643   4.81509
   2   16316.0    612.9   0.782297032  15.78463  -0.69407  -3.30125  -2.09872
   3   17624.7    567.4   1.061525850  19.82822  -3.12388  -2.24135  -2.24632
   4   19608.9    510.0   0.227594703   3.82107  -1.23901  -1.12940   1.00518
   5   22088.2    452.7   0.385232754   5.74167   0.92404  -1.57210  -1.55445
   6   22645.2    441.6   0.263811731   3.83525  -1.56291  -1.17099   0.14610
   7   22894.2    436.8   0.032939707   0.47366  -0.48368  -0.43055  -0.23311
   8   23716.8    421.6   0.588953260   8.17524  -2.42801  -1.34196   0.69221
   9   25190.8    397.0   0.012362982   0.16157  -0.37744  -0.12461   0.05983
  10   25639.0    390.0   0.032460672   0.41680  -0.12161  -0.62175  -0.12426
  11   26120.8    382.8   0.029933010   0.37726  -0.03583  -0.41475   0.45161
  12   26446.5    378.1   0.047592555   0.59244   0.13604   0.70924  -0.26630
  13   27201.4    367.6   0.041630110   0.50384  -0.18727   0.63287   0.26122
  14   27323.0    366.0   0.007957012   0.09587   0.15411  -0.09338  -0.25180
  15   27524.8    363.3   0.225622286   2.69857   0.34923   1.58388  -0.26066
  16   27933.7    358.0   0.067100649   0.79081  -0.61675   0.32078   0.55456
  17   29102.8    343.6   0.024526419   0.27744  -0.06387   0.34351   0.39417
  18   29265.6    341.7   0.018514413   0.20827  -0.02991  -0.44532  -0.09523
  19   29725.9    336.4   0.005762028   0.06381   0.11831  -0.14853  -0.16660
  20   30036.5    332.9   0.014786769   0.16207   0.28392  -0.12448  -0.25683
  21   30402.3    328.9   0.008220110   0.08901   0.21477   0.07926   0.19133
  22   30650.2    326.3   0.049518418   0.53187   0.47297   0.03979  -0.55370
  23   31080.0    321.8   0.090657449   0.96028  -0.03722  -0.95268   0.22648
  24   31564.5    316.8   0.183556692   1.91447  -0.50114  -1.15328   0.57730
  25   32208.8    310.5   0.006786455   0.06937   0.18783   0.15334   0.10282
  26   32245.0    310.1   0.027493325   0.28070  -0.12697   0.33132  -0.39345
  27   33017.7    302.9   0.426007843   4.24763   0.35226   1.96330  -0.51866
  28   33114.1    302.0   0.172665469   1.71659  -0.31594  -0.50534   1.16679
  29   33359.8    299.8   0.070578286   0.69650   0.30029   0.66495  -0.40517
  30   33674.8    297.0   0.027684313   0.27065  -0.28899   0.32944   0.28036
  31   33781.1    296.0   0.031327301   0.30530  -0.27899  -0.46821   0.09080
  32   33921.5    294.8   0.000082420   0.00080   0.02087  -0.01901  -0.00175
  33   34030.0    293.9   0.014433274   0.13963   0.21587   0.19817  -0.23186
  34   34469.8    290.1   0.008598337   0.08212   0.05533  -0.25161   0.12550
  35   35005.9    285.7   0.017221982   0.16196  -0.20210  -0.31537  -0.14718
  36   35103.2    284.9   0.002430081   0.02279   0.04547  -0.11206   0.09036
  37   35171.8    284.3   0.031731727   0.29701   0.32233  -0.36946  -0.23795
  38   35664.7    280.4   0.049641598   0.45823  -0.01580   0.45446   0.50144
  39   35856.2    278.9   0.004354477   0.03998   0.17643   0.07265  -0.05978
  40   36030.5    277.5   0.049297290   0.45043  -0.15921  -0.64648   0.08457
  41   36380.4    274.9   0.061586131   0.55730  -0.17590  -0.47101  -0.55183
  42   36413.2    274.6   0.013830631   0.12504   0.16739   0.31128  -0.01136
  43   36588.6    273.3   0.047461742   0.42705  -0.26632  -0.35697  -0.47822
  44   37009.4    270.2   0.018367283   0.16338   0.22439   0.01771   0.33574
  45   37325.5    267.9   0.023136562   0.20407   0.31898   0.31900  -0.02366
  46   37532.7    266.4   0.019192061   0.16834  -0.08584   0.24283   0.31939
  47   37597.1    266.0   0.135734008   1.18853  -0.58823  -0.68438   0.61167
  48   37904.4    263.8   0.094768774   0.82310   0.53862   0.33854  -0.64682
  49   38291.0    261.2   0.100840241   0.86699   0.14663  -0.13996  -0.90879
  50   38469.1    259.9   0.020647596   0.17670   0.25443  -0.06822   0.32758
  51   38788.4    257.8   0.113365873   0.96218  -0.14740  -0.52389  -0.81608
  52   39005.0    256.4   0.113481116   0.95781  -0.65082  -0.32817   0.65311
  53   39359.7    254.1   0.014083335   0.11780   0.12897   0.27582   0.15838
  54   39541.5    252.9   0.043637744   0.36332   0.32292   0.37993   0.33866
  55   39871.2    250.8   0.022225365   0.18351  -0.35966  -0.21060  -0.09900
  56   39997.0    250.0   0.028337609   0.23324   0.20612   0.42940   0.07982
  57   40180.2    248.9   0.018905315   0.15490  -0.09534   0.17182  -0.34101

FINAL SINGLE POINT ENERGY     -7216.931276166084

DIPOLE MOMENT
-------------
                                X             Y             Z
Electronic contribution:    -41.90888    -265.29246     -17.42680
Nuclear contribution   :     41.82613     266.19471      20.44886
                        -----------------------------------------
Total Dipole Moment    :     -0.08274       0.90225       3.02206
                        -----------------------------------------
Magnitude (a.u.)       :      3.15496
Magnitude (Debye)      :      8.01926

Rotational constants in cm-1:     0.000626     0.000136     0.000118
Rotational constants in MHz :    18.769524     4.063666     3.548608

                             ****ORCA TERMINATED NORMALLY****
TOTAL RUN TIME: 0 days 0 hours 10 minutes 49 seconds 381 msec
