                         Program Version 4.2.0 -  RELEASE  -
|  1> # ORCA input file
|  2> # SCF done       -149.896316786200          0.000398678754
|  3> ! CAM-B3LYP def2-SVP def2/J RIJCOSX Grid4 TightSCF
|  4> %maxcore 5000
|  5> %tddft
|  6>     Mode sTDDFT
|  7>     Ethresh 5.0
|  8>     maxcore 5000
|  9> end
| 10>
| 11> %pal
| 12>   nprocs 6
| 13>   end
| 14> * xyz 0 1
| 15>    C        7.83143       -14.77256        -5.37015
| 16>    C        8.47670       -13.66421        -4.98099
| 17>    C        9.89075       -13.47834        -4.82863
| 18>    C       10.25133       -12.24298        -4.41412
| 19>    C        9.16353       -11.35244        -4.20289
| 20>    S        7.64618       -12.15674        -4.56182
| 21>    C        9.21955       -10.04776        -3.77435
| 22>    C       10.36573        -9.28550        -3.44376
| 23>    C       10.08578        -8.02043        -3.03324
| 24>    C        8.70361        -7.70137        -3.01088
| 25>    S        7.76819        -9.08330        -3.55035
| 26>    C        8.17078        -6.50241        -2.60962
| 27>    C        6.81488        -6.14177        -2.55716
| 28>    S        5.53193        -7.19241        -3.08933
| 29>    C        6.28925        -4.94062        -2.07882
| 30>    O        7.04694        -3.91756        -1.57690
| 31>    C        4.88499        -4.85676        -2.14275
| 32>    N        4.14650        -3.79720        -1.65512
| 33>    N        4.66332        -2.49055        -1.57592
| 34>    C        4.30801        -6.01123        -2.68214
| 35>    C        2.94329        -6.27999        -2.89696
| 36>    C        2.47518        -7.42210        -3.46962
| 37>    C        1.11140        -7.71274        -3.68869
| 38>    S       -0.16291        -6.64186        -3.16926
| 39>    C        0.58003        -8.83066        -4.31564
| 40>    O        1.32831        -9.84283        -4.84572
| 41>    C       -0.83309        -8.84708        -4.37143
| 42>    N       -1.56853        -9.81460        -5.01814
| 43>    N       -1.09908       -11.12424        -5.22029
| 44>    C       -1.40273        -7.72209        -3.77082
| 45>    C       -2.76975        -7.43107        -3.60756
| 46>    C       -3.25471        -6.31503        -2.99961
| 47>    C       -4.62780        -6.05214        -2.79713
| 48>    S       -5.87185        -7.16534        -3.29466
| 49>    C       -5.19184        -4.93683        -2.19044
| 50>    O       -4.46300        -3.88748        -1.69881
| 51>    C       -6.60144        -4.96636        -2.11507
| 52>    N       -7.37914        -3.95989        -1.57320
| 53>    N       -6.89113        -2.64887        -1.40598
| 54>    C       -7.13878        -6.14526        -2.64709
| 55>    C       -8.46362        -6.60734        -2.72829
| 56>    C       -9.52848        -6.17215        -1.98256
| 57>    C      -10.85951        -6.60355        -2.10099
| 58>    C      -11.45016        -7.40839        -3.04760
| 59>    C      -12.82329        -7.76333        -3.05034
| 60>    C      -13.21099        -8.54491        -4.09343
| 61>    C      -12.16443        -8.86262        -4.99090
| 62>    S      -10.66771        -8.12700        -4.44739
| 63>    C      -12.22883        -9.62993        -6.13025
| 64>    C      -13.36820       -10.29020        -6.66380
| 65>    C      -13.13399       -10.97745        -7.80481
| 66>    C      -11.77816       -10.91443        -8.26742
| 67>    S      -10.82982        -9.92119        -7.14942
| 68>    C      -11.25486       -11.49020        -9.35923
| 69>    H        8.37655       -15.66717        -5.61430
| 70>    H        6.76054       -14.80529        -5.45032
| 71>    H       10.57446       -14.28221        -5.03636
| 72>    H       11.26766       -11.93251        -4.24715
| 73>    H       11.35879        -9.69170        -3.51506
| 74>    H       10.82930        -7.29953        -2.73948
| 75>    H        8.89408        -5.75717        -2.29350
| 76>    H        7.97376        -4.17964        -1.56679
| 77>    H        3.17590        -3.79060        -1.93962
| 78>    H        5.13684        -2.22157        -2.44051
| 79>    H        5.35440        -2.45674        -0.83065
| 80>    H        2.22618        -5.53089        -2.58814
| 81>    H        3.20226        -8.16609        -3.77630
| 82>    H        2.26517        -9.65076        -4.72486
| 83>    H       -2.56308        -9.79899        -4.83560
| 84>    H       -0.70517       -11.51772        -4.36377
| 85>    H       -0.35415       -11.10402        -5.91258
| 86>    H       -3.48226        -8.15471        -3.98115
| 87>    H       -2.53926        -5.58385        -2.63915
| 88>    H       -3.52416        -4.07648        -1.80550
| 89>    H       -8.32880        -3.94689        -1.92697
| 90>    H       -6.39912        -2.32050        -2.23903
| 91>    H       -6.22031        -2.64603        -0.64187
| 92>    H       -8.61014        -7.43352        -3.41004
| 93>    H       -9.34245        -5.47447        -1.17789
| 94>    H      -11.54018        -6.23403        -1.34281
| 95>    H      -13.48458        -7.42254        -2.27240
| 96>    H      -14.21597        -8.89585        -4.24522
| 97>    H      -14.32640       -10.23162        -6.17806
| 98>    H      -13.87380       -11.53719        -8.34938
| 99>    H      -11.86807       -12.08530       -10.01264
|100>    H      -10.21756       -11.37822        -9.61558
|101> *
|102>
|103>                          ****END OF INPUT****

CARTESIAN COORDINATES (ANGSTROEM)
---------------------------------
  C      7.831430  -14.772560   -5.370150
  C      8.476700  -13.664210   -4.980990
  C      9.890750  -13.478340   -4.828630
  C     10.251330  -12.242980   -4.414120
  C      9.163530  -11.352440   -4.202890
  S      7.646180  -12.156740   -4.561820
  C      9.219550  -10.047760   -3.774350
  C     10.365730   -9.285500   -3.443760
  C     10.085780   -8.020430   -3.033240
  C      8.703610   -7.701370   -3.010880
  S      7.768190   -9.083300   -3.550350
  C      8.170780   -6.502410   -2.609620
  C      6.814880   -6.141770   -2.557160
  S      5.531930   -7.192410   -3.089330
  C      6.289250   -4.940620   -2.078820
  O      7.046940   -3.917560   -1.576900
  C      4.884990   -4.856760   -2.142750
  N      4.146500   -3.797200   -1.655120
  N      4.663320   -2.490550   -1.575920
  C      4.308010   -6.011230   -2.682140
  C      2.943290   -6.279990   -2.896960
  C      2.475180   -7.422100   -3.469620
  C      1.111400   -7.712740   -3.688690
  S     -0.162910   -6.641860   -3.169260
  C      0.580030   -8.830660   -4.315640
  O      1.328310   -9.842830   -4.845720
  C     -0.833090   -8.847080   -4.371430
  N     -1.568530   -9.814600   -5.018140
  N     -1.099080  -11.124240   -5.220290
  C     -1.402730   -7.722090   -3.770820
  C     -2.769750   -7.431070   -3.607560
  C     -3.254710   -6.315030   -2.999610
  C     -4.627800   -6.052140   -2.797130
  S     -5.871850   -7.165340   -3.294660
  C     -5.191840   -4.936830   -2.190440
  O     -4.463000   -3.887480   -1.698810
  C     -6.601440   -4.966360   -2.115070
  N     -7.379140   -3.959890   -1.573200
  N     -6.891130   -2.648870   -1.405980
  C     -7.138780   -6.145260   -2.647090
  C     -8.463620   -6.607340   -2.728290
  C     -9.528480   -6.172150   -1.982560
  C    -10.859510   -6.603550   -2.100990
  C    -11.450160   -7.408390   -3.047600
  C    -12.823290   -7.763330   -3.050340
  C    -13.210990   -8.544910   -4.093430
  C    -12.164430   -8.862620   -4.990900
  S    -10.667710   -8.127000   -4.447390
  C    -12.228830   -9.629930   -6.130250
  C    -13.368200  -10.290200   -6.663800
  C    -13.133990  -10.977450   -7.804810
  C    -11.778160  -10.914430   -8.267420
  S    -10.829820   -9.921190   -7.149420
  C    -11.254860  -11.490200   -9.359230
  H      8.376550  -15.667170   -5.614300
  H      6.760540  -14.805290   -5.450320
  H     10.574460  -14.282210   -5.036360
  H     11.267660  -11.932510   -4.247150
  H     11.358790   -9.691700   -3.515060
  H     10.829300   -7.299530   -2.739480
  H      8.894080   -5.757170   -2.293500
  H      7.973760   -4.179640   -1.566790
  H      3.175900   -3.790600   -1.939620
  H      5.136840   -2.221570   -2.440510
  H      5.354400   -2.456740   -0.830650
  H      2.226180   -5.530890   -2.588140
  H      3.202260   -8.166090   -3.776300
  H      2.265170   -9.650760   -4.724860
  H     -2.563080   -9.798990   -4.835600
  H     -0.705170  -11.517720   -4.363770
  H     -0.354150  -11.104020   -5.912580
  H     -3.482260   -8.154710   -3.981150
  H     -2.539260   -5.583850   -2.639150
  H     -3.524160   -4.076480   -1.805500
  H     -8.328800   -3.946890   -1.926970
  H     -6.399120   -2.320500   -2.239030
  H     -6.220310   -2.646030   -0.641870
  H     -8.610140   -7.433520   -3.410040
  H     -9.342450   -5.474470   -1.177890
  H    -11.540180   -6.234030   -1.342810
  H    -13.484580   -7.422540   -2.272400
  H    -14.215970   -8.895850   -4.245220
  H    -14.326400  -10.231620   -6.178060
  H    -13.873800  -11.537190   -8.349380
  H    -11.868070  -12.085300  -10.012640
  H    -10.217560  -11.378220   -9.615580

 Total Charge           Charge          ....    0
 Multiplicity           Mult            ....    1
 Number of Electrons    NEL             ....  438
 Basis Dimension        Dim             ....  944

ORBITAL ENERGIES
----------------

  NO   OCC          E(Eh)            E(eV)
   0   2.0000     -88.944823     -2420.3117
   1   2.0000     -88.942996     -2420.2620
   2   2.0000     -88.938164     -2420.1305
   3   2.0000     -88.936749     -2420.0920
   4   2.0000     -88.933114     -2419.9931
   5   2.0000     -88.930626     -2419.9254
   6   2.0000     -88.924433     -2419.7568
   7   2.0000     -19.257092      -524.0121
   8   2.0000     -19.251303      -523.8546
   9   2.0000     -19.246810      -523.7323
  10   2.0000     -14.436456      -392.8359
  11   2.0000     -14.433595      -392.7581
  12   2.0000     -14.430255      -392.6672
  13   2.0000     -14.412935      -392.1959
  14   2.0000     -14.409012      -392.0892
  15   2.0000     -14.404831      -391.9754
  16   2.0000     -10.334558      -281.2176
  17   2.0000     -10.329704      -281.0855
  18   2.0000     -10.324907      -280.9550
  19   2.0000     -10.310306      -280.5577
  20   2.0000     -10.307857      -280.4911
  21   2.0000     -10.307439      -280.4797
  22   2.0000     -10.306470      -280.4533
  23   2.0000     -10.306123      -280.4439
  24   2.0000     -10.304942      -280.4117
  25   2.0000     -10.302224      -280.3378
  26   2.0000     -10.298872      -280.2466
  27   2.0000     -10.294499      -280.1276
  28   2.0000     -10.294081      -280.1162
  29   2.0000     -10.293560      -280.1020
  30   2.0000     -10.291622      -280.0493
  31   2.0000     -10.291047      -280.0336
  32   2.0000     -10.290191      -280.0103
  33   2.0000     -10.288187      -279.9558
  34   2.0000     -10.287976      -279.9500
  35   2.0000     -10.287281      -279.9312
  36   2.0000     -10.284770      -279.8628
  37   2.0000     -10.284663      -279.8599
  38   2.0000     -10.283698      -279.8337
  39   2.0000     -10.282824      -279.8099
  40   2.0000     -10.280577      -279.7487
  41   2.0000     -10.280467      -279.7457
  42   2.0000     -10.279808      -279.7278
  43   2.0000     -10.276704      -279.6433
  44   2.0000     -10.276200      -279.6296
  45   2.0000     -10.274711      -279.5891
  46   2.0000     -10.270879      -279.4848
  47   2.0000     -10.270029      -279.4617
  48   2.0000     -10.269475      -279.4466
  49   2.0000     -10.268544      -279.4213
  50   2.0000     -10.268302      -279.4147
  51   2.0000     -10.263768      -279.2913
  52   2.0000     -10.257126      -279.1106
  53   2.0000     -10.256143      -279.0838
  54   2.0000      -8.039890      -218.7765
  55   2.0000      -8.039018      -218.7528
  56   2.0000      -8.033436      -218.6009
  57   2.0000      -8.033433      -218.6008
  58   2.0000      -8.028666      -218.4711
  59   2.0000      -8.026350      -218.4081
  60   2.0000      -8.021130      -218.2660
  61   2.0000      -6.009488      -163.5265
  62   2.0000      -6.008876      -163.5098
  63   2.0000      -6.005652      -163.4221
  64   2.0000      -6.004743      -163.3974
  65   2.0000      -6.003274      -163.3574
  66   2.0000      -6.002981      -163.3494
  67   2.0000      -6.001124      -163.2989
  68   2.0000      -5.999766      -163.2619
  69   2.0000      -5.999383      -163.2515
  70   2.0000      -5.999362      -163.2509
  71   2.0000      -5.998199      -163.2193
  72   2.0000      -5.996103      -163.1623
  73   2.0000      -5.994594      -163.1212
  74   2.0000      -5.994486      -163.1183
  75   2.0000      -5.993950      -163.1037
  76   2.0000      -5.992043      -163.0518
  77   2.0000      -5.990975      -163.0227
  78   2.0000      -5.989879      -162.9929
  79   2.0000      -5.987342      -162.9239
  80   2.0000      -5.987045      -162.9158
  81   2.0000      -5.981638      -162.7687
  82   2.0000      -1.148919       -31.2637
  83   2.0000      -1.143927       -31.1278
  84   2.0000      -1.139166       -30.9983
  85   2.0000      -1.060489       -28.8574
  86   2.0000      -1.057277       -28.7700
  87   2.0000      -1.053176       -28.6584
  88   2.0000      -0.991828       -26.9890
  89   2.0000      -0.977323       -26.5943
  90   2.0000      -0.977259       -26.5926
  91   2.0000      -0.970751       -26.4155
  92   2.0000      -0.965424       -26.2705
  93   2.0000      -0.963788       -26.2260
  94   2.0000      -0.954387       -25.9702
  95   2.0000      -0.909592       -24.7513
  96   2.0000      -0.900382       -24.5006
  97   2.0000      -0.892361       -24.2824
  98   2.0000      -0.882507       -24.0142
  99   2.0000      -0.874496       -23.7963
 100   2.0000      -0.866206       -23.5707
 101   2.0000      -0.861018       -23.4295
 102   2.0000      -0.858744       -23.3676
 103   2.0000      -0.849912       -23.1273
 104   2.0000      -0.842751       -22.9324
 105   2.0000      -0.833855       -22.6903
 106   2.0000      -0.829090       -22.5607
 107   2.0000      -0.822180       -22.3727
 108   2.0000      -0.814126       -22.1535
 109   2.0000      -0.807085       -21.9619
 110   2.0000      -0.803148       -21.8548
 111   2.0000      -0.797381       -21.6978
 112   2.0000      -0.793452       -21.5909
 113   2.0000      -0.784321       -21.3424
 114   2.0000      -0.775070       -21.0907
 115   2.0000      -0.763976       -20.7888
 116   2.0000      -0.748291       -20.3620
 117   2.0000      -0.732962       -19.9449
 118   2.0000      -0.719350       -19.5745
 119   2.0000      -0.706582       -19.2271
 120   2.0000      -0.693648       -18.8751
 121   2.0000      -0.687453       -18.7065
 122   2.0000      -0.679980       -18.5032
 123   2.0000      -0.674004       -18.3406
 124   2.0000      -0.668238       -18.1837
 125   2.0000      -0.662992       -18.0409
 126   2.0000      -0.656583       -17.8665
 127   2.0000      -0.643067       -17.4987
 128   2.0000      -0.639658       -17.4060
 129   2.0000      -0.630966       -17.1695
 130   2.0000      -0.629043       -17.1171
 131   2.0000      -0.619413       -16.8551
 132   2.0000      -0.616958       -16.7883
 133   2.0000      -0.613319       -16.6893
 134   2.0000      -0.612247       -16.6601
 135   2.0000      -0.606782       -16.5114
 136   2.0000      -0.603560       -16.4237
 137   2.0000      -0.597756       -16.2658
 138   2.0000      -0.591532       -16.0964
 139   2.0000      -0.586250       -15.9527
 140   2.0000      -0.582588       -15.8530
 141   2.0000      -0.581731       -15.8297
 142   2.0000      -0.578986       -15.7550
 143   2.0000      -0.570613       -15.5272
 144   2.0000      -0.568439       -15.4680
 145   2.0000      -0.564118       -15.3504
 146   2.0000      -0.559805       -15.2331
 147   2.0000      -0.554092       -15.0776
 148   2.0000      -0.548852       -14.9350
 149   2.0000      -0.541976       -14.7479
 150   2.0000      -0.539833       -14.6896
 151   2.0000      -0.536919       -14.6103
 152   2.0000      -0.526949       -14.3390
 153   2.0000      -0.516452       -14.0534
 154   2.0000      -0.513258       -13.9665
 155   2.0000      -0.511998       -13.9322
 156   2.0000      -0.511296       -13.9131
 157   2.0000      -0.507459       -13.8087
 158   2.0000      -0.504982       -13.7413
 159   2.0000      -0.504388       -13.7251
 160   2.0000      -0.500701       -13.6248
 161   2.0000      -0.495974       -13.4961
 162   2.0000      -0.495117       -13.4728
 163   2.0000      -0.492279       -13.3956
 164   2.0000      -0.490728       -13.3534
 165   2.0000      -0.488567       -13.2946
 166   2.0000      -0.485326       -13.2064
 167   2.0000      -0.483579       -13.1588
 168   2.0000      -0.480270       -13.0688
 169   2.0000      -0.475568       -12.9409
 170   2.0000      -0.474467       -12.9109
 171   2.0000      -0.470182       -12.7943
 172   2.0000      -0.467917       -12.7327
 173   2.0000      -0.462536       -12.5862
 174   2.0000      -0.460877       -12.5411
 175   2.0000      -0.453542       -12.3415
 176   2.0000      -0.452033       -12.3004
 177   2.0000      -0.448046       -12.1919
 178   2.0000      -0.446810       -12.1583
 179   2.0000      -0.446196       -12.1416
 180   2.0000      -0.442084       -12.0297
 181   2.0000      -0.440912       -11.9978
 182   2.0000      -0.439399       -11.9567
 183   2.0000      -0.431178       -11.7329
 184   2.0000      -0.428252       -11.6533
 185   2.0000      -0.425656       -11.5827
 186   2.0000      -0.423102       -11.5132
 187   2.0000      -0.412226       -11.2172
 188   2.0000      -0.411201       -11.1893
 189   2.0000      -0.409282       -11.1371
 190   2.0000      -0.406276       -11.0553
 191   2.0000      -0.402880       -10.9629
 192   2.0000      -0.402470       -10.9518
 193   2.0000      -0.395981       -10.7752
 194   2.0000      -0.394435       -10.7331
 195   2.0000      -0.388227       -10.5642
 196   2.0000      -0.382708       -10.4140
 197   2.0000      -0.380059       -10.3419
 198   2.0000      -0.374005       -10.1772
 199   2.0000      -0.364537        -9.9196
 200   2.0000      -0.357843        -9.7374
 201   2.0000      -0.346654        -9.4329
 202   2.0000      -0.336316        -9.1516
 203   2.0000      -0.329400        -8.9634
 204   2.0000      -0.325066        -8.8455
 205   2.0000      -0.323620        -8.8061
 206   2.0000      -0.322150        -8.7661
 207   2.0000      -0.321022        -8.7355
 208   2.0000      -0.317156        -8.6303
 209   2.0000      -0.312643        -8.5075
 210   2.0000      -0.303803        -8.2669
 211   2.0000      -0.286489        -7.7958
 212   2.0000      -0.272901        -7.4260
 213   2.0000      -0.266244        -7.2449
 214   2.0000      -0.253589        -6.9005
 215   2.0000      -0.248473        -6.7613
 216   2.0000      -0.227781        -6.1982
 217   2.0000      -0.204892        -5.5754
 218   2.0000      -0.186289        -5.0692
 219   0.0000      -0.074194        -2.0189
 220   0.0000      -0.059130        -1.6090
 221   0.0000      -0.030876        -0.8402
 222   0.0000      -0.002334        -0.0635
 223   0.0000       0.016974         0.4619

MULLIKEN ATOMIC CHARGES
-----------------------
   0 C :   -0.030477
   1 C :   -0.063892
   2 C :    0.053085
   3 C :    0.024440
   4 C :   -0.066816
   5 S :    0.073421
   6 C :   -0.032563
   7 C :    0.024887
   8 C :    0.029584
   9 C :   -0.039501
  10 S :    0.062914
  11 C :   -0.034500
  12 C :   -0.107818
  13 S :    0.062073
  14 C :    0.087644
  15 O :   -0.197736
  16 C :    0.110833
  17 N :   -0.100971
  18 N :   -0.118096
  19 C :   -0.113745
  20 C :   -0.030568
  21 C :   -0.044166
  22 C :   -0.097259
  23 S :    0.056210
  24 C :    0.083719
  25 O :   -0.197964
  26 C :    0.115430
  27 N :   -0.100297
  28 N :   -0.113532
  29 C :   -0.124723
  30 C :   -0.030655
  31 C :   -0.041390
  32 C :   -0.106124
  33 S :    0.091977
  34 C :    0.069698
  35 O :   -0.203379
  36 C :    0.126257
  37 N :   -0.118683
  38 N :   -0.111106
  39 C :   -0.176292
  40 C :    0.028759
  41 C :   -0.051540
  42 C :   -0.002396
  43 C :   -0.031226
  44 C :    0.037168
  45 C :    0.017894
  46 C :   -0.037861
  47 S :    0.056939
  48 C :   -0.066462
  49 C :    0.027797
  50 C :    0.048084
  51 C :   -0.062495
  52 S :    0.073877
  53 C :   -0.036095
  54 H :    0.019478
  55 H :    0.021056
  56 H :   -0.011843
  57 H :   -0.012388
  58 H :   -0.016961
  59 H :   -0.018124
  60 H :   -0.047415
  61 H :    0.181564
  62 H :    0.123153
  63 H :    0.098769
  64 H :    0.117840
  65 H :   -0.020803
  66 H :   -0.031669
  67 H :    0.184209
  68 H :    0.124647
  69 H :    0.100224
  70 H :    0.118223
  71 H :   -0.018763
  72 H :   -0.039424
  73 H :    0.180973
  74 H :    0.136020
  75 H :    0.099228
  76 H :    0.115024
  77 H :   -0.007157
  78 H :   -0.011109
  79 H :   -0.020014
  80 H :   -0.018234
  81 H :   -0.021039
  82 H :   -0.015225
  83 H :   -0.016436
  84 H :    0.015359
  85 H :    0.018477
Sum of atomic charges:   -0.0000000

LOEWDIN ATOMIC CHARGES
----------------------
   0 C :   -0.078251
   1 C :   -0.139118
   2 C :   -0.032535
   3 C :   -0.027203
   4 C :   -0.177706
   5 S :    0.345995
   6 C :   -0.180617
   7 C :   -0.038310
   8 C :   -0.036602
   9 C :   -0.155132
  10 S :    0.363346
  11 C :   -0.087765
  12 C :   -0.212236
  13 S :    0.404284
  14 C :   -0.000021
  15 O :   -0.062028
  16 C :   -0.032858
  17 N :   -0.006270
  18 N :   -0.047599
  19 C :   -0.204213
  20 C :   -0.049109
  21 C :   -0.067720
  22 C :   -0.205477
  23 S :    0.388333
  24 C :   -0.001310
  25 O :   -0.060902
  26 C :   -0.027574
  27 N :   -0.001360
  28 N :   -0.046309
  29 C :   -0.206902
  30 C :   -0.044581
  31 C :   -0.074101
  32 C :   -0.207001
  33 S :    0.404851
  34 C :   -0.006200
  35 O :   -0.065929
  36 C :   -0.029030
  37 N :   -0.003301
  38 N :   -0.047684
  39 C :   -0.202469
  40 C :   -0.042885
  41 C :   -0.069327
  42 C :   -0.058188
  43 C :   -0.154643
  44 C :   -0.030531
  45 C :   -0.047690
  46 C :   -0.178456
  47 S :    0.376873
  48 C :   -0.183266
  49 C :   -0.026695
  50 C :   -0.038334
  51 C :   -0.138653
  52 S :    0.345399
  53 C :   -0.086604
  54 H :    0.028552
  55 H :    0.025832
  56 H :    0.033201
  57 H :    0.032008
  58 H :    0.030559
  59 H :    0.030911
  60 H :    0.025272
  61 H :    0.088636
  62 H :    0.067688
  63 H :    0.046031
  64 H :    0.051875
  65 H :    0.021618
  66 H :    0.013906
  67 H :    0.091880
  68 H :    0.069318
  69 H :    0.046732
  70 H :    0.052334
  71 H :    0.022078
  72 H :    0.011918
  73 H :    0.089253
  74 H :    0.069647
  75 H :    0.045311
  76 H :    0.052296
  77 H :    0.012507
  78 H :    0.026308
  79 H :    0.032966
  80 H :    0.031273
  81 H :    0.028491
  82 H :    0.031076
  83 H :    0.031185
  84 H :    0.026385
  85 H :    0.024571

  Mayer bond orders larger than 0.100000
B(  0-C ,  1-C ) :   1.8639 B(  0-C , 54-H ) :   0.9498 B(  0-C , 55-H ) :   0.9421
B(  1-C ,  2-C ) :   1.0808 B(  1-C ,  5-S ) :   1.0079 B(  2-C ,  3-C ) :   1.6573
B(  2-C , 56-H ) :   0.9932 B(  3-C ,  4-C ) :   1.1554 B(  3-C , 57-H ) :   0.9925
B(  4-C ,  5-S ) :   1.0411 B(  4-C ,  6-C ) :   1.5549 B(  6-C ,  7-C ) :   1.1734
B(  6-C , 10-S ) :   1.0296 B(  7-C ,  8-C ) :   1.6004 B(  7-C , 58-H ) :   0.9926
B(  8-C ,  9-C ) :   1.1431 B(  8-C , 59-H ) :   0.9976 B(  9-C , 10-S ) :   1.0367
B(  9-C , 11-C ) :   1.5907 B( 11-C , 12-C ) :   1.1693 B( 11-C , 60-H ) :   0.9529
B( 12-C , 13-S ) :   1.0641 B( 12-C , 14-C ) :   1.4102 B( 12-C , 19-C ) :   0.1165
B( 13-S , 19-C ) :   1.0589 B( 14-C , 15-O ) :   1.2114 B( 14-C , 16-C ) :   1.2861
B( 15-O , 61-H ) :   0.9585 B( 16-C , 17-N ) :   1.1761 B( 16-C , 19-C ) :   1.4135
B( 17-N , 18-N ) :   1.0335 B( 17-N , 62-H ) :   0.9248 B( 18-N , 63-H ) :   0.9763
B( 18-N , 64-H ) :   0.9729 B( 19-C , 20-C ) :   1.2006 B( 20-C , 21-C ) :   1.6197
B( 20-C , 65-H ) :   0.9749 B( 21-C , 22-C ) :   1.1588 B( 21-C , 66-H ) :   0.9653
B( 22-C , 23-S ) :   1.0660 B( 22-C , 24-C ) :   1.4406 B( 22-C , 29-C ) :   0.1157
B( 23-S , 29-C ) :   1.0438 B( 24-C , 25-O ) :   1.2152 B( 24-C , 26-C ) :   1.2458
B( 25-O , 67-H ) :   0.9568 B( 26-C , 27-N ) :   1.1849 B( 26-C , 29-C ) :   1.4375
B( 27-N , 28-N ) :   1.0327 B( 27-N , 68-H ) :   0.9258 B( 28-N , 69-H ) :   0.9765
B( 28-N , 70-H ) :   0.9726 B( 29-C , 30-C ) :   1.1985 B( 30-C , 31-C ) :   1.6251
B( 30-C , 71-H ) :   0.9753 B( 31-C , 32-C ) :   1.1524 B( 31-C , 72-H ) :   0.9656
B( 32-C , 33-S ) :   1.0777 B( 32-C , 34-C ) :   1.4276 B( 32-C , 39-C ) :   0.1119
B( 33-S , 39-C ) :   1.0669 B( 34-C , 35-O ) :   1.2054 B( 34-C , 36-C ) :   1.2660
B( 35-O , 73-H ) :   0.9592 B( 36-C , 37-N ) :   1.1676 B( 36-C , 39-C ) :   1.4193
B( 37-N , 38-N ) :   1.0380 B( 37-N , 74-H ) :   0.9086 B( 38-N , 75-H ) :   0.9738
B( 38-N , 76-H ) :   0.9745 B( 39-C , 40-C ) :   1.2293 B( 40-C , 41-C ) :   1.5663
B( 40-C , 77-H ) :   0.9199 B( 41-C , 42-C ) :   1.2279 B( 41-C , 78-H ) :   0.9628
B( 42-C , 43-C ) :   1.5617 B( 42-C , 79-H ) :   0.9601 B( 43-C , 44-C ) :   1.1532
B( 43-C , 47-S ) :   1.0313 B( 44-C , 45-C ) :   1.5943 B( 44-C , 80-H ) :   0.9974
B( 45-C , 46-C ) :   1.1763 B( 45-C , 81-H ) :   0.9921 B( 46-C , 47-S ) :   1.0344
B( 46-C , 48-C ) :   1.5474 B( 48-C , 49-C ) :   1.1596 B( 48-C , 52-S ) :   1.0373
B( 49-C , 50-C ) :   1.6527 B( 49-C , 82-H ) :   0.9918 B( 50-C , 51-C ) :   1.0839
B( 50-C , 83-H ) :   0.9929 B( 51-C , 52-S ) :   1.0103 B( 51-C , 53-C ) :   1.8587
B( 53-C , 84-H ) :   0.9505 B( 53-C , 85-H ) :   0.9415

-----------------------------------------------------------------------------
         ABSORPTION SPECTRUM VIA TRANSITION ELECTRIC DIPOLE MOMENTS
-----------------------------------------------------------------------------
State   Energy  Wavelength   fosc         T2         TX        TY        TZ
        (cm-1)    (nm)                  (au**2)     (au)      (au)      (au)
-----------------------------------------------------------------------------
   0   12392.4    806.9   1.692736154  44.96851   6.63021  -0.51373   0.86308
   1   15749.5    634.9   0.817872792  17.09604  -0.38947  -3.47235  -2.21069
   2   17815.9    561.3   0.105482276   1.94916   0.70751  -1.15873  -0.32547
   3   20769.8    481.5   0.043210054   0.68490  -0.03411   0.81524   0.13831
   4   21496.1    465.2   0.239486995   3.66774   1.47475   0.20595  -1.20434
   5   23057.3    433.7   0.145016787   2.07055  -1.13501  -0.87900  -0.09833
   6   24361.0    410.5   0.152333693   2.05863   0.16311  -1.18077  -0.79863
   7   25526.9    391.7   0.084833526   1.09407  -0.47438  -0.93038   0.05850
   8   26273.8    380.6   0.828309269  10.37876  -0.18533   2.52060   1.99775
   9   26931.9    371.3   0.156394787   1.91175  -0.14771   1.17525   0.71324
  10   27509.9    363.5   0.239117605   2.86153  -1.00688  -1.15718  -0.71320
  11   28261.4    353.8   0.019434827   0.22639  -0.43088   0.00056   0.20183
  12   29322.4    341.0   0.053482117   0.60046   0.10712  -0.36561  -0.67477
  13   30350.0    329.5   0.268257468   2.90984   0.66952  -1.07459  -1.14317
  14   30513.5    327.7   0.101702256   1.09727   0.37296   0.93631   0.28547
  15   30715.8    325.6   0.015943016   0.17088  -0.14206  -0.24072  -0.30455
  16   30905.4    323.6   0.000931083   0.00992  -0.04486   0.08361   0.03025
  17   31563.3    316.8   0.093886679   0.97926   0.57304   0.79239   0.15168
  18   32485.4    307.8   0.098510100   0.99832   0.80474   0.59196  -0.01696
  19   33157.6    301.6   0.143065260   1.42045  -1.05926   0.17198   0.51850
  20   33719.0    296.6   0.037683206   0.36792  -0.24239  -0.55454  -0.04069
  21   34186.4    292.5   0.038109326   0.36699  -0.38295  -0.42288  -0.20374
  22   34458.3    290.2   0.008011385   0.07654   0.22248  -0.14959  -0.06829
  23   34702.6    288.2   0.002889002   0.02741  -0.02493   0.09039   0.13644
  24   35155.5    284.5   0.122325392   1.14551   0.02920   1.01403   0.34116
  25   35653.9    280.5   0.052619479   0.48586  -0.23459   0.51035   0.41277
  26   35812.9    279.2   0.030667144   0.28191  -0.11619   0.41615   0.30860
  27   36199.2    276.2   0.007136758   0.06490   0.23167   0.09743   0.04171
  28   36435.0    274.5   0.002140135   0.01934  -0.11065  -0.05525  -0.06357
  29   36880.1    271.1   0.071264337   0.63615   0.29112   0.70543   0.23188
  30   37605.0    265.9   0.078617337   0.68825   0.64664   0.49587   0.15563
  31   37869.7    264.1   0.045342628   0.39418   0.31995  -0.40415  -0.35843
  32   38199.2    261.8   0.000857835   0.00739   0.06336  -0.01262  -0.05674
  33   38650.0    258.7   0.008346703   0.07110  -0.05008  -0.12135  -0.23208
  34   38922.9    256.9   0.045002199   0.38063  -0.01489   0.58542  -0.19415
  35   39140.0    255.5   0.002137405   0.01798  -0.06469  -0.11499   0.02387
  36   39236.2    254.9   0.013433610   0.11271   0.00424  -0.17543  -0.28622
  37   39678.7    252.0   0.148627043   1.23315  -0.07596   0.93274   0.59781
  38   39717.4    251.8   0.002759264   0.02287   0.02020  -0.14156  -0.04923
  39   40215.7    248.7   0.031051295   0.25419   0.02118   0.37599   0.33522

FINAL SINGLE POINT ENERGY     -4805.185571114663

DIPOLE MOMENT
-------------
                                X             Y             Z
Electronic contribution:     11.95082      -0.82552       0.38667
Nuclear contribution   :     -8.94006       0.70065      -0.30177
                        -----------------------------------------
Total Dipole Moment    :      3.01076      -0.12487       0.08490
                        -----------------------------------------
Magnitude (a.u.)       :      3.01455
Magnitude (Debye)      :      7.66237

Rotational constants in cm-1:     0.001972     0.000320     0.000280
Rotational constants in MHz :    59.120997     9.603089     8.386691

                             ****ORCA TERMINATED NORMALLY****
TOTAL RUN TIME: 0 days 0 hours 5 minutes 55 seconds 845 msec
