                         Program Version 4.2.0 -  RELEASE  -
|  1> # ORCA input file
|  2> # SCF done       -195.201791328259          0.000771832182
|  3> ! CAM-B3LYP def2-SVP def2/J RIJCOSX Grid4 TightSCF
|  4> %maxcore 5000
|  5> %tddft
|  6>     Mode sTDDFT
|  7>     Ethresh 5.0
|  8>     maxcore 5000
|  9> end
| 10>
| 11> %pal
| 12>   nprocs 6
| 13>   end
| 14> * xyz 0 1
| 15>    C       -2.42133        -4.19923         1.76741
| 16>    C       -1.92690        -3.20239         2.52947
| 17>    C       -0.75694        -2.60731         1.97318
| 18>    C        0.00387        -1.54142         2.48743
| 19>    C       -0.39998        -0.83529         3.68766
| 20>    C       -1.65316        -0.42804         4.04273
| 21>    C       -1.67732         0.23219         5.29106
| 22>    C       -0.46094         0.33324         5.90030
| 23>    S        0.75948        -0.39630         4.91274
| 24>    C       -0.12171         0.94668         7.20890
| 25>   Cl       -3.13286         0.85427         5.97213
| 26>    C        1.15314        -1.20425         1.78109
| 27>    C        1.54064        -1.84579         0.58103
| 28>    C        0.74369        -2.86644         0.02874
| 29>    C       -0.37865        -3.23820         0.76378
| 30>    S       -1.50798        -4.49205         0.33044
| 31>    C        1.08624        -3.46536        -1.24431
| 32>    C        1.55580        -2.84070        -2.36617
| 33>    C        1.79178        -3.73807        -3.42882
| 34>    C        1.51981        -5.04382        -3.13508
| 35>    S        0.93677        -5.18043        -1.51281
| 36>    C        1.64941        -6.23391        -4.01322
| 37>   Cl        2.38005        -3.22014        -4.95981
| 38>    C        2.77016        -1.34284         0.08456
| 39>    C        3.27900        -0.31972         0.82790
| 40>    S        2.27617         0.05403         2.21738
| 41>    C        4.49655         0.40505         0.60938
| 42>    C        5.20193         0.55526        -0.56700
| 43>    C        4.73498         0.01936        -1.87213
| 44>    O        5.39855        -0.68790        -2.57676
| 45>    O        3.49404         0.39357        -2.24087
| 46>    C        6.43906         1.24789        -0.38403
| 47>    C        6.60695         1.63034         0.92434
| 48>    S        5.32808         1.14137         1.94410
| 49>    C        7.40688         1.56389        -1.40648
| 50>    C        8.72510         1.89987        -1.18149
| 51>    C        9.40383         2.19052        -2.36835
| 52>    C        8.58300         2.07825        -3.49839
| 53>    S        6.99276         1.60928        -3.10577
| 54>    C        9.36511         2.37411        -4.65075
| 55>    C       10.67132         2.67675        -4.24148
| 56>    C       10.73691         2.58810        -2.79035
| 57>    C       11.80948         2.85165        -1.99090
| 58>    C       11.73307         2.74518        -0.58606
| 59>    N       11.66632         2.66584         0.55598
| 60>    C       13.05428         3.27536        -2.50382
| 61>    N       14.06488         3.63526        -2.90727
| 62>    C       11.52475         2.96891        -5.30981
| 63>    C       10.87365         2.88538        -6.52368
| 64>    S        9.17554         2.45914        -6.34262
| 65>    C       11.40667         3.13800        -7.82873
| 66>    C       12.71791         3.03628        -8.25803
| 67>    C       13.80677         2.42966        -7.46121
| 68>    O       14.92049         2.87692        -7.40618
| 69>    O       13.49838         1.29319        -6.81000
| 70>    C       12.89457         3.49152        -9.60355
| 71>    C       11.70208         3.88990       -10.15481
| 72>    S       10.37982         3.76348        -9.08206
| 73>    C       14.11695         3.50640       -10.37330
| 74>    C       14.17565         3.38242       -11.74595
| 75>    C       15.48098         3.50881       -12.22872
| 76>    C       16.40572         3.74903       -11.20551
| 77>    S       15.69088         3.79114        -9.66101
| 78>    C       17.70338         3.84869       -11.79734
| 79>    C       17.58248         3.67978       -13.17935
| 80>    C       16.18267         3.46367       -13.50233
| 81>    C       15.63511         3.26850       -14.73770
| 82>    C       14.24940         3.08297       -14.91799
| 83>    N       13.12105         2.93681       -15.06572
| 84>    C       16.41314         3.24581       -15.91317
| 85>    N       17.03952         3.22365       -16.87359
| 86>    C       18.82121         3.76758       -13.84404
| 87>    C       19.83680         3.99651       -12.96660
| 88>    S       19.31798         4.11226       -11.31683
| 89>    H       -3.28373        -4.80734         1.95900
| 90>    H       -2.35278        -2.90424         3.46927
| 91>    H       -2.52387        -0.55157         3.42575
| 92>    H       -0.99694         1.44486         7.61842
| 93>    H        0.68193         1.67264         7.09477
| 94>    H        0.21162         0.18582         7.91467
| 95>    H        1.69613        -1.77931        -2.45899
| 96>    H        0.70699        -6.43555        -4.52459
| 97>    H        1.91406        -7.11300        -3.43021
| 98>    H        2.41409        -6.05423        -4.76598
| 99>    H        3.27728        -1.77024        -0.76040
|100>    H        3.06304         0.96072        -1.58785
|101>    H        7.42201         2.18871         1.33822
|102>    H        9.17403         1.90901        -0.20589
|103>    H       12.55822         3.24779        -5.20970
|104>    H       12.58100         1.01890        -6.93862
|105>    H       11.53979         4.27159       -11.14245
|106>    H       13.31472         3.18363       -12.35751
|107>    H       18.95870         3.66763       -14.90518
|108>    H       20.88027         4.10696       -13.18402
|109> *
|110>
|111>                          ****END OF INPUT****

CARTESIAN COORDINATES (ANGSTROEM)
---------------------------------
  C     -2.421330   -4.199230    1.767410
  C     -1.926900   -3.202390    2.529470
  C     -0.756940   -2.607310    1.973180
  C      0.003870   -1.541420    2.487430
  C     -0.399980   -0.835290    3.687660
  C     -1.653160   -0.428040    4.042730
  C     -1.677320    0.232190    5.291060
  C     -0.460940    0.333240    5.900300
  S      0.759480   -0.396300    4.912740
  C     -0.121710    0.946680    7.208900
  Cl    -3.132860    0.854270    5.972130
  C      1.153140   -1.204250    1.781090
  C      1.540640   -1.845790    0.581030
  C      0.743690   -2.866440    0.028740
  C     -0.378650   -3.238200    0.763780
  S     -1.507980   -4.492050    0.330440
  C      1.086240   -3.465360   -1.244310
  C      1.555800   -2.840700   -2.366170
  C      1.791780   -3.738070   -3.428820
  C      1.519810   -5.043820   -3.135080
  S      0.936770   -5.180430   -1.512810
  C      1.649410   -6.233910   -4.013220
  Cl     2.380050   -3.220140   -4.959810
  C      2.770160   -1.342840    0.084560
  C      3.279000   -0.319720    0.827900
  S      2.276170    0.054030    2.217380
  C      4.496550    0.405050    0.609380
  C      5.201930    0.555260   -0.567000
  C      4.734980    0.019360   -1.872130
  O      5.398550   -0.687900   -2.576760
  O      3.494040    0.393570   -2.240870
  C      6.439060    1.247890   -0.384030
  C      6.606950    1.630340    0.924340
  S      5.328080    1.141370    1.944100
  C      7.406880    1.563890   -1.406480
  C      8.725100    1.899870   -1.181490
  C      9.403830    2.190520   -2.368350
  C      8.583000    2.078250   -3.498390
  S      6.992760    1.609280   -3.105770
  C      9.365110    2.374110   -4.650750
  C     10.671320    2.676750   -4.241480
  C     10.736910    2.588100   -2.790350
  C     11.809480    2.851650   -1.990900
  C     11.733070    2.745180   -0.586060
  N     11.666320    2.665840    0.555980
  C     13.054280    3.275360   -2.503820
  N     14.064880    3.635260   -2.907270
  C     11.524750    2.968910   -5.309810
  C     10.873650    2.885380   -6.523680
  S      9.175540    2.459140   -6.342620
  C     11.406670    3.138000   -7.828730
  C     12.717910    3.036280   -8.258030
  C     13.806770    2.429660   -7.461210
  O     14.920490    2.876920   -7.406180
  O     13.498380    1.293190   -6.810000
  C     12.894570    3.491520   -9.603550
  C     11.702080    3.889900  -10.154810
  S     10.379820    3.763480   -9.082060
  C     14.116950    3.506400  -10.373300
  C     14.175650    3.382420  -11.745950
  C     15.480980    3.508810  -12.228720
  C     16.405720    3.749030  -11.205510
  S     15.690880    3.791140   -9.661010
  C     17.703380    3.848690  -11.797340
  C     17.582480    3.679780  -13.179350
  C     16.182670    3.463670  -13.502330
  C     15.635110    3.268500  -14.737700
  C     14.249400    3.082970  -14.917990
  N     13.121050    2.936810  -15.065720
  C     16.413140    3.245810  -15.913170
  N     17.039520    3.223650  -16.873590
  C     18.821210    3.767580  -13.844040
  C     19.836800    3.996510  -12.966600
  S     19.317980    4.112260  -11.316830
  H     -3.283730   -4.807340    1.959000
  H     -2.352780   -2.904240    3.469270
  H     -2.523870   -0.551570    3.425750
  H     -0.996940    1.444860    7.618420
  H      0.681930    1.672640    7.094770
  H      0.211620    0.185820    7.914670
  H      1.696130   -1.779310   -2.458990
  H      0.706990   -6.435550   -4.524590
  H      1.914060   -7.113000   -3.430210
  H      2.414090   -6.054230   -4.765980
  H      3.277280   -1.770240   -0.760400
  H      3.063040    0.960720   -1.587850
  H      7.422010    2.188710    1.338220
  H      9.174030    1.909010   -0.205890
  H     12.558220    3.247790   -5.209700
  H     12.581000    1.018900   -6.938620
  H     11.539790    4.271590  -11.142450
  H     13.314720    3.183630  -12.357510
  H     18.958700    3.667630  -14.905180
  H     20.880270    4.106960  -13.184020

 Total Charge           Charge          ....    0
 Multiplicity           Mult            ....    1
 Number of Electrons    NEL             ....  598
 Basis Dimension        Dim             .... 1184

ORBITAL ENERGIES
----------------

  NO   OCC          E(Eh)            E(eV)
   0   2.0000    -101.587902     -2764.3474
   1   2.0000    -101.580505     -2764.1461
   2   2.0000     -88.997206     -2421.7371
   3   2.0000     -88.989995     -2421.5409
   4   2.0000     -88.983209     -2421.3562
   5   2.0000     -88.981910     -2421.3209
   6   2.0000     -88.975849     -2421.1559
   7   2.0000     -88.972951     -2421.0771
   8   2.0000     -88.964287     -2420.8413
   9   2.0000     -88.962450     -2420.7913
  10   2.0000     -88.958756     -2420.6908
  11   2.0000     -88.955271     -2420.5960
  12   2.0000     -19.275269      -524.5067
  13   2.0000     -19.267097      -524.2844
  14   2.0000     -19.218467      -522.9611
  15   2.0000     -19.214256      -522.8465
  16   2.0000     -14.431822      -392.7098
  17   2.0000     -14.428999      -392.6330
  18   2.0000     -14.419438      -392.3729
  19   2.0000     -14.417791      -392.3280
  20   2.0000     -10.421748      -283.5902
  21   2.0000     -10.417050      -283.4623
  22   2.0000     -10.365522      -282.0602
  23   2.0000     -10.353042      -281.7206
  24   2.0000     -10.349423      -281.6221
  25   2.0000     -10.339236      -281.3449
  26   2.0000     -10.338948      -281.3371
  27   2.0000     -10.337964      -281.3103
  28   2.0000     -10.337614      -281.3008
  29   2.0000     -10.334988      -281.2293
  30   2.0000     -10.332334      -281.1571
  31   2.0000     -10.330135      -281.0973
  32   2.0000     -10.328708      -281.0584
  33   2.0000     -10.326501      -280.9984
  34   2.0000     -10.324609      -280.9469
  35   2.0000     -10.323058      -280.9047
  36   2.0000     -10.320796      -280.8431
  37   2.0000     -10.318878      -280.7909
  38   2.0000     -10.316912      -280.7374
  39   2.0000     -10.316618      -280.7295
  40   2.0000     -10.316311      -280.7211
  41   2.0000     -10.315551      -280.7004
  42   2.0000     -10.314811      -280.6803
  43   2.0000     -10.311459      -280.5891
  44   2.0000     -10.311094      -280.5791
  45   2.0000     -10.311017      -280.5770
  46   2.0000     -10.310797      -280.5711
  47   2.0000     -10.310377      -280.5596
  48   2.0000     -10.310093      -280.5519
  49   2.0000     -10.309569      -280.5376
  50   2.0000     -10.309550      -280.5371
  51   2.0000     -10.308317      -280.5036
  52   2.0000     -10.307322      -280.4765
  53   2.0000     -10.306993      -280.4675
  54   2.0000     -10.306667      -280.4587
  55   2.0000     -10.305501      -280.4269
  56   2.0000     -10.304146      -280.3901
  57   2.0000     -10.303562      -280.3742
  58   2.0000     -10.302750      -280.3521
  59   2.0000     -10.302659      -280.3496
  60   2.0000     -10.300301      -280.2854
  61   2.0000     -10.300007      -280.2774
  62   2.0000     -10.296076      -280.1705
  63   2.0000     -10.294234      -280.1203
  64   2.0000     -10.290914      -280.0300
  65   2.0000     -10.287361      -279.9333
  66   2.0000     -10.286921      -279.9214
  67   2.0000     -10.286438      -279.9082
  68   2.0000     -10.284637      -279.8592
  69   2.0000     -10.284206      -279.8475
  70   2.0000     -10.280302      -279.7413
  71   2.0000     -10.279672      -279.7241
  72   2.0000     -10.278736      -279.6986
  73   2.0000     -10.276410      -279.6353
  74   2.0000      -9.542645      -259.6686
  75   2.0000      -9.535291      -259.4685
  76   2.0000      -8.091899      -220.1918
  77   2.0000      -8.084066      -219.9786
  78   2.0000      -8.079184      -219.8458
  79   2.0000      -8.077903      -219.8109
  80   2.0000      -8.070900      -219.6204
  81   2.0000      -8.066419      -219.4984
  82   2.0000      -8.059715      -219.3160
  83   2.0000      -8.058255      -219.2763
  84   2.0000      -8.054481      -219.1736
  85   2.0000      -8.051096      -219.0815
  86   2.0000      -7.312874      -198.9934
  87   2.0000      -7.305537      -198.7938
  88   2.0000      -7.302731      -198.7174
  89   2.0000      -7.302651      -198.7152
  90   2.0000      -7.295444      -198.5191
  91   2.0000      -7.295204      -198.5126
  92   2.0000      -6.061164      -164.9327
  93   2.0000      -6.056934      -164.8175
  94   2.0000      -6.054265      -164.7449
  95   2.0000      -6.053291      -164.7184
  96   2.0000      -6.048933      -164.5998
  97   2.0000      -6.048400      -164.5853
  98   2.0000      -6.047147      -164.5512
  99   2.0000      -6.046662      -164.5380
 100   2.0000      -6.044023      -164.4662
 101   2.0000      -6.042763      -164.4320
 102   2.0000      -6.041558      -164.3992
 103   2.0000      -6.040278      -164.3643
 104   2.0000      -6.040103      -164.3596
 105   2.0000      -6.035717      -164.2402
 106   2.0000      -6.035701      -164.2398
 107   2.0000      -6.033558      -164.1815
 108   2.0000      -6.031075      -164.1139
 109   2.0000      -6.029448      -164.0696
 110   2.0000      -6.029052      -164.0588
 111   2.0000      -6.027550      -164.0180
 112   2.0000      -6.025201      -163.9541
 113   2.0000      -6.023705      -163.9133
 114   2.0000      -6.023338      -163.9034
 115   2.0000      -6.020940      -163.8381
 116   2.0000      -6.020781      -163.8338
 117   2.0000      -6.020347      -163.8220
 118   2.0000      -6.019612      -163.8020
 119   2.0000      -6.016606      -163.7202
 120   2.0000      -6.016317      -163.7123
 121   2.0000      -6.012611      -163.6115
 122   2.0000      -1.199129       -32.6299
 123   2.0000      -1.193416       -32.4745
 124   2.0000      -1.115347       -30.3501
 125   2.0000      -1.110548       -30.2195
 126   2.0000      -1.047768       -28.5112
 127   2.0000      -1.029602       -28.0169
 128   2.0000      -1.023900       -27.8617
 129   2.0000      -1.023188       -27.8424
 130   2.0000      -1.016796       -27.6684
 131   2.0000      -1.012450       -27.5502
 132   2.0000      -1.009295       -27.4643
 133   2.0000      -1.007832       -27.4245
 134   2.0000      -1.004685       -27.3389
 135   2.0000      -0.997879       -27.1537
 136   2.0000      -0.996536       -27.1171
 137   2.0000      -0.994277       -27.0557
 138   2.0000      -0.982441       -26.7336
 139   2.0000      -0.978960       -26.6389
 140   2.0000      -0.959593       -26.1119
 141   2.0000      -0.947932       -25.7945
 142   2.0000      -0.943540       -25.6750
 143   2.0000      -0.941081       -25.6081
 144   2.0000      -0.922584       -25.1048
 145   2.0000      -0.915511       -24.9123
 146   2.0000      -0.903721       -24.5915
 147   2.0000      -0.899825       -24.4855
 148   2.0000      -0.880292       -23.9540
 149   2.0000      -0.878880       -23.9155
 150   2.0000      -0.874859       -23.8061
 151   2.0000      -0.869856       -23.6700
 152   2.0000      -0.862316       -23.4648
 153   2.0000      -0.856560       -23.3082
 154   2.0000      -0.855115       -23.2689
 155   2.0000      -0.851861       -23.1803
 156   2.0000      -0.845300       -23.0018
 157   2.0000      -0.843675       -22.9576
 158   2.0000      -0.838128       -22.8066
 159   2.0000      -0.818100       -22.2616
 160   2.0000      -0.811534       -22.0830
 161   2.0000      -0.806982       -21.9591
 162   2.0000      -0.800391       -21.7797
 163   2.0000      -0.794716       -21.6253
 164   2.0000      -0.784829       -21.3563
 165   2.0000      -0.780148       -21.2289
 166   2.0000      -0.769535       -20.9401
 167   2.0000      -0.763268       -20.7696
 168   2.0000      -0.749085       -20.3836
 169   2.0000      -0.745903       -20.2971
 170   2.0000      -0.733338       -19.9552
 171   2.0000      -0.722748       -19.6670
 172   2.0000      -0.718537       -19.5524
 173   2.0000      -0.710472       -19.3329
 174   2.0000      -0.704266       -19.1641
 175   2.0000      -0.700087       -19.0503
 176   2.0000      -0.693243       -18.8641
 177   2.0000      -0.690265       -18.7831
 178   2.0000      -0.687474       -18.7071
 179   2.0000      -0.683860       -18.6088
 180   2.0000      -0.676183       -18.3999
 181   2.0000      -0.669032       -18.2053
 182   2.0000      -0.663064       -18.0429
 183   2.0000      -0.660369       -17.9695
 184   2.0000      -0.654109       -17.7992
 185   2.0000      -0.650956       -17.7134
 186   2.0000      -0.645498       -17.5649
 187   2.0000      -0.633123       -17.2281
 188   2.0000      -0.631196       -17.1757
 189   2.0000      -0.626706       -17.0535
 190   2.0000      -0.621210       -16.9040
 191   2.0000      -0.616570       -16.7777
 192   2.0000      -0.609972       -16.5982
 193   2.0000      -0.607947       -16.5431
 194   2.0000      -0.602945       -16.4070
 195   2.0000      -0.601070       -16.3559
 196   2.0000      -0.592488       -16.1224
 197   2.0000      -0.587148       -15.9771
 198   2.0000      -0.582800       -15.8588
 199   2.0000      -0.575656       -15.6644
 200   2.0000      -0.565802       -15.3963
 201   2.0000      -0.562117       -15.2960
 202   2.0000      -0.556502       -15.1432
 203   2.0000      -0.553191       -15.0531
 204   2.0000      -0.551062       -14.9952
 205   2.0000      -0.549303       -14.9473
 206   2.0000      -0.547808       -14.9066
 207   2.0000      -0.544865       -14.8265
 208   2.0000      -0.542107       -14.7515
 209   2.0000      -0.539476       -14.6799
 210   2.0000      -0.532161       -14.4808
 211   2.0000      -0.530286       -14.4298
 212   2.0000      -0.528807       -14.3896
 213   2.0000      -0.526530       -14.3276
 214   2.0000      -0.522838       -14.2271
 215   2.0000      -0.521406       -14.1882
 216   2.0000      -0.518991       -14.1225
 217   2.0000      -0.515778       -14.0350
 218   2.0000      -0.514935       -14.0121
 219   2.0000      -0.512892       -13.9565
 220   2.0000      -0.510895       -13.9022
 221   2.0000      -0.507868       -13.8198
 222   2.0000      -0.505207       -13.7474
 223   2.0000      -0.503793       -13.7089
 224   2.0000      -0.499513       -13.5924
 225   2.0000      -0.498374       -13.5615
 226   2.0000      -0.494803       -13.4643
 227   2.0000      -0.494749       -13.4628
 228   2.0000      -0.490829       -13.3561
 229   2.0000      -0.487286       -13.2597
 230   2.0000      -0.483394       -13.1538
 231   2.0000      -0.481958       -13.1147
 232   2.0000      -0.481537       -13.1033
 233   2.0000      -0.479506       -13.0480
 234   2.0000      -0.478666       -13.0252
 235   2.0000      -0.476601       -12.9690
 236   2.0000      -0.472267       -12.8510
 237   2.0000      -0.470357       -12.7991
 238   2.0000      -0.470201       -12.7948
 239   2.0000      -0.467303       -12.7160
 240   2.0000      -0.466851       -12.7037
 241   2.0000      -0.465297       -12.6614
 242   2.0000      -0.463922       -12.6240
 243   2.0000      -0.462865       -12.5952
 244   2.0000      -0.461449       -12.5567
 245   2.0000      -0.460012       -12.5175
 246   2.0000      -0.459286       -12.4978
 247   2.0000      -0.456666       -12.4265
 248   2.0000      -0.454409       -12.3651
 249   2.0000      -0.452925       -12.3247
 250   2.0000      -0.451330       -12.2813
 251   2.0000      -0.450321       -12.2539
 252   2.0000      -0.447158       -12.1678
 253   2.0000      -0.446100       -12.1390
 254   2.0000      -0.443617       -12.0714
 255   2.0000      -0.440465       -11.9857
 256   2.0000      -0.440365       -11.9829
 257   2.0000      -0.439448       -11.9580
 258   2.0000      -0.438494       -11.9320
 259   2.0000      -0.434512       -11.8237
 260   2.0000      -0.429770       -11.6946
 261   2.0000      -0.427692       -11.6381
 262   2.0000      -0.427392       -11.6299
 263   2.0000      -0.425509       -11.5787
 264   2.0000      -0.425044       -11.5660
 265   2.0000      -0.421354       -11.4656
 266   2.0000      -0.419511       -11.4155
 267   2.0000      -0.416054       -11.3214
 268   2.0000      -0.415170       -11.2973
 269   2.0000      -0.414476       -11.2785
 270   2.0000      -0.406024       -11.0485
 271   2.0000      -0.404846       -11.0164
 272   2.0000      -0.403608       -10.9827
 273   2.0000      -0.398739       -10.8502
 274   2.0000      -0.395340       -10.7578
 275   2.0000      -0.385052       -10.4778
 276   2.0000      -0.383736       -10.4420
 277   2.0000      -0.381394       -10.3783
 278   2.0000      -0.374743       -10.1973
 279   2.0000      -0.374431       -10.1888
 280   2.0000      -0.370376       -10.0785
 281   2.0000      -0.362859        -9.8739
 282   2.0000      -0.355446        -9.6722
 283   2.0000      -0.348204        -9.4751
 284   2.0000      -0.346192        -9.4204
 285   2.0000      -0.335693        -9.1347
 286   2.0000      -0.330295        -8.9878
 287   2.0000      -0.329844        -8.9755
 288   2.0000      -0.324662        -8.8345
 289   2.0000      -0.320368        -8.7176
 290   2.0000      -0.317003        -8.6261
 291   2.0000      -0.315495        -8.5851
 292   2.0000      -0.306454        -8.3390
 293   2.0000      -0.304602        -8.2886
 294   2.0000      -0.294290        -8.0080
 295   2.0000      -0.290156        -7.8955
 296   2.0000      -0.267464        -7.2781
 297   2.0000      -0.254840        -6.9346
 298   2.0000      -0.251052        -6.8315
 299   0.0000      -0.105066        -2.8590
 300   0.0000      -0.087604        -2.3838
 301   0.0000      -0.057875        -1.5749
 302   0.0000      -0.050251        -1.3674
 303   0.0000      -0.025195        -0.6856

MULLIKEN ATOMIC CHARGES
-----------------------
   0 C :   -0.045681
   1 C :    0.002508
   2 C :    0.060051
   3 C :    0.134119
   4 C :   -0.212894
   5 C :    0.032722
   6 C :    0.081484
   7 C :   -0.264761
   8 S :    0.141526
   9 C :    0.122588
  10 Cl:   -0.088525
  11 C :   -0.131019
  12 C :    0.070442
  13 C :    0.145492
  14 C :   -0.161856
  15 S :    0.118852
  16 C :   -0.212200
  17 C :    0.032540
  18 C :    0.082441
  19 C :   -0.264383
  20 S :    0.143285
  21 C :    0.120169
  22 Cl:   -0.080786
  23 C :   -0.084096
  24 C :   -0.105798
  25 S :    0.125989
  26 C :   -0.104285
  27 C :   -0.030030
  28 C :    0.114358
  29 O :   -0.165430
  30 O :   -0.154734
  31 C :    0.126884
  32 C :   -0.133615
  33 S :    0.176114
  34 C :   -0.082748
  35 C :   -0.048519
  36 C :    0.019246
  37 C :   -0.096421
  38 S :    0.208919
  39 C :   -0.092914
  40 C :   -0.003798
  41 C :    0.306641
  42 C :   -0.296606
  43 C :   -0.188408
  44 N :    0.165133
  45 C :   -0.190208
  46 N :    0.187150
  47 C :   -0.032488
  48 C :   -0.159568
  49 S :    0.200280
  50 C :   -0.130346
  51 C :   -0.010757
  52 C :    0.150816
  53 O :   -0.179473
  54 O :   -0.152383
  55 C :    0.109611
  56 C :   -0.129943
  57 S :    0.164710
  58 C :   -0.113171
  59 C :   -0.044500
  60 C :    0.008001
  61 C :   -0.098999
  62 S :    0.241635
  63 C :   -0.117539
  64 C :   -0.033401
  65 C :    0.300022
  66 C :   -0.304070
  67 C :   -0.188828
  68 N :    0.159748
  69 C :   -0.193649
  70 N :    0.169397
  71 C :    0.034250
  72 C :   -0.084711
  73 S :    0.182656
  74 H :    0.030020
  75 H :   -0.008060
  76 H :   -0.009795
  77 H :    0.025474
  78 H :    0.032928
  79 H :    0.038603
  80 H :   -0.013317
  81 H :    0.042566
  82 H :    0.022858
  83 H :    0.032980
  84 H :    0.030384
  85 H :    0.197602
  86 H :    0.039486
  87 H :    0.000576
  88 H :    0.035585
  89 H :    0.194847
  90 H :    0.039071
  91 H :   -0.001536
  92 H :    0.010144
  93 H :    0.033351
Sum of atomic charges:   -0.0000000

LOEWDIN ATOMIC CHARGES
----------------------
   0 C :   -0.157106
   1 C :   -0.063749
   2 C :   -0.033160
   3 C :   -0.057564
   4 C :   -0.174693
   5 C :   -0.067326
   6 C :   -0.178098
   7 C :   -0.197897
   8 S :    0.434986
   9 C :   -0.061153
  10 Cl:    0.127442
  11 C :   -0.149065
  12 C :   -0.041730
  13 C :   -0.046186
  14 C :   -0.155592
  15 S :    0.404653
  16 C :   -0.180748
  17 C :   -0.062843
  18 C :   -0.177435
  19 C :   -0.197945
  20 S :    0.438258
  21 C :   -0.060322
  22 Cl:    0.133186
  23 C :   -0.042222
  24 C :   -0.199186
  25 S :    0.392278
  26 C :   -0.178702
  27 C :   -0.113803
  28 C :    0.060623
  29 O :   -0.143253
  30 O :   -0.026011
  31 C :   -0.061561
  32 C :   -0.175212
  33 S :    0.475830
  34 C :   -0.160840
  35 C :   -0.028195
  36 C :   -0.069281
  37 C :   -0.190440
  38 S :    0.517905
  39 C :   -0.170505
  40 C :   -0.073595
  41 C :    0.081071
  42 C :   -0.100300
  43 C :   -0.013939
  44 N :   -0.036013
  45 C :   -0.021095
  46 N :   -0.022639
  47 C :   -0.021320
  48 C :   -0.213949
  49 S :    0.474552
  50 C :   -0.187287
  51 C :   -0.115043
  52 C :    0.080793
  53 O :   -0.155135
  54 O :   -0.021623
  55 C :   -0.054354
  56 C :   -0.177964
  57 S :    0.466124
  58 C :   -0.181965
  59 C :   -0.029227
  60 C :   -0.080934
  61 C :   -0.189101
  62 S :    0.539534
  63 C :   -0.181465
  64 C :   -0.079648
  65 C :    0.087529
  66 C :   -0.114684
  67 C :   -0.014428
  68 N :   -0.046462
  69 C :   -0.017633
  70 N :   -0.040791
  71 C :   -0.035908
  72 C :   -0.181701
  73 S :    0.479272
  74 H :    0.026957
  75 H :    0.032796
  76 H :    0.034142
  77 H :    0.034491
  78 H :    0.038464
  79 H :    0.040553
  80 H :    0.032152
  81 H :    0.041941
  82 H :    0.035034
  83 H :    0.037341
  84 H :    0.038661
  85 H :    0.099360
  86 H :    0.030122
  87 H :    0.038160
  88 H :    0.045937
  89 H :    0.095753
  90 H :    0.030500
  91 H :    0.036029
  92 H :    0.041463
  93 H :    0.026132

  Mayer bond orders larger than 0.100000
B(  0-C ,  1-C ) :   1.6329 B(  0-C , 15-S ) :   1.1098 B(  0-C , 74-H ) :   0.9673
B(  1-C ,  2-C ) :   1.1863 B(  1-C , 75-H ) :   0.9905 B(  2-C ,  3-C ) :   1.3395
B(  2-C , 14-C ) :   1.2794 B(  3-C ,  4-C ) :   0.9798 B(  3-C , 11-C ) :   1.3947
B(  4-C ,  5-C ) :   1.5530 B(  4-C ,  8-S ) :   1.1331 B(  5-C ,  6-C ) :   1.2134
B(  5-C , 76-H ) :   1.0093 B(  6-C ,  7-C ) :   1.6028 B(  6-C , 10-Cl) :   1.0068
B(  7-C ,  8-S ) :   1.1284 B(  7-C ,  9-C ) :   1.0836 B(  9-C , 77-H ) :   0.9444
B(  9-C , 78-H ) :   0.9475 B(  9-C , 79-H ) :   0.9488 B( 11-C , 12-C ) :   1.2848
B( 11-C , 25-S ) :   1.0551 B( 12-C , 13-C ) :   1.3285 B( 12-C , 23-C ) :   1.1691
B( 13-C , 14-C ) :   1.3987 B( 13-C , 16-C ) :   0.9937 B( 14-C , 15-S ) :   1.0732
B( 16-C , 17-C ) :   1.5335 B( 16-C , 20-S ) :   1.1326 B( 17-C , 18-C ) :   1.2299
B( 17-C , 80-H ) :   1.0061 B( 18-C , 19-C ) :   1.5876 B( 18-C , 22-Cl) :   1.0282
B( 19-C , 20-S ) :   1.1330 B( 19-C , 21-C ) :   1.0867 B( 21-C , 81-H ) :   0.9493
B( 21-C , 82-H ) :   0.9461 B( 21-C , 83-H ) :   0.9469 B( 23-C , 24-C ) :   1.5886
B( 23-C , 84-H ) :   0.9823 B( 24-C , 25-S ) :   1.0591 B( 24-C , 26-C ) :   1.0648
B( 26-C , 27-C ) :   1.5480 B( 26-C , 33-S ) :   1.1712 B( 27-C , 28-C ) :   0.8891
B( 27-C , 31-C ) :   1.2547 B( 28-C , 29-O ) :   2.1633 B( 28-C , 30-O ) :   1.2214
B( 30-O , 85-H ) :   0.9425 B( 31-C , 32-C ) :   1.5497 B( 31-C , 34-C ) :   1.0414
B( 32-C , 33-S ) :   1.1527 B( 32-C , 86-H ) :   0.9618 B( 34-C , 35-C ) :   1.4953
B( 34-C , 38-S ) :   1.1283 B( 35-C , 36-C ) :   1.2762 B( 35-C , 87-H ) :   0.9965
B( 36-C , 37-C ) :   1.4436 B( 36-C , 41-C ) :   0.9937 B( 37-C , 38-S ) :   1.1477
B( 37-C , 39-C ) :   1.1679 B( 39-C , 40-C ) :   1.4528 B( 39-C , 49-S ) :   1.1278
B( 40-C , 41-C ) :   0.9932 B( 40-C , 47-C ) :   1.2863 B( 41-C , 42-C ) :   1.7136
B( 42-C , 43-C ) :   1.1346 B( 42-C , 45-C ) :   1.1330 B( 43-C , 44-N ) :   2.9890
B( 45-C , 46-N ) :   2.9927 B( 47-C , 48-C ) :   1.4901 B( 47-C , 88-H ) :   0.9843
B( 48-C , 49-S ) :   1.0995 B( 48-C , 50-C ) :   1.0692 B( 50-C , 51-C ) :   1.5116
B( 50-C , 57-S ) :   1.1778 B( 51-C , 52-C ) :   0.9090 B( 51-C , 55-C ) :   1.2596
B( 52-C , 53-O ) :   2.1009 B( 52-C , 54-O ) :   1.2489 B( 54-O , 89-H ) :   0.9452
B( 55-C , 56-C ) :   1.5617 B( 55-C , 58-C ) :   1.0252 B( 56-C , 57-S ) :   1.1441
B( 56-C , 90-H ) :   0.9632 B( 58-C , 59-C ) :   1.4907 B( 58-C , 62-S ) :   1.1338
B( 59-C , 60-C ) :   1.2812 B( 59-C , 91-H ) :   0.9960 B( 60-C , 61-C ) :   1.4431
B( 60-C , 65-C ) :   0.9984 B( 61-C , 62-S ) :   1.1227 B( 61-C , 63-C ) :   1.1665
B( 63-C , 64-C ) :   1.4671 B( 63-C , 73-S ) :   1.1429 B( 64-C , 65-C ) :   1.0140
B( 64-C , 71-C ) :   1.2752 B( 65-C , 66-C ) :   1.7004 B( 66-C , 67-C ) :   1.1365
B( 66-C , 69-C ) :   1.1296 B( 67-C , 68-N ) :   2.9898 B( 69-C , 70-N ) :   3.0042
B( 71-C , 72-C ) :   1.5500 B( 71-C , 92-H ) :   0.9962 B( 72-C , 73-S ) :   1.1496
B( 72-C , 93-H ) :   0.9646

-----------------------------------------------------------------------------
         ABSORPTION SPECTRUM VIA TRANSITION ELECTRIC DIPOLE MOMENTS
-----------------------------------------------------------------------------
State   Energy  Wavelength   fosc         T2         TX        TY        TZ
        (cm-1)    (nm)                  (au**2)     (au)      (au)      (au)
-----------------------------------------------------------------------------
   0   14379.7    695.4   0.105753367   2.42113  -0.91185  -0.36517   1.20678
   1   16138.6    619.6   0.030734069   0.62695   0.70700   0.05684  -0.35195
   2   21843.1    457.8   0.006998089   0.10547   0.21073   0.19429   0.15270
   3   22474.1    445.0   0.015973989   0.23399  -0.31515  -0.27457   0.24349
   4   25632.2    390.1   0.502737912   6.45701  -1.28049  -1.96817  -0.97143
   5   27182.3    367.9   0.149380896   1.80919  -0.88779  -0.25420   0.97796
   6   27231.5    367.2   0.207910019   2.51350  -0.94748  -0.36301   1.21820
   7   28431.2    351.7   1.144515727  13.25261  -1.53538  -0.51958   3.25964
   8   29807.1    335.5   0.371317909   4.10111  -1.82234  -0.80433   0.36502
   9   30555.8    327.3   0.074163770   0.79905  -0.14459   0.11931   0.87402
  10   30714.9    325.6   0.000287522   0.00308  -0.00006   0.00385  -0.05538
  11   31135.8    321.2   0.591193436   6.25093   0.75624  -0.15138  -2.37826
  12   31435.3    318.1   0.448562939   4.69766  -1.29377   0.53476   1.65464
  13   31658.7    315.9   0.171891011   1.78746  -0.93328  -0.34163   0.89428
  14   31865.7    313.8   0.287728434   2.97259   1.35667   0.47438   0.95237
  15   31949.7    313.0   0.802366021   8.26764  -2.53741  -0.74029  -1.13187
  16   33185.6    301.3   0.156966916   1.55716  -1.16825  -0.23907  -0.36770
  17   33291.6    300.4   0.424607102   4.19882  -1.16318  -0.35094   1.65005
  18   33539.7    298.2   0.233422555   2.29118  -0.29052  -0.07156  -1.48380
  19   33918.2    294.8   0.004631586   0.04495  -0.11195  -0.00477  -0.17999
  20   34518.7    289.7   0.034066326   0.32490   0.53942  -0.02791  -0.18205
  21   34828.2    287.1   0.071395090   0.67486   0.16752  -0.05293  -0.80249
  22   34854.6    286.9   0.061951478   0.58515  -0.29780  -0.01497   0.70445
  23   35042.0    285.4   0.001221027   0.01147  -0.08129  -0.06962   0.00401
  24   36018.8    277.6   0.000525074   0.00480   0.05927   0.01156  -0.03394
  25   36252.3    275.8   0.166979410   1.51636  -1.02232  -0.08649   0.68098
  26   36542.1    273.7   0.422488723   3.80625  -1.87326  -0.13748   0.52748
  27   36642.4    272.9   0.050852889   0.45688  -0.62690  -0.24255  -0.07106
  28   36943.9    270.7   0.281844003   2.51155   1.45030  -0.13693  -0.62404
  29   37427.7    267.2   0.012293980   0.10814   0.06558   0.32143   0.02276
  30   37612.3    265.9   0.036954859   0.32346   0.55934   0.00498  -0.10280
  31   37889.7    263.9   0.059177792   0.51418  -0.04965   0.15147  -0.69912
  32   38295.9    261.1   0.073844799   0.63481  -0.53162  -0.32268   0.49806
  33   38664.4    258.6   0.166710545   1.41947  -0.83213  -0.69268  -0.49723
  34   38928.0    256.9   0.008909887   0.07535  -0.04759  -0.17409   0.20683
  35   39012.6    256.3   0.008660441   0.07308   0.24968   0.10061   0.02484
  36   39175.8    255.3   0.010045739   0.08442   0.27738  -0.03390  -0.07957
  37   39508.8    253.1   0.104129034   0.86767  -0.76758  -0.52461   0.05719
  38   39807.6    251.2   0.000048862   0.00040   0.00007  -0.00759   0.01861
  39   39871.5    250.8   0.216318545   1.78611  -1.04037  -0.41609   0.72843

FINAL SINGLE POINT ENERGY     -7487.199580936847

DIPOLE MOMENT
-------------
                                X             Y             Z
Electronic contribution:      9.62946      12.85307      -9.55249
Nuclear contribution   :    -12.85411     -13.11146      12.25075
                        -----------------------------------------
Total Dipole Moment    :     -3.22465      -0.25839       2.69826
                        -----------------------------------------
Magnitude (a.u.)       :      4.21257
Magnitude (Debye)      :     10.70750

Rotational constants in cm-1:     0.001582     0.000179     0.000165
Rotational constants in MHz :    47.416242     5.359592     4.960091

                             ****ORCA TERMINATED NORMALLY****
TOTAL RUN TIME: 0 days 0 hours 9 minutes 24 seconds 526 msec
