                         Program Version 4.2.0 -  RELEASE  -
|  1> # ORCA input file
|  2> # SCF done       -214.116458493631          0.000636891052
|  3> ! CAM-B3LYP def2-SVP def2/J RIJCOSX Grid4 TightSCF
|  4> %maxcore 5000
|  5> %tddft
|  6>     Mode sTDDFT
|  7>     Ethresh 5.0
|  8>     maxcore 5000
|  9> end
| 10>
| 11> %pal
| 12>   nprocs 6
| 13>   end
| 14> * xyz 0 1
| 15>    C       -1.26161         1.40181        -2.68056
| 16>    C       -1.01487         2.59676        -3.30162
| 17>    C       -1.14602         2.80648        -4.68994
| 18>    N       -1.26261         3.05061        -5.80570
| 19>    C       -0.55918         3.75559        -2.64325
| 20>    N       -0.17024         4.72777        -2.17115
| 21>    C       -1.52438         0.13834        -3.35721
| 22>    C       -1.29621        -0.92793        -2.43861
| 23>    C       -1.43916        -2.23467        -2.80721
| 24>    C       -1.83498        -2.53886        -4.12934
| 25>    C       -2.08049        -1.47680        -5.04736
| 26>    C       -1.91630        -0.13308        -4.64078
| 27>    C       -2.48486        -1.79350        -6.36027
| 28>    C       -2.63749        -3.09587        -6.75084
| 29>    C       -2.39393        -4.14095        -5.84705
| 30>    C       -2.00072        -3.86844        -4.56483
| 31>    C       -0.93490        -0.36924        -1.12430
| 32>    O       -0.61523        -0.96176        -0.12087
| 33>    C       -1.10342         1.11043        -1.26798
| 34>    C       -1.18151         1.87180        -0.15202
| 35>    C       -1.65920         3.21840         0.01588
| 36>    C       -2.70337         3.75422        -0.74078
| 37>    F       -3.31521         2.93668        -1.63109
| 38>    C       -3.17026         5.04770        -0.58990
| 39>    O       -4.17210         5.59100        -1.32658
| 40>    C       -4.37860         5.18064        -2.66566
| 41>    C       -2.60112         5.87028         0.41380
| 42>    C       -1.59471         5.30544         1.21387
| 43>    C       -1.10343         4.01534         1.04537
| 44>    O       -0.11650         3.42033         1.73923
| 45>    C        0.61021         4.10042         2.74601
| 46>    F       -1.06988         6.06519         2.20132
| 47>    C       -3.05059         7.22999         0.56903
| 48>    C       -2.65942         8.17798         1.50083
| 49>    C       -3.28939         9.40695         1.31065
| 50>    C       -4.17341         9.40065         0.22034
| 51>    S       -4.23600         7.88801        -0.55493
| 52>    C       -4.76091        10.68938         0.10784
| 53>    C       -4.25031        11.50229         1.13211
| 54>    C       -3.30865        10.72583         1.92498
| 55>    C       -2.60358        11.14216         3.01580
| 56>    C       -2.71169        12.44989         3.53441
| 57>    N       -2.79091        13.50692         3.97207
| 58>    C       -1.71864        10.29473         3.71560
| 59>    N       -0.99890         9.61919         4.29930
| 60>    C       -4.77834        12.79192         1.11003
| 61>    C       -5.69177        12.97451         0.08359
| 62>    S       -5.88843        11.50735        -0.86911
| 63>    C       -6.47285        14.14113        -0.23775
| 64>    C       -6.33759        15.35912         0.45068
| 65>    F       -5.36863        15.45262         1.39124
| 66>    C       -7.15198        16.46373         0.22798
| 67>    O       -7.13976        17.64019         0.88557
| 68>    C       -6.16206        17.93715         1.86533
| 69>    C       -8.15254        16.35803        -0.76571
| 70>    C       -8.21349        15.19657        -1.53630
| 71>    C       -7.43121        14.08300        -1.28074
| 72>    O       -7.50945        12.92345        -1.97626
| 73>    C       -8.73919        12.55037        -2.57639
| 74>    F       -9.00468        15.21211        -2.62820
| 75>    C       -9.05158        17.46078        -0.98798
| 76>    C      -10.37594        17.32979        -1.24843
| 77>    C      -11.30339        18.40075        -1.57840
| 78>    C      -10.96631        19.67032        -1.96306
| 79>    C      -11.90495        20.66754        -2.30298
| 80>    N      -12.61908        21.52085        -2.58497
| 81>    C       -9.64694        20.15283        -2.09975
| 82>    N       -8.60771        20.61671        -2.25057
| 83>    C      -12.65359        17.85877        -1.50870
| 84>    C      -12.57244        16.47289        -1.19065
| 85>    C      -11.16364        16.08104        -1.02959
| 86>    O      -10.75250        14.98714        -0.70467
| 87>    C      -13.68735        15.69459        -1.06537
| 88>    C      -14.95956        16.27635        -1.25988
| 89>    C      -15.05025        17.66371        -1.57227
| 90>    C      -13.87850        18.44518        -1.69214
| 91>    C      -16.32558        18.23505        -1.75909
| 92>    C      -17.45712        17.47418        -1.64546
| 93>    C      -17.36639        16.10802        -1.33927
| 94>    C      -16.14426        15.52182        -1.15103
| 95>    H       -1.25567        -3.02812        -2.09804
| 96>    H       -2.11892         0.65203        -5.35240
| 97>    H       -2.66830        -0.98523        -7.05295
| 98>    H       -2.94663        -3.32823        -7.75892
| 99>    H       -2.52003        -5.16292        -6.17185
|100>    H       -1.81220        -4.66922        -3.86481
|101>    H       -0.87229         1.38044         0.76512
|102>    H       -4.94721         5.98669        -3.12751
|103>    H       -4.95538         4.25498        -2.71715
|104>    H       -3.43098         5.05487        -3.19450
|105>    H       -0.02610         4.38306         3.58703
|106>    H        1.11135         4.98604         2.35122
|107>    H        1.35596         3.38160         3.08188
|108>    H       -1.95410         7.99872         2.28838
|109>    H       -4.50406        13.54887         1.81843
|110>    H       -6.37644        18.96028         2.16992
|111>    H       -5.15098        17.88481         1.45719
|112>    H       -6.24226        17.27611         2.73061
|113>    H       -8.70323        11.46497        -2.66184
|114>    H       -8.83996        12.99036        -3.57064
|115>    H       -9.58730        12.84768        -1.95655
|116>    H       -8.61550        18.44436        -0.87509
|117>    H      -13.59900        14.64574        -0.82341
|118>    H      -13.98060        19.49375        -1.92262
|119>    H      -16.39041        19.28684        -1.99597
|120>    H      -18.42917        17.92090        -1.79112
|121>    H      -18.26964        15.52275        -1.25298
|122>    H      -16.06802        14.47047        -0.91479
|123> *
|124>
|125>                          ****END OF INPUT****

CARTESIAN COORDINATES (ANGSTROEM)
---------------------------------
  C     -1.261610    1.401810   -2.680560
  C     -1.014870    2.596760   -3.301620
  C     -1.146020    2.806480   -4.689940
  N     -1.262610    3.050610   -5.805700
  C     -0.559180    3.755590   -2.643250
  N     -0.170240    4.727770   -2.171150
  C     -1.524380    0.138340   -3.357210
  C     -1.296210   -0.927930   -2.438610
  C     -1.439160   -2.234670   -2.807210
  C     -1.834980   -2.538860   -4.129340
  C     -2.080490   -1.476800   -5.047360
  C     -1.916300   -0.133080   -4.640780
  C     -2.484860   -1.793500   -6.360270
  C     -2.637490   -3.095870   -6.750840
  C     -2.393930   -4.140950   -5.847050
  C     -2.000720   -3.868440   -4.564830
  C     -0.934900   -0.369240   -1.124300
  O     -0.615230   -0.961760   -0.120870
  C     -1.103420    1.110430   -1.267980
  C     -1.181510    1.871800   -0.152020
  C     -1.659200    3.218400    0.015880
  C     -2.703370    3.754220   -0.740780
  F     -3.315210    2.936680   -1.631090
  C     -3.170260    5.047700   -0.589900
  O     -4.172100    5.591000   -1.326580
  C     -4.378600    5.180640   -2.665660
  C     -2.601120    5.870280    0.413800
  C     -1.594710    5.305440    1.213870
  C     -1.103430    4.015340    1.045370
  O     -0.116500    3.420330    1.739230
  C      0.610210    4.100420    2.746010
  F     -1.069880    6.065190    2.201320
  C     -3.050590    7.229990    0.569030
  C     -2.659420    8.177980    1.500830
  C     -3.289390    9.406950    1.310650
  C     -4.173410    9.400650    0.220340
  S     -4.236000    7.888010   -0.554930
  C     -4.760910   10.689380    0.107840
  C     -4.250310   11.502290    1.132110
  C     -3.308650   10.725830    1.924980
  C     -2.603580   11.142160    3.015800
  C     -2.711690   12.449890    3.534410
  N     -2.790910   13.506920    3.972070
  C     -1.718640   10.294730    3.715600
  N     -0.998900    9.619190    4.299300
  C     -4.778340   12.791920    1.110030
  C     -5.691770   12.974510    0.083590
  S     -5.888430   11.507350   -0.869110
  C     -6.472850   14.141130   -0.237750
  C     -6.337590   15.359120    0.450680
  F     -5.368630   15.452620    1.391240
  C     -7.151980   16.463730    0.227980
  O     -7.139760   17.640190    0.885570
  C     -6.162060   17.937150    1.865330
  C     -8.152540   16.358030   -0.765710
  C     -8.213490   15.196570   -1.536300
  C     -7.431210   14.083000   -1.280740
  O     -7.509450   12.923450   -1.976260
  C     -8.739190   12.550370   -2.576390
  F     -9.004680   15.212110   -2.628200
  C     -9.051580   17.460780   -0.987980
  C    -10.375940   17.329790   -1.248430
  C    -11.303390   18.400750   -1.578400
  C    -10.966310   19.670320   -1.963060
  C    -11.904950   20.667540   -2.302980
  N    -12.619080   21.520850   -2.584970
  C     -9.646940   20.152830   -2.099750
  N     -8.607710   20.616710   -2.250570
  C    -12.653590   17.858770   -1.508700
  C    -12.572440   16.472890   -1.190650
  C    -11.163640   16.081040   -1.029590
  O    -10.752500   14.987140   -0.704670
  C    -13.687350   15.694590   -1.065370
  C    -14.959560   16.276350   -1.259880
  C    -15.050250   17.663710   -1.572270
  C    -13.878500   18.445180   -1.692140
  C    -16.325580   18.235050   -1.759090
  C    -17.457120   17.474180   -1.645460
  C    -17.366390   16.108020   -1.339270
  C    -16.144260   15.521820   -1.151030
  H     -1.255670   -3.028120   -2.098040
  H     -2.118920    0.652030   -5.352400
  H     -2.668300   -0.985230   -7.052950
  H     -2.946630   -3.328230   -7.758920
  H     -2.520030   -5.162920   -6.171850
  H     -1.812200   -4.669220   -3.864810
  H     -0.872290    1.380440    0.765120
  H     -4.947210    5.986690   -3.127510
  H     -4.955380    4.254980   -2.717150
  H     -3.430980    5.054870   -3.194500
  H     -0.026100    4.383060    3.587030
  H      1.111350    4.986040    2.351220
  H      1.355960    3.381600    3.081880
  H     -1.954100    7.998720    2.288380
  H     -4.504060   13.548870    1.818430
  H     -6.376440   18.960280    2.169920
  H     -5.150980   17.884810    1.457190
  H     -6.242260   17.276110    2.730610
  H     -8.703230   11.464970   -2.661840
  H     -8.839960   12.990360   -3.570640
  H     -9.587300   12.847680   -1.956550
  H     -8.615500   18.444360   -0.875090
  H    -13.599000   14.645740   -0.823410
  H    -13.980600   19.493750   -1.922620
  H    -16.390410   19.286840   -1.995970
  H    -18.429170   17.920900   -1.791120
  H    -18.269640   15.522750   -1.252980
  H    -16.068020   14.470470   -0.914790

 Total Charge           Charge          ....    0
 Multiplicity           Mult            ....    1
 Number of Electrons    NEL             ....  558
 Basis Dimension        Dim             .... 1268

ORBITAL ENERGIES
----------------

  NO   OCC          E(Eh)            E(eV)
   0   2.0000     -88.976487     -2421.1733
   1   2.0000     -88.976262     -2421.1672
   2   2.0000     -24.807520      -675.0469
   3   2.0000     -24.799264      -674.8223
   4   2.0000     -24.798032      -674.7888
   5   2.0000     -24.796347      -674.7429
   6   2.0000     -19.270070      -524.3653
   7   2.0000     -19.266522      -524.2687
   8   2.0000     -19.264883      -524.2241
   9   2.0000     -19.264875      -524.2239
  10   2.0000     -19.218936      -522.9738
  11   2.0000     -19.214262      -522.8467
  12   2.0000     -14.419191      -392.3661
  13   2.0000     -14.418972      -392.3602
  14   2.0000     -14.418403      -392.3447
  15   2.0000     -14.417712      -392.3259
  16   2.0000     -14.415246      -392.2588
  17   2.0000     -14.414417      -392.2362
  18   2.0000     -10.376356      -282.3550
  19   2.0000     -10.372987      -282.2633
  20   2.0000     -10.372213      -282.2423
  21   2.0000     -10.370478      -282.1951
  22   2.0000     -10.369377      -282.1651
  23   2.0000     -10.365013      -282.0463
  24   2.0000     -10.362266      -281.9716
  25   2.0000     -10.361653      -281.9549
  26   2.0000     -10.356128      -281.8046
  27   2.0000     -10.352186      -281.6973
  28   2.0000     -10.350957      -281.6639
  29   2.0000     -10.343516      -281.4614
  30   2.0000     -10.342673      -281.4384
  31   2.0000     -10.341170      -281.3975
  32   2.0000     -10.340479      -281.3787
  33   2.0000     -10.339989      -281.3654
  34   2.0000     -10.333307      -281.1836
  35   2.0000     -10.327432      -281.0237
  36   2.0000     -10.325815      -280.9797
  37   2.0000     -10.325705      -280.9767
  38   2.0000     -10.321117      -280.8519
  39   2.0000     -10.320148      -280.8255
  40   2.0000     -10.319945      -280.8200
  41   2.0000     -10.319512      -280.8082
  42   2.0000     -10.319404      -280.8053
  43   2.0000     -10.318747      -280.7874
  44   2.0000     -10.318730      -280.7869
  45   2.0000     -10.318523      -280.7813
  46   2.0000     -10.318281      -280.7747
  47   2.0000     -10.317850      -280.7630
  48   2.0000     -10.316905      -280.7373
  49   2.0000     -10.316267      -280.7199
  50   2.0000     -10.313335      -280.6401
  51   2.0000     -10.313030      -280.6318
  52   2.0000     -10.305131      -280.4169
  53   2.0000     -10.304098      -280.3888
  54   2.0000     -10.304045      -280.3873
  55   2.0000     -10.300333      -280.2863
  56   2.0000     -10.299779      -280.2712
  57   2.0000     -10.299655      -280.2679
  58   2.0000     -10.299347      -280.2595
  59   2.0000     -10.299082      -280.2523
  60   2.0000     -10.298722      -280.2425
  61   2.0000     -10.298688      -280.2415
  62   2.0000     -10.298141      -280.2267
  63   2.0000     -10.297918      -280.2206
  64   2.0000     -10.297792      -280.2172
  65   2.0000     -10.297702      -280.2147
  66   2.0000     -10.290176      -280.0099
  67   2.0000     -10.289887      -280.0021
  68   2.0000     -10.289177      -279.9827
  69   2.0000     -10.289146      -279.9819
  70   2.0000     -10.288630      -279.9678
  71   2.0000     -10.288122      -279.9540
  72   2.0000     -10.287998      -279.9506
  73   2.0000     -10.287879      -279.9474
  74   2.0000     -10.287758      -279.9441
  75   2.0000     -10.287647      -279.9411
  76   2.0000     -10.287356      -279.9332
  77   2.0000     -10.287134      -279.9272
  78   2.0000     -10.287108      -279.9264
  79   2.0000     -10.286683      -279.9149
  80   2.0000      -8.069447      -219.5808
  81   2.0000      -8.069213      -219.5745
  82   2.0000      -6.038883      -164.3264
  83   2.0000      -6.038677      -164.3208
  84   2.0000      -6.034219      -164.1994
  85   2.0000      -6.033976      -164.1928
  86   2.0000      -6.031975      -164.1384
  87   2.0000      -6.031756      -164.1324
  88   2.0000      -1.319961       -35.9180
  89   2.0000      -1.314040       -35.7569
  90   2.0000      -1.312228       -35.7075
  91   2.0000      -1.311039       -35.6752
  92   2.0000      -1.174193       -31.9514
  93   2.0000      -1.171000       -31.8645
  94   2.0000      -1.168957       -31.8089
  95   2.0000      -1.168074       -31.7849
  96   2.0000      -1.133076       -30.8326
  97   2.0000      -1.129595       -30.7378
  98   2.0000      -1.030938       -28.0533
  99   2.0000      -1.020072       -27.7576
 100   2.0000      -1.017947       -27.6998
 101   2.0000      -1.010716       -27.5030
 102   2.0000      -0.999617       -27.2010
 103   2.0000      -0.999009       -27.1844
 104   2.0000      -0.997188       -27.1349
 105   2.0000      -0.996896       -27.1269
 106   2.0000      -0.993283       -27.0286
 107   2.0000      -0.991135       -26.9701
 108   2.0000      -0.981281       -26.7020
 109   2.0000      -0.974916       -26.5288
 110   2.0000      -0.971603       -26.4387
 111   2.0000      -0.969244       -26.3745
 112   2.0000      -0.946758       -25.7626
 113   2.0000      -0.927057       -25.2265
 114   2.0000      -0.926480       -25.2108
 115   2.0000      -0.916682       -24.9442
 116   2.0000      -0.912294       -24.8248
 117   2.0000      -0.898343       -24.4451
 118   2.0000      -0.890465       -24.2308
 119   2.0000      -0.883971       -24.0541
 120   2.0000      -0.882313       -24.0089
 121   2.0000      -0.881178       -23.9781
 122   2.0000      -0.865114       -23.5410
 123   2.0000      -0.863849       -23.5065
 124   2.0000      -0.857749       -23.3405
 125   2.0000      -0.852921       -23.2092
 126   2.0000      -0.842251       -22.9188
 127   2.0000      -0.840541       -22.8723
 128   2.0000      -0.829842       -22.5811
 129   2.0000      -0.829487       -22.5715
 130   2.0000      -0.819825       -22.3086
 131   2.0000      -0.816795       -22.2261
 132   2.0000      -0.811827       -22.0909
 133   2.0000      -0.800266       -21.7763
 134   2.0000      -0.786782       -21.4094
 135   2.0000      -0.778113       -21.1735
 136   2.0000      -0.768473       -20.9112
 137   2.0000      -0.765627       -20.8338
 138   2.0000      -0.762346       -20.7445
 139   2.0000      -0.759707       -20.6727
 140   2.0000      -0.749709       -20.4006
 141   2.0000      -0.731650       -19.9092
 142   2.0000      -0.713746       -19.4220
 143   2.0000      -0.711318       -19.3560
 144   2.0000      -0.710444       -19.3322
 145   2.0000      -0.704957       -19.1829
 146   2.0000      -0.703673       -19.1479
 147   2.0000      -0.702405       -19.1134
 148   2.0000      -0.694793       -18.9063
 149   2.0000      -0.691154       -18.8073
 150   2.0000      -0.685119       -18.6430
 151   2.0000      -0.681863       -18.5544
 152   2.0000      -0.677475       -18.4350
 153   2.0000      -0.674332       -18.3495
 154   2.0000      -0.670572       -18.2472
 155   2.0000      -0.662941       -18.0395
 156   2.0000      -0.654379       -17.8066
 157   2.0000      -0.650743       -17.7076
 158   2.0000      -0.642121       -17.4730
 159   2.0000      -0.638889       -17.3850
 160   2.0000      -0.636064       -17.3082
 161   2.0000      -0.634025       -17.2527
 162   2.0000      -0.630676       -17.1616
 163   2.0000      -0.624729       -16.9997
 164   2.0000      -0.614420       -16.7192
 165   2.0000      -0.611273       -16.6336
 166   2.0000      -0.609018       -16.5722
 167   2.0000      -0.608638       -16.5619
 168   2.0000      -0.608140       -16.5483
 169   2.0000      -0.606428       -16.5017
 170   2.0000      -0.602870       -16.4049
 171   2.0000      -0.601130       -16.3576
 172   2.0000      -0.595717       -16.2103
 173   2.0000      -0.591715       -16.1014
 174   2.0000      -0.590220       -16.0607
 175   2.0000      -0.587756       -15.9937
 176   2.0000      -0.578948       -15.7540
 177   2.0000      -0.576767       -15.6946
 178   2.0000      -0.574677       -15.6378
 179   2.0000      -0.573940       -15.6177
 180   2.0000      -0.559918       -15.2361
 181   2.0000      -0.558158       -15.1883
 182   2.0000      -0.556444       -15.1416
 183   2.0000      -0.553683       -15.0665
 184   2.0000      -0.550798       -14.9880
 185   2.0000      -0.548493       -14.9252
 186   2.0000      -0.547694       -14.9035
 187   2.0000      -0.546821       -14.8798
 188   2.0000      -0.546165       -14.8619
 189   2.0000      -0.544877       -14.8269
 190   2.0000      -0.544037       -14.8040
 191   2.0000      -0.542086       -14.7509
 192   2.0000      -0.538110       -14.6427
 193   2.0000      -0.537093       -14.6150
 194   2.0000      -0.533109       -14.5066
 195   2.0000      -0.531671       -14.4675
 196   2.0000      -0.530402       -14.4330
 197   2.0000      -0.528130       -14.3711
 198   2.0000      -0.527545       -14.3552
 199   2.0000      -0.521804       -14.1990
 200   2.0000      -0.519139       -14.1265
 201   2.0000      -0.516783       -14.0624
 202   2.0000      -0.514739       -14.0068
 203   2.0000      -0.513349       -13.9689
 204   2.0000      -0.512865       -13.9558
 205   2.0000      -0.508111       -13.8264
 206   2.0000      -0.505206       -13.7474
 207   2.0000      -0.504130       -13.7181
 208   2.0000      -0.501371       -13.6430
 209   2.0000      -0.500766       -13.6265
 210   2.0000      -0.496243       -13.5035
 211   2.0000      -0.495069       -13.4715
 212   2.0000      -0.494231       -13.4487
 213   2.0000      -0.491651       -13.3785
 214   2.0000      -0.490774       -13.3546
 215   2.0000      -0.488663       -13.2972
 216   2.0000      -0.486814       -13.2469
 217   2.0000      -0.485733       -13.2175
 218   2.0000      -0.484435       -13.1821
 219   2.0000      -0.480884       -13.0855
 220   2.0000      -0.475882       -12.9494
 221   2.0000      -0.475280       -12.9330
 222   2.0000      -0.472824       -12.8662
 223   2.0000      -0.467216       -12.7136
 224   2.0000      -0.465751       -12.6737
 225   2.0000      -0.462925       -12.5968
 226   2.0000      -0.457201       -12.4411
 227   2.0000      -0.452896       -12.3239
 228   2.0000      -0.451546       -12.2872
 229   2.0000      -0.450429       -12.2568
 230   2.0000      -0.448727       -12.2105
 231   2.0000      -0.447814       -12.1856
 232   2.0000      -0.446292       -12.1442
 233   2.0000      -0.445859       -12.1324
 234   2.0000      -0.444217       -12.0878
 235   2.0000      -0.441882       -12.0242
 236   2.0000      -0.441416       -12.0115
 237   2.0000      -0.440864       -11.9965
 238   2.0000      -0.439605       -11.9623
 239   2.0000      -0.435784       -11.8583
 240   2.0000      -0.434901       -11.8342
 241   2.0000      -0.432969       -11.7817
 242   2.0000      -0.432390       -11.7659
 243   2.0000      -0.429836       -11.6964
 244   2.0000      -0.428937       -11.6720
 245   2.0000      -0.427696       -11.6382
 246   2.0000      -0.426183       -11.5970
 247   2.0000      -0.423774       -11.5315
 248   2.0000      -0.420616       -11.4455
 249   2.0000      -0.418212       -11.3801
 250   2.0000      -0.415243       -11.2993
 251   2.0000      -0.413995       -11.2654
 252   2.0000      -0.412410       -11.2222
 253   2.0000      -0.408976       -11.1288
 254   2.0000      -0.408125       -11.1057
 255   2.0000      -0.403383       -10.9766
 256   2.0000      -0.403240       -10.9727
 257   2.0000      -0.400680       -10.9031
 258   2.0000      -0.391930       -10.6650
 259   2.0000      -0.381804       -10.3894
 260   2.0000      -0.381119       -10.3708
 261   2.0000      -0.379432       -10.3249
 262   2.0000      -0.378495       -10.2994
 263   2.0000      -0.368863       -10.0373
 264   2.0000      -0.361610        -9.8399
 265   2.0000      -0.344596        -9.3769
 266   2.0000      -0.342551        -9.3213
 267   2.0000      -0.334513        -9.1026
 268   2.0000      -0.333118        -9.0646
 269   2.0000      -0.322043        -8.7632
 270   2.0000      -0.317134        -8.6297
 271   2.0000      -0.315983        -8.5983
 272   2.0000      -0.310421        -8.4470
 273   2.0000      -0.301493        -8.2040
 274   2.0000      -0.296656        -8.0724
 275   2.0000      -0.293945        -7.9986
 276   2.0000      -0.290646        -7.9089
 277   2.0000      -0.281989        -7.6733
 278   2.0000      -0.246289        -6.7019
 279   0.0000      -0.098059        -2.6683
 280   0.0000      -0.089636        -2.4391
 281   0.0000      -0.085998        -2.3401
 282   0.0000      -0.059533        -1.6200
 283   0.0000      -0.055239        -1.5031

MULLIKEN ATOMIC CHARGES
-----------------------
   0 C :    0.300220
   1 C :   -0.347519
   2 C :   -0.185170
   3 N :    0.154276
   4 C :   -0.212838
   5 N :    0.175761
   6 C :    0.034365
   7 C :    0.012662
   8 C :   -0.078902
   9 C :    0.094547
  10 C :    0.094589
  11 C :   -0.081666
  12 C :   -0.018728
  13 C :    0.038038
  14 C :    0.033258
  15 C :   -0.014713
  16 C :    0.135527
  17 O :   -0.138102
  18 C :   -0.109397
  19 C :    0.042290
  20 C :   -0.086434
  21 C :    0.154710
  22 F :   -0.186474
  23 C :    0.116997
  24 O :   -0.351433
  25 C :    0.183734
  26 C :    0.113177
  27 C :    0.089246
  28 C :    0.183632
  29 O :   -0.297458
  30 C :    0.180738
  31 F :   -0.186980
  32 C :   -0.112251
  33 C :   -0.053414
  34 C :    0.011320
  35 C :   -0.082538
  36 S :    0.194146
  37 C :   -0.083226
  38 C :    0.009551
  39 C :    0.312981
  40 C :   -0.309863
  41 C :   -0.191504
  42 N :    0.167401
  43 C :   -0.191184
  44 N :    0.167458
  45 C :   -0.053321
  46 C :   -0.110962
  47 S :    0.198337
  48 C :    0.101888
  49 C :    0.082257
  50 F :   -0.190747
  51 C :    0.175041
  52 O :   -0.300882
  53 C :    0.181151
  54 C :   -0.081951
  55 C :    0.194854
  56 C :    0.105249
  57 O :   -0.354950
  58 C :    0.181116
  59 F :   -0.184694
  60 C :    0.000426
  61 C :   -0.076480
  62 C :    0.304869
  63 C :   -0.338601
  64 C :   -0.184220
  65 N :    0.150536
  66 C :   -0.202053
  67 N :    0.163172
  68 C :    0.049559
  69 C :   -0.008905
  70 C :    0.159343
  71 O :   -0.155855
  72 C :   -0.077685
  73 C :    0.097578
  74 C :    0.095237
  75 C :   -0.080951
  76 C :   -0.018251
  77 C :    0.036482
  78 C :    0.035805
  79 C :   -0.016062
  80 H :   -0.011293
  81 H :   -0.008039
  82 H :   -0.010726
  83 H :   -0.005228
  84 H :   -0.004912
  85 H :   -0.016557
  86 H :    0.036644
  87 H :    0.035037
  88 H :    0.040582
  89 H :    0.037405
  90 H :    0.035915
  91 H :    0.039825
  92 H :    0.040246
  93 H :    0.012599
  94 H :    0.012161
  95 H :    0.040391
  96 H :    0.035850
  97 H :    0.037429
  98 H :    0.029637
  99 H :    0.036569
 100 H :    0.046467
 101 H :    0.042724
 102 H :   -0.016557
 103 H :   -0.008077
 104 H :   -0.007531
 105 H :   -0.004731
 106 H :   -0.004791
 107 H :   -0.018198
Sum of atomic charges:   -0.0000000

LOEWDIN ATOMIC CHARGES
----------------------
   0 C :    0.073696
   1 C :   -0.140832
   2 C :   -0.019472
   3 N :   -0.055246
   4 C :   -0.021419
   5 N :   -0.049624
   6 C :   -0.022182
   7 C :   -0.056782
   8 C :    0.032979
   9 C :   -0.008777
  10 C :   -0.005583
  11 C :    0.015769
  12 C :   -0.006835
  13 C :   -0.012966
  14 C :   -0.012979
  15 C :   -0.008987
  16 C :    0.084981
  17 O :   -0.138347
  18 C :   -0.084218
  19 C :    0.082945
  20 C :   -0.082734
  21 C :    0.069227
  22 F :   -0.050076
  23 C :    0.014927
  24 O :   -0.111184
  25 C :    0.081843
  26 C :   -0.045629
  27 C :    0.052477
  28 C :    0.052408
  29 O :   -0.084681
  30 C :    0.082044
  31 F :   -0.047840
  32 C :   -0.165827
  33 C :   -0.022358
  34 C :   -0.076352
  35 C :   -0.186691
  36 S :    0.508445
  37 C :   -0.187916
  38 C :   -0.076294
  39 C :    0.085473
  40 C :   -0.111708
  41 C :   -0.016791
  42 N :   -0.040237
  43 C :   -0.016779
  44 N :   -0.040078
  45 C :   -0.023258
  46 C :   -0.167050
  47 S :    0.510214
  48 C :   -0.048894
  49 C :    0.044425
  50 F :   -0.051447
  51 C :    0.049052
  52 O :   -0.088483
  53 C :    0.081793
  54 C :   -0.080878
  55 C :    0.079790
  56 C :    0.011168
  57 O :   -0.112011
  58 C :    0.081449
  59 F :   -0.047321
  60 C :    0.089241
  61 C :   -0.084258
  62 C :    0.075370
  63 C :   -0.133635
  64 C :   -0.016739
  65 N :   -0.052200
  66 C :   -0.023140
  67 N :   -0.046938
  68 C :   -0.025432
  69 C :   -0.055149
  70 C :    0.086324
  71 O :   -0.145198
  72 C :    0.031600
  73 C :   -0.008469
  74 C :   -0.005894
  75 C :    0.020046
  76 C :   -0.004951
  77 C :   -0.012905
  78 C :   -0.012122
  79 C :   -0.010061
  80 H :    0.039572
  81 H :    0.038133
  82 H :    0.034115
  83 H :    0.033044
  84 H :    0.032821
  85 H :    0.032154
  86 H :    0.049839
  87 H :    0.025409
  88 H :    0.020063
  89 H :    0.022901
  90 H :    0.019942
  91 H :    0.022905
  92 H :    0.029214
  93 H :    0.034988
  94 H :    0.034917
  95 H :    0.029370
  96 H :    0.020912
  97 H :    0.020825
  98 H :    0.022547
  99 H :    0.020458
 100 H :    0.025176
 101 H :    0.047162
 102 H :    0.037610
 103 H :    0.039144
 104 H :    0.035196
 105 H :    0.033347
 106 H :    0.032905
 107 H :    0.031499

  Mayer bond orders larger than 0.100000
B(  0-C ,  1-C ) :   1.6504 B(  0-C ,  6-C ) :   1.0095 B(  0-C , 18-C ) :   1.0204
B(  1-C ,  2-C ) :   1.1376 B(  1-C ,  4-C ) :   1.1752 B(  2-C ,  3-N ) :   2.9812
B(  4-C ,  5-N ) :   2.9930 B(  6-C ,  7-C ) :   1.2129 B(  6-C , 11-C ) :   1.4514
B(  7-C ,  8-C ) :   1.4738 B(  7-C , 16-C ) :   0.9195 B(  8-C ,  9-C ) :   1.1846
B(  8-C , 80-H ) :   1.0155 B(  9-C , 10-C ) :   1.2573 B(  9-C , 15-C ) :   1.2439
B( 10-C , 11-C ) :   1.2071 B( 10-C , 12-C ) :   1.2389 B( 11-C , 81-H ) :   0.9926
B( 12-C , 13-C ) :   1.4903 B( 12-C , 82-H ) :   0.9974 B( 13-C , 14-C ) :   1.2599
B( 13-C , 83-H ) :   0.9883 B( 14-C , 15-C ) :   1.4896 B( 14-C , 84-H ) :   0.9891
B( 15-C , 85-H ) :   0.9977 B( 16-C , 17-O ) :   2.2750 B( 16-C , 18-C ) :   0.9313
B( 18-C , 19-C ) :   1.7051 B( 19-C , 20-C ) :   1.0697 B( 19-C , 86-H ) :   0.9295
B( 20-C , 21-C ) :   1.2932 B( 20-C , 26-C ) :   0.1207 B( 20-C , 28-C ) :   1.3154
B( 21-C , 22-F ) :   1.0984 B( 21-C , 23-C ) :   1.3179 B( 23-C , 24-O ) :   1.1230
B( 23-C , 26-C ) :   1.3102 B( 24-O , 25-C ) :   0.9139 B( 25-C , 87-H ) :   0.9750
B( 25-C , 88-H ) :   0.9777 B( 25-C , 89-H ) :   0.9736 B( 26-C , 27-C ) :   1.2765
B( 26-C , 32-C ) :   1.1222 B( 27-C , 28-C ) :   1.2804 B( 27-C , 31-F ) :   1.0919
B( 28-C , 29-O ) :   1.2520 B( 29-O , 30-C ) :   0.9180 B( 30-C , 90-H ) :   0.9767
B( 30-C , 91-H ) :   0.9768 B( 30-C , 92-H ) :   0.9788 B( 32-C , 33-C ) :   1.4528
B( 32-C , 36-S ) :   1.0975 B( 33-C , 34-C ) :   1.2804 B( 33-C , 93-H ) :   0.9933
B( 34-C , 35-C ) :   1.4307 B( 34-C , 39-C ) :   0.9949 B( 35-C , 36-S ) :   1.1031
B( 35-C , 37-C ) :   1.1703 B( 37-C , 38-C ) :   1.4311 B( 37-C , 47-S ) :   1.1000
B( 38-C , 39-C ) :   0.9954 B( 38-C , 45-C ) :   1.2848 B( 39-C , 40-C ) :   1.6990
B( 40-C , 41-C ) :   1.1361 B( 40-C , 43-C ) :   1.1375 B( 41-C , 42-N ) :   2.9898
B( 43-C , 44-N ) :   2.9896 B( 45-C , 46-C ) :   1.4521 B( 45-C , 94-H ) :   0.9919
B( 46-C , 47-S ) :   1.0992 B( 46-C , 48-C ) :   1.1228 B( 48-C , 49-C ) :   1.2758
B( 48-C , 54-C ) :   0.1160 B( 48-C , 56-C ) :   1.3009 B( 49-C , 50-F ) :   1.0891
B( 49-C , 51-C ) :   1.2827 B( 51-C , 52-O ) :   1.2336 B( 51-C , 54-C ) :   1.3146
B( 52-O , 53-C ) :   0.9197 B( 53-C , 95-H ) :   0.9789 B( 53-C , 96-H ) :   0.9768
B( 53-C , 97-H ) :   0.9766 B( 54-C , 55-C ) :   1.3081 B( 54-C , 60-C ) :   1.0808
B( 55-C , 56-C ) :   1.3159 B( 55-C , 59-F ) :   1.1169 B( 56-C , 57-O ) :   1.1200
B( 57-O , 58-C ) :   0.9111 B( 58-C , 98-H ) :   0.9748 B( 58-C , 99-H ) :   0.9792
B( 58-C ,100-H ) :   0.9704 B( 60-C , 61-C ) :   1.6630 B( 60-C ,101-H ) :   0.9360
B( 61-C , 62-C ) :   1.0535 B( 61-C , 70-C ) :   0.9342 B( 62-C , 63-C ) :   1.6541
B( 62-C , 68-C ) :   0.9949 B( 63-C , 64-C ) :   1.1432 B( 63-C , 66-C ) :   1.1384
B( 64-C , 65-N ) :   2.9673 B( 66-C , 67-N ) :   2.9900 B( 68-C , 69-C ) :   1.2118
B( 68-C , 75-C ) :   1.4479 B( 69-C , 70-C ) :   0.9532 B( 69-C , 72-C ) :   1.4717
B( 70-C , 71-O ) :   2.1851 B( 72-C , 73-C ) :   1.1812 B( 72-C ,102-H ) :   1.0151
B( 73-C , 74-C ) :   1.2535 B( 73-C , 79-C ) :   1.2435 B( 74-C , 75-C ) :   1.2087
B( 74-C , 76-C ) :   1.2393 B( 75-C ,103-H ) :   0.9894 B( 76-C , 77-C ) :   1.4900
B( 76-C ,104-H ) :   0.9972 B( 77-C , 78-C ) :   1.2574 B( 77-C ,105-H ) :   0.9893
B( 78-C , 79-C ) :   1.4898 B( 78-C ,106-H ) :   0.9895 B( 79-C ,107-H ) :   0.9970

-----------------------------------------------------------------------------
         ABSORPTION SPECTRUM VIA TRANSITION ELECTRIC DIPOLE MOMENTS
-----------------------------------------------------------------------------
State   Energy  Wavelength   fosc         T2         TX        TY        TZ
        (cm-1)    (nm)                  (au**2)     (au)      (au)      (au)
-----------------------------------------------------------------------------
   0   14559.8    686.8   0.261580652   5.91460   1.20166  -2.11409  -0.03510
   1   18947.2    527.8   1.222508747  21.24135  -2.39599   3.88681   0.62716
   2   20574.7    486.0   0.397649613   6.36271   1.76314  -0.47350   1.74064
   3   23807.6    420.0   0.049319354   0.68199  -0.05806  -0.72569  -0.38986
   4   24375.7    410.2   0.070836414   0.95670  -0.49072   0.78566  -0.31405
   5   26202.4    381.6   0.026128641   0.32829   0.19260   0.34390   0.41584
   6   27078.5    369.3   0.015831165   0.19247   0.00857  -0.43130  -0.07984
   7   27467.9    364.1   0.118773291   1.42354   1.01537  -0.58382   0.22741
   8   27661.0    361.5   0.055005263   0.65465   0.41827  -0.63769  -0.27028
   9   27904.0    358.4   0.050217276   0.59247  -0.60626  -0.47387  -0.01892
  10   28013.6    357.0   0.135036598   1.58693   0.23007   1.23112   0.13541
  11   28559.3    350.1   0.188952209   2.17811   0.02228   1.44768   0.28608
  12   29174.3    342.8   0.087667523   0.98927  -0.03141  -0.97657   0.18601
  13   29735.5    336.3   0.013779597   0.15256   0.32427   0.12919  -0.17526
  14   29870.3    334.8   0.162074544   1.78628   0.06064   1.06020   0.81153
  15   30402.3    328.9   0.182816898   1.97964   0.11534  -1.29875  -0.52876
  16   30683.0    325.9   0.049334668   0.52933  -0.52179   0.09979   0.49710
  17   31415.5    318.3   0.137292511   1.43873  -0.76726   0.91267  -0.13067
  18   32100.4    311.5   0.293297115   3.00796  -1.05131   1.21857  -0.64638
  19   32172.6    310.8   0.586488845   6.00135   0.84383   1.11739   2.01016
  20   32507.2    307.6   0.307565084   3.11482  -1.54007   0.60899  -0.61003
  21   33169.5    301.5   0.282009117   2.79898   0.73877  -1.49319   0.15358
  22   33568.9    297.9   0.235858816   2.31308   0.69122   1.33541   0.22798
  23   33959.9    294.5   0.792720758   7.68475   2.17660   1.71509  -0.07512
  24   34269.8    291.8   0.060840024   0.58446  -0.63919  -0.08826   0.41001
  25   34712.3    288.1   0.100684346   0.95489   0.39501   0.89361  -0.01773
  26   34768.7    287.6   0.445464928   4.21794  -0.52002  -1.77739  -0.88793
  27   34948.1    286.1   0.063309552   0.59638  -0.00465   0.11257  -0.76399
  28   35011.2    285.6   0.060796476   0.57167   0.30640   0.64161   0.25715
  29   35387.3    282.6   0.077756376   0.72338   0.38705   0.72086  -0.23223
  30   35441.7    282.2   0.050921620   0.47300   0.52834   0.40166  -0.18037
  31   35842.0    279.0   0.077351660   0.71048  -0.73121   0.28004  -0.31208
  32   36042.9    277.4   0.045883801   0.41910  -0.30294  -0.44173   0.36359
  33   36192.0    276.3   0.019234062   0.17496  -0.41047   0.01534  -0.07896
  34   36903.6    271.0   0.009700142   0.08653   0.05235   0.17089  -0.23365
  35   37595.5    266.0   0.001736326   0.01520  -0.01050   0.07630   0.09630
  36   37807.4    264.5   0.030894155   0.26901   0.40130   0.27677   0.17712
  37   38429.8    260.2   0.153867908   1.31812   0.08386  -0.94958  -0.63984
  38   38483.0    259.9   0.046840974   0.40071  -0.62595  -0.09426   0.00422
  39   38642.6    258.8   0.130602674   1.11266   0.31730   1.00566  -0.02498
  40   38862.2    257.3   0.102591051   0.86907   0.06744  -0.92106   0.12719
  41   39127.0    255.6   0.027313266   0.22981   0.22071  -0.27876   0.32155
  42   39328.8    254.3   0.048233753   0.40375   0.17625  -0.57667  -0.20034
  43   39399.4    253.8   0.075763611   0.63306   0.47253  -0.39971   0.50000
  44   39497.5    253.2   0.038590082   0.32165   0.05468  -0.04207   0.56293
  45   40076.0    249.5   0.056524576   0.46433  -0.44983   0.47939  -0.17936
  46   40130.5    249.2   0.012469292   0.10229  -0.00227  -0.20852   0.24250

FINAL SINGLE POINT ENERGY     -4350.267318244336

DIPOLE MOMENT
-------------
                                X             Y             Z
Electronic contribution:     22.81578      18.21187      13.33772
Nuclear contribution   :    -25.99411     -21.87743     -14.25797
                        -----------------------------------------
Total Dipole Moment    :     -3.17833      -3.66556      -0.92025
                        -----------------------------------------
Magnitude (a.u.)       :      4.93811
Magnitude (Debye)      :     12.55168

Rotational constants in cm-1:     0.001373     0.000225     0.000203
Rotational constants in MHz :    41.166330     6.752981     6.092693

                             ****ORCA TERMINATED NORMALLY****
TOTAL RUN TIME: 0 days 0 hours 16 minutes 5 seconds 402 msec
