                         Program Version 4.2.0 -  RELEASE  -
|  1> # ORCA input file
|  2> # SCF done       -176.001191663584          0.000322046583
|  3> ! CAM-B3LYP def2-SVP def2/J RIJCOSX Grid4 TightSCF
|  4> %maxcore 5000
|  5> %tddft
|  6>     Mode sTDDFT
|  7>     Ethresh 5.0
|  8>     maxcore 5000
|  9> end
| 10>
| 11> %pal
| 12>   nprocs 6
| 13>   end
| 14> * xyz 0 1
| 15>    C        2.24686         1.79082        -6.89501
| 16>    C        2.03094         2.08800        -5.59342
| 17>    C        2.08705         1.13901        -4.55151
| 18>    C        2.31010        -0.27928        -4.87903
| 19>    C        2.55683        -0.76041        -6.11853
| 20>    S        2.63006         0.22351        -7.51970
| 21>    C        2.20620        -0.97763        -3.64535
| 22>    C        1.94081        -0.07264        -2.62228
| 23>    C        1.82864        -0.70701        -1.36584
| 24>    C        2.00511        -2.05096        -1.46891
| 25>    S        2.31731        -2.59883        -3.08005
| 26>    C        1.88462         1.26242        -3.17263
| 27>    C        1.65860         2.39130        -2.33665
| 28>    C        1.86936         3.69450        -2.64037
| 29>    C        1.62770         4.82491        -1.81005
| 30>    S        1.65004         6.38194        -2.59173
| 31>    C        1.27322         7.20744        -1.10765
| 32>    C        1.14757         6.30303        -0.06532
| 33>    C        1.35977         4.96838        -0.45589
| 34>    C        1.32683         3.83474         0.52363
| 35>    C        1.39984         4.34178         1.97103
| 36>    C        1.13352         3.24097         2.86918
| 37>    N        0.89991         2.35112         3.54604
| 38>    C        0.36908         5.47023         2.16565
| 39>    C        0.28013         5.85140         3.55722
| 40>    N        0.23992         6.18557         4.64873
| 41>    C        0.79576         6.69031         1.33791
| 42>    C        1.11832         8.62153        -1.12771
| 43>    C        1.05586         9.53340        -0.10018
| 44>    C        0.86349        10.85559        -0.52891
| 45>    S        0.75633        12.21157         0.57852
| 46>    C        1.93596        11.73511         1.88064
| 47>    C        0.78467        10.98894        -1.91378
| 48>    S        0.95351         9.42321        -2.66671
| 49>    C        0.67301        12.18352        -2.66047
| 50>    S        0.17762        13.63283        -1.85179
| 51>    C        0.53703        14.60706        -3.25129
| 52>    C        0.93824        13.80264        -4.31270
| 53>    C        0.99921        12.44434        -3.99204
| 54>    C        1.43560        11.39866        -4.96925
| 55>    C        1.51881        11.96327        -6.39496
| 56>    C        2.22139        11.02068        -7.23661
| 57>    N        2.78963        10.26329        -7.87530
| 58>    C        2.23580        13.32900        -6.38134
| 59>    C        2.47804        13.78498        -7.73142
| 60>    N        2.63441        14.15449        -8.80075
| 61>    C        1.36079        14.34873        -5.63967
| 62>    C        0.38652        16.00918        -3.20944
| 63>    C        0.39428        16.79133        -2.08961
| 64>    C       -0.27297        18.11786        -2.09332
| 65>    O       -0.63147        18.75094        -3.06073
| 66>    C       -0.46236        18.45290        -0.66621
| 67>    C       -1.13984        19.49885        -0.11049
| 68>    C       -1.22000        19.59902         1.29731
| 69>    C       -0.59177        18.60767         2.10639
| 70>    C       -0.68237        18.71157         3.50793
| 71>    C       -1.36683        19.75781         4.06092
| 72>    C       -1.99065        20.74249         3.28329
| 73>    C       -1.91262        20.65676         1.92088
| 74>    F       -1.45372        19.85824         5.40028
| 75>    C        0.11252        17.53938         1.50346
| 76>    C        0.17619        17.46530         0.13911
| 77>    C        0.84171        16.51359        -0.74291
| 78>    C        1.88594        15.69583        -0.38661
| 79>    C        2.69423        15.03524        -1.33420
| 80>    N        3.39708        14.52632        -2.08686
| 81>    C        2.28305        15.43826         0.93664
| 82>    N        2.62626        15.14091         1.99254
| 83>    H        2.19322         2.53766        -7.66897
| 84>    H        1.77618         3.11047        -5.35963
| 85>    H        2.72788        -1.80897        -6.30435
| 86>    H        1.62803        -0.21113        -0.43294
| 87>    H        1.97253        -2.77856        -0.68165
| 88>    H        1.29343         2.13054        -1.35518
| 89>    H        2.24869         3.95154        -3.61836
| 90>    H        2.16775         3.16181         0.33671
| 91>    H        0.40076         3.26170         0.39663
| 92>    H        2.40301         4.73033         2.18625
| 93>    H       -0.61653         5.11679         1.83828
| 94>    H        1.66302         7.15880         1.81798
| 95>    H       -0.01654         7.42181         1.32709
| 96>    H        1.16357         9.27860         0.93549
| 97>    H        2.21701        12.66759         2.36355
| 98>    H        2.80658        11.27515         1.42543
| 99>    H        1.46350        11.07093         2.59803
|100>    H        0.73482        10.55942        -4.96086
|101>    H        2.41392        11.00517        -4.67073
|102>    H        0.50930        12.09893        -6.80352
|103>    H        3.19994        13.22641        -5.86864
|104>    H        0.47504        14.58094        -6.24250
|105>    H        1.91743        15.27739        -5.50066
|106>    H        0.15185        16.51365        -4.14093
|107>    H       -1.61157        20.24197        -0.73582
|108>    H       -0.21221        17.97260         4.13783
|109>    H       -2.51774        21.54449         3.77523
|110>    H       -2.38550        21.40340         1.30076
|111>    H        0.57357        16.79587         2.13483
|112> *
|113>
|114>                          ****END OF INPUT****

CARTESIAN COORDINATES (ANGSTROEM)
---------------------------------
  C      2.246860    1.790820   -6.895010
  C      2.030940    2.088000   -5.593420
  C      2.087050    1.139010   -4.551510
  C      2.310100   -0.279280   -4.879030
  C      2.556830   -0.760410   -6.118530
  S      2.630060    0.223510   -7.519700
  C      2.206200   -0.977630   -3.645350
  C      1.940810   -0.072640   -2.622280
  C      1.828640   -0.707010   -1.365840
  C      2.005110   -2.050960   -1.468910
  S      2.317310   -2.598830   -3.080050
  C      1.884620    1.262420   -3.172630
  C      1.658600    2.391300   -2.336650
  C      1.869360    3.694500   -2.640370
  C      1.627700    4.824910   -1.810050
  S      1.650040    6.381940   -2.591730
  C      1.273220    7.207440   -1.107650
  C      1.147570    6.303030   -0.065320
  C      1.359770    4.968380   -0.455890
  C      1.326830    3.834740    0.523630
  C      1.399840    4.341780    1.971030
  C      1.133520    3.240970    2.869180
  N      0.899910    2.351120    3.546040
  C      0.369080    5.470230    2.165650
  C      0.280130    5.851400    3.557220
  N      0.239920    6.185570    4.648730
  C      0.795760    6.690310    1.337910
  C      1.118320    8.621530   -1.127710
  C      1.055860    9.533400   -0.100180
  C      0.863490   10.855590   -0.528910
  S      0.756330   12.211570    0.578520
  C      1.935960   11.735110    1.880640
  C      0.784670   10.988940   -1.913780
  S      0.953510    9.423210   -2.666710
  C      0.673010   12.183520   -2.660470
  S      0.177620   13.632830   -1.851790
  C      0.537030   14.607060   -3.251290
  C      0.938240   13.802640   -4.312700
  C      0.999210   12.444340   -3.992040
  C      1.435600   11.398660   -4.969250
  C      1.518810   11.963270   -6.394960
  C      2.221390   11.020680   -7.236610
  N      2.789630   10.263290   -7.875300
  C      2.235800   13.329000   -6.381340
  C      2.478040   13.784980   -7.731420
  N      2.634410   14.154490   -8.800750
  C      1.360790   14.348730   -5.639670
  C      0.386520   16.009180   -3.209440
  C      0.394280   16.791330   -2.089610
  C     -0.272970   18.117860   -2.093320
  O     -0.631470   18.750940   -3.060730
  C     -0.462360   18.452900   -0.666210
  C     -1.139840   19.498850   -0.110490
  C     -1.220000   19.599020    1.297310
  C     -0.591770   18.607670    2.106390
  C     -0.682370   18.711570    3.507930
  C     -1.366830   19.757810    4.060920
  C     -1.990650   20.742490    3.283290
  C     -1.912620   20.656760    1.920880
  F     -1.453720   19.858240    5.400280
  C      0.112520   17.539380    1.503460
  C      0.176190   17.465300    0.139110
  C      0.841710   16.513590   -0.742910
  C      1.885940   15.695830   -0.386610
  C      2.694230   15.035240   -1.334200
  N      3.397080   14.526320   -2.086860
  C      2.283050   15.438260    0.936640
  N      2.626260   15.140910    1.992540
  H      2.193220    2.537660   -7.668970
  H      1.776180    3.110470   -5.359630
  H      2.727880   -1.808970   -6.304350
  H      1.628030   -0.211130   -0.432940
  H      1.972530   -2.778560   -0.681650
  H      1.293430    2.130540   -1.355180
  H      2.248690    3.951540   -3.618360
  H      2.167750    3.161810    0.336710
  H      0.400760    3.261700    0.396630
  H      2.403010    4.730330    2.186250
  H     -0.616530    5.116790    1.838280
  H      1.663020    7.158800    1.817980
  H     -0.016540    7.421810    1.327090
  H      1.163570    9.278600    0.935490
  H      2.217010   12.667590    2.363550
  H      2.806580   11.275150    1.425430
  H      1.463500   11.070930    2.598030
  H      0.734820   10.559420   -4.960860
  H      2.413920   11.005170   -4.670730
  H      0.509300   12.098930   -6.803520
  H      3.199940   13.226410   -5.868640
  H      0.475040   14.580940   -6.242500
  H      1.917430   15.277390   -5.500660
  H      0.151850   16.513650   -4.140930
  H     -1.611570   20.241970   -0.735820
  H     -0.212210   17.972600    4.137830
  H     -2.517740   21.544490    3.775230
  H     -2.385500   21.403400    1.300760
  H      0.573570   16.795870    2.134830

 Total Charge           Charge          ....    0
 Multiplicity           Mult            ....    1
 Number of Electrons    NEL             ....  508
 Basis Dimension        Dim             .... 1121

ORBITAL ENERGIES
----------------

  NO   OCC          E(Eh)            E(eV)
   0   2.0000     -88.979930     -2421.2670
   1   2.0000     -88.977279     -2421.1948
   2   2.0000     -88.973050     -2421.0798
   3   2.0000     -88.968522     -2420.9566
   4   2.0000     -88.956402     -2420.6268
   5   2.0000     -88.945767     -2420.3374
   6   2.0000     -24.786455      -674.4737
   7   2.0000     -19.212854      -522.8083
   8   2.0000     -14.420154      -392.3924
   9   2.0000     -14.415425      -392.2637
  10   2.0000     -14.414594      -392.2410
  11   2.0000     -14.414297      -392.2330
  12   2.0000     -14.412095      -392.1731
  13   2.0000     -14.410505      -392.1298
  14   2.0000     -10.370191      -282.1872
  15   2.0000     -10.365200      -282.0514
  16   2.0000     -10.345337      -281.5109
  17   2.0000     -10.344220      -281.4805
  18   2.0000     -10.342869      -281.4438
  19   2.0000     -10.341965      -281.4192
  20   2.0000     -10.341294      -281.4009
  21   2.0000     -10.341145      -281.3968
  22   2.0000     -10.333491      -281.1886
  23   2.0000     -10.333255      -281.1822
  24   2.0000     -10.329434      -281.0782
  25   2.0000     -10.328075      -281.0412
  26   2.0000     -10.324791      -280.9519
  27   2.0000     -10.323865      -280.9266
  28   2.0000     -10.323441      -280.9151
  29   2.0000     -10.320099      -280.8242
  30   2.0000     -10.318333      -280.7761
  31   2.0000     -10.317592      -280.7560
  32   2.0000     -10.317279      -280.7474
  33   2.0000     -10.313418      -280.6424
  34   2.0000     -10.313277      -280.6385
  35   2.0000     -10.313107      -280.6339
  36   2.0000     -10.312644      -280.6213
  37   2.0000     -10.310351      -280.5589
  38   2.0000     -10.309761      -280.5429
  39   2.0000     -10.309678      -280.5406
  40   2.0000     -10.309162      -280.5266
  41   2.0000     -10.308487      -280.5082
  42   2.0000     -10.308453      -280.5073
  43   2.0000     -10.306900      -280.4650
  44   2.0000     -10.306386      -280.4510
  45   2.0000     -10.303868      -280.3825
  46   2.0000     -10.301646      -280.3220
  47   2.0000     -10.300976      -280.3038
  48   2.0000     -10.300712      -280.2966
  49   2.0000     -10.300164      -280.2817
  50   2.0000     -10.299355      -280.2597
  51   2.0000     -10.299060      -280.2517
  52   2.0000     -10.299035      -280.2510
  53   2.0000     -10.298262      -280.2299
  54   2.0000     -10.296915      -280.1933
  55   2.0000     -10.296691      -280.1872
  56   2.0000     -10.296571      -280.1839
  57   2.0000     -10.296276      -280.1759
  58   2.0000     -10.294996      -280.1411
  59   2.0000     -10.290234      -280.0115
  60   2.0000     -10.289926      -280.0031
  61   2.0000     -10.289831      -280.0005
  62   2.0000     -10.289820      -280.0002
  63   2.0000     -10.287450      -279.9358
  64   2.0000     -10.284604      -279.8583
  65   2.0000     -10.275983      -279.6237
  66   2.0000     -10.275464      -279.6096
  67   2.0000     -10.272947      -279.5411
  68   2.0000      -8.075665      -219.7500
  69   2.0000      -8.072439      -219.6622
  70   2.0000      -8.067414      -219.5255
  71   2.0000      -8.064469      -219.4454
  72   2.0000      -8.051783      -219.1002
  73   2.0000      -8.040584      -218.7954
  74   2.0000      -6.045140      -164.4966
  75   2.0000      -6.042008      -164.4114
  76   2.0000      -6.040428      -164.3684
  77   2.0000      -6.037905      -164.2998
  78   2.0000      -6.037717      -164.2946
  79   2.0000      -6.036820      -164.2702
  80   2.0000      -6.034118      -164.1967
  81   2.0000      -6.033712      -164.1856
  82   2.0000      -6.032464      -164.1517
  83   2.0000      -6.029698      -164.0764
  84   2.0000      -6.029452      -164.0697
  85   2.0000      -6.026445      -163.9879
  86   2.0000      -6.021255      -163.8467
  87   2.0000      -6.017011      -163.7312
  88   2.0000      -6.013767      -163.6429
  89   2.0000      -6.010968      -163.5668
  90   2.0000      -6.006578      -163.4473
  91   2.0000      -6.000659      -163.2862
  92   2.0000      -1.301096       -35.4046
  93   2.0000      -1.127844       -30.6902
  94   2.0000      -1.028703       -27.9924
  95   2.0000      -1.022469       -27.8228
  96   2.0000      -1.018760       -27.7219
  97   2.0000      -1.013238       -27.5716
  98   2.0000      -1.006446       -27.3868
  99   2.0000      -1.004776       -27.3414
 100   2.0000      -1.001880       -27.2626
 101   2.0000      -0.998179       -27.1618
 102   2.0000      -0.996596       -27.1188
 103   2.0000      -0.994325       -27.0570
 104   2.0000      -0.992371       -27.0038
 105   2.0000      -0.977008       -26.5857
 106   2.0000      -0.970381       -26.4054
 107   2.0000      -0.961459       -26.1626
 108   2.0000      -0.958583       -26.0844
 109   2.0000      -0.931959       -25.3599
 110   2.0000      -0.929204       -25.2849
 111   2.0000      -0.920682       -25.0530
 112   2.0000      -0.914268       -24.8785
 113   2.0000      -0.905509       -24.6401
 114   2.0000      -0.896556       -24.3965
 115   2.0000      -0.887843       -24.1594
 116   2.0000      -0.886852       -24.1325
 117   2.0000      -0.877069       -23.8663
 118   2.0000      -0.876534       -23.8517
 119   2.0000      -0.874434       -23.7946
 120   2.0000      -0.869729       -23.6665
 121   2.0000      -0.860537       -23.4164
 122   2.0000      -0.847454       -23.0604
 123   2.0000      -0.835835       -22.7442
 124   2.0000      -0.834165       -22.6988
 125   2.0000      -0.827157       -22.5081
 126   2.0000      -0.809752       -22.0345
 127   2.0000      -0.805571       -21.9207
 128   2.0000      -0.789861       -21.4932
 129   2.0000      -0.777562       -21.1585
 130   2.0000      -0.767645       -20.8887
 131   2.0000      -0.764453       -20.8018
 132   2.0000      -0.763400       -20.7732
 133   2.0000      -0.759612       -20.6701
 134   2.0000      -0.753498       -20.5037
 135   2.0000      -0.742132       -20.1944
 136   2.0000      -0.737006       -20.0549
 137   2.0000      -0.719663       -19.5830
 138   2.0000      -0.714028       -19.4297
 139   2.0000      -0.709856       -19.3162
 140   2.0000      -0.703881       -19.1536
 141   2.0000      -0.687072       -18.6962
 142   2.0000      -0.681600       -18.5473
 143   2.0000      -0.678287       -18.4571
 144   2.0000      -0.670677       -18.2501
 145   2.0000      -0.666658       -18.1407
 146   2.0000      -0.651794       -17.7362
 147   2.0000      -0.648359       -17.6428
 148   2.0000      -0.647139       -17.6096
 149   2.0000      -0.637095       -17.3362
 150   2.0000      -0.635446       -17.2914
 151   2.0000      -0.631508       -17.1842
 152   2.0000      -0.630406       -17.1542
 153   2.0000      -0.624283       -16.9876
 154   2.0000      -0.621341       -16.9076
 155   2.0000      -0.617731       -16.8093
 156   2.0000      -0.608211       -16.5503
 157   2.0000      -0.597527       -16.2595
 158   2.0000      -0.595599       -16.2071
 159   2.0000      -0.586807       -15.9678
 160   2.0000      -0.584732       -15.9114
 161   2.0000      -0.580786       -15.8040
 162   2.0000      -0.578951       -15.7540
 163   2.0000      -0.570099       -15.5132
 164   2.0000      -0.569860       -15.5067
 165   2.0000      -0.565713       -15.3938
 166   2.0000      -0.561791       -15.2871
 167   2.0000      -0.558892       -15.2082
 168   2.0000      -0.558023       -15.1846
 169   2.0000      -0.553512       -15.0618
 170   2.0000      -0.549426       -14.9507
 171   2.0000      -0.547488       -14.8979
 172   2.0000      -0.545937       -14.8557
 173   2.0000      -0.540867       -14.7177
 174   2.0000      -0.536084       -14.5876
 175   2.0000      -0.534201       -14.5364
 176   2.0000      -0.533400       -14.5146
 177   2.0000      -0.530638       -14.4394
 178   2.0000      -0.525694       -14.3048
 179   2.0000      -0.524362       -14.2686
 180   2.0000      -0.521699       -14.1962
 181   2.0000      -0.520678       -14.1684
 182   2.0000      -0.519578       -14.1384
 183   2.0000      -0.514576       -14.0023
 184   2.0000      -0.512478       -13.9452
 185   2.0000      -0.511159       -13.9093
 186   2.0000      -0.509736       -13.8706
 187   2.0000      -0.507784       -13.8175
 188   2.0000      -0.504504       -13.7283
 189   2.0000      -0.502895       -13.6845
 190   2.0000      -0.500807       -13.6277
 191   2.0000      -0.495958       -13.4957
 192   2.0000      -0.489544       -13.3212
 193   2.0000      -0.487207       -13.2576
 194   2.0000      -0.486450       -13.2370
 195   2.0000      -0.484721       -13.1899
 196   2.0000      -0.482328       -13.1248
 197   2.0000      -0.481030       -13.0895
 198   2.0000      -0.473738       -12.8911
 199   2.0000      -0.472997       -12.8709
 200   2.0000      -0.468410       -12.7461
 201   2.0000      -0.468095       -12.7375
 202   2.0000      -0.465756       -12.6739
 203   2.0000      -0.462009       -12.5719
 204   2.0000      -0.461690       -12.5632
 205   2.0000      -0.457711       -12.4550
 206   2.0000      -0.456155       -12.4126
 207   2.0000      -0.455031       -12.3820
 208   2.0000      -0.452906       -12.3242
 209   2.0000      -0.448043       -12.1919
 210   2.0000      -0.446055       -12.1378
 211   2.0000      -0.445186       -12.1141
 212   2.0000      -0.444497       -12.0954
 213   2.0000      -0.440049       -11.9743
 214   2.0000      -0.439606       -11.9623
 215   2.0000      -0.438596       -11.9348
 216   2.0000      -0.436595       -11.8803
 217   2.0000      -0.435619       -11.8538
 218   2.0000      -0.434927       -11.8350
 219   2.0000      -0.428807       -11.6684
 220   2.0000      -0.428251       -11.6533
 221   2.0000      -0.425896       -11.5892
 222   2.0000      -0.425307       -11.5732
 223   2.0000      -0.424835       -11.5603
 224   2.0000      -0.421855       -11.4792
 225   2.0000      -0.420429       -11.4405
 226   2.0000      -0.419866       -11.4251
 227   2.0000      -0.416228       -11.3262
 228   2.0000      -0.413401       -11.2492
 229   2.0000      -0.410789       -11.1782
 230   2.0000      -0.409054       -11.1309
 231   2.0000      -0.408415       -11.1135
 232   2.0000      -0.407302       -11.0833
 233   2.0000      -0.402508       -10.9528
 234   2.0000      -0.400796       -10.9062
 235   2.0000      -0.399379       -10.8676
 236   2.0000      -0.397190       -10.8081
 237   2.0000      -0.388677       -10.5764
 238   2.0000      -0.384896       -10.4736
 239   2.0000      -0.380898       -10.3648
 240   2.0000      -0.368608       -10.0303
 241   2.0000      -0.363753        -9.8982
 242   2.0000      -0.348181        -9.4745
 243   2.0000      -0.335754        -9.1363
 244   2.0000      -0.334269        -9.0959
 245   2.0000      -0.331084        -9.0093
 246   2.0000      -0.327651        -8.9158
 247   2.0000      -0.312760        -8.5106
 248   2.0000      -0.304507        -8.2861
 249   2.0000      -0.298134        -8.1126
 250   2.0000      -0.294471        -8.0130
 251   2.0000      -0.282223        -7.6797
 252   2.0000      -0.261462        -7.1147
 253   2.0000      -0.232818        -6.3353
 254   0.0000      -0.101246        -2.7551
 255   0.0000      -0.067561        -1.8384
 256   0.0000      -0.056032        -1.5247
 257   0.0000      -0.040883        -1.1125
 258   0.0000      -0.025323        -0.6891

MULLIKEN ATOMIC CHARGES
-----------------------
   0 C :   -0.102267
   1 C :    0.030543
   2 C :    0.020064
   3 C :    0.063356
   4 C :   -0.146243
   5 S :    0.138991
   6 C :   -0.112157
   7 C :    0.045629
   8 C :    0.001941
   9 C :   -0.067588
  10 S :    0.126175
  11 C :    0.068976
  12 C :   -0.025271
  13 C :    0.019499
  14 C :   -0.113651
  15 S :    0.125549
  16 C :   -0.093482
  17 C :   -0.074786
  18 C :   -0.078831
  19 C :    0.166351
  20 C :   -0.077249
  21 C :   -0.259712
  22 N :    0.159929
  23 C :   -0.087354
  24 C :   -0.256264
  25 N :    0.162571
  26 C :    0.160310
  27 C :   -0.018833
  28 C :   -0.049211
  29 C :   -0.017256
  30 S :   -0.006004
  31 C :   -0.091983
  32 C :   -0.113149
  33 S :    0.098077
  34 C :   -0.077238
  35 S :    0.153946
  36 C :   -0.169240
  37 C :   -0.019119
  38 C :   -0.092399
  39 C :    0.180854
  40 C :   -0.091362
  41 C :   -0.255001
  42 N :    0.160112
  43 C :   -0.113307
  44 C :   -0.255880
  45 N :    0.163374
  46 C :    0.222769
  47 C :    0.037896
  48 C :   -0.144933
  49 C :    0.141651
  50 O :   -0.145010
  51 C :    0.004110
  52 C :   -0.079438
  53 C :    0.098942
  54 C :    0.103289
  55 C :   -0.097046
  56 C :    0.303218
  57 C :   -0.031095
  58 C :   -0.008763
  59 F :   -0.190958
  60 C :   -0.088340
  61 C :    0.046106
  62 C :    0.248856
  63 C :   -0.340149
  64 C :   -0.191389
  65 N :    0.159567
  66 C :   -0.137149
  67 N :    0.122805
  68 H :    0.049576
  69 H :   -0.013777
  70 H :    0.036983
  71 H :   -0.015559
  72 H :    0.028999
  73 H :   -0.034214
  74 H :   -0.023665
  75 H :    0.045673
  76 H :    0.042428
  77 H :    0.047799
  78 H :    0.049741
  79 H :    0.039714
  80 H :    0.048841
  81 H :   -0.022499
  82 H :    0.082925
  83 H :    0.072614
  84 H :    0.068977
  85 H :    0.050611
  86 H :    0.040855
  87 H :    0.046755
  88 H :    0.062479
  89 H :    0.032126
  90 H :    0.047361
  91 H :    0.025764
  92 H :   -0.010960
  93 H :   -0.004578
  94 H :    0.003800
  95 H :   -0.007985
  96 H :   -0.007132
Sum of atomic charges:   -0.0000000

LOEWDIN ATOMIC CHARGES
----------------------
   0 C :   -0.179875
   1 C :   -0.030349
   2 C :   -0.017266
   3 C :   -0.042847
   4 C :   -0.144198
   5 S :    0.462723
   6 C :   -0.209472
   7 C :   -0.039774
   8 C :   -0.068465
   9 C :   -0.163485
  10 S :    0.419500
  11 C :   -0.064027
  12 C :   -0.004413
  13 C :   -0.068960
  14 C :   -0.149909
  15 S :    0.435133
  16 C :   -0.203884
  17 C :   -0.053237
  18 C :   -0.076539
  19 C :   -0.008199
  20 C :   -0.031924
  21 C :   -0.037503
  22 N :   -0.045873
  23 C :   -0.031820
  24 C :   -0.037973
  25 N :   -0.044950
  26 C :   -0.008401
  27 C :   -0.162606
  28 C :   -0.083928
  29 C :   -0.183404
  30 S :    0.312898
  31 C :   -0.149458
  32 C :   -0.214230
  33 S :    0.442271
  34 C :   -0.153473
  35 S :    0.501681
  36 C :   -0.200772
  37 C :   -0.023159
  38 C :   -0.075200
  39 C :   -0.018283
  40 C :   -0.031634
  41 C :   -0.036290
  42 N :   -0.046196
  43 C :   -0.030881
  44 C :   -0.037782
  45 N :   -0.043877
  46 C :   -0.002592
  47 C :    0.050395
  48 C :   -0.103922
  49 C :    0.081413
  50 O :   -0.147887
  51 C :   -0.058809
  52 C :    0.034016
  53 C :   -0.018815
  54 C :    0.003290
  55 C :   -0.043078
  56 C :    0.093491
  57 C :   -0.037169
  58 C :    0.004877
  59 F :   -0.065398
  60 C :    0.008187
  61 C :   -0.016168
  62 C :    0.060554
  63 C :   -0.151946
  64 C :   -0.028862
  65 N :   -0.063373
  66 C :   -0.011027
  67 N :   -0.071355
  68 H :    0.033359
  69 H :    0.037165
  70 H :    0.035919
  71 H :    0.029345
  72 H :    0.024334
  73 H :    0.027940
  74 H :    0.023259
  75 H :    0.044530
  76 H :    0.040644
  77 H :    0.058863
  78 H :    0.059456
  79 H :    0.041710
  80 H :    0.045338
  81 H :    0.029033
  82 H :    0.037376
  83 H :    0.033020
  84 H :    0.024255
  85 H :    0.032535
  86 H :    0.042849
  87 H :    0.058293
  88 H :    0.064491
  89 H :    0.046111
  90 H :    0.048722
  91 H :    0.047652
  92 H :    0.039860
  93 H :    0.042293
  94 H :    0.042034
  95 H :    0.036014
  96 H :    0.038081

  Mayer bond orders larger than 0.100000
B(  0-C ,  1-C ) :   1.6543 B(  0-C ,  5-S ) :   1.1107 B(  0-C , 68-H ) :   0.9397
B(  1-C ,  2-C ) :   1.1975 B(  1-C , 69-H ) :   0.9706 B(  2-C ,  3-C ) :   1.0603
B(  2-C , 11-C ) :   1.4298 B(  3-C ,  4-C ) :   1.5960 B(  3-C ,  6-C ) :   1.1873
B(  4-C ,  5-S ) :   1.1481 B(  4-C , 70-H ) :   0.9423 B(  6-C ,  7-C ) :   1.4540
B(  6-C , 10-S ) :   1.0683 B(  7-C ,  8-C ) :   1.2183 B(  7-C , 11-C ) :   1.0967
B(  8-C ,  9-C ) :   1.5850 B(  8-C , 71-H ) :   0.9974 B(  9-C , 10-S ) :   1.1599
B(  9-C , 72-H ) :   0.9658 B( 11-C , 12-C ) :   1.1530 B( 12-C , 13-C ) :   1.6477
B( 12-C , 73-H ) :   0.9517 B( 13-C , 14-C ) :   1.1306 B( 13-C , 74-H ) :   0.9441
B( 14-C , 15-S ) :   1.1252 B( 14-C , 16-C ) :   0.1084 B( 14-C , 18-C ) :   1.4978
B( 15-S , 16-C ) :   1.1100 B( 16-C , 17-C ) :   1.5401 B( 16-C , 27-C ) :   1.1223
B( 17-C , 18-C ) :   1.3222 B( 17-C , 26-C ) :   1.0569 B( 18-C , 19-C ) :   1.0576
B( 19-C , 20-C ) :   1.0847 B( 19-C , 75-H ) :   0.9102 B( 19-C , 76-H ) :   0.8841
B( 20-C , 21-C ) :   1.0862 B( 20-C , 23-C ) :   1.0665 B( 20-C , 77-H ) :   0.8510
B( 21-C , 22-N ) :   3.1242 B( 23-C , 24-C ) :   1.0854 B( 23-C , 26-C ) :   1.0866
B( 23-C , 78-H ) :   0.8513 B( 24-C , 25-N ) :   3.1252 B( 26-C , 79-H ) :   0.8864
B( 26-C , 80-H ) :   0.9094 B( 27-C , 28-C ) :   1.5021 B( 27-C , 33-S ) :   1.1069
B( 28-C , 29-C ) :   1.2384 B( 28-C , 81-H ) :   0.9969 B( 29-C , 30-S ) :   1.0445
B( 29-C , 32-C ) :   1.4854 B( 30-S , 31-C ) :   0.9917 B( 31-C , 82-H ) :   0.9560
B( 31-C , 83-H ) :   0.9689 B( 31-C , 84-H ) :   0.9659 B( 32-C , 33-S ) :   1.0965
B( 32-C , 34-C ) :   1.1708 B( 34-C , 35-S ) :   1.1622 B( 34-C , 38-C ) :   1.4314
B( 35-S , 36-C ) :   1.1043 B( 36-C , 37-C ) :   1.4071 B( 36-C , 47-C ) :   1.1630
B( 37-C , 38-C ) :   1.3976 B( 37-C , 46-C ) :   1.0602 B( 38-C , 39-C ) :   1.0475
B( 39-C , 40-C ) :   1.0881 B( 39-C , 85-H ) :   0.9065 B( 39-C , 86-H ) :   0.8852
B( 40-C , 41-C ) :   1.0853 B( 40-C , 43-C ) :   1.0656 B( 40-C , 87-H ) :   0.8538
B( 41-C , 42-N ) :   3.1242 B( 43-C , 44-C ) :   1.0900 B( 43-C , 46-C ) :   1.0993
B( 43-C , 88-H ) :   0.8563 B( 44-C , 45-N ) :   3.1230 B( 46-C , 89-H ) :   0.8752
B( 46-C , 90-H ) :   0.9089 B( 47-C , 48-C ) :   1.6042 B( 47-C , 91-H ) :   0.9474
B( 48-C , 49-C ) :   0.9448 B( 48-C , 62-C ) :   1.0530 B( 49-C , 50-O ) :   2.2742
B( 49-C , 51-C ) :   0.9171 B( 51-C , 52-C ) :   1.4755 B( 51-C , 61-C ) :   1.2149
B( 52-C , 53-C ) :   1.1919 B( 52-C , 92-H ) :   1.0147 B( 53-C , 54-C ) :   1.2558
B( 53-C , 58-C ) :   1.2356 B( 54-C , 55-C ) :   1.2045 B( 54-C , 60-C ) :   1.2015
B( 55-C , 56-C ) :   1.4408 B( 55-C , 93-H ) :   1.0060 B( 56-C , 57-C ) :   1.2567
B( 56-C , 59-F ) :   1.0884 B( 57-C , 58-C ) :   1.4609 B( 57-C , 94-H ) :   0.9924
B( 58-C , 95-H ) :   0.9967 B( 60-C , 61-C ) :   1.4672 B( 60-C , 96-H ) :   0.9939
B( 61-C , 62-C ) :   1.0083 B( 62-C , 63-C ) :   1.6278 B( 63-C , 64-C ) :   1.1603
B( 63-C , 66-C ) :   1.1591 B( 64-C , 65-N ) :   3.0099 B( 66-C , 67-N ) :   2.8952

-----------------------------------------------------------------------------
         ABSORPTION SPECTRUM VIA TRANSITION ELECTRIC DIPOLE MOMENTS
-----------------------------------------------------------------------------
State   Energy  Wavelength   fosc         T2         TX        TY        TZ
        (cm-1)    (nm)                  (au**2)     (au)      (au)      (au)
-----------------------------------------------------------------------------
   0   15561.6    642.6   1.071406201  22.66598   0.19361  -4.64267  -1.03640
   1   20245.8    493.9   0.198163058   3.22227   0.59891  -1.33958  -1.03398
   2   22172.9    451.0   0.140814322   2.09074  -0.07046   0.95926   1.07962
   3   24600.7    406.5   0.412844056   5.52477  -0.25798   2.31363  -0.32452
   4   25852.5    386.8   0.214587979   2.73262   0.57151  -1.48721  -0.44067
   5   26138.4    382.6   0.174978630   2.20385   0.25799  -1.09722  -0.96613
   6   26823.9    372.8   0.074901737   0.91928   0.28050  -0.11719   0.90932
   7   27414.5    364.8   0.192106078   2.30694  -0.70786   1.10703  -0.76181
   8   28574.9    350.0   0.057760323   0.66546   0.02884  -0.73077   0.36138
   9   29161.6    342.9   0.009354310   0.10560   0.23340  -0.05954  -0.21814
  10   29600.4    337.8   0.013428588   0.14935   0.12414   0.25998   0.25759
  11   29941.3    334.0   0.014680980   0.16142  -0.19824   0.31895   0.14280
  12   31032.0    322.2   0.332687824   3.52941   0.14916  -0.30411  -1.84789
  13   31707.6    315.4   0.073125662   0.75924   0.18431   0.13734  -0.84048
  14   32399.7    308.6   0.078942033   0.80213   0.35427  -0.34101   0.74855
  15   33200.9    301.2   0.407699483   4.04264   0.64817  -1.52863  -1.13394
  16   33398.8    299.4   0.201425651   1.98545   0.88926  -0.90069  -0.61922
  17   34111.5    293.2   0.149231405   1.44024   0.38131  -0.61642  -0.95649
  18   34279.9    291.7   0.285942299   2.74609  -0.44214   1.38943   0.78745
  19   34711.2    288.1   0.113792468   1.07924   0.52021  -0.39216  -0.80922
  20   35209.1    284.0   0.012850648   0.12016   0.02345  -0.11949   0.32454
  21   35908.8    278.5   0.011522207   0.10564   0.28513   0.13587  -0.07666
  22   36720.9    272.3   0.021899081   0.19633   0.01243   0.15388   0.41533
  23   36968.8    270.5   0.154011034   1.37149   0.59679  -0.81735  -0.58929
  24   37345.8    267.8   0.071301277   0.62854   0.19830   0.02534  -0.76718
  25   38056.3    262.8   0.050632782   0.43801  -0.20492  -0.45255  -0.43728
  26   38446.2    260.1   0.223450398   1.91339  -0.09806   0.19750   1.36556
  27   38830.9    257.5   0.314200837   2.66382   0.32837  -1.15812   1.10215
  28   39038.1    256.2   0.026625892   0.22454   0.04842  -0.36341  -0.30021
  29   39455.4    253.5   0.045425754   0.37903   0.50332  -0.18535  -0.30222
  30   39696.8    251.9   0.103854756   0.86128   0.10074  -0.13475   0.91268
  31   40093.7    249.4   0.028627808   0.23506   0.18604   0.40899   0.18215
  32   40258.6    248.4   0.108173775   0.88458  -0.16282   0.44071  -0.81477

FINAL SINGLE POINT ENERGY     -4963.809064360937

DIPOLE MOMENT
-------------
                                X             Y             Z
Electronic contribution:     -2.35228      16.45487      -3.79705
Nuclear contribution   :      0.97739     -17.42023       3.46261
                        -----------------------------------------
Total Dipole Moment    :     -1.37489      -0.96535      -0.33444
                        -----------------------------------------
Magnitude (a.u.)       :      1.71292
Magnitude (Debye)      :      4.35390

Rotational constants in cm-1:     0.001579     0.000347     0.000290
Rotational constants in MHz :    47.330713    10.400866     8.693461

                             ****ORCA TERMINATED NORMALLY****
TOTAL RUN TIME: 0 days 0 hours 10 minutes 44 seconds 655 msec
