                         Program Version 4.2.0 -  RELEASE  -
|  1> # ORCA input file
|  2> # SCF done       -130.683380359847          0.000548882659
|  3> ! CAM-B3LYP def2-SVP def2/J RIJCOSX Grid4 TightSCF
|  4> %maxcore 5000
|  5> %tddft
|  6>     Mode sTDDFT
|  7>     Ethresh 5.0
|  8>     maxcore 5000
|  9> end
| 10>
| 11> %pal
| 12>   nprocs 6
| 13>   end
| 14> * xyz 0 1
| 15>    C        2.23489         6.21748        -8.97050
| 16>    N        2.64364         5.77718        -7.75806
| 17>    C        3.82897         6.38035        -7.43202
| 18>    C        4.17014         7.22516        -8.47706
| 19>    C        3.16077         7.11657        -9.44157
| 20>    C        4.49956         6.12233        -6.24156
| 21>    C        5.07056         5.87876        -5.19854
| 22>    C        5.75178         5.61247        -4.02266
| 23>    C        5.37784         4.74999        -3.01259
| 24>    C        6.31912         4.72143        -1.97872
| 25>    C        7.41163         5.57059        -2.20936
| 26>    S        7.29017         6.40946        -3.69371
| 27>    C        8.30816         5.45669        -1.11478
| 28>    C        7.78532         4.53862        -0.19472
| 29>    C        6.51312         4.04782        -0.70545
| 30>    C        5.68104         3.14300        -0.11302
| 31>    C        4.46858         2.73629        -0.70695
| 32>    N        3.48168         2.40078        -1.18566
| 33>    C        5.97727         2.55255         1.13270
| 34>    N        6.21327         2.06924         2.14578
| 35>    C        8.60991         4.34383         0.91695
| 36>    C        9.75822         5.10689         0.85091
| 37>    S        9.81412         6.08787        -0.61251
| 38>    C       10.83184         5.14523         1.78158
| 39>    N       11.92697         5.94081         1.61960
| 40>    C       12.80324         5.73985         2.64787
| 41>    C       12.24422         4.78758         3.49600
| 42>    C       11.01586         4.41931         2.95793
| 43>    C       14.01974         6.40316         2.73054
| 44>    C       15.07989         6.99499         2.76001
| 45>    C       16.30722         7.63279         2.79048
| 46>    C       16.68996         8.74258         2.06440
| 47>    C       18.01744         9.09709         2.31872
| 48>    C       18.64448         8.24719         3.24327
| 49>    S       17.60640         7.01514         3.81261
| 50>    C       19.98640         8.67806         3.41094
| 51>    C       20.20705         9.79770         2.59916
| 52>    C       18.97331        10.10465         1.88974
| 53>    C       18.76010        11.12343         1.00752
| 54>    C       17.51474        11.32096         0.37614
| 55>    N       16.50583        11.48339        -0.14467
| 56>    C       19.76864        12.04858         0.66768
| 57>    N       20.58378        12.80479         0.38629
| 58>    C       21.51454        10.28669         2.67933
| 59>    C       22.29374         9.54495         3.54367
| 60>    S       21.38888         8.22349         4.27676
| 61>    C       23.66808         9.73882         3.85510
| 62>    N       24.35904         8.93359         4.71375
| 63>    C       25.65210         9.35510         4.80221
| 64>    C       25.79413        10.46225         3.97858
| 65>    C       24.55570        10.70309         3.38618
| 66>    C       26.60039         8.71338         5.60828
| 67>    C       27.41396         8.15676         6.29655
| 68>    H        1.32407         5.86823        -9.41561
| 69>    H        2.16268         5.11136        -7.17619
| 70>    H        5.04644         7.84032        -8.52324
| 71>    H        3.11741         7.63851       -10.37669
| 72>    H        4.46814         4.17855        -3.04336
| 73>    H        8.39493         3.68159         1.73451
| 74>    H       12.07393         6.57797         0.85357
| 75>    H       12.69125         4.41702         4.39669
| 76>    H       10.33035         3.70464         3.36636
| 77>    H       16.02598         9.25303         1.39081
| 78>    H       21.88910        11.13424         2.13677
| 79>    H       23.97340         8.14512         5.20761
| 80>    H       26.69711        11.02051         3.83261
| 81>    H       24.32305        11.48663         2.69378
| 82>    H       28.13389         7.68308         6.89408
| 83> *
| 84>
| 85>                          ****END OF INPUT****

CARTESIAN COORDINATES (ANGSTROEM)
---------------------------------
  C      2.234890    6.217480   -8.970500
  N      2.643640    5.777180   -7.758060
  C      3.828970    6.380350   -7.432020
  C      4.170140    7.225160   -8.477060
  C      3.160770    7.116570   -9.441570
  C      4.499560    6.122330   -6.241560
  C      5.070560    5.878760   -5.198540
  C      5.751780    5.612470   -4.022660
  C      5.377840    4.749990   -3.012590
  C      6.319120    4.721430   -1.978720
  C      7.411630    5.570590   -2.209360
  S      7.290170    6.409460   -3.693710
  C      8.308160    5.456690   -1.114780
  C      7.785320    4.538620   -0.194720
  C      6.513120    4.047820   -0.705450
  C      5.681040    3.143000   -0.113020
  C      4.468580    2.736290   -0.706950
  N      3.481680    2.400780   -1.185660
  C      5.977270    2.552550    1.132700
  N      6.213270    2.069240    2.145780
  C      8.609910    4.343830    0.916950
  C      9.758220    5.106890    0.850910
  S      9.814120    6.087870   -0.612510
  C     10.831840    5.145230    1.781580
  N     11.926970    5.940810    1.619600
  C     12.803240    5.739850    2.647870
  C     12.244220    4.787580    3.496000
  C     11.015860    4.419310    2.957930
  C     14.019740    6.403160    2.730540
  C     15.079890    6.994990    2.760010
  C     16.307220    7.632790    2.790480
  C     16.689960    8.742580    2.064400
  C     18.017440    9.097090    2.318720
  C     18.644480    8.247190    3.243270
  S     17.606400    7.015140    3.812610
  C     19.986400    8.678060    3.410940
  C     20.207050    9.797700    2.599160
  C     18.973310   10.104650    1.889740
  C     18.760100   11.123430    1.007520
  C     17.514740   11.320960    0.376140
  N     16.505830   11.483390   -0.144670
  C     19.768640   12.048580    0.667680
  N     20.583780   12.804790    0.386290
  C     21.514540   10.286690    2.679330
  C     22.293740    9.544950    3.543670
  S     21.388880    8.223490    4.276760
  C     23.668080    9.738820    3.855100
  N     24.359040    8.933590    4.713750
  C     25.652100    9.355100    4.802210
  C     25.794130   10.462250    3.978580
  C     24.555700   10.703090    3.386180
  C     26.600390    8.713380    5.608280
  C     27.413960    8.156760    6.296550
  H      1.324070    5.868230   -9.415610
  H      2.162680    5.111360   -7.176190
  H      5.046440    7.840320   -8.523240
  H      3.117410    7.638510  -10.376690
  H      4.468140    4.178550   -3.043360
  H      8.394930    3.681590    1.734510
  H     12.073930    6.577970    0.853570
  H     12.691250    4.417020    4.396690
  H     10.330350    3.704640    3.366360
  H     16.025980    9.253030    1.390810
  H     21.889100   11.134240    2.136770
  H     23.973400    8.145120    5.207610
  H     26.697110   11.020510    3.832610
  H     24.323050   11.486630    2.693780
  H     28.133890    7.683080    6.894080

 Total Charge           Charge          ....    0
 Multiplicity           Mult            ....    1
 Number of Electrons    NEL             ....  380
 Basis Dimension        Dim             ....  833

ORBITAL ENERGIES
----------------

  NO   OCC          E(Eh)            E(eV)
   0   2.0000     -88.988841     -2421.5095
   1   2.0000     -88.987476     -2421.4723
   2   2.0000     -88.986979     -2421.4588
   3   2.0000     -88.983379     -2421.3608
   4   2.0000     -14.474672      -393.8758
   5   2.0000     -14.473501      -393.8440
   6   2.0000     -14.462868      -393.5546
   7   2.0000     -14.428738      -392.6259
   8   2.0000     -14.428432      -392.6176
   9   2.0000     -14.426649      -392.5691
  10   2.0000     -14.426415      -392.5627
  11   2.0000     -10.362239      -281.9709
  12   2.0000     -10.359831      -281.9053
  13   2.0000     -10.349660      -281.6286
  14   2.0000     -10.347566      -281.5716
  15   2.0000     -10.329822      -281.0888
  16   2.0000     -10.329362      -281.0762
  17   2.0000     -10.329203      -281.0719
  18   2.0000     -10.328866      -281.0627
  19   2.0000     -10.327198      -281.0174
  20   2.0000     -10.326939      -281.0103
  21   2.0000     -10.326894      -281.0091
  22   2.0000     -10.326261      -280.9918
  23   2.0000     -10.325824      -280.9799
  24   2.0000     -10.325553      -280.9726
  25   2.0000     -10.325423      -280.9690
  26   2.0000     -10.323587      -280.9191
  27   2.0000     -10.320931      -280.8468
  28   2.0000     -10.318711      -280.7864
  29   2.0000     -10.317792      -280.7614
  30   2.0000     -10.316574      -280.7283
  31   2.0000     -10.306893      -280.4648
  32   2.0000     -10.300537      -280.2919
  33   2.0000     -10.299197      -280.2554
  34   2.0000     -10.298091      -280.2253
  35   2.0000     -10.298028      -280.2236
  36   2.0000     -10.295346      -280.1506
  37   2.0000     -10.295303      -280.1494
  38   2.0000     -10.294659      -280.1319
  39   2.0000     -10.294498      -280.1275
  40   2.0000     -10.293995      -280.1138
  41   2.0000     -10.287878      -279.9474
  42   2.0000     -10.285597      -279.8853
  43   2.0000     -10.281728      -279.7801
  44   2.0000     -10.277993      -279.6784
  45   2.0000     -10.277656      -279.6692
  46   2.0000     -10.271380      -279.4985
  47   2.0000     -10.269757      -279.4543
  48   2.0000     -10.267512      -279.3932
  49   2.0000     -10.266408      -279.3632
  50   2.0000     -10.265877      -279.3487
  51   2.0000     -10.257361      -279.1170
  52   2.0000     -10.251987      -278.9707
  53   2.0000      -8.083620      -219.9665
  54   2.0000      -8.082138      -219.9261
  55   2.0000      -8.081620      -219.9121
  56   2.0000      -8.077931      -219.8117
  57   2.0000      -6.052910      -164.7081
  58   2.0000      -6.051417      -164.6674
  59   2.0000      -6.050949      -164.6547
  60   2.0000      -6.048821      -164.5968
  61   2.0000      -6.047347      -164.5567
  62   2.0000      -6.047277      -164.5548
  63   2.0000      -6.046724      -164.5397
  64   2.0000      -6.045857      -164.5161
  65   2.0000      -6.044427      -164.4772
  66   2.0000      -6.043829      -164.4610
  67   2.0000      -6.043022      -164.4390
  68   2.0000      -6.040162      -164.3612
  69   2.0000      -1.093698       -29.7610
  70   2.0000      -1.092290       -29.7227
  71   2.0000      -1.077413       -29.3179
  72   2.0000      -1.040797       -28.3215
  73   2.0000      -1.038369       -28.2555
  74   2.0000      -1.019750       -27.7488
  75   2.0000      -1.017640       -27.6914
  76   2.0000      -1.006024       -27.3753
  77   2.0000      -1.004023       -27.3209
  78   2.0000      -0.992973       -27.0202
  79   2.0000      -0.990430       -26.9510
  80   2.0000      -0.956283       -26.0218
  81   2.0000      -0.953937       -25.9579
  82   2.0000      -0.915615       -24.9151
  83   2.0000      -0.912424       -24.8283
  84   2.0000      -0.887170       -24.1411
  85   2.0000      -0.883623       -24.0446
  86   2.0000      -0.882200       -24.0059
  87   2.0000      -0.877526       -23.8787
  88   2.0000      -0.873993       -23.7826
  89   2.0000      -0.866713       -23.5844
  90   2.0000      -0.865710       -23.5572
  91   2.0000      -0.858890       -23.3716
  92   2.0000      -0.850178       -23.1345
  93   2.0000      -0.847729       -23.0679
  94   2.0000      -0.844273       -22.9738
  95   2.0000      -0.826437       -22.4885
  96   2.0000      -0.814674       -22.1684
  97   2.0000      -0.790420       -21.5084
  98   2.0000      -0.774037       -21.0626
  99   2.0000      -0.772183       -21.0122
 100   2.0000      -0.770045       -20.9540
 101   2.0000      -0.742323       -20.1996
 102   2.0000      -0.724299       -19.7092
 103   2.0000      -0.704942       -19.1824
 104   2.0000      -0.702016       -19.1028
 105   2.0000      -0.695258       -18.9189
 106   2.0000      -0.693363       -18.8674
 107   2.0000      -0.686068       -18.6689
 108   2.0000      -0.685372       -18.6499
 109   2.0000      -0.682450       -18.5704
 110   2.0000      -0.677079       -18.4243
 111   2.0000      -0.670605       -18.2481
 112   2.0000      -0.669740       -18.2245
 113   2.0000      -0.666700       -18.1418
 114   2.0000      -0.658126       -17.9085
 115   2.0000      -0.652917       -17.7668
 116   2.0000      -0.631567       -17.1858
 117   2.0000      -0.626254       -17.0412
 118   2.0000      -0.616254       -16.7691
 119   2.0000      -0.612712       -16.6727
 120   2.0000      -0.612369       -16.6634
 121   2.0000      -0.607829       -16.5399
 122   2.0000      -0.597801       -16.2670
 123   2.0000      -0.584552       -15.9065
 124   2.0000      -0.578029       -15.7290
 125   2.0000      -0.547869       -14.9083
 126   2.0000      -0.545998       -14.8574
 127   2.0000      -0.545369       -14.8402
 128   2.0000      -0.543459       -14.7883
 129   2.0000      -0.538160       -14.6441
 130   2.0000      -0.536167       -14.5898
 131   2.0000      -0.532071       -14.4784
 132   2.0000      -0.530078       -14.4242
 133   2.0000      -0.528578       -14.3833
 134   2.0000      -0.528235       -14.3740
 135   2.0000      -0.526553       -14.3282
 136   2.0000      -0.519388       -14.1333
 137   2.0000      -0.511069       -13.9069
 138   2.0000      -0.501891       -13.6572
 139   2.0000      -0.499287       -13.5863
 140   2.0000      -0.498284       -13.5590
 141   2.0000      -0.497250       -13.5309
 142   2.0000      -0.494455       -13.4548
 143   2.0000      -0.493331       -13.4242
 144   2.0000      -0.488924       -13.3043
 145   2.0000      -0.488667       -13.2973
 146   2.0000      -0.485517       -13.2116
 147   2.0000      -0.484516       -13.1843
 148   2.0000      -0.481611       -13.1053
 149   2.0000      -0.477049       -12.9812
 150   2.0000      -0.476234       -12.9590
 151   2.0000      -0.467717       -12.7272
 152   2.0000      -0.466010       -12.6808
 153   2.0000      -0.464439       -12.6380
 154   2.0000      -0.460048       -12.5186
 155   2.0000      -0.458162       -12.4672
 156   2.0000      -0.456572       -12.4239
 157   2.0000      -0.454620       -12.3708
 158   2.0000      -0.448268       -12.1980
 159   2.0000      -0.445973       -12.1355
 160   2.0000      -0.440325       -11.9818
 161   2.0000      -0.438812       -11.9407
 162   2.0000      -0.438123       -11.9219
 163   2.0000      -0.436909       -11.8889
 164   2.0000      -0.436892       -11.8884
 165   2.0000      -0.434838       -11.8325
 166   2.0000      -0.432850       -11.7784
 167   2.0000      -0.424571       -11.5532
 168   2.0000      -0.422586       -11.4991
 169   2.0000      -0.422525       -11.4975
 170   2.0000      -0.399373       -10.8675
 171   2.0000      -0.395079       -10.7506
 172   2.0000      -0.394380       -10.7316
 173   2.0000      -0.374231       -10.1833
 174   2.0000      -0.360871        -9.8198
 175   2.0000      -0.360591        -9.8122
 176   2.0000      -0.354851        -9.6560
 177   2.0000      -0.354337        -9.6420
 178   2.0000      -0.347045        -9.4436
 179   2.0000      -0.345120        -9.3912
 180   2.0000      -0.337408        -9.1813
 181   2.0000      -0.335442        -9.1278
 182   2.0000      -0.324565        -8.8319
 183   2.0000      -0.320433        -8.7194
 184   2.0000      -0.320272        -8.7150
 185   2.0000      -0.317273        -8.6334
 186   2.0000      -0.296168        -8.0591
 187   2.0000      -0.265116        -7.2142
 188   2.0000      -0.243716        -6.6318
 189   2.0000      -0.225070        -6.1245
 190   0.0000      -0.102294        -2.7836
 191   0.0000      -0.098803        -2.6886
 192   0.0000      -0.041919        -1.1407
 193   0.0000      -0.024598        -0.6693
 194   0.0000      -0.005327        -0.1450

MULLIKEN ATOMIC CHARGES
-----------------------
   0 C :    0.050376
   1 N :   -0.047659
   2 C :   -0.031601
   3 C :   -0.015623
   4 C :   -0.001150
   5 C :    0.050255
   6 C :   -0.038490
   7 C :   -0.141343
   8 C :   -0.000894
   9 C :   -0.001834
  10 C :   -0.099414
  11 S :    0.210618
  12 C :   -0.101711
  13 C :    0.018917
  14 C :    0.297689
  15 C :   -0.302052
  16 C :   -0.188848
  17 N :    0.172964
  18 C :   -0.188303
  19 N :    0.171915
  20 C :   -0.061888
  21 C :   -0.042219
  22 S :    0.155139
  23 C :    0.081475
  24 N :   -0.058990
  25 C :    0.000310
  26 C :    0.009687
  27 C :   -0.052183
  28 C :    0.042010
  29 C :   -0.036024
  30 C :   -0.151500
  31 C :   -0.000840
  32 C :   -0.002755
  33 C :   -0.096196
  34 S :    0.210830
  35 C :   -0.103878
  36 C :    0.020153
  37 C :    0.299847
  38 C :   -0.297685
  39 C :   -0.188828
  40 N :    0.171549
  41 C :   -0.186453
  42 N :    0.169529
  43 C :   -0.061927
  44 C :   -0.036368
  45 S :    0.154543
  46 C :    0.075121
  47 N :   -0.052352
  48 C :    0.059505
  49 C :    0.007156
  50 C :   -0.054073
  51 C :    0.426506
  52 C :   -0.498914
  53 H :   -0.000713
  54 H :    0.127456
  55 H :   -0.026245
  56 H :   -0.018440
  57 H :    0.006860
  58 H :    0.004066
  59 H :    0.128073
  60 H :   -0.023974
  61 H :   -0.016864
  62 H :    0.008607
  63 H :    0.004092
  64 H :    0.126097
  65 H :   -0.020632
  66 H :   -0.017285
  67 H :    0.004804
Sum of atomic charges:    0.0000000

LOEWDIN ATOMIC CHARGES
----------------------
   0 C :   -0.007610
   1 N :    0.103166
   2 C :   -0.049760
   3 C :   -0.046779
   4 C :   -0.078142
   5 C :   -0.023498
   6 C :   -0.073917
   7 C :   -0.177223
   8 C :   -0.019466
   9 C :   -0.076806
  10 C :   -0.181859
  11 S :    0.482356
  12 C :   -0.186023
  13 C :   -0.067751
  14 C :    0.085647
  15 C :   -0.104300
  16 C :   -0.015734
  17 N :   -0.035429
  18 C :   -0.015918
  19 N :   -0.035995
  20 C :   -0.031136
  21 C :   -0.163206
  22 S :    0.449596
  23 C :   -0.028029
  24 N :    0.098084
  25 C :   -0.034659
  26 C :   -0.037729
  27 C :   -0.057205
  28 C :   -0.033917
  29 C :   -0.063119
  30 C :   -0.183284
  31 C :   -0.015044
  32 C :   -0.078472
  33 C :   -0.177182
  34 S :    0.482008
  35 C :   -0.190310
  36 C :   -0.064945
  37 C :    0.085033
  38 C :   -0.103116
  39 C :   -0.015576
  40 N :   -0.035134
  41 C :   -0.016112
  42 N :   -0.034204
  43 C :   -0.033111
  44 C :   -0.158396
  45 S :    0.448792
  46 C :   -0.033403
  47 N :    0.098949
  48 C :   -0.032740
  49 C :   -0.039057
  50 C :   -0.056680
  51 C :   -0.031268
  52 C :   -0.054817
  53 H :    0.021493
  54 H :    0.094724
  55 H :    0.027509
  56 H :    0.025334
  57 H :    0.042812
  58 H :    0.040491
  59 H :    0.086554
  60 H :    0.031021
  61 H :    0.029496
  62 H :    0.043371
  63 H :    0.040600
  64 H :    0.086251
  65 H :    0.031870
  66 H :    0.028977
  67 H :    0.033930

  Mayer bond orders larger than 0.100000
B(  0-C ,  1-N ) :   1.2357 B(  0-C ,  2-C ) :   0.1083 B(  0-C ,  4-C ) :   1.4710
B(  0-C , 53-H ) :   0.9923 B(  1-N ,  2-C ) :   1.2393 B(  1-N , 54-H ) :   0.9421
B(  2-C ,  3-C ) :   1.4690 B(  2-C ,  5-C ) :   0.8432 B(  3-C ,  4-C ) :   1.3189
B(  3-C , 55-H ) :   1.0156 B(  4-C , 56-H ) :   1.0034 B(  5-C ,  6-C ) :   2.2920
B(  6-C ,  7-C ) :   0.9641 B(  7-C ,  8-C ) :   1.4810 B(  7-C , 11-S ) :   1.0818
B(  8-C ,  9-C ) :   1.2745 B(  8-C , 57-H ) :   1.0023 B(  9-C , 10-C ) :   1.4456
B(  9-C , 14-C ) :   0.9964 B( 10-C , 11-S ) :   1.1203 B( 10-C , 12-C ) :   1.1852
B( 12-C , 13-C ) :   1.4586 B( 12-C , 22-S ) :   1.1150 B( 13-C , 14-C ) :   0.9905
B( 13-C , 20-C ) :   1.2775 B( 14-C , 15-C ) :   1.7132 B( 15-C , 16-C ) :   1.1352
B( 15-C , 18-C ) :   1.1353 B( 16-C , 17-N ) :   2.9940 B( 18-C , 19-N ) :   2.9914
B( 20-C , 21-C ) :   1.5049 B( 20-C , 58-H ) :   0.9942 B( 21-C , 22-S ) :   1.0837
B( 21-C , 23-C ) :   1.0645 B( 23-C , 24-N ) :   1.2376 B( 23-C , 25-C ) :   0.1344
B( 23-C , 27-C ) :   1.4343 B( 24-N , 25-C ) :   1.2260 B( 24-N , 59-H ) :   0.9307
B( 25-C , 26-C ) :   1.4326 B( 25-C , 28-C ) :   0.8273 B( 26-C , 27-C ) :   1.3192
B( 26-C , 60-H ) :   1.0131 B( 27-C , 61-H ) :   1.0047 B( 28-C , 29-C ) :   2.2639
B( 29-C , 30-C ) :   0.9723 B( 30-C , 31-C ) :   1.4759 B( 30-C , 34-S ) :   1.0761
B( 31-C , 32-C ) :   1.2774 B( 31-C , 62-H ) :   1.0025 B( 32-C , 33-C ) :   1.4398
B( 32-C , 37-C ) :   0.9959 B( 33-C , 34-S ) :   1.1254 B( 33-C , 35-C ) :   1.1863
B( 35-C , 36-C ) :   1.4589 B( 35-C , 45-S ) :   1.1104 B( 36-C , 37-C ) :   0.9895
B( 36-C , 43-C ) :   1.2750 B( 37-C , 38-C ) :   1.7152 B( 38-C , 39-C ) :   1.1342
B( 38-C , 41-C ) :   1.1326 B( 39-C , 40-N ) :   2.9933 B( 41-C , 42-N ) :   2.9904
B( 43-C , 44-C ) :   1.5046 B( 43-C , 63-H ) :   0.9957 B( 44-C , 45-S ) :   1.0877
B( 44-C , 46-C ) :   1.0607 B( 46-C , 47-N ) :   1.2359 B( 46-C , 48-C ) :   0.1347
B( 46-C , 50-C ) :   1.4457 B( 47-N , 48-C ) :   1.2235 B( 47-N , 64-H ) :   0.9313
B( 48-C , 49-C ) :   1.4579 B( 48-C , 51-C ) :   0.8374 B( 49-C , 50-C ) :   1.3136
B( 49-C , 65-H ) :   1.0136 B( 50-C , 66-H ) :   1.0045 B( 51-C , 52-C ) :   2.2537
B( 51-C , 67-H ) :  -0.1148 B( 52-C , 67-H ) :   1.1022

-----------------------------------------------------------------------------
         ABSORPTION SPECTRUM VIA TRANSITION ELECTRIC DIPOLE MOMENTS
-----------------------------------------------------------------------------
State   Energy  Wavelength   fosc         T2         TX        TY        TZ
        (cm-1)    (nm)                  (au**2)     (au)      (au)      (au)
-----------------------------------------------------------------------------
   0   10306.5    970.3   0.264254002   8.44085  -2.48091  -0.36346  -1.46759
   1   10735.8    931.5   0.032939657   1.01009   0.85983   0.38842  -0.34629
   2   18432.7    542.5   0.013780231   0.24612   0.37590   0.22201   0.23565
   3   19236.4    519.8   0.068420868   1.17095  -0.98270  -0.43549  -0.12488
   4   23616.7    423.4   1.376919983  19.19402  -3.87899  -0.81413  -1.86673
   5   24465.7    408.7   0.141341259   1.90190   1.13386   0.27932   0.73364
   6   25277.8    395.6   1.261006596  16.42303   3.61202   0.93247   1.58331
   7   28110.9    355.7   0.220777574   2.58557  -0.62509  -0.62708   1.34224
   8   28783.0    347.4   0.096717698   1.10623   0.29803   0.47513  -0.88975
   9   29581.5    338.0   0.179808388   2.00108  -0.88903  -0.52025   0.96956
  10   31527.1    317.2   1.662795638  17.36323   0.28686  -2.89081   2.98734
  11   31900.3    313.5   0.213163196   2.19985   1.42904   0.36151  -0.16435
  12   32563.6    307.1   0.058038791   0.58676   0.37267   0.61265  -0.26934
  13   33174.0    301.4   0.189654623   1.88209  -1.32319  -0.23622  -0.27468
  14   33389.5    299.5   0.133960150   1.32081  -1.12094  -0.14195  -0.21012
  15   33911.3    294.9   0.367749179   3.57012   1.18776  -0.17493   1.45903
  16   35107.5    284.8   0.069915439   0.65561   0.17516  -0.51708   0.59797
  17   35591.5    281.0   0.073033511   0.67554  -0.72065  -0.17848  -0.35263
  18   35832.0    279.1   0.014753945   0.13555   0.29955   0.09549   0.19158
  19   36386.2    274.8   0.013596756   0.12302   0.30937   0.00766   0.16507
  20   36523.4    273.8   0.084122544   0.75826   0.79164   0.36030   0.04176
  21   36743.9    272.2   0.015601060   0.13978  -0.03352  -0.34608   0.13742
  22   36951.6    270.6   0.006279473   0.05595   0.18532   0.14680  -0.00714
  23   37903.1    263.8   0.000047993   0.00042   0.00651  -0.01917   0.00262
  24   38286.1    261.2   0.022722242   0.19538   0.08625  -0.31663   0.29613
  25   38635.5    258.8   0.010823738   0.09223   0.23875   0.18160  -0.04743
  26   38850.4    257.4   0.058061674   0.49200  -0.64153  -0.21756  -0.18198
  27   39069.2    256.0   0.031818373   0.26811   0.44500   0.20979   0.16149
  28   39640.8    252.3   0.009423924   0.07826   0.17984  -0.12328   0.17529
  29   39740.2    251.6   0.000051404   0.00043  -0.01054  -0.00772  -0.01597
  30   39984.6    250.1   0.011677147   0.09614   0.27073  -0.07624   0.13053

FINAL SINGLE POINT ENERGY     -3582.211303268480

DIPOLE MOMENT
-------------
                                X             Y             Z
Electronic contribution:      0.80479      -2.14207      11.14029
Nuclear contribution   :      0.07545       1.50665     -11.01867
                        -----------------------------------------
Total Dipole Moment    :      0.88024      -0.63542       0.12161
                        -----------------------------------------
Magnitude (a.u.)       :      1.09241
Magnitude (Debye)      :      2.77669

Rotational constants in cm-1:     0.003008     0.000326     0.000298
Rotational constants in MHz :    90.182634     9.771794     8.920323

                             ****ORCA TERMINATED NORMALLY****
TOTAL RUN TIME: 0 days 0 hours 6 minutes 31 seconds 88 msec
