                         Program Version 4.2.0 -  RELEASE  -
|  1> # ORCA input file
|  2> # SCF done       -184.403322080393          0.000591051057
|  3> ! CAM-B3LYP def2-SVP def2/J RIJCOSX Grid4 TightSCF
|  4> %maxcore 5000
|  5> %tddft
|  6>     Mode sTDDFT
|  7>     Ethresh 5.0
|  8>     maxcore 5000
|  9> end
| 10>
| 11> %pal
| 12>   nprocs 6
| 13>   end
| 14> * xyz 0 1
| 15>    C       -2.82520         1.09190        -0.66979
| 16>    S       -3.82081        -0.21244        -1.10964
| 17>    C       -3.12233        -1.24993         0.08595
| 18>    C       -2.08405        -0.60383         0.76091
| 19>    C       -1.93393         0.76192         0.33263
| 20>    C       -0.94447         1.57993         0.91719
| 21>    C       -0.10047         1.04746         1.85759
| 22>    C        0.89076         1.85412         2.46359
| 23>    N        1.68314         2.52531         2.94748
| 24>    C       -0.18931        -0.33759         2.21528
| 25>    C        0.74415        -0.87387         3.13125
| 26>    N        1.48664        -1.32363         3.87948
| 27>    C       -1.15724        -1.14705         1.67043
| 28>    C       -3.62237        -2.58155         0.20345
| 29>    N       -3.80597        -3.28332         1.37075
| 30>    C       -3.90252        -2.74018         2.70648
| 31>    C       -5.11385        -1.82229         2.84816
| 32>    C       -4.30889        -4.58577         1.10939
| 33>    O       -4.59440        -5.36825         1.98769
| 34>    C       -4.38549        -4.66331        -0.33017
| 35>    C       -3.99610        -3.40107        -0.84895
| 36>    C       -4.06519        -3.45739        -2.29097
| 37>    O       -3.84165        -2.62511        -3.14700
| 38>    N       -4.48823        -4.76830        -2.55797
| 39>    C       -4.74893        -5.19953        -3.90949
| 40>    C       -6.23999        -5.17042        -4.23835
| 41>    C       -4.68474        -5.50255        -1.40156
| 42>    C       -5.09435        -6.85575        -1.40775
| 43>    C       -5.24858        -7.58903        -0.26764
| 44>    C       -5.65573        -8.93712        -0.14371
| 45>    N       -6.09205        -9.81358        -1.11939
| 46>    C       -6.25721        -9.58235        -2.52776
| 47>    C       -6.42077       -11.07901        -0.58722
| 48>    O       -6.80537       -12.00514        -1.27162
| 49>    C       -6.17686       -10.94029         0.82866
| 50>    C       -5.69597        -9.63348         1.06638
| 51>    C       -5.39296        -9.52202         2.47860
| 52>    O       -4.98847        -8.61966         3.17085
| 53>    N       -5.69470       -10.81283         2.99711
| 54>    C       -5.64995       -11.05722         4.41182
| 55>    C       -6.16409       -11.64573         2.03071
| 56>    C       -6.60284       -13.00677         2.17567
| 57>    C       -5.90439       -14.00782         2.87773
| 58>    C       -6.34959       -15.36644         2.82807
| 59>    N       -5.69509       -16.31158         3.52520
| 60>    C       -4.63295       -15.97774         4.20480
| 61>    C       -4.14949       -14.65542         4.18726
| 62>    N       -4.77061       -13.70385         3.54642
| 63>    C       -7.43992       -15.77196         2.01520
| 64>    C       -8.18073       -14.74797         1.37374
| 65>    C       -7.77147       -13.38319         1.47229
| 66>    N       -8.53741       -12.40744         0.94230
| 67>    C       -9.59314       -12.74877         0.26366
| 68>    C       -9.98546       -14.09850         0.14027
| 69>    N       -9.31709       -15.05701         0.71603
| 70>    C       -7.76813       -17.15581         1.93118
| 71>    S       -7.40171       -18.17729         3.27983
| 72>    C       -8.21930       -19.53535         2.59970
| 73>    C       -8.68868       -19.23883         1.31314
| 74>    C       -8.41294       -17.88690         0.91964
| 75>    C       -8.69849       -17.48462        -0.39598
| 76>    C       -9.33857       -18.34964        -1.25226
| 77>    C       -9.64155       -17.94099        -2.57057
| 78>    N       -9.88712       -17.59488        -3.63537
| 79>    C       -9.69949       -19.66522        -0.82691
| 80>    C      -10.38342       -20.52524        -1.71547
| 81>    N      -10.94084       -21.23989        -2.41699
| 82>    C       -9.35567       -20.10488         0.42871
| 83>    C       -8.33650       -20.77940         3.29621
| 84>    C       -7.82810       -21.01932         4.50651
| 85>    H       -2.92336         2.03886        -1.16240
| 86>    H       -0.84982         2.61174         0.61460
| 87>    H       -1.17158        -2.20004         1.90785
| 88>    H       -2.99397        -2.19954         2.97546
| 89>    H       -4.00967        -3.60594         3.36616
| 90>    H       -5.02298        -0.95753         2.19328
| 91>    H       -5.19044        -1.47427         3.87426
| 92>    H       -6.02459        -2.35948         2.59410
| 93>    H       -4.33202        -6.19851        -4.06619
| 94>    H       -4.21950        -4.49452        -4.55672
| 95>    H       -6.80206        -5.81821        -3.56908
| 96>    H       -6.39935        -5.49907        -5.26159
| 97>    H       -6.62040        -4.15718        -4.13557
| 98>    H       -5.26718        -7.29664        -2.37487
| 99>    H       -5.03612        -7.11696         0.68475
|100>    H       -5.29865        -9.39768        -3.01755
|101>    H       -6.94386        -8.75495        -2.71544
|102>    H       -6.68538       -10.49896        -2.93865
|103>    H       -5.40949       -10.10640         4.88796
|104>    H       -4.88374       -11.79454         4.65140
|105>    H       -6.61715       -11.41561         4.76869
|106>    H       -4.14200       -16.76137         4.76406
|107>    H       -3.24173       -14.37856         4.70593
|108>    H      -10.18732       -11.94713        -0.15210
|109>    H      -10.88419       -14.38484        -0.38854
|110>    H       -8.40759       -16.50912        -0.74715
|111>    H       -9.59349       -21.11529         0.72434
|112>    H       -8.88279       -21.55834         2.78156
|113>    H       -7.27567       -20.26593         5.04293
|114>    H       -7.94774       -21.97294         4.98829
|115> *
|116>
|117>                          ****END OF INPUT****

CARTESIAN COORDINATES (ANGSTROEM)
---------------------------------
  C     -2.825200    1.091900   -0.669790
  S     -3.820810   -0.212440   -1.109640
  C     -3.122330   -1.249930    0.085950
  C     -2.084050   -0.603830    0.760910
  C     -1.933930    0.761920    0.332630
  C     -0.944470    1.579930    0.917190
  C     -0.100470    1.047460    1.857590
  C      0.890760    1.854120    2.463590
  N      1.683140    2.525310    2.947480
  C     -0.189310   -0.337590    2.215280
  C      0.744150   -0.873870    3.131250
  N      1.486640   -1.323630    3.879480
  C     -1.157240   -1.147050    1.670430
  C     -3.622370   -2.581550    0.203450
  N     -3.805970   -3.283320    1.370750
  C     -3.902520   -2.740180    2.706480
  C     -5.113850   -1.822290    2.848160
  C     -4.308890   -4.585770    1.109390
  O     -4.594400   -5.368250    1.987690
  C     -4.385490   -4.663310   -0.330170
  C     -3.996100   -3.401070   -0.848950
  C     -4.065190   -3.457390   -2.290970
  O     -3.841650   -2.625110   -3.147000
  N     -4.488230   -4.768300   -2.557970
  C     -4.748930   -5.199530   -3.909490
  C     -6.239990   -5.170420   -4.238350
  C     -4.684740   -5.502550   -1.401560
  C     -5.094350   -6.855750   -1.407750
  C     -5.248580   -7.589030   -0.267640
  C     -5.655730   -8.937120   -0.143710
  N     -6.092050   -9.813580   -1.119390
  C     -6.257210   -9.582350   -2.527760
  C     -6.420770  -11.079010   -0.587220
  O     -6.805370  -12.005140   -1.271620
  C     -6.176860  -10.940290    0.828660
  C     -5.695970   -9.633480    1.066380
  C     -5.392960   -9.522020    2.478600
  O     -4.988470   -8.619660    3.170850
  N     -5.694700  -10.812830    2.997110
  C     -5.649950  -11.057220    4.411820
  C     -6.164090  -11.645730    2.030710
  C     -6.602840  -13.006770    2.175670
  C     -5.904390  -14.007820    2.877730
  C     -6.349590  -15.366440    2.828070
  N     -5.695090  -16.311580    3.525200
  C     -4.632950  -15.977740    4.204800
  C     -4.149490  -14.655420    4.187260
  N     -4.770610  -13.703850    3.546420
  C     -7.439920  -15.771960    2.015200
  C     -8.180730  -14.747970    1.373740
  C     -7.771470  -13.383190    1.472290
  N     -8.537410  -12.407440    0.942300
  C     -9.593140  -12.748770    0.263660
  C     -9.985460  -14.098500    0.140270
  N     -9.317090  -15.057010    0.716030
  C     -7.768130  -17.155810    1.931180
  S     -7.401710  -18.177290    3.279830
  C     -8.219300  -19.535350    2.599700
  C     -8.688680  -19.238830    1.313140
  C     -8.412940  -17.886900    0.919640
  C     -8.698490  -17.484620   -0.395980
  C     -9.338570  -18.349640   -1.252260
  C     -9.641550  -17.940990   -2.570570
  N     -9.887120  -17.594880   -3.635370
  C     -9.699490  -19.665220   -0.826910
  C    -10.383420  -20.525240   -1.715470
  N    -10.940840  -21.239890   -2.416990
  C     -9.355670  -20.104880    0.428710
  C     -8.336500  -20.779400    3.296210
  C     -7.828100  -21.019320    4.506510
  H     -2.923360    2.038860   -1.162400
  H     -0.849820    2.611740    0.614600
  H     -1.171580   -2.200040    1.907850
  H     -2.993970   -2.199540    2.975460
  H     -4.009670   -3.605940    3.366160
  H     -5.022980   -0.957530    2.193280
  H     -5.190440   -1.474270    3.874260
  H     -6.024590   -2.359480    2.594100
  H     -4.332020   -6.198510   -4.066190
  H     -4.219500   -4.494520   -4.556720
  H     -6.802060   -5.818210   -3.569080
  H     -6.399350   -5.499070   -5.261590
  H     -6.620400   -4.157180   -4.135570
  H     -5.267180   -7.296640   -2.374870
  H     -5.036120   -7.116960    0.684750
  H     -5.298650   -9.397680   -3.017550
  H     -6.943860   -8.754950   -2.715440
  H     -6.685380  -10.498960   -2.938650
  H     -5.409490  -10.106400    4.887960
  H     -4.883740  -11.794540    4.651400
  H     -6.617150  -11.415610    4.768690
  H     -4.142000  -16.761370    4.764060
  H     -3.241730  -14.378560    4.705930
  H    -10.187320  -11.947130   -0.152100
  H    -10.884190  -14.384840   -0.388540
  H     -8.407590  -16.509120   -0.747150
  H     -9.593490  -21.115290    0.724340
  H     -8.882790  -21.558340    2.781560
  H     -7.275670  -20.265930    5.042930
  H     -7.947740  -21.972940    4.988290

 Total Charge           Charge          ....    0
 Multiplicity           Mult            ....    1
 Number of Electrons    NEL             ....  490
 Basis Dimension        Dim             .... 1138

ORBITAL ENERGIES
----------------

  NO   OCC          E(Eh)            E(eV)
   0   2.0000     -88.996218     -2421.7102
   1   2.0000     -88.983071     -2421.3525
   2   2.0000     -19.194876      -522.3191
   3   2.0000     -19.194819      -522.3176
   4   2.0000     -19.193136      -522.2718
   5   2.0000     -19.188070      -522.1339
   6   2.0000     -14.459959      -393.4755
   7   2.0000     -14.457459      -393.4074
   8   2.0000     -14.457206      -393.4006
   9   2.0000     -14.455337      -393.3497
  10   2.0000     -14.453287      -393.2939
  11   2.0000     -14.449934      -393.2027
  12   2.0000     -14.439908      -392.9299
  13   2.0000     -14.435229      -392.8026
  14   2.0000     -14.410290      -392.1239
  15   2.0000     -14.409805      -392.1107
  16   2.0000     -14.404223      -391.9588
  17   2.0000     -14.403631      -391.9427
  18   2.0000     -10.378754      -282.4203
  19   2.0000     -10.377302      -282.3807
  20   2.0000     -10.376718      -282.3649
  21   2.0000     -10.371769      -282.2302
  22   2.0000     -10.351383      -281.6755
  23   2.0000     -10.348191      -281.5886
  24   2.0000     -10.347952      -281.5821
  25   2.0000     -10.346670      -281.5472
  26   2.0000     -10.345413      -281.5130
  27   2.0000     -10.344813      -281.4967
  28   2.0000     -10.344585      -281.4905
  29   2.0000     -10.341268      -281.4002
  30   2.0000     -10.340959      -281.3918
  31   2.0000     -10.337970      -281.3105
  32   2.0000     -10.335210      -281.2354
  33   2.0000     -10.334876      -281.2263
  34   2.0000     -10.333683      -281.1938
  35   2.0000     -10.333389      -281.1858
  36   2.0000     -10.332193      -281.1533
  37   2.0000     -10.326245      -280.9914
  38   2.0000     -10.325128      -280.9610
  39   2.0000     -10.324314      -280.9389
  40   2.0000     -10.324057      -280.9319
  41   2.0000     -10.323666      -280.9212
  42   2.0000     -10.320648      -280.8391
  43   2.0000     -10.318525      -280.7814
  44   2.0000     -10.317805      -280.7618
  45   2.0000     -10.314997      -280.6853
  46   2.0000     -10.314129      -280.6617
  47   2.0000     -10.313229      -280.6372
  48   2.0000     -10.311780      -280.5978
  49   2.0000     -10.309735      -280.5422
  50   2.0000     -10.308830      -280.5175
  51   2.0000     -10.308590      -280.5110
  52   2.0000     -10.308359      -280.5047
  53   2.0000     -10.308308      -280.5033
  54   2.0000     -10.306608      -280.4571
  55   2.0000     -10.305722      -280.4330
  56   2.0000     -10.303099      -280.3616
  57   2.0000     -10.302864      -280.3552
  58   2.0000     -10.302549      -280.3466
  59   2.0000     -10.299553      -280.2651
  60   2.0000     -10.299507      -280.2638
  61   2.0000     -10.298859      -280.2462
  62   2.0000     -10.295333      -280.1503
  63   2.0000     -10.287189      -279.9287
  64   2.0000     -10.270681      -279.4794
  65   2.0000     -10.269298      -279.4418
  66   2.0000     -10.268647      -279.4241
  67   2.0000     -10.267540      -279.3940
  68   2.0000     -10.265826      -279.3473
  69   2.0000     -10.263039      -279.2715
  70   2.0000      -8.090894      -220.1644
  71   2.0000      -8.076540      -219.7738
  72   2.0000      -6.059724      -164.8935
  73   2.0000      -6.055207      -164.7705
  74   2.0000      -6.054331      -164.7467
  75   2.0000      -6.045578      -164.5085
  76   2.0000      -6.041040      -164.3850
  77   2.0000      -6.039702      -164.3487
  78   2.0000      -1.138171       -30.9712
  79   2.0000      -1.135577       -30.9006
  80   2.0000      -1.130991       -30.7758
  81   2.0000      -1.126849       -30.6631
  82   2.0000      -1.110621       -30.2215
  83   2.0000      -1.096798       -29.8454
  84   2.0000      -1.069333       -29.0980
  85   2.0000      -1.065741       -29.0003
  86   2.0000      -1.060776       -28.8652
  87   2.0000      -1.054084       -28.6831
  88   2.0000      -1.034905       -28.1612
  89   2.0000      -1.025916       -27.9166
  90   2.0000      -1.021481       -27.7959
  91   2.0000      -1.015910       -27.6443
  92   2.0000      -1.002868       -27.2894
  93   2.0000      -0.996864       -27.1260
  94   2.0000      -0.990448       -26.9515
  95   2.0000      -0.984597       -26.7922
  96   2.0000      -0.971685       -26.4409
  97   2.0000      -0.963964       -26.2308
  98   2.0000      -0.955409       -25.9980
  99   2.0000      -0.934116       -25.4186
 100   2.0000      -0.923811       -25.1382
 101   2.0000      -0.917708       -24.9721
 102   2.0000      -0.913424       -24.8555
 103   2.0000      -0.903637       -24.5892
 104   2.0000      -0.891240       -24.2519
 105   2.0000      -0.885914       -24.1069
 106   2.0000      -0.881726       -23.9930
 107   2.0000      -0.877895       -23.8887
 108   2.0000      -0.875217       -23.8159
 109   2.0000      -0.865481       -23.5509
 110   2.0000      -0.858104       -23.3502
 111   2.0000      -0.851709       -23.1762
 112   2.0000      -0.830405       -22.5965
 113   2.0000      -0.826807       -22.4986
 114   2.0000      -0.825358       -22.4591
 115   2.0000      -0.808629       -22.0039
 116   2.0000      -0.798004       -21.7148
 117   2.0000      -0.791622       -21.5411
 118   2.0000      -0.783483       -21.3197
 119   2.0000      -0.765886       -20.8408
 120   2.0000      -0.765149       -20.8208
 121   2.0000      -0.763427       -20.7739
 122   2.0000      -0.757558       -20.6142
 123   2.0000      -0.753820       -20.5125
 124   2.0000      -0.745641       -20.2899
 125   2.0000      -0.739945       -20.1349
 126   2.0000      -0.732324       -19.9275
 127   2.0000      -0.729351       -19.8467
 128   2.0000      -0.715120       -19.4594
 129   2.0000      -0.712661       -19.3925
 130   2.0000      -0.703873       -19.1534
 131   2.0000      -0.690797       -18.7975
 132   2.0000      -0.685755       -18.6604
 133   2.0000      -0.681943       -18.5566
 134   2.0000      -0.674988       -18.3674
 135   2.0000      -0.669256       -18.2114
 136   2.0000      -0.666715       -18.1422
 137   2.0000      -0.660664       -17.9776
 138   2.0000      -0.655315       -17.8320
 139   2.0000      -0.652743       -17.7620
 140   2.0000      -0.649659       -17.6781
 141   2.0000      -0.630894       -17.1675
 142   2.0000      -0.619855       -16.8671
 143   2.0000      -0.615949       -16.7608
 144   2.0000      -0.614427       -16.7194
 145   2.0000      -0.612973       -16.6799
 146   2.0000      -0.607936       -16.5428
 147   2.0000      -0.606636       -16.5074
 148   2.0000      -0.602254       -16.3882
 149   2.0000      -0.594301       -16.1718
 150   2.0000      -0.592982       -16.1359
 151   2.0000      -0.586967       -15.9722
 152   2.0000      -0.579814       -15.7775
 153   2.0000      -0.578426       -15.7398
 154   2.0000      -0.572935       -15.5904
 155   2.0000      -0.570163       -15.5149
 156   2.0000      -0.567750       -15.4493
 157   2.0000      -0.565347       -15.3839
 158   2.0000      -0.558935       -15.2094
 159   2.0000      -0.556720       -15.1491
 160   2.0000      -0.553637       -15.0652
 161   2.0000      -0.552874       -15.0445
 162   2.0000      -0.551934       -15.0189
 163   2.0000      -0.548406       -14.9229
 164   2.0000      -0.547595       -14.9008
 165   2.0000      -0.539697       -14.6859
 166   2.0000      -0.538856       -14.6630
 167   2.0000      -0.536826       -14.6078
 168   2.0000      -0.530847       -14.4451
 169   2.0000      -0.529573       -14.4104
 170   2.0000      -0.529312       -14.4033
 171   2.0000      -0.528659       -14.3855
 172   2.0000      -0.523917       -14.2565
 173   2.0000      -0.521576       -14.1928
 174   2.0000      -0.519885       -14.1468
 175   2.0000      -0.519178       -14.1276
 176   2.0000      -0.512883       -13.9563
 177   2.0000      -0.510052       -13.8792
 178   2.0000      -0.508524       -13.8376
 179   2.0000      -0.503914       -13.7122
 180   2.0000      -0.500721       -13.6253
 181   2.0000      -0.497720       -13.5437
 182   2.0000      -0.495697       -13.4886
 183   2.0000      -0.493864       -13.4387
 184   2.0000      -0.490043       -13.3347
 185   2.0000      -0.487982       -13.2787
 186   2.0000      -0.487920       -13.2770
 187   2.0000      -0.483335       -13.1522
 188   2.0000      -0.481966       -13.1150
 189   2.0000      -0.476166       -12.9571
 190   2.0000      -0.474622       -12.9151
 191   2.0000      -0.472047       -12.8451
 192   2.0000      -0.470301       -12.7975
 193   2.0000      -0.468211       -12.7407
 194   2.0000      -0.465256       -12.6602
 195   2.0000      -0.461533       -12.5590
 196   2.0000      -0.459541       -12.5048
 197   2.0000      -0.458744       -12.4831
 198   2.0000      -0.457080       -12.4378
 199   2.0000      -0.454416       -12.3653
 200   2.0000      -0.450821       -12.2675
 201   2.0000      -0.448894       -12.2150
 202   2.0000      -0.446060       -12.1379
 203   2.0000      -0.445119       -12.1123
 204   2.0000      -0.442545       -12.0423
 205   2.0000      -0.441204       -12.0058
 206   2.0000      -0.437354       -11.9010
 207   2.0000      -0.437026       -11.8921
 208   2.0000      -0.436691       -11.8830
 209   2.0000      -0.434130       -11.8133
 210   2.0000      -0.433204       -11.7881
 211   2.0000      -0.432747       -11.7756
 212   2.0000      -0.431419       -11.7395
 213   2.0000      -0.429226       -11.6798
 214   2.0000      -0.419181       -11.4065
 215   2.0000      -0.417801       -11.3689
 216   2.0000      -0.415730       -11.3126
 217   2.0000      -0.412591       -11.2272
 218   2.0000      -0.411504       -11.1976
 219   2.0000      -0.411106       -11.1868
 220   2.0000      -0.406320       -11.0565
 221   2.0000      -0.404921       -11.0185
 222   2.0000      -0.404555       -11.0085
 223   2.0000      -0.398250       -10.8369
 224   2.0000      -0.392519       -10.6810
 225   2.0000      -0.387060       -10.5324
 226   2.0000      -0.377025       -10.2594
 227   2.0000      -0.355161        -9.6644
 228   2.0000      -0.353054        -9.6071
 229   2.0000      -0.352484        -9.5916
 230   2.0000      -0.349640        -9.5142
 231   2.0000      -0.347570        -9.4579
 232   2.0000      -0.346912        -9.4400
 233   2.0000      -0.338200        -9.2029
 234   2.0000      -0.337134        -9.1739
 235   2.0000      -0.331685        -9.0256
 236   2.0000      -0.330522        -8.9940
 237   2.0000      -0.322642        -8.7795
 238   2.0000      -0.322509        -8.7759
 239   2.0000      -0.320623        -8.7246
 240   2.0000      -0.314104        -8.5472
 241   2.0000      -0.301849        -8.2137
 242   2.0000      -0.269074        -7.3219
 243   2.0000      -0.257520        -7.0075
 244   2.0000      -0.230455        -6.2710
 245   0.0000      -0.117747        -3.2040
 246   0.0000      -0.092590        -2.5195
 247   0.0000      -0.066923        -1.8211
 248   0.0000      -0.063236        -1.7207
 249   0.0000      -0.036132        -0.9832

MULLIKEN ATOMIC CHARGES
-----------------------
   0 C :   -0.113006
   1 S :    0.278870
   2 C :   -0.275486
   3 C :    0.193040
   4 C :    0.085174
   5 C :   -0.016348
   6 C :   -0.072165
   7 C :   -0.175662
   8 N :    0.170850
   9 C :   -0.073776
  10 C :   -0.174123
  11 N :    0.172659
  12 C :   -0.061096
  13 C :    0.104051
  14 N :   -0.262041
  15 C :    0.096352
  16 C :    0.000262
  17 C :    0.157737
  18 O :   -0.177491
  19 C :   -0.069101
  20 C :   -0.052858
  21 C :    0.138072
  22 O :   -0.200319
  23 N :   -0.268661
  24 C :    0.101079
  25 C :    0.003465
  26 C :    0.152041
  27 C :   -0.020981
  28 C :   -0.022525
  29 C :    0.112196
  30 N :   -0.289223
  31 C :    0.128201
  32 C :    0.125132
  33 O :   -0.205451
  34 C :   -0.008459
  35 C :   -0.055765
  36 C :    0.155121
  37 O :   -0.149360
  38 N :   -0.249402
  39 C :    0.127284
  40 C :    0.057019
  41 C :    0.038472
  42 C :   -0.031312
  43 C :   -0.064445
  44 N :   -0.055705
  45 C :    0.045112
  46 C :    0.039464
  47 N :   -0.018779
  48 C :    0.165621
  49 C :   -0.096913
  50 C :   -0.036723
  51 N :    0.010192
  52 C :    0.053007
  53 C :    0.042202
  54 N :   -0.033946
  55 C :   -0.244422
  56 S :    0.210036
  57 C :   -0.092844
  58 C :    0.106234
  59 C :    0.178280
  60 C :   -0.007486
  61 C :   -0.099330
  62 C :   -0.176888
  63 N :    0.171307
  64 C :   -0.067447
  65 C :   -0.181318
  66 N :    0.166519
  67 C :   -0.052747
  68 C :   -0.008050
  69 C :   -0.010866
  70 H :    0.032990
  71 H :   -0.003170
  72 H :    0.017869
  73 H :    0.018683
  74 H :    0.055291
  75 H :    0.019466
  76 H :    0.026855
  77 H :    0.026277
  78 H :    0.023566
  79 H :    0.044182
  80 H :    0.014177
  81 H :    0.024823
  82 H :    0.029109
  83 H :   -0.055757
  84 H :    0.030467
  85 H :    0.038643
  86 H :    0.032105
  87 H :    0.057967
  88 H :    0.053537
  89 H :    0.041308
  90 H :    0.021909
  91 H :    0.020431
  92 H :    0.025877
  93 H :    0.019214
  94 H :    0.025405
  95 H :   -0.005393
  96 H :   -0.009249
  97 H :   -0.000083
  98 H :    0.026435
  99 H :    0.034535
Sum of atomic charges:   -0.0000000

LOEWDIN ATOMIC CHARGES
----------------------
   0 C :   -0.178808
   1 S :    0.578884
   2 C :   -0.193774
   3 C :   -0.040663
   4 C :   -0.053124
   5 C :    0.038100
   6 C :   -0.057843
   7 C :   -0.032685
   8 N :   -0.035678
   9 C :   -0.052810
  10 C :   -0.032880
  11 N :   -0.034086
  12 C :    0.027108
  13 C :    0.041819
  14 N :   -0.005454
  15 C :    0.034452
  16 C :   -0.060397
  17 C :    0.078880
  18 O :   -0.171098
  19 C :   -0.120103
  20 C :   -0.122334
  21 C :    0.072104
  22 O :   -0.205647
  23 N :   -0.005922
  24 C :    0.035883
  25 C :   -0.061564
  26 C :    0.077176
  27 C :   -0.046212
  28 C :    0.018271
  29 C :    0.058175
  30 N :   -0.015062
  31 C :    0.025145
  32 C :    0.078991
  33 O :   -0.208363
  34 C :   -0.112876
  35 C :   -0.094845
  36 C :    0.086078
  37 O :   -0.156430
  38 N :    0.005260
  39 C :    0.022562
  40 C :    0.099080
  41 C :   -0.046574
  42 C :    0.002534
  43 C :   -0.015555
  44 N :   -0.048862
  45 C :    0.016327
  46 C :    0.018276
  47 N :   -0.027239
  48 C :   -0.021721
  49 C :   -0.011068
  50 C :    0.017006
  51 N :   -0.016180
  52 C :    0.027799
  53 C :    0.022539
  54 N :   -0.029563
  55 C :   -0.170300
  56 S :    0.550749
  57 C :   -0.166959
  58 C :   -0.049626
  59 C :   -0.026350
  60 C :    0.046037
  61 C :   -0.061262
  62 C :   -0.031481
  63 N :   -0.043726
  64 C :   -0.058505
  65 C :   -0.032361
  66 N :   -0.042367
  67 C :    0.028825
  68 C :   -0.041844
  69 C :   -0.027205
  70 H :    0.031559
  71 H :    0.045870
  72 H :    0.046346
  73 H :    0.021157
  74 H :    0.040724
  75 H :    0.021748
  76 H :    0.032839
  77 H :    0.030060
  78 H :    0.022255
  79 H :    0.038708
  80 H :    0.020329
  81 H :    0.031172
  82 H :    0.032575
  83 H :    0.026198
  84 H :    0.052192
  85 H :    0.024178
  86 H :    0.024106
  87 H :    0.041344
  88 H :    0.037357
  89 H :    0.022318
  90 H :    0.023564
  91 H :    0.030752
  92 H :    0.031603
  93 H :    0.030873
  94 H :    0.032311
  95 H :    0.040499
  96 H :    0.040531
  97 H :    0.035850
  98 H :    0.019165
  99 H :    0.031164

  Mayer bond orders larger than 0.100000
B(  0-C ,  1-S ) :   1.2420 B(  0-C ,  2-C ) :   0.1187 B(  0-C ,  4-C ) :   1.3922
B(  0-C , 70-H ) :   0.9701 B(  1-S ,  2-C ) :   1.2379 B(  2-C ,  3-C ) :   1.3196
B(  2-C , 13-C ) :   1.0903 B(  3-C ,  4-C ) :   1.1902 B(  3-C , 12-C ) :   1.1908
B(  4-C ,  5-C ) :   1.1588 B(  5-C ,  6-C ) :   1.5706 B(  5-C , 71-H ) :   1.0050
B(  6-C ,  7-C ) :   1.0781 B(  6-C ,  9-C ) :   1.2297 B(  7-C ,  8-N ) :   3.0471
B(  9-C , 10-C ) :   1.0803 B(  9-C , 12-C ) :   1.5675 B( 10-C , 11-N ) :   3.0422
B( 12-C , 72-H ) :   0.9881 B( 13-C , 14-N ) :   1.2080 B( 13-C , 20-C ) :   1.4091
B( 14-N , 15-C ) :   0.9474 B( 14-N , 17-C ) :   1.0216 B( 15-C , 16-C ) :   1.1191
B( 15-C , 73-H ) :   0.9446 B( 15-C , 74-H ) :   0.9267 B( 16-C , 75-H ) :   0.9669
B( 16-C , 76-H ) :   0.9671 B( 16-C , 77-H ) :   0.9658 B( 17-C , 18-O ) :   2.0677
B( 17-C , 19-C ) :   0.9909 B( 19-C , 20-C ) :   1.2198 B( 19-C , 26-C ) :   1.3472
B( 20-C , 21-C ) :   0.9598 B( 21-C , 22-O ) :   2.1407 B( 21-C , 23-N ) :   1.0491
B( 23-N , 24-C ) :   0.9488 B( 23-N , 26-C ) :   1.1414 B( 24-C , 25-C ) :   1.1188
B( 24-C , 78-H ) :   0.9491 B( 24-C , 79-H ) :   0.9260 B( 25-C , 80-H ) :   0.9682
B( 25-C , 81-H ) :   0.9685 B( 25-C , 82-H ) :   0.9625 B( 26-C , 27-C ) :   1.1607
B( 27-C , 28-C ) :   1.5012 B( 27-C , 83-H ) :   0.9573 B( 28-C , 29-C ) :   1.1997
B( 28-C , 84-H ) :   0.9378 B( 29-C , 30-N ) :   1.1480 B( 29-C , 35-C ) :   1.3397
B( 30-N , 31-C ) :   0.9709 B( 30-N , 32-C ) :   1.0469 B( 31-C , 85-H ) :   0.9651
B( 31-C , 86-H ) :   0.9686 B( 31-C , 87-H ) :   0.9408 B( 32-C , 33-O ) :   2.1174
B( 32-C , 34-C ) :   0.9733 B( 34-C , 35-C ) :   1.2502 B( 34-C , 40-C ) :   1.3889
B( 35-C , 36-C ) :   0.9680 B( 36-C , 37-O ) :   2.1730 B( 36-C , 38-N ) :   0.9982
B( 38-N , 39-C ) :   0.9622 B( 38-N , 40-C ) :   1.2671 B( 39-C , 88-H ) :   0.9502
B( 39-C , 89-H ) :   0.9575 B( 39-C , 90-H ) :   0.9723 B( 40-C , 41-C ) :   0.9940
B( 41-C , 42-C ) :   1.2849 B( 41-C , 48-C ) :   0.1423 B( 41-C , 50-C ) :   1.3054
B( 42-C , 43-C ) :   1.1576 B( 42-C , 47-N ) :   1.4656 B( 43-C , 44-N ) :   1.4230
B( 43-C , 48-C ) :   1.2360 B( 44-N , 45-C ) :   1.6526 B( 45-C , 46-C ) :   1.2092
B( 45-C , 91-H ) :   0.9742 B( 46-C , 47-N ) :   1.6487 B( 46-C , 92-H ) :   0.9739
B( 48-C , 49-C ) :   1.2538 B( 48-C , 55-C ) :   1.1462 B( 49-C , 50-C ) :   1.1374
B( 49-C , 54-N ) :   1.4583 B( 50-C , 51-N ) :   1.4636 B( 51-N , 52-C ) :   1.6771
B( 52-C , 53-C ) :   1.1854 B( 52-C , 93-H ) :   0.9741 B( 53-C , 54-N ) :   1.6712
B( 53-C , 94-H ) :   0.9730 B( 55-C , 56-S ) :   1.1779 B( 55-C , 57-C ) :   0.1039
B( 55-C , 59-C ) :   1.3232 B( 56-S , 57-C ) :   1.1594 B( 57-C , 58-C ) :   1.3126
B( 57-C , 68-C ) :   1.1414 B( 58-C , 59-C ) :   1.2019 B( 58-C , 67-C ) :   1.1883
B( 59-C , 60-C ) :   1.2047 B( 60-C , 61-C ) :   1.5711 B( 60-C , 95-H ) :   0.9813
B( 61-C , 62-C ) :   1.0812 B( 61-C , 64-C ) :   1.2363 B( 62-C , 63-N ) :   3.0448
B( 64-C , 65-C ) :   1.0763 B( 64-C , 67-C ) :   1.5720 B( 65-C , 66-N ) :   3.0445
B( 67-C , 96-H ) :   0.9956 B( 68-C , 69-C ) :   1.9055 B( 68-C , 97-H ) :   0.9611
B( 69-C , 98-H ) :   0.9574 B( 69-C , 99-H ) :   0.9483

-----------------------------------------------------------------------------
         ABSORPTION SPECTRUM VIA TRANSITION ELECTRIC DIPOLE MOMENTS
-----------------------------------------------------------------------------
State   Energy  Wavelength   fosc         T2         TX        TY        TZ
        (cm-1)    (nm)                  (au**2)     (au)      (au)      (au)
-----------------------------------------------------------------------------
   0    9806.8   1019.7   0.774584513  26.00261   1.49860   4.80779  -0.80122
   1   14935.1    669.6   0.230200085   5.07427   0.81121   2.08676   0.24834
   2   15965.4    626.4   0.173900730   3.58589  -0.55676  -1.80610  -0.11792
   3   17967.1    556.6   0.108828839   1.99408   0.35022   0.65164   1.20283
   4   20333.9    491.8   0.065543362   1.06117   0.13173  -0.22664   0.99622
   5   22688.4    440.8   0.064025647   0.92902  -0.16132  -0.86250   0.39887
   6   23178.1    431.4   0.047344060   0.67246   0.11563   0.73862  -0.33695
   7   23617.2    423.4   0.018438406   0.25702  -0.07581  -0.25072  -0.43407
   8   24288.5    411.7   0.010733254   0.14548  -0.01855   0.20883   0.31863
   9   25311.7    395.1   0.004556045   0.05926  -0.02447   0.19542  -0.14307
  10   25495.8    392.2   0.004019922   0.05191   0.06743   0.21561  -0.02955
  11   26509.3    377.2   0.214071089   2.65849   0.67496   1.24980   0.80057
  12   26644.7    375.3   0.029134877   0.35998  -0.25368  -0.38711  -0.38180
  13   26946.6    371.1   0.025898611   0.31641   0.08858   0.09817   0.54674
  14   27291.6    366.4   0.008924374   0.10765   0.10011   0.30460  -0.06963
  15   27742.5    360.5   0.016709775   0.19829   0.02253  -0.35670  -0.26560
  16   27974.6    357.5   0.036984341   0.43524   0.01692   0.14086  -0.64429
  17   28118.4    355.6   0.030636809   0.35870   0.33289   0.49770  -0.01332
  18   28209.6    354.5   0.090691664   1.05839   0.17859   0.60576  -0.81213
  19   29014.9    344.7   0.007327925   0.08315  -0.13450  -0.25178  -0.04077
  20   29150.9    343.0   0.074631574   0.84284  -0.10668  -0.43841   0.79953
  21   29566.8    338.2   0.008069619   0.08985  -0.17662   0.06831  -0.23236
  22   29810.1    335.5   0.029604964   0.32695   0.34231   0.44513   0.10783
  23   30405.2    328.9   0.018636165   0.20178  -0.10030   0.08122  -0.43026
  24   31323.4    319.3   0.007081325   0.07443   0.07495   0.03841   0.25949
  25   31730.3    315.2   0.091806499   0.95252  -0.83119   0.20075  -0.47047
  26   32066.0    311.9   0.077154927   0.79213  -0.61464  -0.42279  -0.48537
  27   32863.6    304.3   0.028457848   0.28508  -0.01463   0.38331  -0.37139
  28   33073.6    302.4   0.105326030   1.04841   0.24342   0.59119   0.79978
  29   33289.0    300.4   0.065049899   0.64331  -0.22335   0.75179   0.16805
  30   33867.7    295.3   0.025347502   0.24639  -0.01580   0.48534  -0.10287
  31   34031.8    293.8   0.009454940   0.09146  -0.20106  -0.21552  -0.06775
  32   34209.3    292.3   0.006309801   0.06072  -0.17986  -0.13918  -0.09488
  33   34460.8    290.2   0.128195213   1.22468   0.66839  -0.43489   0.76734
  34   34647.9    288.6   0.032868994   0.31231   0.22450  -0.05238   0.50909
  35   35035.7    285.4   0.244223519   2.29484   0.93724   1.18465  -0.11411
  36   35142.1    284.6   0.149079961   1.39658   0.56547  -0.95721   0.40071
  37   35304.2    283.3   0.040635468   0.37893   0.06337   0.50059  -0.35259
  38   35691.4    280.2   0.026484957   0.24429   0.47347  -0.02545   0.13954
  39   36099.3    277.0   0.246746670   2.25023  -0.52707   0.70064  -1.21718
  40   36361.0    275.0   0.058412571   0.52887  -0.26054  -0.42133  -0.53241
  41   36521.0    273.8   0.067659155   0.60990  -0.76516   0.05600  -0.14595
  42   36692.5    272.5   0.030270032   0.27159  -0.29677  -0.04791  -0.42570
  43   36937.9    270.7   0.018923345   0.16866  -0.30085   0.21345  -0.18052
  44   37217.3    268.7   0.083928416   0.74240   0.08062  -0.82918   0.21991
  45   37490.7    266.7   0.151278174   1.32840  -0.76262  -0.54858  -0.66773
  46   37570.4    266.2   0.039820741   0.34893  -0.02868  -0.50924   0.29796
  47   37772.9    264.7   0.034954297   0.30465   0.27216   0.25140   0.40911
  48   37860.2    264.1   0.022904134   0.19916   0.18768  -0.20970   0.34636
  49   38447.8    260.1   0.053545490   0.45849   0.29919   0.10726   0.59788
  50   38559.0    259.3   0.047140315   0.40248   0.42104   0.16986   0.44312
  51   38765.1    258.0   0.076596262   0.65049  -0.26980  -0.70671  -0.27976
  52   39149.2    255.4   0.007431485   0.06249  -0.03522   0.13399  -0.20808
  53   39189.4    255.2   0.031319311   0.26310  -0.34485  -0.03164  -0.37838
  54   39417.6    253.7   0.091491453   0.76413   0.35845   0.66880   0.43400
  55   39576.3    252.7   0.002869149   0.02387  -0.06055  -0.10595  -0.09473
  56   39872.7    250.8   0.045805059   0.37819  -0.29500  -0.09344  -0.53145
  57   40138.5    249.1   0.159110733   1.30501   0.30782  -0.18890   1.08378
  58   40251.2    248.4   0.091392607   0.74749  -0.51614  -0.50964  -0.47049

FINAL SINGLE POINT ENERGY     -3749.899606067352

DIPOLE MOMENT
-------------
                                X             Y             Z
Electronic contribution:      4.98675     -18.34987       4.52743
Nuclear contribution   :     -6.46416      17.83660      -3.14313
                        -----------------------------------------
Total Dipole Moment    :     -1.47741      -0.51327       1.38430
                        -----------------------------------------
Magnitude (a.u.)       :      2.08865
Magnitude (Debye)      :      5.30893

Rotational constants in cm-1:     0.002578     0.000304     0.000280
Rotational constants in MHz :    77.277216     9.124609     8.381694

                             ****ORCA TERMINATED NORMALLY****
TOTAL RUN TIME: 0 days 0 hours 10 minutes 23 seconds 275 msec
