                         Program Version 4.2.0 -  RELEASE  -
|  1> # ORCA input file
|  2> # SCF done       -150.444102588299          0.000793537781
|  3> ! CAM-B3LYP def2-SVP def2/J RIJCOSX Grid4 TightSCF
|  4> %maxcore 5000
|  5> %tddft
|  6>     Mode sTDDFT
|  7>     Ethresh 5.0
|  8>     maxcore 5000
|  9> end
| 10>
| 11> %pal
| 12>   nprocs 6
| 13>   end
| 14> * xyz 0 1
| 15>    C       -0.49942        -1.58085         3.83636
| 16>    N       -0.78573        -1.59670         5.17128
| 17>    C       -2.06918        -1.19997         5.38773
| 18>    C       -2.62651        -0.91949         4.16082
| 19>    C       -1.62046        -1.16586         3.18484
| 20>    S       -2.32512        -0.80301         1.59041
| 21>    O       -2.45887        -1.99038         0.79135
| 22>    O       -1.69118         0.33353         0.98058
| 23>    C       -3.92831        -0.33442         2.31071
| 24>    C       -3.88836        -0.46361         3.65294
| 25>    C       -4.93193         0.08636         1.40336
| 26>    C       -6.17618         0.49432         1.74474
| 27>    C       -7.16284         0.94701         0.82645
| 28>    S       -8.73123         1.41554         1.42098
| 29>    C       -9.28714         1.89658        -0.15941
| 30>    C       -8.30605         1.64643        -1.10409
| 31>    C       -7.10903         1.12043        -0.54809
| 32>    O       -5.99287         0.84014        -1.25521
| 33>    C       -8.39211         2.05228        -2.52908
| 34>    O       -8.81604         3.10889        -2.89939
| 35>    O       -7.86102         1.16773        -3.40373
| 36>    C      -10.61576         2.37084        -0.38217
| 37>    S      -11.40925         2.16188        -1.91641
| 38>    C      -12.85539         2.93262        -1.36263
| 39>    C      -12.73718         3.33615        -0.02951
| 40>    C      -11.45772         3.00232         0.50959
| 41>    O      -11.12499         3.31830         1.78998
| 42>    C      -13.81853         3.91555         0.77717
| 43>    O      -14.88998         4.25824         0.30545
| 44>    O      -13.62344         4.04635         2.07885
| 45>    C      -13.89972         2.98148        -2.34288
| 46>    S      -13.94798         1.64974        -3.47631
| 47>    C      -15.18239         2.40514        -4.41287
| 48>    C      -15.55107         3.64452        -3.89067
| 49>    C      -14.81240         3.95876        -2.70649
| 50>    O      -14.96120         5.13348        -2.06900
| 51>    C      -16.57910         4.55627        -4.44971
| 52>    O      -17.24640         4.29908        -5.43332
| 53>    O      -16.76611         5.70439        -3.82667
| 54>    C      -15.61501         1.64208        -5.53979
| 55>    N      -16.57190         1.98884        -6.45544
| 56>    C      -16.71651         1.01878        -7.38096
| 57>    C      -15.83326        -0.00469        -7.07477
| 58>    C      -15.14071         0.39583        -5.91399
| 59>    S      -14.01130        -0.90291        -5.47344
| 60>    O      -14.38782        -1.52175        -4.22967
| 61>    O      -12.64041        -0.48339        -5.59478
| 62>    C      -14.51644        -1.92675        -6.88915
| 63>    C      -15.46704        -1.29369        -7.59774
| 64>    C      -13.87472        -3.19785        -7.04675
| 65>    C      -14.12841        -4.08773        -8.00510
| 66>    H        0.46361        -1.86123         3.46149
| 67>    H       -0.13667        -1.86543         5.89360
| 68>    H       -2.48253        -1.14537         6.37487
| 69>    H       -4.71376        -0.25039         4.31441
| 70>    H       -4.63245         0.07459         0.36626
| 71>    H       -6.47637         0.49656         2.78411
| 72>    H       -6.04511         1.19857        -2.15328
| 73>    H       -7.76443         0.27561        -3.04159
| 74>    H      -10.20067         3.09719         1.96810
| 75>    H      -12.72547         3.78468         2.35165
| 76>    H      -14.91464         4.95924        -1.08531
| 77>    H      -16.17442         5.80061        -3.04706
| 78>    H      -17.06914         2.88161        -6.36868
| 79>    H      -17.42232         1.11152        -8.18214
| 80>    H      -15.93392        -1.69190        -8.48465
| 81>    H      -13.12834        -3.40265        -6.29047
| 82>    H      -14.86787        -3.90923        -8.76700
| 83>    H      -13.60301        -5.02494        -8.05318
| 84> *
| 85>
| 86>                          ****END OF INPUT****

CARTESIAN COORDINATES (ANGSTROEM)
---------------------------------
  C     -0.499420   -1.580850    3.836360
  N     -0.785730   -1.596700    5.171280
  C     -2.069180   -1.199970    5.387730
  C     -2.626510   -0.919490    4.160820
  C     -1.620460   -1.165860    3.184840
  S     -2.325120   -0.803010    1.590410
  O     -2.458870   -1.990380    0.791350
  O     -1.691180    0.333530    0.980580
  C     -3.928310   -0.334420    2.310710
  C     -3.888360   -0.463610    3.652940
  C     -4.931930    0.086360    1.403360
  C     -6.176180    0.494320    1.744740
  C     -7.162840    0.947010    0.826450
  S     -8.731230    1.415540    1.420980
  C     -9.287140    1.896580   -0.159410
  C     -8.306050    1.646430   -1.104090
  C     -7.109030    1.120430   -0.548090
  O     -5.992870    0.840140   -1.255210
  C     -8.392110    2.052280   -2.529080
  O     -8.816040    3.108890   -2.899390
  O     -7.861020    1.167730   -3.403730
  C    -10.615760    2.370840   -0.382170
  S    -11.409250    2.161880   -1.916410
  C    -12.855390    2.932620   -1.362630
  C    -12.737180    3.336150   -0.029510
  C    -11.457720    3.002320    0.509590
  O    -11.124990    3.318300    1.789980
  C    -13.818530    3.915550    0.777170
  O    -14.889980    4.258240    0.305450
  O    -13.623440    4.046350    2.078850
  C    -13.899720    2.981480   -2.342880
  S    -13.947980    1.649740   -3.476310
  C    -15.182390    2.405140   -4.412870
  C    -15.551070    3.644520   -3.890670
  C    -14.812400    3.958760   -2.706490
  O    -14.961200    5.133480   -2.069000
  C    -16.579100    4.556270   -4.449710
  O    -17.246400    4.299080   -5.433320
  O    -16.766110    5.704390   -3.826670
  C    -15.615010    1.642080   -5.539790
  N    -16.571900    1.988840   -6.455440
  C    -16.716510    1.018780   -7.380960
  C    -15.833260   -0.004690   -7.074770
  C    -15.140710    0.395830   -5.913990
  S    -14.011300   -0.902910   -5.473440
  O    -14.387820   -1.521750   -4.229670
  O    -12.640410   -0.483390   -5.594780
  C    -14.516440   -1.926750   -6.889150
  C    -15.467040   -1.293690   -7.597740
  C    -13.874720   -3.197850   -7.046750
  C    -14.128410   -4.087730   -8.005100
  H      0.463610   -1.861230    3.461490
  H     -0.136670   -1.865430    5.893600
  H     -2.482530   -1.145370    6.374870
  H     -4.713760   -0.250390    4.314410
  H     -4.632450    0.074590    0.366260
  H     -6.476370    0.496560    2.784110
  H     -6.045110    1.198570   -2.153280
  H     -7.764430    0.275610   -3.041590
  H    -10.200670    3.097190    1.968100
  H    -12.725470    3.784680    2.351650
  H    -14.914640    4.959240   -1.085310
  H    -16.174420    5.800610   -3.047060
  H    -17.069140    2.881610   -6.368680
  H    -17.422320    1.111520   -8.182140
  H    -15.933920   -1.691900   -8.484650
  H    -13.128340   -3.402650   -6.290470
  H    -14.867870   -3.909230   -8.767000
  H    -13.603010   -5.024940   -8.053180

 Total Charge           Charge          ....    0
 Multiplicity           Mult            ....    1
 Number of Electrons    NEL             ....  402
 Basis Dimension        Dim             ....  824

ORBITAL ENERGIES
----------------

  NO   OCC          E(Eh)            E(eV)
   0   2.0000     -89.133821     -2425.4546
   1   2.0000     -89.133776     -2425.4534
   2   2.0000     -88.991352     -2421.5778
   3   2.0000     -88.980876     -2421.2927
   4   2.0000     -88.970912     -2421.0216
   5   2.0000     -19.301008      -525.2071
   6   2.0000     -19.283219      -524.7231
   7   2.0000     -19.278772      -524.6021
   8   2.0000     -19.266994      -524.2816
   9   2.0000     -19.254699      -523.9470
  10   2.0000     -19.242260      -523.6085
  11   2.0000     -19.220165      -523.0073
  12   2.0000     -19.219313      -522.9841
  13   2.0000     -19.199038      -522.4324
  14   2.0000     -19.183857      -522.0193
  15   2.0000     -19.182824      -521.9912
  16   2.0000     -19.182535      -521.9833
  17   2.0000     -19.182370      -521.9788
  18   2.0000     -14.486588      -394.2001
  19   2.0000     -14.462480      -393.5441
  20   2.0000     -10.427808      -283.7551
  21   2.0000     -10.425319      -283.6873
  22   2.0000     -10.408561      -283.2313
  23   2.0000     -10.376144      -282.3492
  24   2.0000     -10.367632      -282.1176
  25   2.0000     -10.360667      -281.9281
  26   2.0000     -10.350842      -281.6607
  27   2.0000     -10.349940      -281.6362
  28   2.0000     -10.337743      -281.3043
  29   2.0000     -10.328883      -281.0632
  30   2.0000     -10.325341      -280.9668
  31   2.0000     -10.324097      -280.9330
  32   2.0000     -10.320392      -280.8321
  33   2.0000     -10.317896      -280.7642
  34   2.0000     -10.315351      -280.6950
  35   2.0000     -10.313279      -280.6386
  36   2.0000     -10.311854      -280.5998
  37   2.0000     -10.311276      -280.5841
  38   2.0000     -10.302222      -280.3377
  39   2.0000     -10.299651      -280.2677
  40   2.0000     -10.299258      -280.2571
  41   2.0000     -10.298555      -280.2379
  42   2.0000     -10.298452      -280.2351
  43   2.0000     -10.294925      -280.1391
  44   2.0000     -10.287267      -279.9308
  45   2.0000     -10.283198      -279.8201
  46   2.0000     -10.282140      -279.7912
  47   2.0000     -10.280172      -279.7377
  48   2.0000     -10.279535      -279.7204
  49   2.0000     -10.279042      -279.7070
  50   2.0000     -10.271013      -279.4885
  51   2.0000      -8.198327      -223.0878
  52   2.0000      -8.198285      -223.0867
  53   2.0000      -8.086708      -220.0505
  54   2.0000      -8.076193      -219.7644
  55   2.0000      -8.066441      -219.4990
  56   2.0000      -6.167518      -167.8267
  57   2.0000      -6.167515      -167.8266
  58   2.0000      -6.166977      -167.8120
  59   2.0000      -6.166930      -167.8107
  60   2.0000      -6.166575      -167.8010
  61   2.0000      -6.166411      -167.7966
  62   2.0000      -6.056056      -164.7937
  63   2.0000      -6.052081      -164.6855
  64   2.0000      -6.048652      -164.5922
  65   2.0000      -6.045635      -164.5101
  66   2.0000      -6.041307      -164.3923
  67   2.0000      -6.037923      -164.3002
  68   2.0000      -6.035863      -164.2442
  69   2.0000      -6.031631      -164.1290
  70   2.0000      -6.028113      -164.0333
  71   2.0000      -1.207368       -32.8542
  72   2.0000      -1.205657       -32.8076
  73   2.0000      -1.188665       -32.3452
  74   2.0000      -1.188589       -32.3432
  75   2.0000      -1.188194       -32.3324
  76   2.0000      -1.182837       -32.1866
  77   2.0000      -1.172874       -31.9155
  78   2.0000      -1.153823       -31.3971
  79   2.0000      -1.119129       -30.4530
  80   2.0000      -1.110716       -30.2241
  81   2.0000      -1.097795       -29.8725
  82   2.0000      -1.094769       -29.7902
  83   2.0000      -1.083831       -29.4925
  84   2.0000      -1.065524       -28.9944
  85   2.0000      -1.065014       -28.9805
  86   2.0000      -1.022658       -27.8279
  87   2.0000      -1.008513       -27.4430
  88   2.0000      -0.989511       -26.9260
  89   2.0000      -0.959298       -26.1038
  90   2.0000      -0.954647       -25.9773
  91   2.0000      -0.919832       -25.0299
  92   2.0000      -0.897261       -24.4157
  93   2.0000      -0.887978       -24.1631
  94   2.0000      -0.883576       -24.0433
  95   2.0000      -0.873317       -23.7642
  96   2.0000      -0.867662       -23.6103
  97   2.0000      -0.857223       -23.3262
  98   2.0000      -0.844711       -22.9858
  99   2.0000      -0.837402       -22.7869
 100   2.0000      -0.825789       -22.4709
 101   2.0000      -0.819583       -22.3020
 102   2.0000      -0.800557       -21.7843
 103   2.0000      -0.773788       -21.0558
 104   2.0000      -0.771129       -20.9835
 105   2.0000      -0.762083       -20.7373
 106   2.0000      -0.753466       -20.5029
 107   2.0000      -0.741173       -20.1683
 108   2.0000      -0.735299       -20.0085
 109   2.0000      -0.733370       -19.9560
 110   2.0000      -0.721241       -19.6260
 111   2.0000      -0.716115       -19.4865
 112   2.0000      -0.707405       -19.2495
 113   2.0000      -0.698168       -18.9981
 114   2.0000      -0.691662       -18.8211
 115   2.0000      -0.687419       -18.7056
 116   2.0000      -0.680585       -18.5196
 117   2.0000      -0.668643       -18.1947
 118   2.0000      -0.660393       -17.9702
 119   2.0000      -0.658981       -17.9318
 120   2.0000      -0.658098       -17.9077
 121   2.0000      -0.645017       -17.5518
 122   2.0000      -0.639336       -17.3972
 123   2.0000      -0.630293       -17.1511
 124   2.0000      -0.611808       -16.6481
 125   2.0000      -0.606902       -16.5146
 126   2.0000      -0.598831       -16.2950
 127   2.0000      -0.597037       -16.2462
 128   2.0000      -0.587540       -15.9878
 129   2.0000      -0.584173       -15.8962
 130   2.0000      -0.579068       -15.7572
 131   2.0000      -0.574436       -15.6312
 132   2.0000      -0.570909       -15.5352
 133   2.0000      -0.566876       -15.4255
 134   2.0000      -0.563122       -15.3233
 135   2.0000      -0.560626       -15.2554
 136   2.0000      -0.558434       -15.1958
 137   2.0000      -0.548366       -14.9218
 138   2.0000      -0.544049       -14.8043
 139   2.0000      -0.540356       -14.7038
 140   2.0000      -0.537976       -14.6391
 141   2.0000      -0.534963       -14.5571
 142   2.0000      -0.534710       -14.5502
 143   2.0000      -0.533014       -14.5041
 144   2.0000      -0.530971       -14.4485
 145   2.0000      -0.529992       -14.4218
 146   2.0000      -0.529136       -14.3985
 147   2.0000      -0.527437       -14.3523
 148   2.0000      -0.525462       -14.2986
 149   2.0000      -0.525106       -14.2889
 150   2.0000      -0.515652       -14.0316
 151   2.0000      -0.514423       -13.9982
 152   2.0000      -0.508220       -13.8294
 153   2.0000      -0.504708       -13.7338
 154   2.0000      -0.504138       -13.7183
 155   2.0000      -0.501079       -13.6350
 156   2.0000      -0.499163       -13.5829
 157   2.0000      -0.496091       -13.4993
 158   2.0000      -0.493974       -13.4417
 159   2.0000      -0.486799       -13.2465
 160   2.0000      -0.479579       -13.0500
 161   2.0000      -0.473483       -12.8841
 162   2.0000      -0.472009       -12.8440
 163   2.0000      -0.469878       -12.7860
 164   2.0000      -0.465644       -12.6708
 165   2.0000      -0.458870       -12.4865
 166   2.0000      -0.455718       -12.4007
 167   2.0000      -0.449588       -12.2339
 168   2.0000      -0.446753       -12.1568
 169   2.0000      -0.445606       -12.1255
 170   2.0000      -0.440803       -11.9949
 171   2.0000      -0.439261       -11.9529
 172   2.0000      -0.435432       -11.8487
 173   2.0000      -0.427729       -11.6391
 174   2.0000      -0.420339       -11.4380
 175   2.0000      -0.413474       -11.2512
 176   2.0000      -0.407174       -11.0798
 177   2.0000      -0.400245       -10.8912
 178   2.0000      -0.394302       -10.7295
 179   2.0000      -0.391915       -10.6646
 180   2.0000      -0.388822       -10.5804
 181   2.0000      -0.388021       -10.5586
 182   2.0000      -0.384564       -10.4645
 183   2.0000      -0.378860       -10.3093
 184   2.0000      -0.373548       -10.1648
 185   2.0000      -0.367506       -10.0003
 186   2.0000      -0.362417        -9.8619
 187   2.0000      -0.359198        -9.7743
 188   2.0000      -0.357930        -9.7398
 189   2.0000      -0.351779        -9.5724
 190   2.0000      -0.350484        -9.5372
 191   2.0000      -0.349709        -9.5161
 192   2.0000      -0.341439        -9.2910
 193   2.0000      -0.334177        -9.0934
 194   2.0000      -0.329425        -8.9641
 195   2.0000      -0.320686        -8.7263
 196   2.0000      -0.316851        -8.6220
 197   2.0000      -0.305078        -8.3016
 198   2.0000      -0.284726        -7.7478
 199   2.0000      -0.263270        -7.1639
 200   2.0000      -0.248064        -6.7502
 201   0.0000      -0.073531        -2.0009
 202   0.0000      -0.052672        -1.4333
 203   0.0000      -0.032705        -0.8900
 204   0.0000      -0.022008        -0.5989
 205   0.0000      -0.015064        -0.4099

MULLIKEN ATOMIC CHARGES
-----------------------
   0 C :   -0.042685
   1 N :   -0.049426
   2 C :   -0.001997
   3 C :    0.009127
   4 C :    0.027493
   5 S :    0.776913
   6 O :   -0.459914
   7 O :   -0.459606
   8 C :   -0.072894
   9 C :    0.052677
  10 C :    0.061905
  11 C :    0.041419
  12 C :   -0.135436
  13 S :    0.105896
  14 C :   -0.094425
  15 C :   -0.082742
  16 C :    0.129978
  17 O :   -0.173137
  18 C :    0.134448
  19 O :   -0.144021
  20 O :   -0.178560
  21 C :   -0.123375
  22 S :    0.205432
  23 C :   -0.098925
  24 C :   -0.021379
  25 C :    0.118690
  26 O :   -0.224354
  27 C :    0.182126
  28 O :   -0.260841
  29 O :   -0.129660
  30 C :   -0.144188
  31 S :    0.182617
  32 C :   -0.108554
  33 C :   -0.091286
  34 C :    0.174880
  35 O :   -0.267255
  36 C :    0.195146
  37 O :   -0.253259
  38 O :   -0.140475
  39 C :    0.016811
  40 N :   -0.004550
  41 C :    0.010420
  42 C :    0.041904
  43 C :   -0.104972
  44 S :    0.783899
  45 O :   -0.459308
  46 O :   -0.460492
  47 C :   -0.073290
  48 C :    0.040083
  49 C :    0.060331
  50 C :   -0.013001
  51 H :    0.014659
  52 H :    0.137959
  53 H :   -0.001745
  54 H :   -0.015582
  55 H :    0.017043
  56 H :   -0.024063
  57 H :    0.187403
  58 H :    0.198028
  59 H :    0.191236
  60 H :    0.191999
  61 H :    0.227178
  62 H :    0.195594
  63 H :    0.153819
  64 H :    0.004212
  65 H :   -0.013314
  66 H :    0.006567
  67 H :    0.017982
  68 H :    0.032838
Sum of atomic charges:   -0.0000000

LOEWDIN ATOMIC CHARGES
----------------------
   0 C :    0.006406
   1 N :    0.101776
   2 C :   -0.007353
   3 C :   -0.089868
   4 C :   -0.221884
   5 S :    1.176538
   6 O :   -0.503831
   7 O :   -0.503475
   8 C :   -0.162911
   9 C :   -0.004533
  10 C :   -0.031871
  11 C :   -0.032501
  12 C :   -0.207081
  13 S :    0.446494
  14 C :   -0.153320
  15 C :   -0.157533
  16 C :    0.029970
  17 O :   -0.030181
  18 C :    0.059796
  19 O :   -0.129306
  20 O :   -0.030961
  21 C :   -0.249623
  22 S :    0.511320
  23 C :   -0.120603
  24 C :   -0.159300
  25 C :    0.040369
  26 O :   -0.038119
  27 C :    0.111659
  28 O :   -0.170121
  29 O :   -0.003171
  30 C :   -0.252018
  31 S :    0.496624
  32 C :   -0.116133
  33 C :   -0.151863
  34 C :    0.051124
  35 O :   -0.046072
  36 C :    0.101242
  37 O :   -0.191207
  38 O :   -0.012369
  39 C :   -0.035443
  40 N :    0.121715
  41 C :    0.016523
  42 C :   -0.090457
  43 C :   -0.224293
  44 S :    1.166344
  45 O :   -0.505290
  46 O :   -0.505810
  47 C :   -0.163628
  48 C :    0.005764
  49 C :   -0.035953
  50 C :   -0.024008
  51 H :    0.030926
  52 H :    0.096858
  53 H :    0.024476
  54 H :    0.031989
  55 H :    0.034412
  56 H :    0.025754
  57 H :    0.089800
  58 H :    0.099699
  59 H :    0.065725
  60 H :    0.072416
  61 H :    0.056370
  62 H :    0.065050
  63 H :    0.073897
  64 H :    0.028268
  65 H :    0.035624
  66 H :    0.034845
  67 H :    0.022130
  68 H :    0.030189

  Mayer bond orders larger than 0.100000
B(  0-C ,  1-N ) :   1.2425 B(  0-C ,  4-C ) :   1.5453 B(  0-C , 51-H ) :   0.9987
B(  1-N ,  2-C ) :   1.2291 B(  1-N , 52-H ) :   0.9390 B(  2-C ,  3-C ) :   1.4574
B(  2-C , 53-H ) :   0.9895 B(  3-C ,  4-C ) :   1.3212 B(  3-C ,  9-C ) :   1.0656
B(  4-C ,  5-S ) :   0.7801 B(  5-S ,  6-O ) :   1.7245 B(  5-S ,  7-O ) :   1.7240
B(  5-S ,  8-C ) :   0.8466 B(  8-C ,  9-C ) :   1.6785 B(  8-C , 10-C ) :   1.1164
B(  9-C , 54-H ) :   0.9870 B( 10-C , 11-C ) :   1.7112 B( 10-C , 55-H ) :   0.9491
B( 11-C , 12-C ) :   1.1316 B( 11-C , 56-H ) :   0.9522 B( 12-C , 13-S ) :   1.0777
B( 12-C , 14-C ) :   0.1072 B( 12-C , 16-C ) :   1.4867 B( 13-S , 14-C ) :   1.1317
B( 14-C , 15-C ) :   1.5177 B( 14-C , 21-C ) :   1.0966 B( 15-C , 16-C ) :   1.2095
B( 15-C , 18-C ) :   0.8916 B( 16-C , 17-O ) :   1.2615 B( 17-O , 57-H ) :   0.9283
B( 18-C , 19-O ) :   2.2081 B( 18-C , 20-O ) :   1.1712 B( 20-O , 58-H ) :   0.9442
B( 21-C , 22-S ) :   1.0791 B( 21-C , 23-C ) :   0.1044 B( 21-C , 25-C ) :   1.5130
B( 22-S , 23-C ) :   1.2229 B( 23-C , 24-C ) :   1.4731 B( 23-C , 30-C ) :   1.0880
B( 24-C , 25-C ) :   1.1763 B( 24-C , 27-C ) :   0.9395 B( 25-C , 26-O ) :   1.1654
B( 26-O , 59-H ) :   0.9200 B( 27-C , 28-O ) :   1.9005 B( 27-C , 29-O ) :   1.3626
B( 28-O , 61-H ) :   0.1862 B( 29-O , 60-H ) :   0.9110 B( 30-C , 31-S ) :   1.0734
B( 30-C , 32-C ) :   0.1175 B( 30-C , 34-C ) :   1.5185 B( 31-S , 32-C ) :   1.2170
B( 32-C , 33-C ) :   1.4583 B( 32-C , 39-C ) :   1.1429 B( 33-C , 34-C ) :   1.1668
B( 33-C , 36-C ) :   0.9152 B( 34-C , 35-O ) :   1.2112 B( 35-O , 61-H ) :   0.8341
B( 35-O , 62-H ) :   0.1288 B( 36-C , 37-O ) :   1.9566 B( 36-C , 38-O ) :   1.3717
B( 37-O , 63-H ) :   0.1451 B( 38-O , 62-H ) :   0.8906 B( 39-C , 40-N ) :   1.3179
B( 39-C , 43-C ) :   1.4400 B( 40-N , 41-C ) :   1.2755 B( 40-N , 63-H ) :   0.8489
B( 41-C , 42-C ) :   1.3870 B( 41-C , 64-H ) :   0.9930 B( 42-C , 43-C ) :   1.3823
B( 42-C , 48-C ) :   1.0485 B( 43-C , 44-S ) :   0.7972 B( 44-S , 45-O ) :   1.7202
B( 44-S , 46-O ) :   1.7177 B( 44-S , 47-C ) :   0.8306 B( 47-C , 48-C ) :   1.7327
B( 47-C , 49-C ) :   1.0974 B( 48-C , 65-H ) :   0.9914 B( 49-C , 50-C ) :   1.9516
B( 49-C , 66-H ) :   0.9478 B( 50-C , 67-H ) :   0.9549 B( 50-C , 68-H ) :   0.9496

-----------------------------------------------------------------------------
         ABSORPTION SPECTRUM VIA TRANSITION ELECTRIC DIPOLE MOMENTS
-----------------------------------------------------------------------------
State   Energy  Wavelength   fosc         T2         TX        TY        TZ
        (cm-1)    (nm)                  (au**2)     (au)      (au)      (au)
-----------------------------------------------------------------------------
   0   21760.6    459.5   1.331334407  20.14155   3.53427  -0.26893   2.75284
   1   26018.0    384.3   0.592356473   7.49523   1.71193  -2.12136  -0.25373
   2   28470.5    351.2   0.077741617   0.89895  -0.61232   0.72382   0.00983
   3   29868.3    334.8   0.118955992   1.31115  -0.31310  -0.42442  -1.01636
   4   31628.5    316.2   0.148851619   1.54936  -0.59082  -0.02457  -1.09530
   5   32574.7    307.0   0.172873363   1.74712   0.51905  -0.46746   1.12214
   6   33334.1    300.0   0.048783654   0.48179   0.15452   0.35562   0.57572
   7   34944.5    286.2   0.017764849   0.16736   0.22741   0.17036  -0.29432
   8   35582.5    281.0   0.145575779   1.34688   0.83666  -0.61069   0.52340
   9   36128.5    276.8   0.102703539   0.93586  -0.05305  -0.72832  -0.63450
  10   36700.6    272.5   0.033045941   0.29643  -0.28173   0.44148   0.14885
  11   37313.2    268.0   0.038542620   0.34006   0.31592  -0.47388   0.12526
  12   37616.9    265.8   0.038451387   0.33652   0.25813  -0.48017  -0.19829
  13   37784.7    264.7   0.021117410   0.18399  -0.31184   0.28024   0.09063
  14   38606.9    259.0   0.039469765   0.33657   0.11678   0.33133  -0.46169
  15   39277.6    254.6   0.059562839   0.49924   0.00070   0.51853   0.47996
  16   39455.1    253.5   0.056637278   0.47258   0.64472   0.06942   0.22823
  17   39681.2    252.0   0.331435198   2.74973   0.75730  -1.10015  -0.98280

FINAL SINGLE POINT ENERGY     -4267.029063641356

DIPOLE MOMENT
-------------
                                X             Y             Z
Electronic contribution:     -7.38334      13.60053       1.90528
Nuclear contribution   :      9.45179     -15.10640       1.25711
                        -----------------------------------------
Total Dipole Moment    :      2.06845      -1.50587       3.16239
                        -----------------------------------------
Magnitude (a.u.)       :      4.06778
Magnitude (Debye)      :     10.33947

Rotational constants in cm-1:     0.002758     0.000586     0.000510
Rotational constants in MHz :    82.677671    17.579628    15.285415

                             ****ORCA TERMINATED NORMALLY****
TOTAL RUN TIME: 0 days 0 hours 4 minutes 25 seconds 152 msec
