                         Program Version 4.2.0 -  RELEASE  -
|  1> # ORCA input file
|  2> # SCF done       -197.673414565385          0.000624286780
|  3> ! CAM-B3LYP def2-SVP def2/J RIJCOSX Grid4 TightSCF
|  4> %maxcore 5000
|  5> %tddft
|  6>     Mode sTDDFT
|  7>     Ethresh 5.0
|  8>     maxcore 5000
|  9> end
| 10>
| 11> %pal
| 12>   nprocs 6
| 13>   end
| 14> * xyz 0 1
| 15>    C        3.94091        -0.00082         1.88576
| 16>    O        5.05576        -0.45990         1.98541
| 17>    C        3.55795         1.39155         1.67973
| 18>    C        2.20183         1.58390         1.91133
| 19>    C        1.81115         2.92871         1.76228
| 20>    C        2.87749         3.70997         1.42751
| 21>    S        4.36361         2.84419         1.29077
| 22>    C        1.59232         0.31054         2.23905
| 23>    C        0.26065         0.12467         2.51821
| 24>    C       -0.64787         1.20147         2.55213
| 25>    N       -1.40532         2.06327         2.58932
| 26>    C       -0.34437        -1.11342         2.80162
| 27>    N       -0.89154        -2.09698         3.03511
| 28>    C        2.63549        -0.69077         2.15264
| 29>    C        2.49423        -2.02954         2.37624
| 30>    C        3.44616        -2.99600         1.98024
| 31>    N        3.58724        -4.23846         2.56506
| 32>    C        2.85347        -4.72744         3.70714
| 33>    C        1.50386        -5.32189         3.30975
| 34>    C        4.58389        -4.99517         1.94505
| 35>    O        4.92247        -6.11234         2.31396
| 36>    C        5.04911        -4.16347         0.86514
| 37>    C        4.33185        -2.94711         0.91089
| 38>    C        4.72073        -2.14907        -0.23453
| 39>    O        4.33070        -1.08484        -0.66298
| 40>    N        5.70391        -2.92815        -0.87605
| 41>    C        6.47371        -2.39017        -1.96963
| 42>    C        7.80113        -1.81446        -1.48138
| 43>    C        5.92345        -4.12206        -0.22863
| 44>    C        6.87480        -5.07595        -0.63454
| 45>    C        7.08337        -6.19935         0.11606
| 46>    N        7.99266        -7.15193        -0.08544
| 47>    C        7.98257        -8.38460         0.66774
| 48>    N        9.30568        -8.90908         0.44560
| 49>    C        9.70314        -8.55568        -0.91064
| 50>    C       11.23419        -8.44811        -0.93243
| 51>    C       11.79581        -7.56983        -2.04729
| 52>    C       10.93394        -6.30778        -2.30884
| 53>    C        9.97176        -6.04951        -1.14812
| 54>    C        8.97494        -7.20983        -1.14947
| 55>    N       11.91210        -5.25768        -2.48390
| 56>    C       13.25945        -5.81645        -2.41096
| 57>    N       13.12493        -7.06729        -1.71250
| 58>    C       11.59609        -4.07023        -3.03239
| 59>    C       12.48460        -3.10006        -3.36716
| 60>    C       12.16242        -1.85196        -3.96468
| 61>    C       13.20881        -0.89892        -4.11587
| 62>    C       12.98762         0.39422        -4.68282
| 63>    N       14.03772         1.21026        -4.92090
| 64>    C       15.22523         0.82539        -4.54955
| 65>    C       15.42753        -0.40556        -3.89395
| 66>    N       14.44792        -1.24570        -3.70843
| 67>    C       11.69036         0.80241        -5.06976
| 68>    C       10.67065        -0.17439        -5.01910
| 69>    C       10.89115        -1.48430        -4.48125
| 70>    N        9.88463        -2.38120        -4.51109
| 71>    C        8.73006        -2.02274        -5.00736
| 72>    C        8.50199        -0.72213        -5.49057
| 73>    N        9.45565         0.16504        -5.49421
| 74>    C       11.40015         2.10060        -5.59631
| 75>    S       10.17067         2.27264        -6.79460
| 76>    C       10.48052         3.95823        -7.02526
| 77>    C       11.49455         4.39317        -6.16908
| 78>    C       11.99485         3.33894        -5.32722
| 79>    C       12.91424         3.64816        -4.30982
| 80>    C       13.42883         4.91791        -4.21159
| 81>    C       14.35473         5.22307        -3.19125
| 82>    N       15.10854         5.44669        -2.35631
| 83>    C       13.04339         5.92979        -5.14747
| 84>    C       13.64283         7.20650        -5.08029
| 85>    N       14.11479         8.25086        -5.04145
| 86>    C       12.08207         5.67100        -6.09308
| 87>    C        9.67020         4.66549        -7.97791
| 88>    C        9.39289         5.96905        -7.98933
| 89>    H        0.81272         3.30245         1.89411
| 90>    H        2.87546         4.76751         1.24858
| 91>    H        1.59189        -2.39081         2.84984
| 92>    H        2.72202        -3.91394         4.42594
| 93>    H        3.47494        -5.50623         4.15884
| 94>    H        0.85335        -4.57279         2.86465
| 95>    H        1.01028        -5.72599         4.18916
| 96>    H        1.65122        -6.12552         2.59226
| 97>    H        5.86650        -1.59263        -2.40671
| 98>    H        6.63358        -3.16521        -2.72468
| 99>    H        7.61184        -1.02683        -0.75656
|100>    H        8.35990        -1.39739        -2.31454
|101>    H        8.40572        -2.58233        -1.00315
|102>    H        7.42855        -4.89108        -1.54019
|103>    H        6.45809        -6.35822         0.98824
|104>    H        7.17059        -9.04187         0.29399
|105>    H        7.81338        -8.19397         1.73205
|106>    H        9.38212        -9.89796         0.64222
|107>    H        9.36657        -9.28845        -1.66228
|108>    H       11.66572        -9.44594        -1.00384
|109>    H       11.53280        -8.03960         0.03481
|110>    H       11.88694        -8.14394        -2.97677
|111>    H       10.34152        -6.42409        -3.22705
|112>    H        9.46973        -5.09529        -1.29181
|113>    H       10.50198        -6.00683        -0.19774
|114>    H        8.46076        -7.21949        -2.12142
|115>    H       13.94465        -5.13896        -1.89894
|116>    H       13.63717        -6.00339        -3.42816
|117>    H       13.19345        -6.91969        -0.71036
|118>    H       10.54202        -3.90308        -3.19712
|119>    H       13.53609        -3.23410        -3.16357
|120>    H       16.04524         1.49352        -4.77496
|121>    H       16.40434        -0.70902        -3.54272
|122>    H        7.95595        -2.77835        -5.03177
|123>    H        7.54116        -0.41335        -5.87795
|124>    H       13.20984         2.89857        -3.59481
|125>    H       11.79865         6.44361        -6.78964
|126>    H        9.21610         4.02767        -8.72706
|127>    H        9.74731         6.64994        -7.23643
|128>    H        8.76576         6.39130        -8.75500
|129> *
|130>
|131>                          ****END OF INPUT****

CARTESIAN COORDINATES (ANGSTROEM)
---------------------------------
  C      3.940910   -0.000820    1.885760
  O      5.055760   -0.459900    1.985410
  C      3.557950    1.391550    1.679730
  C      2.201830    1.583900    1.911330
  C      1.811150    2.928710    1.762280
  C      2.877490    3.709970    1.427510
  S      4.363610    2.844190    1.290770
  C      1.592320    0.310540    2.239050
  C      0.260650    0.124670    2.518210
  C     -0.647870    1.201470    2.552130
  N     -1.405320    2.063270    2.589320
  C     -0.344370   -1.113420    2.801620
  N     -0.891540   -2.096980    3.035110
  C      2.635490   -0.690770    2.152640
  C      2.494230   -2.029540    2.376240
  C      3.446160   -2.996000    1.980240
  N      3.587240   -4.238460    2.565060
  C      2.853470   -4.727440    3.707140
  C      1.503860   -5.321890    3.309750
  C      4.583890   -4.995170    1.945050
  O      4.922470   -6.112340    2.313960
  C      5.049110   -4.163470    0.865140
  C      4.331850   -2.947110    0.910890
  C      4.720730   -2.149070   -0.234530
  O      4.330700   -1.084840   -0.662980
  N      5.703910   -2.928150   -0.876050
  C      6.473710   -2.390170   -1.969630
  C      7.801130   -1.814460   -1.481380
  C      5.923450   -4.122060   -0.228630
  C      6.874800   -5.075950   -0.634540
  C      7.083370   -6.199350    0.116060
  N      7.992660   -7.151930   -0.085440
  C      7.982570   -8.384600    0.667740
  N      9.305680   -8.909080    0.445600
  C      9.703140   -8.555680   -0.910640
  C     11.234190   -8.448110   -0.932430
  C     11.795810   -7.569830   -2.047290
  C     10.933940   -6.307780   -2.308840
  C      9.971760   -6.049510   -1.148120
  C      8.974940   -7.209830   -1.149470
  N     11.912100   -5.257680   -2.483900
  C     13.259450   -5.816450   -2.410960
  N     13.124930   -7.067290   -1.712500
  C     11.596090   -4.070230   -3.032390
  C     12.484600   -3.100060   -3.367160
  C     12.162420   -1.851960   -3.964680
  C     13.208810   -0.898920   -4.115870
  C     12.987620    0.394220   -4.682820
  N     14.037720    1.210260   -4.920900
  C     15.225230    0.825390   -4.549550
  C     15.427530   -0.405560   -3.893950
  N     14.447920   -1.245700   -3.708430
  C     11.690360    0.802410   -5.069760
  C     10.670650   -0.174390   -5.019100
  C     10.891150   -1.484300   -4.481250
  N      9.884630   -2.381200   -4.511090
  C      8.730060   -2.022740   -5.007360
  C      8.501990   -0.722130   -5.490570
  N      9.455650    0.165040   -5.494210
  C     11.400150    2.100600   -5.596310
  S     10.170670    2.272640   -6.794600
  C     10.480520    3.958230   -7.025260
  C     11.494550    4.393170   -6.169080
  C     11.994850    3.338940   -5.327220
  C     12.914240    3.648160   -4.309820
  C     13.428830    4.917910   -4.211590
  C     14.354730    5.223070   -3.191250
  N     15.108540    5.446690   -2.356310
  C     13.043390    5.929790   -5.147470
  C     13.642830    7.206500   -5.080290
  N     14.114790    8.250860   -5.041450
  C     12.082070    5.671000   -6.093080
  C      9.670200    4.665490   -7.977910
  C      9.392890    5.969050   -7.989330
  H      0.812720    3.302450    1.894110
  H      2.875460    4.767510    1.248580
  H      1.591890   -2.390810    2.849840
  H      2.722020   -3.913940    4.425940
  H      3.474940   -5.506230    4.158840
  H      0.853350   -4.572790    2.864650
  H      1.010280   -5.725990    4.189160
  H      1.651220   -6.125520    2.592260
  H      5.866500   -1.592630   -2.406710
  H      6.633580   -3.165210   -2.724680
  H      7.611840   -1.026830   -0.756560
  H      8.359900   -1.397390   -2.314540
  H      8.405720   -2.582330   -1.003150
  H      7.428550   -4.891080   -1.540190
  H      6.458090   -6.358220    0.988240
  H      7.170590   -9.041870    0.293990
  H      7.813380   -8.193970    1.732050
  H      9.382120   -9.897960    0.642220
  H      9.366570   -9.288450   -1.662280
  H     11.665720   -9.445940   -1.003840
  H     11.532800   -8.039600    0.034810
  H     11.886940   -8.143940   -2.976770
  H     10.341520   -6.424090   -3.227050
  H      9.469730   -5.095290   -1.291810
  H     10.501980   -6.006830   -0.197740
  H      8.460760   -7.219490   -2.121420
  H     13.944650   -5.138960   -1.898940
  H     13.637170   -6.003390   -3.428160
  H     13.193450   -6.919690   -0.710360
  H     10.542020   -3.903080   -3.197120
  H     13.536090   -3.234100   -3.163570
  H     16.045240    1.493520   -4.774960
  H     16.404340   -0.709020   -3.542720
  H      7.955950   -2.778350   -5.031770
  H      7.541160   -0.413350   -5.877950
  H     13.209840    2.898570   -3.594810
  H     11.798650    6.443610   -6.789640
  H      9.216100    4.027670   -8.727060
  H      9.747310    6.649940   -7.236430
  H      8.765760    6.391300   -8.755000

 Total Charge           Charge          ....    0
 Multiplicity           Mult            ....    1
 Number of Electrons    NEL             ....  524
 Basis Dimension        Dim             .... 1244

ORBITAL ENERGIES
----------------

  NO   OCC          E(Eh)            E(eV)
   0   2.0000     -88.977007     -2421.1875
   1   2.0000     -88.967199     -2420.9206
   2   2.0000     -19.203551      -522.5552
   3   2.0000     -19.202881      -522.5370
   4   2.0000     -19.175977      -521.8049
   5   2.0000     -14.477066      -393.9410
   6   2.0000     -14.457179      -393.3998
   7   2.0000     -14.452230      -393.2652
   8   2.0000     -14.442945      -393.0125
   9   2.0000     -14.442860      -393.0102
  10   2.0000     -14.439614      -392.9219
  11   2.0000     -14.432390      -392.7253
  12   2.0000     -14.429101      -392.6358
  13   2.0000     -14.426225      -392.5575
  14   2.0000     -14.418870      -392.3574
  15   2.0000     -14.409993      -392.1159
  16   2.0000     -14.404646      -391.9703
  17   2.0000     -14.393266      -391.6607
  18   2.0000     -14.393105      -391.6563
  19   2.0000     -10.381277      -282.4889
  20   2.0000     -10.364536      -282.0334
  21   2.0000     -10.362145      -281.9683
  22   2.0000     -10.355746      -281.7942
  23   2.0000     -10.351248      -281.6718
  24   2.0000     -10.344139      -281.4783
  25   2.0000     -10.342933      -281.4455
  26   2.0000     -10.342855      -281.4434
  27   2.0000     -10.336966      -281.2831
  28   2.0000     -10.334466      -281.2151
  29   2.0000     -10.334458      -281.2149
  30   2.0000     -10.334066      -281.2042
  31   2.0000     -10.331816      -281.1430
  32   2.0000     -10.331526      -281.1351
  33   2.0000     -10.329887      -281.0905
  34   2.0000     -10.329025      -281.0671
  35   2.0000     -10.328717      -281.0587
  36   2.0000     -10.326868      -281.0084
  37   2.0000     -10.324313      -280.9389
  38   2.0000     -10.323953      -280.9290
  39   2.0000     -10.322760      -280.8966
  40   2.0000     -10.320751      -280.8419
  41   2.0000     -10.318772      -280.7881
  42   2.0000     -10.316423      -280.7241
  43   2.0000     -10.313270      -280.6383
  44   2.0000     -10.311303      -280.5848
  45   2.0000     -10.311094      -280.5791
  46   2.0000     -10.309340      -280.5314
  47   2.0000     -10.308152      -280.4991
  48   2.0000     -10.307973      -280.4942
  49   2.0000     -10.305608      -280.4298
  50   2.0000     -10.304667      -280.4042
  51   2.0000     -10.303858      -280.3822
  52   2.0000     -10.301671      -280.3227
  53   2.0000     -10.299454      -280.2624
  54   2.0000     -10.298977      -280.2494
  55   2.0000     -10.295512      -280.1551
  56   2.0000     -10.295068      -280.1430
  57   2.0000     -10.294580      -280.1298
  58   2.0000     -10.294126      -280.1174
  59   2.0000     -10.292929      -280.0848
  60   2.0000     -10.292797      -280.0812
  61   2.0000     -10.292600      -280.0759
  62   2.0000     -10.290445      -280.0173
  63   2.0000     -10.288100      -279.9534
  64   2.0000     -10.287744      -279.9437
  65   2.0000     -10.287114      -279.9266
  66   2.0000     -10.285942      -279.8947
  67   2.0000     -10.283093      -279.8172
  68   2.0000     -10.271560      -279.5033
  69   2.0000     -10.268669      -279.4247
  70   2.0000     -10.268120      -279.4098
  71   2.0000     -10.260520      -279.2029
  72   2.0000     -10.253052      -278.9997
  73   2.0000     -10.251709      -278.9632
  74   2.0000      -8.072101      -219.6530
  75   2.0000      -8.061047      -219.3522
  76   2.0000      -6.041276      -164.3915
  77   2.0000      -6.036824      -164.2703
  78   2.0000      -6.034817      -164.2157
  79   2.0000      -6.029957      -164.0835
  80   2.0000      -6.025495      -163.9621
  81   2.0000      -6.024402      -163.9323
  82   2.0000      -1.140226       -31.0271
  83   2.0000      -1.120588       -30.4927
  84   2.0000      -1.116452       -30.3802
  85   2.0000      -1.113468       -30.2990
  86   2.0000      -1.098516       -29.8921
  87   2.0000      -1.096096       -29.8263
  88   2.0000      -1.086680       -29.5701
  89   2.0000      -1.066968       -29.0337
  90   2.0000      -1.047034       -28.4912
  91   2.0000      -1.023894       -27.8616
  92   2.0000      -1.016158       -27.6511
  93   2.0000      -1.014341       -27.6016
  94   2.0000      -1.010721       -27.5031
  95   2.0000      -1.002468       -27.2785
  96   2.0000      -1.000299       -27.2195
  97   2.0000      -0.999780       -27.2054
  98   2.0000      -0.985580       -26.8190
  99   2.0000      -0.984330       -26.7850
 100   2.0000      -0.974103       -26.5067
 101   2.0000      -0.957728       -26.0611
 102   2.0000      -0.953531       -25.9469
 103   2.0000      -0.943065       -25.6621
 104   2.0000      -0.941585       -25.6218
 105   2.0000      -0.927802       -25.2468
 106   2.0000      -0.904096       -24.6017
 107   2.0000      -0.900760       -24.5109
 108   2.0000      -0.894272       -24.3344
 109   2.0000      -0.883268       -24.0349
 110   2.0000      -0.878373       -23.9017
 111   2.0000      -0.875905       -23.8346
 112   2.0000      -0.866467       -23.5778
 113   2.0000      -0.861716       -23.4485
 114   2.0000      -0.861109       -23.4320
 115   2.0000      -0.858130       -23.3509
 116   2.0000      -0.851196       -23.1622
 117   2.0000      -0.844118       -22.9696
 118   2.0000      -0.830363       -22.5953
 119   2.0000      -0.818112       -22.2620
 120   2.0000      -0.809606       -22.0305
 121   2.0000      -0.802771       -21.8445
 122   2.0000      -0.794295       -21.6139
 123   2.0000      -0.791661       -21.5422
 124   2.0000      -0.775506       -21.1026
 125   2.0000      -0.767833       -20.8938
 126   2.0000      -0.758762       -20.6470
 127   2.0000      -0.758516       -20.6403
 128   2.0000      -0.754612       -20.5340
 129   2.0000      -0.743307       -20.2264
 130   2.0000      -0.738762       -20.1027
 131   2.0000      -0.734596       -19.9894
 132   2.0000      -0.730674       -19.8827
 133   2.0000      -0.727150       -19.7868
 134   2.0000      -0.726523       -19.7697
 135   2.0000      -0.715174       -19.4609
 136   2.0000      -0.707316       -19.2470
 137   2.0000      -0.702528       -19.1168
 138   2.0000      -0.693013       -18.8579
 139   2.0000      -0.677354       -18.4317
 140   2.0000      -0.677003       -18.4222
 141   2.0000      -0.669346       -18.2138
 142   2.0000      -0.664973       -18.0948
 143   2.0000      -0.661993       -18.0137
 144   2.0000      -0.660687       -17.9782
 145   2.0000      -0.655414       -17.8347
 146   2.0000      -0.649787       -17.6816
 147   2.0000      -0.647859       -17.6291
 148   2.0000      -0.646794       -17.6002
 149   2.0000      -0.638638       -17.3782
 150   2.0000      -0.634058       -17.2536
 151   2.0000      -0.619690       -16.8626
 152   2.0000      -0.614155       -16.7120
 153   2.0000      -0.609208       -16.5774
 154   2.0000      -0.607292       -16.5253
 155   2.0000      -0.603777       -16.4296
 156   2.0000      -0.601432       -16.3658
 157   2.0000      -0.600088       -16.3292
 158   2.0000      -0.595925       -16.2159
 159   2.0000      -0.589807       -16.0495
 160   2.0000      -0.588148       -16.0043
 161   2.0000      -0.586715       -15.9653
 162   2.0000      -0.582223       -15.8431
 163   2.0000      -0.581680       -15.8283
 164   2.0000      -0.577326       -15.7098
 165   2.0000      -0.573521       -15.6063
 166   2.0000      -0.567037       -15.4299
 167   2.0000      -0.563569       -15.3355
 168   2.0000      -0.561861       -15.2890
 169   2.0000      -0.557385       -15.1672
 170   2.0000      -0.553901       -15.0724
 171   2.0000      -0.546719       -14.8770
 172   2.0000      -0.545458       -14.8427
 173   2.0000      -0.544456       -14.8154
 174   2.0000      -0.540903       -14.7187
 175   2.0000      -0.540224       -14.7002
 176   2.0000      -0.536086       -14.5876
 177   2.0000      -0.534410       -14.5420
 178   2.0000      -0.530131       -14.4256
 179   2.0000      -0.528684       -14.3862
 180   2.0000      -0.525337       -14.2952
 181   2.0000      -0.524925       -14.2839
 182   2.0000      -0.522605       -14.2208
 183   2.0000      -0.522044       -14.2055
 184   2.0000      -0.519836       -14.1455
 185   2.0000      -0.517903       -14.0929
 186   2.0000      -0.514041       -13.9878
 187   2.0000      -0.511217       -13.9109
 188   2.0000      -0.508733       -13.8433
 189   2.0000      -0.507995       -13.8233
 190   2.0000      -0.504710       -13.7339
 191   2.0000      -0.503927       -13.7126
 192   2.0000      -0.501215       -13.6387
 193   2.0000      -0.497759       -13.5447
 194   2.0000      -0.495764       -13.4904
 195   2.0000      -0.491721       -13.3804
 196   2.0000      -0.488050       -13.2805
 197   2.0000      -0.487701       -13.2710
 198   2.0000      -0.482495       -13.1294
 199   2.0000      -0.480369       -13.0715
 200   2.0000      -0.478673       -13.0254
 201   2.0000      -0.475537       -12.9400
 202   2.0000      -0.475270       -12.9328
 203   2.0000      -0.470123       -12.7927
 204   2.0000      -0.469298       -12.7703
 205   2.0000      -0.466501       -12.6941
 206   2.0000      -0.464708       -12.6453
 207   2.0000      -0.461615       -12.5612
 208   2.0000      -0.460881       -12.5412
 209   2.0000      -0.458543       -12.4776
 210   2.0000      -0.455083       -12.3834
 211   2.0000      -0.452626       -12.3166
 212   2.0000      -0.450270       -12.2525
 213   2.0000      -0.448821       -12.2130
 214   2.0000      -0.446237       -12.1427
 215   2.0000      -0.443968       -12.0810
 216   2.0000      -0.443326       -12.0635
 217   2.0000      -0.439968       -11.9721
 218   2.0000      -0.437928       -11.9166
 219   2.0000      -0.437050       -11.8927
 220   2.0000      -0.433134       -11.7862
 221   2.0000      -0.432885       -11.7794
 222   2.0000      -0.431023       -11.7287
 223   2.0000      -0.429600       -11.6900
 224   2.0000      -0.426511       -11.6060
 225   2.0000      -0.424248       -11.5444
 226   2.0000      -0.423339       -11.5196
 227   2.0000      -0.421717       -11.4755
 228   2.0000      -0.421366       -11.4659
 229   2.0000      -0.419586       -11.4175
 230   2.0000      -0.417781       -11.3684
 231   2.0000      -0.417405       -11.3582
 232   2.0000      -0.413305       -11.2466
 233   2.0000      -0.406096       -11.0504
 234   2.0000      -0.404244       -11.0000
 235   2.0000      -0.401836       -10.9345
 236   2.0000      -0.399570       -10.8729
 237   2.0000      -0.399054       -10.8588
 238   2.0000      -0.396033       -10.7766
 239   2.0000      -0.393140       -10.6979
 240   2.0000      -0.390554       -10.6275
 241   2.0000      -0.381220       -10.3735
 242   2.0000      -0.376844       -10.2545
 243   2.0000      -0.351496        -9.5647
 244   2.0000      -0.342086        -9.3086
 245   2.0000      -0.340963        -9.2781
 246   2.0000      -0.339627        -9.2417
 247   2.0000      -0.339090        -9.2271
 248   2.0000      -0.333893        -9.0857
 249   2.0000      -0.332708        -9.0534
 250   2.0000      -0.330992        -9.0068
 251   2.0000      -0.329956        -8.9786
 252   2.0000      -0.326847        -8.8940
 253   2.0000      -0.323203        -8.7948
 254   2.0000      -0.322937        -8.7876
 255   2.0000      -0.312938        -8.5155
 256   2.0000      -0.305689        -8.3182
 257   2.0000      -0.304905        -8.2969
 258   2.0000      -0.299904        -8.1608
 259   2.0000      -0.274641        -7.4734
 260   2.0000      -0.233571        -6.3558
 261   2.0000      -0.229933        -6.2568
 262   0.0000      -0.091995        -2.5033
 263   0.0000      -0.086486        -2.3534
 264   0.0000      -0.061216        -1.6658
 265   0.0000      -0.049850        -1.3565
 266   0.0000      -0.021427        -0.5831

MULLIKEN ATOMIC CHARGES
-----------------------
   0 C :    0.149277
   1 O :   -0.149419
   2 C :   -0.161876
   3 C :    0.005161
   4 C :    0.024856
   5 C :   -0.061712
   6 S :    0.204363
   7 C :    0.298248
   8 C :   -0.345173
   9 C :   -0.193889
  10 N :    0.148937
  11 C :   -0.186247
  12 N :    0.148924
  13 C :   -0.095049
  14 C :   -0.062893
  15 C :    0.112812
  16 N :   -0.252480
  17 C :    0.104927
  18 C :   -0.000406
  19 C :    0.162895
  20 O :   -0.259939
  21 C :   -0.107165
  22 C :    0.007064
  23 C :    0.155363
  24 O :   -0.180952
  25 N :   -0.266911
  26 C :    0.095816
  27 C :    0.000949
  28 C :    0.172783
  29 C :   -0.093482
  30 C :    0.112455
  31 N :   -0.256102
  32 C :    0.281726
  33 N :   -0.266739
  34 C :   -0.031160
  35 C :    0.236263
  36 C :   -0.040577
  37 C :    0.028190
  38 C :    0.222581
  39 C :    0.043634
  40 N :   -0.274202
  41 C :    0.257394
  42 N :   -0.222259
  43 C :    0.144633
  44 C :   -0.166206
  45 C :    0.131687
  46 C :   -0.061662
  47 C :   -0.068392
  48 N :   -0.028915
  49 C :    0.040219
  50 C :    0.020480
  51 N :   -0.018981
  52 C :    0.101187
  53 C :   -0.026749
  54 C :   -0.065579
  55 N :   -0.035906
  56 C :    0.013572
  57 C :    0.041173
  58 N :   -0.052306
  59 C :   -0.223864
  60 S :    0.212669
  61 C :   -0.136586
  62 C :    0.108848
  63 C :    0.161835
  64 C :   -0.008892
  65 C :   -0.097999
  66 C :   -0.180645
  67 N :    0.155092
  68 C :   -0.072861
  69 C :   -0.180078
  70 N :    0.160328
  71 C :   -0.063938
  72 C :    0.021418
  73 C :   -0.026891
  74 H :    0.014958
  75 H :    0.039690
  76 H :    0.011483
  77 H :    0.023372
  78 H :    0.033906
  79 H :    0.031315
  80 H :    0.021825
  81 H :    0.022048
  82 H :    0.040789
  83 H :    0.014071
  84 H :    0.040058
  85 H :    0.019490
  86 H :    0.018582
  87 H :   -0.040066
  88 H :    0.035579
  89 H :    0.014001
  90 H :    0.048340
  91 H :    0.116002
  92 H :   -0.001229
  93 H :    0.017088
  94 H :   -0.026728
  95 H :    0.004702
  96 H :   -0.004519
  97 H :    0.004975
  98 H :   -0.023105
  99 H :    0.005790
 100 H :    0.037841
 101 H :    0.017182
 102 H :    0.104303
 103 H :    0.014672
 104 H :   -0.012360
 105 H :    0.024023
 106 H :    0.013714
 107 H :    0.011137
 108 H :    0.016520
 109 H :   -0.016367
 110 H :   -0.012523
 111 H :   -0.003318
 112 H :    0.029886
 113 H :    0.030197
Sum of atomic charges:   -0.0000000

LOEWDIN ATOMIC CHARGES
----------------------
   0 C :    0.072570
   1 O :   -0.140804
   2 C :   -0.197871
   3 C :   -0.039359
   4 C :   -0.045860
   5 C :   -0.152915
   6 S :    0.500486
   7 C :    0.076829
   8 C :   -0.148226
   9 C :   -0.018271
  10 N :   -0.060561
  11 C :   -0.018092
  12 N :   -0.060516
  13 C :   -0.077226
  14 C :    0.034864
  15 C :    0.027113
  16 N :    0.006647
  17 C :    0.036782
  18 C :   -0.061480
  19 C :    0.068436
  20 O :   -0.248201
  21 C :   -0.151428
  22 C :   -0.063315
  23 C :    0.096493
  24 O :   -0.169695
  25 N :   -0.005723
  26 C :    0.035456
  27 C :   -0.062714
  28 C :    0.114656
  29 C :   -0.151663
  30 C :    0.107500
  31 N :    0.005745
  32 C :    0.106305
  33 N :   -0.102841
  34 C :    0.028667
  35 C :   -0.031620
  36 C :    0.022554
  37 C :    0.024744
  38 C :   -0.029995
  39 C :    0.037526
  40 N :   -0.033967
  41 C :    0.095935
  42 N :   -0.092641
  43 C :    0.064585
  44 C :   -0.120526
  45 C :    0.010641
  46 C :   -0.020439
  47 C :   -0.003289
  48 N :   -0.031590
  49 C :    0.017209
  50 C :    0.001067
  51 N :   -0.027666
  52 C :   -0.074097
  53 C :   -0.003199
  54 C :   -0.023440
  55 N :   -0.026141
  56 C :   -0.008027
  57 C :    0.014655
  58 N :   -0.050071
  59 C :   -0.163821
  60 S :    0.540598
  61 C :   -0.183590
  62 C :   -0.048844
  63 C :   -0.038263
  64 C :    0.046401
  65 C :   -0.070450
  66 C :   -0.031309
  67 N :   -0.055356
  68 C :   -0.062656
  69 C :   -0.031674
  70 N :   -0.050337
  71 C :    0.027649
  72 C :   -0.044625
  73 C :   -0.037745
  74 H :    0.042520
  75 H :    0.029610
  76 H :    0.041615
  77 H :    0.024740
  78 H :    0.034202
  79 H :    0.025551
  80 H :    0.030842
  81 H :    0.029211
  82 H :    0.036375
  83 H :    0.016816
  84 H :    0.037410
  85 H :    0.025427
  86 H :    0.021750
  87 H :    0.018869
  88 H :    0.039616
  89 H :    0.003866
  90 H :    0.031944
  91 H :    0.067421
  92 H :    0.010608
  93 H :    0.033549
  94 H :    0.025548
  95 H :    0.021922
  96 H :    0.016112
  97 H :    0.024503
  98 H :    0.027442
  99 H :    0.021367
 100 H :    0.026885
 101 H :    0.015381
 102 H :    0.057012
 103 H :    0.019638
 104 H :    0.024315
 105 H :    0.031305
 106 H :    0.027008
 107 H :    0.021789
 108 H :    0.029288
 109 H :    0.036823
 110 H :    0.039769
 111 H :    0.029595
 112 H :    0.023734
 113 H :    0.028650

  Mayer bond orders larger than 0.100000
B(  0-C ,  1-O ) :   2.2072 B(  0-C ,  2-C ) :   1.0426 B(  0-C , 13-C ) :   0.9215
B(  2-C ,  3-C ) :   1.4638 B(  2-C ,  6-S ) :   1.1336 B(  3-C ,  4-C ) :   1.2655
B(  3-C ,  7-C ) :   1.0048 B(  4-C ,  5-C ) :   1.5457 B(  4-C , 74-H ) :   0.9942
B(  5-C ,  6-S ) :   1.1837 B(  5-C , 75-H ) :   0.9625 B(  7-C ,  8-C ) :   1.6268
B(  7-C , 13-C ) :   1.0995 B(  8-C ,  9-C ) :   1.1478 B(  8-C , 11-C ) :   1.1410
B(  9-C , 10-N ) :   2.9877 B( 11-C , 12-N ) :   2.9853 B( 13-C , 14-C ) :   1.5884
B( 14-C , 15-C ) :   1.1686 B( 14-C , 76-H ) :   0.9273 B( 15-C , 16-N ) :   1.1311
B( 15-C , 22-C ) :   1.3682 B( 16-N , 17-C ) :   0.9465 B( 16-N , 19-C ) :   1.1048
B( 17-C , 18-C ) :   1.1212 B( 17-C , 77-H ) :   0.9487 B( 17-C , 78-H ) :   0.9294
B( 18-C , 79-H ) :   0.9654 B( 18-C , 80-H ) :   0.9663 B( 18-C , 81-H ) :   0.9615
B( 19-C , 20-O ) :   1.9460 B( 19-C , 21-C ) :   1.0170 B( 20-O , 88-H ) :   0.1566
B( 21-C , 22-C ) :   1.3034 B( 21-C , 28-C ) :   1.2323 B( 22-C , 23-C ) :   0.9472
B( 23-C , 24-O ) :   2.1334 B( 23-C , 25-N ) :   1.0293 B( 25-N , 26-C ) :   0.9518
B( 25-N , 28-C ) :   1.1681 B( 26-C , 27-C ) :   1.1188 B( 26-C , 82-H ) :   0.9275
B( 26-C , 83-H ) :   0.9473 B( 27-C , 84-H ) :   0.9569 B( 27-C , 85-H ) :   0.9663
B( 27-C , 86-H ) :   0.9655 B( 28-C , 29-C ) :   1.2596 B( 29-C , 30-C ) :   1.4351
B( 29-C , 87-H ) :   0.9518 B( 30-C , 31-N ) :   1.3095 B( 30-C , 88-H ) :   0.9170
B( 31-N , 32-C ) :   0.9474 B( 31-N , 39-C ) :   0.9617 B( 32-C , 33-N ) :   1.0333
B( 32-C , 89-H ) :   0.9510 B( 32-C , 90-H ) :   0.9494 B( 33-N , 34-C ) :   1.0411
B( 33-N , 91-H ) :   0.9419 B( 34-C , 35-C ) :   1.0865 B( 34-C , 39-C ) :   0.9972
B( 34-C , 92-H ) :   0.9036 B( 35-C , 36-C ) :   1.0854 B( 35-C , 93-H ) :   0.9299
B( 35-C , 94-H ) :   0.8527 B( 36-C , 37-C ) :   0.9888 B( 36-C , 42-N ) :   1.0816
B( 36-C , 95-H ) :   0.9003 B( 37-C , 38-C ) :   1.1096 B( 37-C , 40-N ) :   0.9846
B( 37-C , 96-H ) :   0.9049 B( 38-C , 39-C ) :   1.1121 B( 38-C , 97-H ) :   0.9259
B( 38-C , 98-H ) :   0.8451 B( 39-C , 99-H ) :   0.9080 B( 40-N , 41-C ) :   0.9277
B( 40-N , 43-C ) :   1.2162 B( 41-C , 42-N ) :   1.0860 B( 41-C ,100-H ) :   0.9511
B( 41-C ,101-H ) :   0.9508 B( 42-N ,102-H ) :   0.9435 B( 43-C , 44-C ) :   1.5006
B( 43-C ,103-H ) :   0.9329 B( 44-C , 45-C ) :   1.2643 B( 44-C ,104-H ) :   0.9452
B( 45-C , 46-C ) :   1.2136 B( 45-C , 52-C ) :   0.1263 B( 45-C , 54-C ) :   1.1874
B( 46-C , 47-C ) :   1.1484 B( 46-C , 51-N ) :   1.4631 B( 47-C , 48-N ) :   1.4560
B( 47-C , 52-C ) :   1.2739 B( 48-N , 49-C ) :   1.6723 B( 49-C , 50-C ) :   1.1918
B( 49-C ,105-H ) :   0.9739 B( 50-C , 51-N ) :   1.6842 B( 50-C ,106-H ) :   0.9758
B( 52-C , 53-C ) :   1.2715 B( 52-C , 59-C ) :   1.0900 B( 53-C , 54-C ) :   1.1557
B( 53-C , 58-N ) :   1.4185 B( 54-C , 55-N ) :   1.4428 B( 55-N , 56-C ) :   1.6477
B( 56-C , 57-C ) :   1.2078 B( 56-C ,107-H ) :   0.9708 B( 57-C , 58-N ) :   1.6623
B( 57-C ,108-H ) :   0.9752 B( 59-C , 60-S ) :   1.1982 B( 59-C , 61-C ) :   0.1076
B( 59-C , 63-C ) :   1.3539 B( 60-S , 61-C ) :   1.1560 B( 61-C , 62-C ) :   1.3556
B( 61-C , 72-C ) :   1.0979 B( 62-C , 63-C ) :   1.1893 B( 62-C , 71-C ) :   1.1799
B( 63-C , 64-C ) :   1.1964 B( 64-C , 65-C ) :   1.5816 B( 64-C ,109-H ) :   0.9803
B( 65-C , 66-C ) :   1.0792 B( 65-C , 68-C ) :   1.2254 B( 66-C , 67-N ) :   3.0427
B( 68-C , 69-C ) :   1.0766 B( 68-C , 71-C ) :   1.5704 B( 69-C , 70-N ) :   3.0429
B( 71-C ,110-H ) :   0.9954 B( 72-C , 73-C ) :   1.9289 B( 72-C ,111-H ) :   0.9478
B( 73-C ,112-H ) :   0.9601 B( 73-C ,113-H ) :   0.9474

-----------------------------------------------------------------------------
         ABSORPTION SPECTRUM VIA TRANSITION ELECTRIC DIPOLE MOMENTS
-----------------------------------------------------------------------------
State   Energy  Wavelength   fosc         T2         TX        TY        TZ
        (cm-1)    (nm)                  (au**2)     (au)      (au)      (au)
-----------------------------------------------------------------------------
   0   13057.4    765.8   0.292156399   7.36602   0.29213   2.33269  -1.35618
   1   14525.7    688.4   0.585643658  13.27309  -2.33517   2.46206   1.32602
   2   18846.8    530.6   0.019812731   0.34609  -0.54579   0.20389  -0.08138
   3   19943.3    501.4   0.000128346   0.00212   0.03513   0.00955  -0.02817
   4   21189.7    471.9   0.002160058   0.03356  -0.11408  -0.09941   0.10325
   5   21857.8    457.5   0.225191590   3.39172  -0.33817   1.61115  -0.82556
   6   22467.5    445.1   0.049419353   0.72413  -0.32026   0.74585  -0.25549
   7   25140.5    397.8   0.010960771   0.14353  -0.04046  -0.26906  -0.26363
   8   25776.0    388.0   0.035605952   0.45476  -0.35536   0.50106   0.27826
   9   26435.3    378.3   0.029292644   0.36480  -0.26838  -0.49678   0.21442
  10   27232.0    367.2   0.005783569   0.06992   0.13689   0.22446  -0.02825
  11   27250.7    367.0   0.027085370   0.32722   0.46592  -0.24467   0.22422
  12   27599.9    362.3   0.000263806   0.00315   0.04555   0.01766  -0.02757
  13   28322.4    353.1   0.069519482   0.80808  -0.53663  -0.40257   0.59836
  14   28416.4    351.9   0.038615628   0.44737  -0.63644  -0.20408   0.02588
  15   28842.4    346.7   0.010962628   0.12513   0.04324  -0.31548   0.15406
  16   29837.5    335.1   0.021782013   0.24033  -0.07509  -0.43702   0.20905
  17   30528.6    327.6   0.055313319   0.59648  -0.37200  -0.67332  -0.06879
  18   30740.4    325.3   0.029523363   0.31618   0.34358  -0.44066  -0.06290
  19   31146.6    321.1   0.083783835   0.88558  -0.63499   0.69452  -0.00046
  20   31253.6    320.0   0.002535511   0.02671  -0.07271  -0.11945  -0.08458
  21   31706.0    315.4   0.110152400   1.14374   0.97723   0.32055   0.29328
  22   31866.9    313.8   0.482403257   4.98364   0.79734  -2.07163  -0.23718
  23   32138.3    311.2   0.002609080   0.02673   0.02565   0.08614  -0.13656
  24   33038.4    302.7   0.009160851   0.09128   0.00852   0.28817  -0.09039
  25   33675.9    296.9   0.018567504   0.18151   0.06661  -0.34127   0.24619
  26   33801.7    295.8   0.010875610   0.10592  -0.18269  -0.26930   0.00482
  27   34452.9    290.3   0.069446769   0.66359  -0.41768   0.51965  -0.46809
  28   34971.2    285.9   0.733415443   6.90424  -2.61781  -0.19096   0.12184
  29   35005.9    285.7   0.210554239   1.98015   1.24380   0.55448  -0.35449
  30   35085.9    285.0   0.041264056   0.38718   0.43309  -0.34421   0.28484
  31   35473.1    281.9   0.026514501   0.24607  -0.33906  -0.32762   0.15419
  32   35685.5    280.2   0.005293635   0.04884  -0.20040   0.08723  -0.03263
  33   36198.5    276.3   0.462352897   4.20493   0.15622   1.95393  -0.60223
  34   36271.8    275.7   0.020905583   0.18974  -0.04227  -0.42061   0.10508
  35   36505.0    273.9   0.052859138   0.47670  -0.29244  -0.62080   0.07608
  36   36736.5    272.2   0.050648715   0.45389  -0.20805  -0.61622   0.17572
  37   36759.4    272.0   0.086002890   0.77023   0.18159   0.80354  -0.30262
  38   36899.9    271.0   0.182306399   1.62649  -1.01010  -0.58425  -0.51462
  39   37062.6    269.8   0.079958872   0.71024  -0.73508  -0.27673  -0.30548
  40   37161.6    269.1   0.017974274   0.15923   0.08463   0.36004  -0.14980
  41   37339.1    267.8   0.254519523   2.24405  -0.45803   1.41281  -0.19553
  42   37562.8    266.2   0.008975668   0.07867   0.27184  -0.01459   0.06748
  43   37668.3    265.5   0.600237691   5.24593   1.93789   0.96271   0.75080
  44   37969.5    263.4   0.046127463   0.39994   0.52311   0.35532   0.00745
  45   38583.1    259.2   0.000237495   0.00203  -0.01600  -0.04149  -0.00700
  46   38982.1    256.5   0.055283294   0.46688   0.11674   0.65755  -0.14450
  47   39539.3    252.9   0.214131471   1.78290  -0.51242   1.21402  -0.21560
  48   39607.0    252.5   0.056540274   0.46996   0.05382   0.63170   0.26081
  49   39628.0    252.3   0.016830766   0.13982   0.35859   0.09265   0.05147
  50   39833.2    251.0   0.039705923   0.32816  -0.51574   0.22145  -0.11459
  51   40016.5    249.9   0.018177223   0.14954   0.11799   0.36183   0.06854
  52   40290.0    248.2   0.000142610   0.00117   0.03086  -0.00958   0.01101

FINAL SINGLE POINT ENERGY     -3904.260621205448

DIPOLE MOMENT
-------------
                                X             Y             Z
Electronic contribution:    -10.04041      75.10158      -6.98042
Nuclear contribution   :     11.48244     -81.73908       4.87870
                        -----------------------------------------
Total Dipole Moment    :      1.44203      -6.63750      -2.10172
                        -----------------------------------------
Magnitude (a.u.)       :      7.11007
Magnitude (Debye)      :     18.07237

Rotational constants in cm-1:     0.000913     0.000509     0.000354
Rotational constants in MHz :    27.377890    15.259160    10.623973

                             ****ORCA TERMINATED NORMALLY****
TOTAL RUN TIME: 0 days 0 hours 12 minutes 42 seconds 20 msec
