                         Program Version 4.2.0 -  RELEASE  -
|  1> # ORCA input file
|  2> # SCF done       -176.229040950721          0.000581141664
|  3> ! CAM-B3LYP def2-SVP def2/J RIJCOSX Grid4 TightSCF
|  4> %maxcore 5000
|  5> %tddft
|  6>     Mode sTDDFT
|  7>     Ethresh 5.0
|  8>     maxcore 5000
|  9> end
| 10>
| 11> %pal
| 12>   nprocs 6
| 13>   end
| 14> * xyz 0 1
| 15>    C       -3.85658         4.58727        -3.69816
| 16>    C       -3.43553         4.41124        -2.42840
| 17>    C       -2.02707         4.22888        -2.33725
| 18>    C       -1.41253         4.27967        -3.61211
| 19>    S       -2.58306         4.54552        -4.86918
| 20>    C       -0.04967         4.11530        -3.78986
| 21>    S        0.63625         4.18559        -5.42008
| 22>    C        1.50241         2.57670        -5.52097
| 23>    C        0.73665         3.91968        -2.64677
| 24>    C        0.11422         3.84538        -1.37211
| 25>    C       -1.24805         4.00722        -1.19482
| 26>    S       -2.05025         3.87681         0.38387
| 27>    C       -1.21445         5.18947         1.32944
| 28>    S        1.29115         3.53671        -0.12534
| 29>    C        2.60202         3.53834        -1.29108
| 30>    C        2.13659         3.75573        -2.56069
| 31>    C        3.95849         3.31040        -0.93798
| 32>    S        5.12137         3.13324        -2.21326
| 33>    C        6.43166         2.84941        -1.12141
| 34>    C        5.99324         2.92820         0.20424
| 35>    C        4.58027         3.17617         0.30865
| 36>    C        3.99104         3.27888         1.58228
| 37>    C        4.76689         3.16418         2.70913
| 38>    C        4.17197         3.27235         3.98668
| 39>    N        3.66975         3.36223         5.01280
| 40>    C        6.17885         2.96233         2.60309
| 41>    C        6.95863         2.88929         3.77980
| 42>    N        7.60467         2.82852         4.72436
| 43>    C        6.77559         2.85084         1.37162
| 44>    C        7.72405         2.56041        -1.63811
| 45>    C        8.75441         1.86850        -1.06708
| 46>    C        9.89494         1.75218        -1.89387
| 47>    C        9.71148         2.36200        -3.16138
| 48>    S        8.12692         3.08219        -3.26616
| 49>    C       10.70428         2.35752        -4.12559
| 50>    S       10.58533         3.10926        -5.72084
| 51>    C        8.90415         2.68694        -6.27293
| 52>    C       11.93150         1.76540        -3.77981
| 53>    C       12.12282         1.17358        -2.50400
| 54>    C       11.11234         1.13301        -1.55769
| 55>    S       11.23888         0.45431         0.06759
| 56>    C       12.26047        -1.03382        -0.13937
| 57>    S       13.75403         0.57461        -2.34256
| 58>    C       14.15231         1.09556        -3.96417
| 59>    C       13.09502         1.69435        -4.58151
| 60>    C       15.46248         0.87008        -4.47474
| 61>    C       16.51620         0.27921        -3.84458
| 62>    C       17.68943         0.21118        -4.63341
| 63>    C       17.50250         0.78615        -5.91720
| 64>    S       15.87135         1.38012        -6.09853
| 65>    C       18.51681         0.81684        -6.85813
| 66>    S       18.36398         1.47627        -8.49155
| 67>    C       17.48088         3.04627        -8.23442
| 68>    C       19.74627         0.24016        -6.49742
| 69>    C       19.93759        -0.33466        -5.21315
| 70>    C       18.91772        -0.36725        -4.27357
| 71>    S       19.04775        -1.01891        -2.63782
| 72>    C       20.07531        -2.50730        -2.82397
| 73>    S       21.57274        -0.91319        -5.03068
| 74>    C       21.97265        -0.39894        -6.64794
| 75>    C       20.92071         0.18191        -7.28681
| 76>    C       23.31896        -0.63678        -7.10031
| 77>    C       23.79040        -0.27751        -8.37154
| 78>    N       25.03380        -0.51232        -8.73863
| 79>    C       25.83295        -1.10570        -7.86173
| 80>    C       25.37552        -1.46941        -6.60090
| 81>    N       24.13271        -1.23654        -6.22597
| 82>    H       -4.86017         4.74690        -4.04086
| 83>    H       -4.07990         4.40306        -1.56851
| 84>    H        1.17902         2.10101        -6.44161
| 85>    H        1.22302         1.96984        -4.66774
| 86>    H        2.57622         2.73601        -5.54623
| 87>    H       -1.81094         5.32705         2.22540
| 88>    H       -1.20594         6.10116         0.74050
| 89>    H       -0.20713         4.88917         1.59910
| 90>    H        2.79225         3.82186        -3.41014
| 91>    H        2.93272         3.45587         1.68490
| 92>    H        7.84500         2.73219         1.30536
| 93>    H        8.70928         1.40507        -0.09960
| 94>    H        8.93994         2.71727        -7.35766
| 95>    H        8.18445         3.41192        -5.90568
| 96>    H        8.65639         1.68636        -5.93551
| 97>    H       11.99024        -1.68423         0.68713
| 98>    H       13.31581        -0.78620        -0.08703
| 99>    H       12.01728        -1.50871        -1.08356
|100>    H       13.14060         2.08595        -5.58195
|101>    H       16.46517        -0.10126        -2.84005
|102>    H       17.77333         3.68426        -9.06276
|103>    H       17.79876         3.48444        -7.29468
|104>    H       16.40696         2.88941        -8.24722
|105>    H       19.80035        -3.15259        -1.99494
|106>    H       21.12945        -2.25582        -2.76667
|107>    H       19.84091        -2.98923        -3.76663
|108>    H       20.95704         0.56710        -8.28919
|109>    H       23.15641         0.20528        -9.10126
|110>    H       26.84850        -1.28747        -8.18274
|111>    H       26.01149        -1.95570        -5.87406
|112> *
|113>
|114>                          ****END OF INPUT****

CARTESIAN COORDINATES (ANGSTROEM)
---------------------------------
  C     -3.856580    4.587270   -3.698160
  C     -3.435530    4.411240   -2.428400
  C     -2.027070    4.228880   -2.337250
  C     -1.412530    4.279670   -3.612110
  S     -2.583060    4.545520   -4.869180
  C     -0.049670    4.115300   -3.789860
  S      0.636250    4.185590   -5.420080
  C      1.502410    2.576700   -5.520970
  C      0.736650    3.919680   -2.646770
  C      0.114220    3.845380   -1.372110
  C     -1.248050    4.007220   -1.194820
  S     -2.050250    3.876810    0.383870
  C     -1.214450    5.189470    1.329440
  S      1.291150    3.536710   -0.125340
  C      2.602020    3.538340   -1.291080
  C      2.136590    3.755730   -2.560690
  C      3.958490    3.310400   -0.937980
  S      5.121370    3.133240   -2.213260
  C      6.431660    2.849410   -1.121410
  C      5.993240    2.928200    0.204240
  C      4.580270    3.176170    0.308650
  C      3.991040    3.278880    1.582280
  C      4.766890    3.164180    2.709130
  C      4.171970    3.272350    3.986680
  N      3.669750    3.362230    5.012800
  C      6.178850    2.962330    2.603090
  C      6.958630    2.889290    3.779800
  N      7.604670    2.828520    4.724360
  C      6.775590    2.850840    1.371620
  C      7.724050    2.560410   -1.638110
  C      8.754410    1.868500   -1.067080
  C      9.894940    1.752180   -1.893870
  C      9.711480    2.362000   -3.161380
  S      8.126920    3.082190   -3.266160
  C     10.704280    2.357520   -4.125590
  S     10.585330    3.109260   -5.720840
  C      8.904150    2.686940   -6.272930
  C     11.931500    1.765400   -3.779810
  C     12.122820    1.173580   -2.504000
  C     11.112340    1.133010   -1.557690
  S     11.238880    0.454310    0.067590
  C     12.260470   -1.033820   -0.139370
  S     13.754030    0.574610   -2.342560
  C     14.152310    1.095560   -3.964170
  C     13.095020    1.694350   -4.581510
  C     15.462480    0.870080   -4.474740
  C     16.516200    0.279210   -3.844580
  C     17.689430    0.211180   -4.633410
  C     17.502500    0.786150   -5.917200
  S     15.871350    1.380120   -6.098530
  C     18.516810    0.816840   -6.858130
  S     18.363980    1.476270   -8.491550
  C     17.480880    3.046270   -8.234420
  C     19.746270    0.240160   -6.497420
  C     19.937590   -0.334660   -5.213150
  C     18.917720   -0.367250   -4.273570
  S     19.047750   -1.018910   -2.637820
  C     20.075310   -2.507300   -2.823970
  S     21.572740   -0.913190   -5.030680
  C     21.972650   -0.398940   -6.647940
  C     20.920710    0.181910   -7.286810
  C     23.318960   -0.636780   -7.100310
  C     23.790400   -0.277510   -8.371540
  N     25.033800   -0.512320   -8.738630
  C     25.832950   -1.105700   -7.861730
  C     25.375520   -1.469410   -6.600900
  N     24.132710   -1.236540   -6.225970
  H     -4.860170    4.746900   -4.040860
  H     -4.079900    4.403060   -1.568510
  H      1.179020    2.101010   -6.441610
  H      1.223020    1.969840   -4.667740
  H      2.576220    2.736010   -5.546230
  H     -1.810940    5.327050    2.225400
  H     -1.205940    6.101160    0.740500
  H     -0.207130    4.889170    1.599100
  H      2.792250    3.821860   -3.410140
  H      2.932720    3.455870    1.684900
  H      7.845000    2.732190    1.305360
  H      8.709280    1.405070   -0.099600
  H      8.939940    2.717270   -7.357660
  H      8.184450    3.411920   -5.905680
  H      8.656390    1.686360   -5.935510
  H     11.990240   -1.684230    0.687130
  H     13.315810   -0.786200   -0.087030
  H     12.017280   -1.508710   -1.083560
  H     13.140600    2.085950   -5.581950
  H     16.465170   -0.101260   -2.840050
  H     17.773330    3.684260   -9.062760
  H     17.798760    3.484440   -7.294680
  H     16.406960    2.889410   -8.247220
  H     19.800350   -3.152590   -1.994940
  H     21.129450   -2.255820   -2.766670
  H     19.840910   -2.989230   -3.766630
  H     20.957040    0.567100   -8.289190
  H     23.156410    0.205280   -9.101260
  H     26.848500   -1.287470   -8.182740
  H     26.011490   -1.955700   -5.874060

 Total Charge           Charge          ....    0
 Multiplicity           Mult            ....    1
 Number of Electrons    NEL             ....  566
 Basis Dimension        Dim             .... 1140

ORBITAL ENERGIES
----------------

  NO   OCC          E(Eh)            E(eV)
   0   2.0000     -88.992187     -2421.6005
   1   2.0000     -88.965717     -2420.8802
   2   2.0000     -88.964005     -2420.8336
   3   2.0000     -88.957841     -2420.6659
   4   2.0000     -88.954576     -2420.5771
   5   2.0000     -88.949841     -2420.4482
   6   2.0000     -88.948697     -2420.4171
   7   2.0000     -88.932114     -2419.9658
   8   2.0000     -88.931650     -2419.9532
   9   2.0000     -88.929009     -2419.8814
  10   2.0000     -88.925954     -2419.7982
  11   2.0000     -88.925139     -2419.7760
  12   2.0000     -88.924815     -2419.7672
  13   2.0000     -14.425144      -392.5281
  14   2.0000     -14.423201      -392.4752
  15   2.0000     -14.407932      -392.0598
  16   2.0000     -14.407198      -392.0398
  17   2.0000     -10.334964      -281.2287
  18   2.0000     -10.334803      -281.2243
  19   2.0000     -10.331175      -281.1256
  20   2.0000     -10.330619      -281.1104
  21   2.0000     -10.328906      -281.0638
  22   2.0000     -10.326906      -281.0094
  23   2.0000     -10.325741      -280.9777
  24   2.0000     -10.316607      -280.7292
  25   2.0000     -10.316336      -280.7218
  26   2.0000     -10.316332      -280.7217
  27   2.0000     -10.314712      -280.6776
  28   2.0000     -10.314656      -280.6761
  29   2.0000     -10.314234      -280.6646
  30   2.0000     -10.314086      -280.6606
  31   2.0000     -10.313279      -280.6386
  32   2.0000     -10.312665      -280.6219
  33   2.0000     -10.312650      -280.6215
  34   2.0000     -10.312447      -280.6159
  35   2.0000     -10.312084      -280.6061
  36   2.0000     -10.312017      -280.6042
  37   2.0000     -10.311698      -280.5956
  38   2.0000     -10.310405      -280.5604
  39   2.0000     -10.308395      -280.5057
  40   2.0000     -10.307033      -280.4686
  41   2.0000     -10.306775      -280.4616
  42   2.0000     -10.306401      -280.4514
  43   2.0000     -10.306195      -280.4458
  44   2.0000     -10.305670      -280.4315
  45   2.0000     -10.305308      -280.4217
  46   2.0000     -10.304315      -280.3947
  47   2.0000     -10.302926      -280.3569
  48   2.0000     -10.299007      -280.2502
  49   2.0000     -10.297968      -280.2219
  50   2.0000     -10.297739      -280.2157
  51   2.0000     -10.296940      -280.1940
  52   2.0000     -10.295195      -280.1465
  53   2.0000     -10.294479      -280.1270
  54   2.0000     -10.294305      -280.1223
  55   2.0000     -10.292477      -280.0726
  56   2.0000     -10.290947      -280.0309
  57   2.0000     -10.290905      -280.0298
  58   2.0000     -10.289339      -279.9871
  59   2.0000     -10.289312      -279.9864
  60   2.0000     -10.288875      -279.9745
  61   2.0000     -10.288241      -279.9573
  62   2.0000     -10.287225      -279.9296
  63   2.0000     -10.280422      -279.7445
  64   2.0000     -10.278962      -279.7048
  65   2.0000     -10.278795      -279.7002
  66   2.0000     -10.272293      -279.5233
  67   2.0000      -8.087113      -220.0615
  68   2.0000      -8.060438      -219.3357
  69   2.0000      -8.059478      -219.3095
  70   2.0000      -8.053074      -219.1353
  71   2.0000      -8.049788      -219.0459
  72   2.0000      -8.045753      -218.9361
  73   2.0000      -8.043482      -218.8743
  74   2.0000      -8.027394      -218.4365
  75   2.0000      -8.026851      -218.4217
  76   2.0000      -8.024106      -218.3470
  77   2.0000      -8.021166      -218.2670
  78   2.0000      -8.020456      -218.2477
  79   2.0000      -8.019875      -218.2319
  80   2.0000      -6.056149      -164.7962
  81   2.0000      -6.051941      -164.6817
  82   2.0000      -6.049883      -164.6257
  83   2.0000      -6.030189      -164.0898
  84   2.0000      -6.029236      -164.0638
  85   2.0000      -6.026034      -163.9767
  86   2.0000      -6.025000      -163.9486
  87   2.0000      -6.022831      -163.8896
  88   2.0000      -6.021693      -163.8586
  89   2.0000      -6.020678      -163.8310
  90   2.0000      -6.019535      -163.7999
  91   2.0000      -6.018619      -163.7749
  92   2.0000      -6.015443      -163.6885
  93   2.0000      -6.015369      -163.6865
  94   2.0000      -6.014281      -163.6569
  95   2.0000      -6.013190      -163.6272
  96   2.0000      -6.011016      -163.5681
  97   2.0000      -6.010993      -163.5674
  98   2.0000      -6.008865      -163.5095
  99   2.0000      -6.007249      -163.4656
 100   2.0000      -6.004917      -163.4021
 101   2.0000      -5.997956      -163.2127
 102   2.0000      -5.997453      -163.1990
 103   2.0000      -5.994713      -163.1244
 104   2.0000      -5.993726      -163.0976
 105   2.0000      -5.993256      -163.0848
 106   2.0000      -5.991748      -163.0438
 107   2.0000      -5.991032      -163.0243
 108   2.0000      -5.990727      -163.0160
 109   2.0000      -5.990501      -163.0098
 110   2.0000      -5.987602      -162.9309
 111   2.0000      -5.986951      -162.9132
 112   2.0000      -5.986799      -162.9091
 113   2.0000      -5.986447      -162.8995
 114   2.0000      -5.986311      -162.8958
 115   2.0000      -5.983398      -162.8165
 116   2.0000      -5.980637      -162.7414
 117   2.0000      -5.979993      -162.7239
 118   2.0000      -5.979190      -162.7020
 119   2.0000      -1.081040       -29.4166
 120   2.0000      -1.031472       -28.0678
 121   2.0000      -1.015491       -27.6329
 122   2.0000      -1.011297       -27.5188
 123   2.0000      -1.008606       -27.4456
 124   2.0000      -1.002520       -27.2799
 125   2.0000      -1.000379       -27.2217
 126   2.0000      -0.988797       -26.9065
 127   2.0000      -0.987956       -26.8836
 128   2.0000      -0.980720       -26.6867
 129   2.0000      -0.974072       -26.5058
 130   2.0000      -0.961246       -26.1568
 131   2.0000      -0.937081       -25.4993
 132   2.0000      -0.928273       -25.2596
 133   2.0000      -0.924797       -25.1650
 134   2.0000      -0.923002       -25.1162
 135   2.0000      -0.921125       -25.0651
 136   2.0000      -0.915900       -24.9229
 137   2.0000      -0.897811       -24.4307
 138   2.0000      -0.880758       -23.9667
 139   2.0000      -0.879254       -23.9257
 140   2.0000      -0.876438       -23.8491
 141   2.0000      -0.870936       -23.6994
 142   2.0000      -0.867494       -23.6057
 143   2.0000      -0.858525       -23.3616
 144   2.0000      -0.848058       -23.0768
 145   2.0000      -0.844969       -22.9928
 146   2.0000      -0.842038       -22.9130
 147   2.0000      -0.839622       -22.8473
 148   2.0000      -0.839190       -22.8355
 149   2.0000      -0.836566       -22.7641
 150   2.0000      -0.828546       -22.5459
 151   2.0000      -0.809675       -22.0324
 152   2.0000      -0.799742       -21.7621
 153   2.0000      -0.791895       -21.5486
 154   2.0000      -0.788660       -21.4605
 155   2.0000      -0.788103       -21.4454
 156   2.0000      -0.769120       -20.9288
 157   2.0000      -0.760968       -20.7070
 158   2.0000      -0.756772       -20.5928
 159   2.0000      -0.755691       -20.5634
 160   2.0000      -0.746316       -20.3083
 161   2.0000      -0.745356       -20.2822
 162   2.0000      -0.741809       -20.1857
 163   2.0000      -0.734597       -19.9894
 164   2.0000      -0.713567       -19.4172
 165   2.0000      -0.708670       -19.2839
 166   2.0000      -0.707190       -19.2436
 167   2.0000      -0.701583       -19.0910
 168   2.0000      -0.687547       -18.7091
 169   2.0000      -0.678740       -18.4694
 170   2.0000      -0.672656       -18.3039
 171   2.0000      -0.663130       -18.0447
 172   2.0000      -0.658109       -17.9081
 173   2.0000      -0.655618       -17.8403
 174   2.0000      -0.645020       -17.5519
 175   2.0000      -0.641998       -17.4696
 176   2.0000      -0.634988       -17.2789
 177   2.0000      -0.634551       -17.2670
 178   2.0000      -0.631355       -17.1800
 179   2.0000      -0.627024       -17.0622
 180   2.0000      -0.626054       -17.0358
 181   2.0000      -0.613416       -16.6919
 182   2.0000      -0.610643       -16.6164
 183   2.0000      -0.607761       -16.5380
 184   2.0000      -0.595723       -16.2104
 185   2.0000      -0.588586       -16.0162
 186   2.0000      -0.575138       -15.6503
 187   2.0000      -0.563628       -15.3371
 188   2.0000      -0.559873       -15.2349
 189   2.0000      -0.554469       -15.0879
 190   2.0000      -0.551124       -14.9968
 191   2.0000      -0.548012       -14.9122
 192   2.0000      -0.546892       -14.8817
 193   2.0000      -0.541645       -14.7389
 194   2.0000      -0.539736       -14.6870
 195   2.0000      -0.535479       -14.5711
 196   2.0000      -0.532976       -14.5030
 197   2.0000      -0.531986       -14.4761
 198   2.0000      -0.531103       -14.4520
 199   2.0000      -0.528640       -14.3850
 200   2.0000      -0.526427       -14.3248
 201   2.0000      -0.524900       -14.2832
 202   2.0000      -0.521012       -14.1775
 203   2.0000      -0.519762       -14.1434
 204   2.0000      -0.518508       -14.1093
 205   2.0000      -0.517516       -14.0823
 206   2.0000      -0.516045       -14.0423
 207   2.0000      -0.515302       -14.0221
 208   2.0000      -0.512975       -13.9588
 209   2.0000      -0.512274       -13.9397
 210   2.0000      -0.510857       -13.9011
 211   2.0000      -0.509968       -13.8769
 212   2.0000      -0.509138       -13.8544
 213   2.0000      -0.504652       -13.7323
 214   2.0000      -0.504284       -13.7223
 215   2.0000      -0.501973       -13.6594
 216   2.0000      -0.499715       -13.5979
 217   2.0000      -0.498781       -13.5725
 218   2.0000      -0.494100       -13.4451
 219   2.0000      -0.486393       -13.2354
 220   2.0000      -0.484621       -13.1872
 221   2.0000      -0.483118       -13.1463
 222   2.0000      -0.477193       -12.9851
 223   2.0000      -0.475682       -12.9440
 224   2.0000      -0.474116       -12.9014
 225   2.0000      -0.470416       -12.8007
 226   2.0000      -0.467995       -12.7348
 227   2.0000      -0.466945       -12.7062
 228   2.0000      -0.465506       -12.6671
 229   2.0000      -0.463384       -12.6093
 230   2.0000      -0.462073       -12.5737
 231   2.0000      -0.460725       -12.5370
 232   2.0000      -0.457135       -12.4393
 233   2.0000      -0.454493       -12.3674
 234   2.0000      -0.448894       -12.2150
 235   2.0000      -0.446104       -12.1391
 236   2.0000      -0.443892       -12.0789
 237   2.0000      -0.443386       -12.0651
 238   2.0000      -0.435172       -11.8416
 239   2.0000      -0.434573       -11.8253
 240   2.0000      -0.432201       -11.7608
 241   2.0000      -0.429606       -11.6902
 242   2.0000      -0.427317       -11.6279
 243   2.0000      -0.425136       -11.5685
 244   2.0000      -0.421611       -11.4726
 245   2.0000      -0.418698       -11.3934
 246   2.0000      -0.416884       -11.3440
 247   2.0000      -0.416041       -11.3210
 248   2.0000      -0.412468       -11.2238
 249   2.0000      -0.411637       -11.2012
 250   2.0000      -0.409458       -11.1419
 251   2.0000      -0.408528       -11.1166
 252   2.0000      -0.402065       -10.9408
 253   2.0000      -0.398693       -10.8490
 254   2.0000      -0.396013       -10.7760
 255   2.0000      -0.395173       -10.7532
 256   2.0000      -0.392460       -10.6794
 257   2.0000      -0.387247       -10.5375
 258   2.0000      -0.384549       -10.4641
 259   2.0000      -0.382272       -10.4022
 260   2.0000      -0.377483       -10.2718
 261   2.0000      -0.373919       -10.1748
 262   2.0000      -0.371704       -10.1146
 263   2.0000      -0.367616       -10.0033
 264   2.0000      -0.351346        -9.5606
 265   2.0000      -0.338113        -9.2005
 266   2.0000      -0.334088        -9.0910
 267   2.0000      -0.333263        -9.0685
 268   2.0000      -0.329302        -8.9608
 269   2.0000      -0.322824        -8.7845
 270   2.0000      -0.318204        -8.6588
 271   2.0000      -0.313943        -8.5428
 272   2.0000      -0.311043        -8.4639
 273   2.0000      -0.309092        -8.4108
 274   2.0000      -0.305758        -8.3201
 275   2.0000      -0.305153        -8.3036
 276   2.0000      -0.302877        -8.2417
 277   2.0000      -0.297559        -8.0970
 278   2.0000      -0.278015        -7.5652
 279   2.0000      -0.270656        -7.3649
 280   2.0000      -0.256636        -6.9834
 281   2.0000      -0.246973        -6.7205
 282   2.0000      -0.235767        -6.4156
 283   0.0000      -0.089849        -2.4449
 284   0.0000      -0.056761        -1.5445
 285   0.0000      -0.037014        -1.0072
 286   0.0000      -0.026686        -0.7262
 287   0.0000      -0.011517        -0.3134

MULLIKEN ATOMIC CHARGES
-----------------------
   0 C :   -0.050971
   1 C :    0.010080
   2 C :    0.066971
   3 C :   -0.097872
   4 S :    0.124391
   5 C :   -0.147317
   6 S :   -0.020639
   7 C :   -0.098810
   8 C :    0.141600
   9 C :   -0.048226
  10 C :   -0.130554
  11 S :   -0.023004
  12 C :   -0.094429
  13 S :    0.088493
  14 C :   -0.023163
  15 C :   -0.099697
  16 C :   -0.082969
  17 S :    0.178255
  18 C :   -0.087153
  19 C :    0.126212
  20 C :    0.091137
  21 C :   -0.058949
  22 C :   -0.069536
  23 C :   -0.180841
  24 N :    0.173866
  25 C :   -0.067911
  26 C :   -0.181198
  27 N :    0.175398
  28 C :   -0.058903
  29 C :   -0.040339
  30 C :   -0.059991
  31 C :    0.061402
  32 C :   -0.071510
  33 S :    0.090502
  34 C :   -0.101022
  35 S :   -0.021571
  36 C :   -0.102685
  37 C :    0.085104
  38 C :   -0.081019
  39 C :   -0.084623
  40 S :   -0.022792
  41 C :   -0.098101
  42 S :    0.092887
  43 C :    0.003100
  44 C :   -0.077682
  45 C :   -0.004383
  46 C :   -0.074291
  47 C :    0.079967
  48 C :   -0.074702
  49 S :    0.095815
  50 C :   -0.105030
  51 S :   -0.027160
  52 C :   -0.100330
  53 C :    0.070438
  54 C :   -0.081670
  55 C :   -0.093670
  56 S :   -0.028645
  57 C :   -0.098078
  58 S :    0.131203
  59 C :   -0.012935
  60 C :   -0.045473
  61 C :   -0.003008
  62 C :   -0.000672
  63 N :   -0.045507
  64 C :    0.019233
  65 C :    0.038201
  66 N :   -0.069103
  67 H :    0.029528
  68 H :   -0.005879
  69 H :    0.067037
  70 H :    0.077085
  71 H :    0.062578
  72 H :    0.063191
  73 H :    0.068738
  74 H :    0.067937
  75 H :   -0.009996
  76 H :    0.008417
  77 H :   -0.003162
  78 H :    0.002136
  79 H :    0.066494
  80 H :    0.076515
  81 H :    0.070729
  82 H :    0.068442
  83 H :    0.080926
  84 H :    0.071914
  85 H :   -0.003220
  86 H :   -0.002683
  87 H :    0.063410
  88 H :    0.072234
  89 H :    0.076688
  90 H :    0.062852
  91 H :    0.082476
  92 H :    0.071109
  93 H :   -0.011601
  94 H :    0.002930
  95 H :    0.013611
  96 H :    0.013441
Sum of atomic charges:   -0.0000000

LOEWDIN ATOMIC CHARGES
----------------------
   0 C :   -0.156936
   1 C :   -0.064395
   2 C :   -0.055521
   3 C :   -0.172983
   4 S :    0.408410
   5 C :   -0.179003
   6 S :    0.263258
   7 C :   -0.150213
   8 C :   -0.061459
   9 C :   -0.166309
  10 C :   -0.180459
  11 S :    0.268505
  12 C :   -0.155217
  13 S :    0.426919
  14 C :   -0.172635
  15 C :   -0.060359
  16 C :   -0.178667
  17 S :    0.502996
  18 C :   -0.180921
  19 C :   -0.041863
  20 C :   -0.045843
  21 C :    0.025337
  22 C :   -0.053412
  23 C :   -0.031907
  24 N :   -0.036606
  25 C :   -0.054936
  26 C :   -0.032529
  27 N :   -0.036002
  28 C :    0.034596
  29 C :   -0.175220
  30 C :   -0.050745
  31 C :   -0.062269
  32 C :   -0.169635
  33 S :    0.401433
  34 C :   -0.181971
  35 S :    0.283380
  36 C :   -0.163843
  37 C :   -0.053456
  38 C :   -0.171007
  39 C :   -0.175082
  40 S :    0.289187
  41 C :   -0.162462
  42 S :    0.420017
  43 C :   -0.160562
  44 C :   -0.061362
  45 C :   -0.168294
  46 C :   -0.055748
  47 C :   -0.059162
  48 C :   -0.169318
  49 S :    0.413822
  50 C :   -0.181397
  51 S :    0.277335
  52 C :   -0.161965
  53 C :   -0.058418
  54 C :   -0.174606
  55 C :   -0.177072
  56 S :    0.283098
  57 C :   -0.163201
  58 S :    0.442494
  59 C :   -0.165784
  60 C :   -0.046814
  61 C :   -0.021866
  62 C :    0.011731
  63 N :   -0.039600
  64 C :   -0.004376
  65 C :    0.005796
  66 N :   -0.061661
  67 H :    0.025950
  68 H :    0.028398
  69 H :    0.030375
  70 H :    0.035292
  71 H :    0.020989
  72 H :    0.033257
  73 H :    0.029378
  74 H :    0.009807
  75 H :    0.023053
  76 H :    0.028091
  77 H :    0.044617
  78 H :    0.025743
  79 H :    0.034111
  80 H :    0.014546
  81 H :    0.030058
  82 H :    0.035370
  83 H :    0.017350
  84 H :    0.030267
  85 H :    0.023600
  86 H :    0.022842
  87 H :    0.032553
  88 H :    0.031321
  89 H :    0.014981
  90 H :    0.032620
  91 H :    0.017813
  92 H :    0.030000
  93 H :    0.024827
  94 H :    0.025785
  95 H :    0.026144
  96 H :    0.027617

  Mayer bond orders larger than 0.100000
B(  0-C ,  1-C ) :   1.6351 B(  0-C ,  4-S ) :   1.1059 B(  0-C , 67-H ) :   0.9679
B(  1-C ,  2-C ) :   1.1941 B(  1-C , 68-H ) :   0.9896 B(  2-C ,  3-C ) :   1.2998
B(  2-C , 10-C ) :   1.3786 B(  3-C ,  4-S ) :   1.0771 B(  3-C ,  5-C ) :   1.4569
B(  5-C ,  6-S ) :   1.0557 B(  5-C ,  8-C ) :   1.3283 B(  6-S ,  7-C ) :   0.9786
B(  7-C , 69-H ) :   0.9732 B(  7-C , 70-H ) :   0.9710 B(  7-C , 71-H ) :   0.9739
B(  8-C ,  9-C ) :   1.2979 B(  8-C , 15-C ) :   1.1893 B(  9-C , 10-C ) :   1.4181
B(  9-C , 13-S ) :   1.0484 B( 10-C , 11-S ) :   1.0483 B( 11-S , 12-C ) :   0.9970
B( 12-C , 72-H ) :   0.9712 B( 12-C , 73-H ) :   0.9703 B( 12-C , 74-H ) :   0.9658
B( 13-S , 14-C ) :   1.0670 B( 14-C , 15-C ) :   1.5390 B( 14-C , 16-C ) :   1.1627
B( 15-C , 75-H ) :   0.9846 B( 16-C , 17-S ) :   1.1618 B( 16-C , 18-C ) :   0.1156
B( 16-C , 20-C ) :   1.3607 B( 17-S , 18-C ) :   1.1649 B( 18-C , 19-C ) :   1.3828
B( 18-C , 29-C ) :   1.1053 B( 19-C , 20-C ) :   1.1800 B( 19-C , 28-C ) :   1.1868
B( 20-C , 21-C ) :   1.1813 B( 21-C , 22-C ) :   1.5921 B( 21-C , 76-H ) :   0.9815
B( 22-C , 23-C ) :   1.0793 B( 22-C , 25-C ) :   1.2303 B( 23-C , 24-N ) :   3.0438
B( 25-C , 26-C ) :   1.0790 B( 25-C , 28-C ) :   1.5672 B( 26-C , 27-N ) :   3.0442
B( 28-C , 77-H ) :   0.9962 B( 29-C , 30-C ) :   1.5621 B( 29-C , 33-S ) :   1.0616
B( 30-C , 31-C ) :   1.1915 B( 30-C , 78-H ) :   0.9818 B( 31-C , 32-C ) :   1.3137
B( 31-C , 39-C ) :   1.3712 B( 32-C , 33-S ) :   1.0409 B( 32-C , 34-C ) :   1.4214
B( 34-C , 35-S ) :   1.0329 B( 34-C , 37-C ) :   1.3767 B( 35-S , 36-C ) :   0.9963
B( 36-C , 79-H ) :   0.9695 B( 36-C , 80-H ) :   0.9627 B( 36-C , 81-H ) :   0.9722
B( 37-C , 38-C ) :   1.3125 B( 37-C , 44-C ) :   1.1833 B( 38-C , 39-C ) :   1.4223
B( 38-C , 42-S ) :   1.0419 B( 39-C , 40-S ) :   1.0332 B( 40-S , 41-C ) :   0.9955
B( 41-C , 82-H ) :   0.9688 B( 41-C , 83-H ) :   0.9625 B( 41-C , 84-H ) :   0.9717
B( 42-S , 43-C ) :   1.0693 B( 43-C , 44-C ) :   1.5715 B( 43-C , 45-C ) :   1.1444
B( 44-C , 85-H ) :   0.9841 B( 45-C , 46-C ) :   1.5749 B( 45-C , 49-S ) :   1.0652
B( 46-C , 47-C ) :   1.1802 B( 46-C , 86-H ) :   0.9824 B( 47-C , 48-C ) :   1.3112
B( 47-C , 55-C ) :   1.3837 B( 48-C , 49-S ) :   1.0425 B( 48-C , 50-C ) :   1.4263
B( 50-C , 51-S ) :   1.0346 B( 50-C , 53-C ) :   1.3746 B( 51-S , 52-C ) :   0.9938
B( 52-C , 87-H ) :   0.9703 B( 52-C , 88-H ) :   0.9723 B( 52-C , 89-H ) :   0.9633
B( 53-C , 54-C ) :   1.3201 B( 53-C , 60-C ) :   1.1854 B( 54-C , 55-C ) :   1.4129
B( 54-C , 58-S ) :   1.0338 B( 55-C , 56-S ) :   1.0324 B( 56-S , 57-C ) :   0.9944
B( 57-C , 90-H ) :   0.9693 B( 57-C , 91-H ) :   0.9627 B( 57-C , 92-H ) :   0.9719
B( 58-S , 59-C ) :   1.0730 B( 59-C , 60-C ) :   1.6122 B( 59-C , 61-C ) :   1.0242
B( 60-C , 93-H ) :   0.9773 B( 61-C , 62-C ) :   1.3362 B( 61-C , 66-N ) :   1.5669
B( 62-C , 63-N ) :   1.5922 B( 62-C , 94-H ) :   0.9773 B( 63-N , 64-C ) :   1.5306
B( 64-C , 65-C ) :   1.3604 B( 64-C , 95-H ) :   0.9790 B( 65-C , 66-N ) :   1.5443
B( 65-C , 96-H ) :   0.9761

-----------------------------------------------------------------------------
         ABSORPTION SPECTRUM VIA TRANSITION ELECTRIC DIPOLE MOMENTS
-----------------------------------------------------------------------------
State   Energy  Wavelength   fosc         T2         TX        TY        TZ
        (cm-1)    (nm)                  (au**2)     (au)      (au)      (au)
-----------------------------------------------------------------------------
   0   17296.4    578.2   1.299582621  24.73564   4.82756  -1.19568  -0.02651
   1   21291.4    469.7   0.046830606   0.72411  -0.37036  -0.15950  -0.74933
   2   23109.5    432.7   0.535407810   7.62729   2.56802  -0.62136  -0.80403
   3   24036.4    416.0   0.050338149   0.68945   0.01425   0.40285  -0.72592
   4   25732.7    388.6   0.688609655   8.80975  -2.74314   0.88414   0.70938
   5   26866.9    372.2   0.189035874   2.31634  -0.41415  -0.08703   1.46193
   6   28665.1    348.9   0.508404198   5.83891   2.29581  -0.41960   0.62618
   7   29144.6    343.1   0.386225618   4.36274  -0.34628  -0.04501   2.05932
   8   30381.1    329.2   0.059131441   0.64075   0.79524  -0.07524   0.05178
   9   31359.4    318.9   0.115839136   1.21608   1.06531   0.01561  -0.28452
  10   31520.0    317.3   0.059403200   0.62044  -0.78174   0.03466  -0.09013
  11   31615.5    316.3   0.010297673   0.10723  -0.17205   0.03279  -0.27668
  12   31988.5    312.6   0.132773131   1.36644   0.83234  -0.23321   0.78694
  13   32235.0    310.2   0.056822053   0.58032  -0.20242   0.05463   0.73236
  14   32779.0    305.1   0.157617637   1.58302  -1.22998   0.14475  -0.22183
  15   33475.6    298.7   0.175885089   1.72972  -1.24916   0.33972  -0.23219
  16   33950.0    294.6   0.050957466   0.49413   0.36091  -0.05059  -0.60110
  17   34293.7    291.6   0.087528126   0.84025  -0.16773  -0.02341   0.90087
  18   34779.8    287.5   0.025805314   0.24426  -0.28679   0.05588   0.39861
  19   34832.5    287.1   0.051078851   0.48276  -0.02378   0.10174   0.68691
  20   35429.7    282.2   0.034045312   0.31635   0.53638  -0.14154   0.09276
  21   35778.6    279.5   0.166413247   1.53123   0.53834   0.09286  -1.11031
  22   35824.0    279.1   0.021430209   0.19694  -0.26194   0.29474  -0.20361
  23   36362.0    275.0   0.016185380   0.14654   0.15355   0.20001  -0.28802
  24   36598.1    273.2   0.283688553   2.55188  -0.80910   0.18929   1.36433
  25   37114.5    269.4   0.114274741   1.01364   0.42923   0.16861  -0.89497
  26   37337.8    267.8   0.041704803   0.36772  -0.41090  -0.03273   0.44475
  27   37667.0    265.5   0.103338043   0.90318   0.88485  -0.05419   0.34247
  28   37806.4    264.5   0.305285901   2.65838  -0.19103   0.30527  -1.59019
  29   38101.9    262.5   0.008975021   0.07755   0.27501  -0.03138   0.03050
  30   38218.3    261.7   0.326583721   2.81318  -1.26852  -0.24308   1.07003
  31   38337.3    260.8   0.008520996   0.07317   0.02202  -0.21262  -0.16577
  32   38617.9    258.9   0.108298932   0.92323   0.63875   0.08766  -0.71243
  33   38692.7    258.4   0.321893247   2.73879  -0.57272   0.22859  -1.53575
  34   39180.2    255.2   0.022845953   0.19196  -0.41053   0.03743   0.14841
  35   39700.9    251.9   0.061185038   0.50737   0.31270   0.03395  -0.63909
  36   40003.2    250.0   0.110709191   0.91110  -0.00501   0.23578  -0.92492

FINAL SINGLE POINT ENERGY     -7314.588603574816

DIPOLE MOMENT
-------------
                                X             Y             Z
Electronic contribution:    -15.73219       8.70913      13.64337
Nuclear contribution   :     16.12059      -9.62962     -16.99672
                        -----------------------------------------
Total Dipole Moment    :      0.38840      -0.92050      -3.35334
                        -----------------------------------------
Magnitude (a.u.)       :      3.49901
Magnitude (Debye)      :      8.89378

Rotational constants in cm-1:     0.002022     0.000199     0.000183
Rotational constants in MHz :    60.619578     5.957349     5.485605

                             ****ORCA TERMINATED NORMALLY****
TOTAL RUN TIME: 0 days 0 hours 9 minutes 12 seconds 666 msec
