                         Program Version 4.2.0 -  RELEASE  -
|  1> # ORCA input file
|  2> # SCF done       -194.142427168285          0.000534171122
|  3> ! CAM-B3LYP def2-SVP def2/J RIJCOSX Grid4 TightSCF
|  4> %maxcore 5000
|  5> %tddft
|  6>     Mode sTDDFT
|  7>     Ethresh 5.0
|  8>     maxcore 5000
|  9> end
| 10>
| 11> %pal
| 12>   nprocs 6
| 13>   end
| 14> * xyz 0 1
| 15>    C       -6.62247        -7.59204         4.06803
| 16>    S       -5.07261        -6.90110         4.09546
| 17>    C       -4.97567        -6.84947         2.35415
| 18>    C       -6.12510        -7.43487         1.78920
| 19>    C       -7.07091        -7.84408         2.78256
| 20>    C       -8.28362        -8.44667         2.39128
| 21>    C       -8.53878        -8.70113         1.06613
| 22>    C       -9.80064        -9.31390         0.65104
| 23>    C      -10.49332       -10.18290         1.37462
| 24>    C       -7.55494        -8.37646         0.08007
| 25>    C       -7.77970        -8.75110        -1.34799
| 26>    C       -6.38882        -7.75333         0.44628
| 27>    C       -3.84643        -6.28135         1.74092
| 28>    C       -3.82010        -5.79320         0.46405
| 29>    C       -2.64080        -5.40127        -0.19176
| 30>    N       -1.41468        -5.58236         0.30289
| 31>    C       -0.56855        -5.26973        -0.68187
| 32>    C       -1.28893        -4.88040        -1.91300
| 33>    C       -0.34002        -4.53312        -2.98378
| 34>    O       -0.58897        -4.17925        -4.11961
| 35>    C        0.96004        -4.72015        -2.33038
| 36>    C        0.78354        -5.17074        -0.93726
| 37>    N        1.97973        -5.31479        -0.32573
| 38>    C        2.87203        -4.98148        -1.23380
| 39>    C        2.30579        -4.59179        -2.50045
| 40>    C       -2.61411        -4.91310        -1.59218
| 41>    C       -3.76405        -4.57401        -2.37230
| 42>    S       -5.01865        -3.56849        -1.70443
| 43>    C       -5.91931        -3.60560        -3.19617
| 44>    C       -5.26767        -4.39067        -4.13559
| 45>    C       -4.04610        -4.91681        -3.67546
| 46>    C       -3.16865        -5.78604        -4.51515
| 47>    C       -3.95307        -6.39218        -5.68223
| 48>    C       -2.99177        -7.12501        -6.61049
| 49>    F       -2.18613        -7.95847        -5.93240
| 50>    F       -3.62613        -7.88370        -7.51660
| 51>    F       -2.19799        -6.29186        -7.29342
| 52>    C       -4.69901        -5.27056        -6.42252
| 53>    C       -5.36846        -5.72770        -7.62062
| 54>    N       -5.96741        -6.05096        -8.53797
| 55>    C       -5.78464        -4.68012        -5.50762
| 56>    C       -7.16235        -2.92746        -3.32729
| 57>    S       -8.30892        -3.46790        -4.50924
| 58>    C       -9.48935        -2.28090        -4.07537
| 59>    C       -9.00183        -1.47376        -3.04772
| 60>    C       -7.69075        -1.84977        -2.60701
| 61>    C       -7.08955        -1.10946        -1.56836
| 62>    C       -7.76800        -0.07927        -0.99009
| 63>    S       -7.00429         0.83748         0.33118
| 64>    C       -7.81280         0.01084         1.75280
| 65>    C       -7.36061        -1.42718         1.90736
| 66>    C       -9.07115         0.29657        -1.42360
| 67>    S       -9.77141         1.67250        -0.58750
| 68>    C      -11.32353         1.98747        -1.50478
| 69>    C      -11.96378         3.24753        -0.95404
| 70>    C       -9.67855        -0.40023        -2.43411
| 71>    C      -10.71718        -2.19399        -4.80628
| 72>    C      -11.27180        -3.22967        -5.45920
| 73>    C      -10.80642        -4.59709        -5.25509
| 74>    C      -10.82002        -5.12884        -3.94894
| 75>    C      -10.22689        -6.40353        -3.67357
| 76>    N      -10.18498        -6.86904        -2.39748
| 77>    C      -10.70290        -6.12804        -1.46172
| 78>    C      -11.32812        -4.89115        -1.74630
| 79>    N      -11.38309        -4.40875        -2.95257
| 80>    C       -9.64688        -7.14235        -4.69959
| 81>    C       -9.66436        -6.64509        -5.99828
| 82>    C      -10.26903        -5.37704        -6.28956
| 83>    N      -10.24638        -4.88300        -7.55233
| 84>    C       -9.63322        -5.58041        -8.46084
| 85>    C       -9.01647        -6.82745        -8.17128
| 86>    N       -9.04896        -7.35025        -6.98381
| 87>    H       -7.13759        -7.79331         4.98702
| 88>    H       -9.00622        -8.70531         3.14995
| 89>    H      -10.16351        -9.02500        -0.32581
| 90>    H      -10.15293       -10.53454         2.33441
| 91>    H      -11.42254       -10.59539         1.02087
| 92>    H       -8.05556        -9.80122        -1.42836
| 93>    H       -6.87973        -8.57944        -1.93362
| 94>    H       -8.59094        -8.15756        -1.77638
| 95>    H       -5.64262        -7.55085        -0.30539
| 96>    H       -2.93868        -6.20153         2.32438
| 97>    H       -4.73950        -5.70282        -0.09406
| 98>    H        3.92165        -5.01686        -0.99879
| 99>    H        2.85802        -4.27981        -3.36477
|100>    H       -2.73070        -6.57753        -3.90121
|101>    H       -2.33418        -5.18363        -4.89733
|102>    H       -4.67210        -7.13682        -5.32059
|103>    H       -3.97690        -4.49357        -6.70209
|104>    H       -6.61504        -5.39426        -5.43825
|105>    H       -6.18176        -3.77009        -5.96538
|106>    H       -6.09363        -1.34175        -1.22845
|107>    H       -8.88995         0.08634         1.60970
|108>    H       -7.52150         0.61297         2.61173
|109>    H       -7.64320        -2.01612         1.03614
|110>    H       -7.82347        -1.86737         2.78862
|111>    H       -6.27997        -1.47457         2.01919
|112>    H      -11.97911         1.12590        -1.37353
|113>    H      -11.06631         2.10845        -2.55734
|114>    H      -12.19197         3.12882         0.10275
|115>    H      -12.88695         3.45879        -1.48957
|116>    H      -11.29174         4.09507        -1.06738
|117>    H      -10.66693        -0.15228        -2.78232
|118>    H      -11.16326        -1.21094        -4.87424
|119>    H      -12.09465        -3.08229        -6.14136
|120>    H      -10.64669        -6.50597        -0.44897
|121>    H      -11.79320        -4.30581        -0.96473
|122>    H       -9.15460        -8.07820        -4.48979
|123>    H       -9.62287        -5.17502        -9.46306
|124>    H       -8.50574        -7.38890        -8.94019
|125> *
|126>
|127>                          ****END OF INPUT****

CARTESIAN COORDINATES (ANGSTROEM)
---------------------------------
  C     -6.622470   -7.592040    4.068030
  S     -5.072610   -6.901100    4.095460
  C     -4.975670   -6.849470    2.354150
  C     -6.125100   -7.434870    1.789200
  C     -7.070910   -7.844080    2.782560
  C     -8.283620   -8.446670    2.391280
  C     -8.538780   -8.701130    1.066130
  C     -9.800640   -9.313900    0.651040
  C    -10.493320  -10.182900    1.374620
  C     -7.554940   -8.376460    0.080070
  C     -7.779700   -8.751100   -1.347990
  C     -6.388820   -7.753330    0.446280
  C     -3.846430   -6.281350    1.740920
  C     -3.820100   -5.793200    0.464050
  C     -2.640800   -5.401270   -0.191760
  N     -1.414680   -5.582360    0.302890
  C     -0.568550   -5.269730   -0.681870
  C     -1.288930   -4.880400   -1.913000
  C     -0.340020   -4.533120   -2.983780
  O     -0.588970   -4.179250   -4.119610
  C      0.960040   -4.720150   -2.330380
  C      0.783540   -5.170740   -0.937260
  N      1.979730   -5.314790   -0.325730
  C      2.872030   -4.981480   -1.233800
  C      2.305790   -4.591790   -2.500450
  C     -2.614110   -4.913100   -1.592180
  C     -3.764050   -4.574010   -2.372300
  S     -5.018650   -3.568490   -1.704430
  C     -5.919310   -3.605600   -3.196170
  C     -5.267670   -4.390670   -4.135590
  C     -4.046100   -4.916810   -3.675460
  C     -3.168650   -5.786040   -4.515150
  C     -3.953070   -6.392180   -5.682230
  C     -2.991770   -7.125010   -6.610490
  F     -2.186130   -7.958470   -5.932400
  F     -3.626130   -7.883700   -7.516600
  F     -2.197990   -6.291860   -7.293420
  C     -4.699010   -5.270560   -6.422520
  C     -5.368460   -5.727700   -7.620620
  N     -5.967410   -6.050960   -8.537970
  C     -5.784640   -4.680120   -5.507620
  C     -7.162350   -2.927460   -3.327290
  S     -8.308920   -3.467900   -4.509240
  C     -9.489350   -2.280900   -4.075370
  C     -9.001830   -1.473760   -3.047720
  C     -7.690750   -1.849770   -2.607010
  C     -7.089550   -1.109460   -1.568360
  C     -7.768000   -0.079270   -0.990090
  S     -7.004290    0.837480    0.331180
  C     -7.812800    0.010840    1.752800
  C     -7.360610   -1.427180    1.907360
  C     -9.071150    0.296570   -1.423600
  S     -9.771410    1.672500   -0.587500
  C    -11.323530    1.987470   -1.504780
  C    -11.963780    3.247530   -0.954040
  C     -9.678550   -0.400230   -2.434110
  C    -10.717180   -2.193990   -4.806280
  C    -11.271800   -3.229670   -5.459200
  C    -10.806420   -4.597090   -5.255090
  C    -10.820020   -5.128840   -3.948940
  C    -10.226890   -6.403530   -3.673570
  N    -10.184980   -6.869040   -2.397480
  C    -10.702900   -6.128040   -1.461720
  C    -11.328120   -4.891150   -1.746300
  N    -11.383090   -4.408750   -2.952570
  C     -9.646880   -7.142350   -4.699590
  C     -9.664360   -6.645090   -5.998280
  C    -10.269030   -5.377040   -6.289560
  N    -10.246380   -4.883000   -7.552330
  C     -9.633220   -5.580410   -8.460840
  C     -9.016470   -6.827450   -8.171280
  N     -9.048960   -7.350250   -6.983810
  H     -7.137590   -7.793310    4.987020
  H     -9.006220   -8.705310    3.149950
  H    -10.163510   -9.025000   -0.325810
  H    -10.152930  -10.534540    2.334410
  H    -11.422540  -10.595390    1.020870
  H     -8.055560   -9.801220   -1.428360
  H     -6.879730   -8.579440   -1.933620
  H     -8.590940   -8.157560   -1.776380
  H     -5.642620   -7.550850   -0.305390
  H     -2.938680   -6.201530    2.324380
  H     -4.739500   -5.702820   -0.094060
  H      3.921650   -5.016860   -0.998790
  H      2.858020   -4.279810   -3.364770
  H     -2.730700   -6.577530   -3.901210
  H     -2.334180   -5.183630   -4.897330
  H     -4.672100   -7.136820   -5.320590
  H     -3.976900   -4.493570   -6.702090
  H     -6.615040   -5.394260   -5.438250
  H     -6.181760   -3.770090   -5.965380
  H     -6.093630   -1.341750   -1.228450
  H     -8.889950    0.086340    1.609700
  H     -7.521500    0.612970    2.611730
  H     -7.643200   -2.016120    1.036140
  H     -7.823470   -1.867370    2.788620
  H     -6.279970   -1.474570    2.019190
  H    -11.979110    1.125900   -1.373530
  H    -11.066310    2.108450   -2.557340
  H    -12.191970    3.128820    0.102750
  H    -12.886950    3.458790   -1.489570
  H    -11.291740    4.095070   -1.067380
  H    -10.666930   -0.152280   -2.782320
  H    -11.163260   -1.210940   -4.874240
  H    -12.094650   -3.082290   -6.141360
  H    -10.646690   -6.505970   -0.448970
  H    -11.793200   -4.305810   -0.964730
  H     -9.154600   -8.078200   -4.489790
  H     -9.622870   -5.175020   -9.463060
  H     -8.505740   -7.388900   -8.940190

 Total Charge           Charge          ....    0
 Multiplicity           Mult            ....    1
 Number of Electrons    NEL             ....  538
 Basis Dimension        Dim             .... 1218

ORBITAL ENERGIES
----------------

  NO   OCC          E(Eh)            E(eV)
   0   2.0000     -88.982150     -2421.3274
   1   2.0000     -88.968035     -2420.9433
   2   2.0000     -88.964043     -2420.8347
   3   2.0000     -88.921706     -2419.6826
   4   2.0000     -88.908808     -2419.3317
   5   2.0000     -24.796861      -674.7569
   6   2.0000     -24.792804      -674.6465
   7   2.0000     -24.791600      -674.6137
   8   2.0000     -19.200885      -522.4826
   9   2.0000     -14.434350      -392.7786
  10   2.0000     -14.427996      -392.6057
  11   2.0000     -14.424596      -392.5132
  12   2.0000     -14.421092      -392.4179
  13   2.0000     -14.404544      -391.9676
  14   2.0000     -14.394491      -391.6940
  15   2.0000     -14.388227      -391.5236
  16   2.0000     -10.508414      -285.9485
  17   2.0000     -10.361263      -281.9443
  18   2.0000     -10.332486      -281.1612
  19   2.0000     -10.328491      -281.0525
  20   2.0000     -10.327300      -281.0201
  21   2.0000     -10.324497      -280.9438
  22   2.0000     -10.323583      -280.9190
  23   2.0000     -10.321877      -280.8726
  24   2.0000     -10.321035      -280.8497
  25   2.0000     -10.320139      -280.8253
  26   2.0000     -10.319634      -280.8115
  27   2.0000     -10.319568      -280.8097
  28   2.0000     -10.319109      -280.7972
  29   2.0000     -10.317305      -280.7481
  30   2.0000     -10.315230      -280.6917
  31   2.0000     -10.312534      -280.6183
  32   2.0000     -10.312375      -280.6140
  33   2.0000     -10.311202      -280.5821
  34   2.0000     -10.309479      -280.5352
  35   2.0000     -10.305710      -280.4326
  36   2.0000     -10.304572      -280.4017
  37   2.0000     -10.304521      -280.4003
  38   2.0000     -10.303600      -280.3752
  39   2.0000     -10.303429      -280.3706
  40   2.0000     -10.301748      -280.3248
  41   2.0000     -10.298514      -280.2368
  42   2.0000     -10.296783      -280.1897
  43   2.0000     -10.296472      -280.1812
  44   2.0000     -10.296150      -280.1725
  45   2.0000     -10.296032      -280.1693
  46   2.0000     -10.294280      -280.1216
  47   2.0000     -10.292921      -280.0846
  48   2.0000     -10.289453      -279.9903
  49   2.0000     -10.287983      -279.9503
  50   2.0000     -10.287554      -279.9386
  51   2.0000     -10.286884      -279.9203
  52   2.0000     -10.285682      -279.8876
  53   2.0000     -10.285277      -279.8766
  54   2.0000     -10.285198      -279.8745
  55   2.0000     -10.284711      -279.8612
  56   2.0000     -10.284233      -279.8482
  57   2.0000     -10.283345      -279.8240
  58   2.0000     -10.282881      -279.8114
  59   2.0000     -10.280405      -279.7440
  60   2.0000     -10.279457      -279.7183
  61   2.0000     -10.279385      -279.7163
  62   2.0000     -10.278459      -279.6911
  63   2.0000     -10.276392      -279.6348
  64   2.0000     -10.275753      -279.6175
  65   2.0000     -10.273598      -279.5588
  66   2.0000     -10.272269      -279.5227
  67   2.0000     -10.271792      -279.5097
  68   2.0000     -10.271696      -279.5071
  69   2.0000     -10.267436      -279.3911
  70   2.0000     -10.255320      -279.0614
  71   2.0000     -10.255303      -279.0610
  72   2.0000      -8.077649      -219.8040
  73   2.0000      -8.061455      -219.3633
  74   2.0000      -8.058658      -219.2872
  75   2.0000      -8.016652      -218.1442
  76   2.0000      -8.004000      -217.7999
  77   2.0000      -6.046480      -164.5331
  78   2.0000      -6.042276      -164.4187
  79   2.0000      -6.040793      -164.3783
  80   2.0000      -6.030618      -164.1014
  81   2.0000      -6.028025      -164.0309
  82   2.0000      -6.026226      -163.9819
  83   2.0000      -6.024390      -163.9320
  84   2.0000      -6.023894      -163.9185
  85   2.0000      -6.020701      -163.8316
  86   2.0000      -5.986936      -162.9128
  87   2.0000      -5.982791      -162.8000
  88   2.0000      -5.976647      -162.6328
  89   2.0000      -5.974468      -162.5735
  90   2.0000      -5.970714      -162.4714
  91   2.0000      -5.963325      -162.2703
  92   2.0000      -1.384700       -37.6796
  93   2.0000      -1.288188       -35.0534
  94   2.0000      -1.284020       -34.9400
  95   2.0000      -1.114465       -30.3261
  96   2.0000      -1.087533       -29.5933
  97   2.0000      -1.077208       -29.3123
  98   2.0000      -1.065218       -28.9861
  99   2.0000      -1.042488       -28.3675
 100   2.0000      -1.012558       -27.5531
 101   2.0000      -1.009011       -27.4566
 102   2.0000      -1.008111       -27.4321
 103   2.0000      -1.001880       -27.2625
 104   2.0000      -0.997418       -27.1411
 105   2.0000      -0.988464       -26.8975
 106   2.0000      -0.957416       -26.0526
 107   2.0000      -0.951694       -25.8969
 108   2.0000      -0.951657       -25.8959
 109   2.0000      -0.948152       -25.8005
 110   2.0000      -0.927127       -25.2284
 111   2.0000      -0.911374       -24.7998
 112   2.0000      -0.904690       -24.6179
 113   2.0000      -0.899151       -24.4671
 114   2.0000      -0.893727       -24.3196
 115   2.0000      -0.883668       -24.0458
 116   2.0000      -0.882364       -24.0103
 117   2.0000      -0.870474       -23.6868
 118   2.0000      -0.868284       -23.6272
 119   2.0000      -0.864624       -23.5276
 120   2.0000      -0.863225       -23.4895
 121   2.0000      -0.854699       -23.2576
 122   2.0000      -0.846129       -23.0243
 123   2.0000      -0.843044       -22.9404
 124   2.0000      -0.835498       -22.7351
 125   2.0000      -0.833288       -22.6749
 126   2.0000      -0.820611       -22.3300
 127   2.0000      -0.808685       -22.0054
 128   2.0000      -0.798124       -21.7181
 129   2.0000      -0.790431       -21.5087
 130   2.0000      -0.778755       -21.1910
 131   2.0000      -0.774974       -21.0881
 132   2.0000      -0.773085       -21.0367
 133   2.0000      -0.763532       -20.7768
 134   2.0000      -0.761351       -20.7174
 135   2.0000      -0.755299       -20.5527
 136   2.0000      -0.748161       -20.3585
 137   2.0000      -0.741223       -20.1697
 138   2.0000      -0.728652       -19.8276
 139   2.0000      -0.727027       -19.7834
 140   2.0000      -0.725115       -19.7314
 141   2.0000      -0.714995       -19.4560
 142   2.0000      -0.713823       -19.4241
 143   2.0000      -0.709156       -19.2971
 144   2.0000      -0.696622       -18.9560
 145   2.0000      -0.687363       -18.7041
 146   2.0000      -0.680407       -18.5148
 147   2.0000      -0.679488       -18.4898
 148   2.0000      -0.673450       -18.3255
 149   2.0000      -0.668430       -18.1889
 150   2.0000      -0.663645       -18.0587
 151   2.0000      -0.662635       -18.0312
 152   2.0000      -0.659737       -17.9524
 153   2.0000      -0.649444       -17.6723
 154   2.0000      -0.646112       -17.5816
 155   2.0000      -0.639007       -17.3883
 156   2.0000      -0.636694       -17.3253
 157   2.0000      -0.632445       -17.2097
 158   2.0000      -0.630156       -17.1474
 159   2.0000      -0.629479       -17.1290
 160   2.0000      -0.625148       -17.0111
 161   2.0000      -0.613486       -16.6938
 162   2.0000      -0.610971       -16.6254
 163   2.0000      -0.603081       -16.4107
 164   2.0000      -0.602491       -16.3946
 165   2.0000      -0.592884       -16.1332
 166   2.0000      -0.584627       -15.9085
 167   2.0000      -0.580626       -15.7996
 168   2.0000      -0.574756       -15.6399
 169   2.0000      -0.571275       -15.5452
 170   2.0000      -0.567317       -15.4375
 171   2.0000      -0.563378       -15.3303
 172   2.0000      -0.560678       -15.2568
 173   2.0000      -0.559481       -15.2243
 174   2.0000      -0.557566       -15.1721
 175   2.0000      -0.554944       -15.1008
 176   2.0000      -0.546290       -14.8653
 177   2.0000      -0.545187       -14.8353
 178   2.0000      -0.544471       -14.8158
 179   2.0000      -0.541184       -14.7264
 180   2.0000      -0.537999       -14.6397
 181   2.0000      -0.537522       -14.6267
 182   2.0000      -0.537429       -14.6242
 183   2.0000      -0.534636       -14.5482
 184   2.0000      -0.532868       -14.5001
 185   2.0000      -0.528816       -14.3898
 186   2.0000      -0.526614       -14.3299
 187   2.0000      -0.525924       -14.3111
 188   2.0000      -0.520827       -14.1724
 189   2.0000      -0.520411       -14.1611
 190   2.0000      -0.518301       -14.1037
 191   2.0000      -0.515297       -14.0219
 192   2.0000      -0.513326       -13.9683
 193   2.0000      -0.512529       -13.9466
 194   2.0000      -0.511115       -13.9082
 195   2.0000      -0.510481       -13.8909
 196   2.0000      -0.508106       -13.8263
 197   2.0000      -0.506316       -13.7776
 198   2.0000      -0.501009       -13.6331
 199   2.0000      -0.497010       -13.5243
 200   2.0000      -0.496079       -13.4990
 201   2.0000      -0.494535       -13.4570
 202   2.0000      -0.492851       -13.4112
 203   2.0000      -0.491439       -13.3727
 204   2.0000      -0.489023       -13.3070
 205   2.0000      -0.487696       -13.2709
 206   2.0000      -0.483067       -13.1449
 207   2.0000      -0.482308       -13.1243
 208   2.0000      -0.479681       -13.0528
 209   2.0000      -0.476379       -12.9629
 210   2.0000      -0.474494       -12.9116
 211   2.0000      -0.472257       -12.8508
 212   2.0000      -0.466251       -12.6873
 213   2.0000      -0.465133       -12.6569
 214   2.0000      -0.462180       -12.5766
 215   2.0000      -0.461139       -12.5482
 216   2.0000      -0.459667       -12.5082
 217   2.0000      -0.458879       -12.4867
 218   2.0000      -0.457237       -12.4421
 219   2.0000      -0.456798       -12.4301
 220   2.0000      -0.453848       -12.3498
 221   2.0000      -0.448042       -12.1918
 222   2.0000      -0.447061       -12.1651
 223   2.0000      -0.443692       -12.0735
 224   2.0000      -0.441289       -12.0081
 225   2.0000      -0.437653       -11.9091
 226   2.0000      -0.436490       -11.8775
 227   2.0000      -0.435752       -11.8574
 228   2.0000      -0.432408       -11.7664
 229   2.0000      -0.430703       -11.7200
 230   2.0000      -0.429322       -11.6824
 231   2.0000      -0.427507       -11.6331
 232   2.0000      -0.423963       -11.5366
 233   2.0000      -0.423260       -11.5175
 234   2.0000      -0.420988       -11.4557
 235   2.0000      -0.417731       -11.3671
 236   2.0000      -0.415444       -11.3048
 237   2.0000      -0.412540       -11.2258
 238   2.0000      -0.409062       -11.1312
 239   2.0000      -0.403796       -10.9879
 240   2.0000      -0.402376       -10.9492
 241   2.0000      -0.398062       -10.8318
 242   2.0000      -0.395387       -10.7590
 243   2.0000      -0.390714       -10.6319
 244   2.0000      -0.387114       -10.5339
 245   2.0000      -0.386128       -10.5071
 246   2.0000      -0.380383       -10.3507
 247   2.0000      -0.373651       -10.1676
 248   2.0000      -0.372324       -10.1315
 249   2.0000      -0.355996        -9.6871
 250   2.0000      -0.351309        -9.5596
 251   2.0000      -0.347486        -9.4556
 252   2.0000      -0.342253        -9.3132
 253   2.0000      -0.338513        -9.2114
 254   2.0000      -0.332621        -9.0511
 255   2.0000      -0.329658        -8.9705
 256   2.0000      -0.324087        -8.8188
 257   2.0000      -0.320980        -8.7343
 258   2.0000      -0.319795        -8.7021
 259   2.0000      -0.317721        -8.6456
 260   2.0000      -0.315492        -8.5850
 261   2.0000      -0.309538        -8.4230
 262   2.0000      -0.304968        -8.2986
 263   2.0000      -0.300354        -8.1731
 264   2.0000      -0.287734        -7.8297
 265   2.0000      -0.285571        -7.7708
 266   2.0000      -0.273479        -7.4417
 267   2.0000      -0.251614        -6.8468
 268   2.0000      -0.231853        -6.3090
 269   0.0000      -0.107719        -2.9312
 270   0.0000      -0.077034        -2.0962
 271   0.0000      -0.060682        -1.6512
 272   0.0000      -0.045532        -1.2390
 273   0.0000      -0.030984        -0.8431

MULLIKEN ATOMIC CHARGES
-----------------------
   0 C :   -0.106201
   1 S :    0.188402
   2 C :   -0.159883
   3 C :    0.163986
   4 C :    0.087898
   5 C :   -0.073037
   6 C :    0.073212
   7 C :   -0.042409
   8 C :   -0.009627
   9 C :   -0.074347
  10 C :    0.102013
  11 C :   -0.102533
  12 C :    0.090498
  13 C :   -0.101598
  14 C :    0.037977
  15 N :   -0.048621
  16 C :    0.062436
  17 C :   -0.134068
  18 C :    0.207766
  19 O :   -0.151296
  20 C :   -0.040429
  21 C :   -0.034667
  22 N :   -0.062077
  23 C :    0.080437
  24 C :   -0.091795
  25 C :    0.015217
  26 C :   -0.214955
  27 S :    0.145126
  28 C :   -0.102530
  29 C :   -0.081817
  30 C :   -0.038645
  31 C :    0.212241
  32 C :   -0.196813
  33 C :    0.517146
  34 F :   -0.164597
  35 F :   -0.151748
  36 F :   -0.159004
  37 C :   -0.075723
  38 C :   -0.232037
  39 N :    0.122329
  40 C :    0.134950
  41 C :   -0.123798
  42 S :    0.100019
  43 C :   -0.127466
  44 C :    0.163799
  45 C :    0.112502
  46 C :   -0.015805
  47 C :   -0.144974
  48 S :   -0.020905
  49 C :   -0.100079
  50 C :    0.024413
  51 C :    0.037722
  52 S :   -0.004788
  53 C :   -0.141336
  54 C :    0.033124
  55 C :   -0.109919
  56 C :    0.038687
  57 C :    0.004120
  58 C :   -0.066994
  59 C :   -0.049858
  60 C :    0.087504
  61 N :   -0.046328
  62 C :    0.041164
  63 C :    0.024537
  64 N :    0.018485
  65 C :   -0.095364
  66 C :    0.020043
  67 C :   -0.012231
  68 N :   -0.002102
  69 C :    0.023472
  70 C :    0.050422
  71 N :   -0.027165
  72 H :    0.028389
  73 H :   -0.034296
  74 H :    0.011312
  75 H :    0.018086
  76 H :    0.025408
  77 H :    0.024859
  78 H :    0.000626
  79 H :    0.044309
  80 H :   -0.032076
  81 H :    0.022820
  82 H :    0.007543
  83 H :    0.000887
  84 H :   -0.013320
  85 H :    0.026161
  86 H :    0.055268
  87 H :    0.037349
  88 H :    0.058809
  89 H :    0.045637
  90 H :    0.044579
  91 H :   -0.020319
  92 H :    0.048056
  93 H :    0.048078
  94 H :    0.025024
  95 H :    0.013765
  96 H :    0.022685
  97 H :    0.056924
  98 H :    0.056462
  99 H :    0.026186
 100 H :    0.027745
 101 H :    0.030905
 102 H :   -0.039466
 103 H :   -0.001537
 104 H :    0.014142
 105 H :    0.012981
 106 H :    0.013262
 107 H :   -0.037729
 108 H :    0.019524
 109 H :    0.028881
Sum of atomic charges:   -0.0000000

LOEWDIN ATOMIC CHARGES
----------------------
   0 C :   -0.165229
   1 S :    0.504386
   2 C :   -0.199182
   3 C :   -0.021824
   4 C :   -0.057308
   5 C :   -0.001023
   6 C :   -0.028930
   7 C :   -0.024567
   8 C :   -0.033715
   9 C :    0.006610
  10 C :   -0.057691
  11 C :   -0.033514
  12 C :    0.047214
  13 C :   -0.080487
  14 C :    0.065816
  15 N :   -0.121283
  16 C :    0.047819
  17 C :   -0.038797
  18 C :    0.069575
  19 O :   -0.151018
  20 C :   -0.049492
  21 C :    0.003305
  22 N :   -0.100852
  23 C :    0.057576
  24 C :   -0.044648
  25 C :   -0.049612
  26 C :   -0.184182
  27 S :    0.464522
  28 C :   -0.180420
  29 C :   -0.069458
  30 C :   -0.038615
  31 C :   -0.023124
  32 C :   -0.049358
  33 C :    0.161791
  34 F :   -0.059687
  35 F :   -0.052479
  36 F :   -0.054637
  37 C :   -0.040638
  38 C :   -0.029367
  39 N :   -0.065837
  40 C :   -0.022310
  41 C :   -0.194299
  42 S :    0.530138
  43 C :   -0.186123
  44 C :   -0.033969
  45 C :   -0.058118
  46 C :   -0.024586
  47 C :   -0.178598
  48 S :    0.257743
  49 C :   -0.128853
  50 C :   -0.074368
  51 C :   -0.161349
  52 S :    0.305573
  53 C :   -0.137511
  54 C :   -0.067920
  55 C :   -0.060728
  56 C :   -0.023873
  57 C :   -0.008854
  58 C :   -0.036536
  59 C :   -0.020446
  60 C :   -0.013675
  61 N :   -0.033607
  62 C :    0.011333
  63 C :    0.003886
  64 N :   -0.021648
  65 C :   -0.010867
  66 C :   -0.014630
  67 C :   -0.021136
  68 N :   -0.037977
  69 C :    0.018129
  70 C :    0.026618
  71 N :   -0.042662
  72 H :    0.028580
  73 H :    0.028755
  74 H :    0.033181
  75 H :    0.020981
  76 H :    0.026605
  77 H :    0.035261
  78 H :    0.026596
  79 H :    0.032557
  80 H :    0.027961
  81 H :    0.043453
  82 H :    0.021722
  83 H :    0.019863
  84 H :    0.031303
  85 H :    0.039036
  86 H :    0.043075
  87 H :    0.043978
  88 H :    0.060011
  89 H :    0.034253
  90 H :    0.035136
  91 H :    0.015908
  92 H :    0.013152
  93 H :    0.025343
  94 H :    0.023553
  95 H :    0.024874
  96 H :    0.024503
  97 H :    0.019727
  98 H :    0.022234
  99 H :    0.027018
 100 H :    0.031988
 101 H :    0.028774
 102 H :    0.024570
 103 H :    0.033889
 104 H :    0.037094
 105 H :    0.025547
 106 H :    0.027042
 107 H :    0.040426
 108 H :    0.029650
 109 H :    0.031983

  Mayer bond orders larger than 0.100000
B(  0-C ,  1-S ) :   1.2492 B(  0-C ,  4-C ) :   1.3673 B(  0-C , 72-H ) :   0.9685
B(  1-S ,  2-C ) :   1.1303 B(  2-C ,  3-C ) :   1.2909 B(  2-C , 12-C ) :   1.1877
B(  3-C ,  4-C ) :   1.2208 B(  3-C , 11-C ) :   1.2055 B(  4-C ,  5-C ) :   1.1624
B(  5-C ,  6-C ) :   1.5227 B(  5-C , 73-H ) :   1.0033 B(  6-C ,  7-C ) :   1.0286
B(  6-C ,  9-C ) :   1.1996 B(  7-C ,  8-C ) :   1.9793 B(  7-C , 74-H ) :   0.9467
B(  8-C , 75-H ) :   0.9578 B(  8-C , 76-H ) :   0.9505 B(  9-C , 10-C ) :   1.0903
B(  9-C , 11-C ) :   1.5380 B( 10-C , 77-H ) :   0.9307 B( 10-C , 78-H ) :   0.9450
B( 10-C , 79-H ) :   0.9048 B( 11-C , 80-H ) :   0.9881 B( 12-C , 13-C ) :   1.5544
B( 12-C , 81-H ) :   0.9641 B( 13-C , 14-C ) :   1.2205 B( 13-C , 82-H ) :   0.9440
B( 14-C , 15-N ) :   1.5364 B( 14-C , 16-C ) :   0.1010 B( 14-C , 25-C ) :   1.0221
B( 15-N , 16-C ) :   1.4125 B( 16-C , 17-C ) :   1.0271 B( 16-C , 21-C ) :   1.3609
B( 17-C , 18-C ) :   0.8955 B( 17-C , 25-C ) :   1.6451 B( 18-C , 19-O ) :   2.1919
B( 18-C , 20-C ) :   0.9258 B( 20-C , 21-C ) :   1.0746 B( 20-C , 24-C ) :   1.5615
B( 21-C , 22-N ) :   1.3460 B( 22-N , 23-C ) :   1.6196 B( 23-C , 24-C ) :   1.1102
B( 23-C , 83-H ) :   0.9898 B( 24-C , 84-H ) :   1.0106 B( 25-C , 26-C ) :   0.9950
B( 26-C , 27-S ) :   1.1166 B( 26-C , 28-C ) :   0.1217 B( 26-C , 30-C ) :   1.5637
B( 27-S , 28-C ) :   1.1281 B( 28-C , 29-C ) :   1.5086 B( 28-C , 41-C ) :   1.1197
B( 29-C , 30-C ) :   1.2951 B( 29-C , 40-C ) :   1.0601 B( 30-C , 31-C ) :   1.0551
B( 31-C , 32-C ) :   1.0247 B( 31-C , 85-H ) :   0.8993 B( 31-C , 86-H ) :   0.8663
B( 32-C , 33-C ) :   0.9848 B( 32-C , 37-C ) :   1.0148 B( 32-C , 87-H ) :   0.8951
B( 33-C , 34-F ) :   1.1448 B( 33-C , 35-F ) :   1.1574 B( 33-C , 36-F ) :   1.1536
B( 37-C , 38-C ) :   1.0714 B( 37-C , 40-C ) :   1.0753 B( 37-C , 88-H ) :   0.8632
B( 38-C , 39-N ) :   3.0775 B( 40-C , 89-H ) :   0.8959 B( 40-C , 90-H ) :   0.8980
B( 41-C , 42-S ) :   1.1672 B( 41-C , 43-C ) :   0.1150 B( 41-C , 45-C ) :   1.3556
B( 42-S , 43-C ) :   1.1305 B( 43-C , 44-C ) :   1.3706 B( 43-C , 56-C ) :   1.0883
B( 44-C , 45-C ) :   1.1938 B( 44-C , 55-C ) :   1.1871 B( 45-C , 46-C ) :   1.1692
B( 46-C , 47-C ) :   1.5957 B( 46-C , 91-H ) :   0.9745 B( 47-C , 48-S ) :   1.0409
B( 47-C , 51-C ) :   1.2291 B( 48-S , 49-C ) :   0.9982 B( 49-C , 50-C ) :   1.0655
B( 49-C , 92-H ) :   0.9507 B( 49-C , 93-H ) :   0.9555 B( 50-C , 94-H ) :   0.9706
B( 50-C , 95-H ) :   0.9610 B( 50-C , 96-H ) :   0.9703 B( 51-C , 52-S ) :   1.0264
B( 51-C , 55-C ) :   1.5159 B( 52-S , 53-C ) :   0.9929 B( 53-C , 54-C ) :   1.0825
B( 53-C , 97-H ) :   0.9457 B( 53-C , 98-H ) :   0.9472 B( 54-C , 99-H ) :   0.9695
B( 54-C ,100-H ) :   0.9679 B( 54-C ,101-H ) :   0.9701 B( 55-C ,102-H ) :   0.9930
B( 56-C , 57-C ) :   1.8111 B( 56-C ,103-H ) :   0.9651 B( 57-C , 58-C ) :   1.0175
B( 57-C ,104-H ) :   0.9536 B( 58-C , 59-C ) :   1.2936 B( 58-C , 65-C ) :   0.1449
B( 58-C , 67-C ) :   1.3073 B( 59-C , 60-C ) :   1.1877 B( 59-C , 64-N ) :   1.4623
B( 60-C , 61-N ) :   1.3641 B( 60-C , 65-C ) :   1.2148 B( 61-N , 62-C ) :   1.6640
B( 62-C , 63-C ) :   1.1891 B( 62-C ,105-H ) :   0.9652 B( 63-C , 64-N ) :   1.7023
B( 63-C ,106-H ) :   0.9755 B( 65-C , 66-C ) :   1.2501 B( 65-C ,107-H ) :   1.0592
B( 66-C , 67-C ) :   1.1694 B( 66-C , 71-N ) :   1.3665 B( 67-C , 68-N ) :   1.4775
B( 68-N , 69-C ) :   1.7145 B( 69-C , 70-C ) :   1.1660 B( 69-C ,108-H ) :   0.9741
B( 70-C , 71-N ) :   1.7250 B( 70-C ,109-H ) :   0.9699

-----------------------------------------------------------------------------
         ABSORPTION SPECTRUM VIA TRANSITION ELECTRIC DIPOLE MOMENTS
-----------------------------------------------------------------------------
State   Energy  Wavelength   fosc         T2         TX        TY        TZ
        (cm-1)    (nm)                  (au**2)     (au)      (au)      (au)
-----------------------------------------------------------------------------
   0   13560.9    737.4   0.068615901   1.66576   1.10262  -0.45839   0.48977
   1   15727.4    635.8   0.025265108   0.52886   0.21075  -0.52490  -0.45709
   2   16467.4    607.3   0.986960934  19.73111  -3.68648  -1.64245   1.85562
   3   21179.7    472.1   0.637987976   9.91670   3.03430  -0.45004   0.71218
   4   22211.5    450.2   0.010993946   0.16295   0.39556  -0.08047   0.00298
   5   23118.6    432.6   0.060061978   0.85529  -0.90665  -0.11700   0.13994
   6   24917.9    401.3   0.007348183   0.09708   0.05838   0.28783  -0.10406
   7   25834.7    387.1   0.002414582   0.03077  -0.07054   0.07260  -0.14326
   8   25892.3    386.2   0.002499637   0.03178   0.11180  -0.00506  -0.13877
   9   26229.8    381.2   0.009217676   0.11569   0.17466   0.29171  -0.00959
  10   26620.0    375.7   0.054482181   0.67379  -0.22116  -0.75309   0.24028
  11   26758.6    373.7   0.051994252   0.63969   0.46325   0.63018  -0.16721
  12   26950.3    371.1   0.003338902   0.04079   0.11676   0.13114   0.09978
  13   27051.0    369.7   0.036257440   0.44126   0.49517  -0.43277  -0.09367
  14   27097.7    369.0   0.034635123   0.42078  -0.32101  -0.34606   0.44495
  15   27342.0    365.7   0.051216806   0.61668   0.68092  -0.20636   0.33233
  16   27744.3    360.4   0.026511602   0.31458  -0.05604  -0.32710   0.45216
  17   27962.6    357.6   0.013088516   0.15409  -0.07484  -0.26052  -0.28394
  18   28204.3    354.6   0.004395277   0.05130   0.20983   0.07399   0.04241
  19   28591.8    349.8   0.052341563   0.60267  -0.69177   0.33434   0.11110
  20   29067.8    344.0   0.144442033   1.63590  -0.83225   0.93895   0.24826
  21   29296.6    341.3   0.163753930   1.84014  -0.91669   0.21916   0.97560
  22   29374.0    340.4   0.022704031   0.25446   0.16167  -0.29276   0.37764
  23   29664.4    337.1   0.027673630   0.30712  -0.42458   0.22319  -0.27755
  24   30133.0    331.9   0.065288947   0.71330  -0.83004   0.02750   0.15357
  25   30567.1    327.1   0.001962079   0.02113   0.02859  -0.14203   0.01198
  26   31223.0    320.3   0.016012754   0.16884   0.08880  -0.31661  -0.24640
  27   31516.5    317.3   0.059151388   0.61788  -0.33335   0.57956   0.41336
  28   31759.6    314.9   0.013377627   0.13867   0.30087   0.03867   0.21598
  29   31976.9    312.7   0.138251946   1.42335   1.08159  -0.47489   0.16732
  30   32501.1    307.7   0.026487923   0.26830  -0.26569   0.00907   0.44456
  31   32716.4    305.7   0.092491969   0.93071   0.50650  -0.13732  -0.80951
  32   33432.2    299.1   0.063520298   0.62549   0.26506  -0.14687  -0.73052
  33   33683.3    296.9   0.042043546   0.41092  -0.46307   0.32793   0.29824
  34   34085.0    293.4   0.108617913   1.04909  -0.04514  -0.17912   1.00746
  35   34279.2    291.7   0.249150903   2.39281  -0.12071   1.27405   0.86893
  36   34478.8    290.0   0.122013895   1.16502  -0.17985   1.05597  -0.13263
  37   35129.4    284.7   0.023138664   0.21684   0.21834  -0.40868   0.04631
  38   35241.2    283.8   0.018019035   0.16833   0.11285  -0.20567   0.33659
  39   35803.6    279.3   0.001755657   0.01614  -0.02212   0.09078  -0.08610
  40   36058.7    277.3   0.093119421   0.85017  -0.28172   0.73471   0.48063
  41   36177.3    276.4   0.014091639   0.12823  -0.02229  -0.35004  -0.07218
  42   36731.0    272.2   0.134204056   1.20284  -0.71373  -0.49846  -0.66706
  43   36952.7    270.6   0.024216458   0.21574  -0.34550  -0.27445   0.14510
  44   37026.1    270.1   0.119475195   1.06230  -0.89662  -0.47395   0.18368
  45   37184.0    268.9   0.000798317   0.00707  -0.04526   0.04041   0.05819
  46   37347.8    267.8   0.000936045   0.00825  -0.07305  -0.03512  -0.04101
  47   37655.1    265.6   0.042596687   0.37241  -0.59108   0.13392   0.07147
  48   38048.5    262.8   0.036605444   0.31673  -0.50796   0.22319   0.09430
  49   38118.9    262.3   0.023946172   0.20681   0.44804   0.02503   0.07380
  50   38298.1    261.1   0.151393876   1.30139   0.35812   0.65006   0.86635
  51   38599.2    259.1   0.012700009   0.10832  -0.25952  -0.09131  -0.18063
  52   38710.0    258.3   0.090779162   0.77204  -0.61710  -0.51442  -0.35581
  53   39324.7    254.3   0.011514194   0.09639   0.27524  -0.13122   0.05844
  54   39545.2    252.9   0.132612154   1.10399   0.78131   0.29313   0.63845
  55   39782.7    251.4   0.004142752   0.03428  -0.06396  -0.09124  -0.14787
  56   39925.6    250.5   0.030956306   0.25525   0.13021  -0.22464  -0.43340
  57   40120.3    249.3   0.007764741   0.06371   0.07235   0.23872  -0.03863

FINAL SINGLE POINT ENERGY     -4901.477980240608

DIPOLE MOMENT
-------------
                                X             Y             Z
Electronic contribution:     53.52981     -20.22258     -35.10443
Nuclear contribution   :    -57.00520      20.08640      37.21104
                        -----------------------------------------
Total Dipole Moment    :     -3.47539      -0.13617       2.10661
                        -----------------------------------------
Magnitude (a.u.)       :      4.06629
Magnitude (Debye)      :     10.33568

Rotational constants in cm-1:     0.000899     0.000729     0.000639
Rotational constants in MHz :    26.945981    21.841855    19.164615

                             ****ORCA TERMINATED NORMALLY****
TOTAL RUN TIME: 0 days 0 hours 11 minutes 42 seconds 338 msec
