                         Program Version 4.2.0 -  RELEASE  -
|  1> # ORCA input file
|  2> # SCF done       -165.120833898422          0.000397831885
|  3> ! CAM-B3LYP def2-SVP def2/J RIJCOSX Grid4 TightSCF
|  4> %maxcore 5000
|  5> %tddft
|  6>     Mode sTDDFT
|  7>     Ethresh 5.0
|  8>     maxcore 5000
|  9> end
| 10>
| 11> %pal
| 12>   nprocs 6
| 13>   end
| 14> * xyz 0 1
| 15>    C       -0.49085         0.42421         2.08703
| 16>    S       -0.93604        -0.90272         1.11324
| 17>    C       -0.80713        -2.02407         2.43882
| 18>    C       -0.42109        -1.34927         3.60395
| 19>    C       -0.24748         0.05675         3.39482
| 20>    C        0.12830         0.87938         4.47752
| 21>    C        0.32740         0.34205         5.72292
| 22>    C        0.71964         1.20137         6.84042
| 23>    C        0.29721         2.44616         7.01314
| 24>    C        0.16143        -1.06498         5.93073
| 25>    C        0.36677        -1.64594         7.29678
| 26>    C       -0.20631        -1.87487         4.89214
| 27>    C       -1.08282        -3.40015         2.29281
| 28>    C       -1.56299        -3.96953         1.15562
| 29>    C       -1.88535        -5.33024         0.95393
| 30>    S       -2.98344        -5.70952        -0.32871
| 31>    C       -3.00171        -7.40820         0.03535
| 32>    C       -2.17066        -7.67409         1.13316
| 33>    C       -1.51674        -6.50504         1.63657
| 34>    C       -0.57629        -6.64383         2.66960
| 35>    C       -0.34605        -7.86276         3.26472
| 36>    C        0.64996        -7.98541         4.32650
| 37>    C        0.95127        -7.03250         5.19924
| 38>    C       -1.08110        -9.00729         2.83546
| 39>    C       -0.89680       -10.32303         3.52870
| 40>    C       -1.95810        -8.90203         1.79105
| 41>    C       -3.82632        -8.22269        -0.78250
| 42>    C       -3.79436        -9.56451        -0.93935
| 43>    C       -4.69758       -10.29477        -1.79527
| 44>    C       -5.88846        -9.76450        -2.29292
| 45>    C       -6.70693       -10.52364        -3.13232
| 46>    C       -6.28949       -11.83200        -3.42608
| 47>    N       -5.17830       -12.35425        -2.94652
| 48>    C       -4.41120       -11.61987        -2.16493
| 49>    C       -7.92034        -9.92773        -3.62511
| 50>    C       -8.77978       -10.44722        -4.53117
| 51>    C       -9.93599        -9.71637        -4.91747
| 52>    O      -10.18601        -8.53043        -4.36237
| 53>    C      -11.32796        -8.03591        -4.89100
| 54>    C      -11.84319        -8.91630        -5.81530
| 55>    C      -10.95170       -10.01736        -5.84886
| 56>    C      -11.01762       -11.21000        -6.65032
| 57>    O      -10.23526       -12.13035        -6.64611
| 58>    C      -12.24673       -11.25843        -7.60548
| 59>    F      -12.25097       -10.22146        -8.46252
| 60>    F      -12.27337       -12.37077        -8.33214
| 61>    F      -13.40710       -11.19631        -6.92770
| 62>    C      -11.82212        -6.76779        -4.46335
| 63>    O      -12.97850        -6.34294        -4.98308
| 64>    C      -13.25960        -5.13895        -4.44718
| 65>    C      -12.29745        -4.75806        -3.57447
| 66>    C      -11.32966        -5.81193        -3.56100
| 67>    C      -10.11289        -5.85958        -2.79298
| 68>    O       -9.27418        -6.72825        -2.76710
| 69>    C       -9.88870        -4.60265        -1.89570
| 70>    F      -10.87839        -4.43433        -1.00175
| 71>    F       -8.75221        -4.69738        -1.20984
| 72>    F       -9.82313        -3.46981        -2.61624
| 73>    H       -0.43480         1.40427         1.65670
| 74>    H        0.27441         1.93499         4.30568
| 75>    H        1.39433         0.76397         7.56414
| 76>    H       -0.40292         2.91047         6.33865
| 77>    H        0.62189         3.04331         7.84811
| 78>    H        1.41321        -1.57038         7.59376
| 79>    H        0.08492        -2.69607         7.31149
| 80>    H       -0.23194        -1.11396         8.03479
| 81>    H       -0.34081        -2.93344         5.06101
| 82>    H       -0.93947        -4.00080         3.17763
| 83>    H       -1.79653        -3.31275         0.32514
| 84>    H        0.01202        -5.79298         2.97065
| 85>    H        1.16090        -8.93666         4.38967
| 86>    H        0.44824        -6.07995         5.20666
| 87>    H        1.70458        -7.17595         5.95475
| 88>    H       -1.01604       -10.21057         4.60524
| 89>    H        0.10078       -10.72072         3.33975
| 90>    H       -1.62398       -11.04800         3.17116
| 91>    H       -2.51424        -9.77101         1.47855
| 92>    H       -4.52864        -7.65578        -1.38162
| 93>    H       -3.03119       -10.15592        -0.45700
| 94>    H       -6.19965        -8.76464        -2.02819
| 95>    H       -6.87852       -12.48404        -4.05489
| 96>    H       -3.50987       -12.10408        -1.81013
| 97>    H       -8.14940        -8.94664        -3.22423
| 98>    H       -8.63946       -11.40553        -5.00473
| 99>    H      -12.73924        -8.77419        -6.38306
|100>    H      -14.16504        -4.66328        -4.76691
|101>    H      -12.27385        -3.84879        -3.01192
|102> *
|103>
|104>                          ****END OF INPUT****

CARTESIAN COORDINATES (ANGSTROEM)
---------------------------------
  C     -0.490850    0.424210    2.087030
  S     -0.936040   -0.902720    1.113240
  C     -0.807130   -2.024070    2.438820
  C     -0.421090   -1.349270    3.603950
  C     -0.247480    0.056750    3.394820
  C      0.128300    0.879380    4.477520
  C      0.327400    0.342050    5.722920
  C      0.719640    1.201370    6.840420
  C      0.297210    2.446160    7.013140
  C      0.161430   -1.064980    5.930730
  C      0.366770   -1.645940    7.296780
  C     -0.206310   -1.874870    4.892140
  C     -1.082820   -3.400150    2.292810
  C     -1.562990   -3.969530    1.155620
  C     -1.885350   -5.330240    0.953930
  S     -2.983440   -5.709520   -0.328710
  C     -3.001710   -7.408200    0.035350
  C     -2.170660   -7.674090    1.133160
  C     -1.516740   -6.505040    1.636570
  C     -0.576290   -6.643830    2.669600
  C     -0.346050   -7.862760    3.264720
  C      0.649960   -7.985410    4.326500
  C      0.951270   -7.032500    5.199240
  C     -1.081100   -9.007290    2.835460
  C     -0.896800  -10.323030    3.528700
  C     -1.958100   -8.902030    1.791050
  C     -3.826320   -8.222690   -0.782500
  C     -3.794360   -9.564510   -0.939350
  C     -4.697580  -10.294770   -1.795270
  C     -5.888460   -9.764500   -2.292920
  C     -6.706930  -10.523640   -3.132320
  C     -6.289490  -11.832000   -3.426080
  N     -5.178300  -12.354250   -2.946520
  C     -4.411200  -11.619870   -2.164930
  C     -7.920340   -9.927730   -3.625110
  C     -8.779780  -10.447220   -4.531170
  C     -9.935990   -9.716370   -4.917470
  O    -10.186010   -8.530430   -4.362370
  C    -11.327960   -8.035910   -4.891000
  C    -11.843190   -8.916300   -5.815300
  C    -10.951700  -10.017360   -5.848860
  C    -11.017620  -11.210000   -6.650320
  O    -10.235260  -12.130350   -6.646110
  C    -12.246730  -11.258430   -7.605480
  F    -12.250970  -10.221460   -8.462520
  F    -12.273370  -12.370770   -8.332140
  F    -13.407100  -11.196310   -6.927700
  C    -11.822120   -6.767790   -4.463350
  O    -12.978500   -6.342940   -4.983080
  C    -13.259600   -5.138950   -4.447180
  C    -12.297450   -4.758060   -3.574470
  C    -11.329660   -5.811930   -3.561000
  C    -10.112890   -5.859580   -2.792980
  O     -9.274180   -6.728250   -2.767100
  C     -9.888700   -4.602650   -1.895700
  F    -10.878390   -4.434330   -1.001750
  F     -8.752210   -4.697380   -1.209840
  F     -9.823130   -3.469810   -2.616240
  H     -0.434800    1.404270    1.656700
  H      0.274410    1.934990    4.305680
  H      1.394330    0.763970    7.564140
  H     -0.402920    2.910470    6.338650
  H      0.621890    3.043310    7.848110
  H      1.413210   -1.570380    7.593760
  H      0.084920   -2.696070    7.311490
  H     -0.231940   -1.113960    8.034790
  H     -0.340810   -2.933440    5.061010
  H     -0.939470   -4.000800    3.177630
  H     -1.796530   -3.312750    0.325140
  H      0.012020   -5.792980    2.970650
  H      1.160900   -8.936660    4.389670
  H      0.448240   -6.079950    5.206660
  H      1.704580   -7.175950    5.954750
  H     -1.016040  -10.210570    4.605240
  H      0.100780  -10.720720    3.339750
  H     -1.623980  -11.048000    3.171160
  H     -2.514240   -9.771010    1.478550
  H     -4.528640   -7.655780   -1.381620
  H     -3.031190  -10.155920   -0.457000
  H     -6.199650   -8.764640   -2.028190
  H     -6.878520  -12.484040   -4.054890
  H     -3.509870  -12.104080   -1.810130
  H     -8.149400   -8.946640   -3.224230
  H     -8.639460  -11.405530   -5.004730
  H    -12.739240   -8.774190   -6.383060
  H    -14.165040   -4.663280   -4.766910
  H    -12.273850   -3.848790   -3.011920

 Total Charge           Charge          ....    0
 Multiplicity           Mult            ....    1
 Number of Electrons    NEL             ....  424
 Basis Dimension        Dim             ....  965

ORBITAL ENERGIES
----------------

  NO   OCC          E(Eh)            E(eV)
   0   2.0000     -88.958213     -2420.6760
   1   2.0000     -88.955926     -2420.6138
   2   2.0000     -24.807982      -675.0595
   3   2.0000     -24.807698      -675.0518
   4   2.0000     -24.806069      -675.0075
   5   2.0000     -24.805633      -674.9956
   6   2.0000     -24.802387      -674.9073
   7   2.0000     -24.801411      -674.8807
   8   2.0000     -19.320455      -525.7363
   9   2.0000     -19.311702      -525.4981
  10   2.0000     -19.233331      -523.3655
  11   2.0000     -19.233112      -523.3596
  12   2.0000     -14.397404      -391.7733
  13   2.0000     -10.516608      -286.1714
  14   2.0000     -10.515442      -286.1397
  15   2.0000     -10.389230      -282.7053
  16   2.0000     -10.386716      -282.6369
  17   2.0000     -10.374900      -282.3154
  18   2.0000     -10.365628      -282.0631
  19   2.0000     -10.355646      -281.7915
  20   2.0000     -10.343226      -281.4535
  21   2.0000     -10.302206      -280.3373
  22   2.0000     -10.301244      -280.3111
  23   2.0000     -10.300196      -280.2826
  24   2.0000     -10.300069      -280.2791
  25   2.0000     -10.298790      -280.2443
  26   2.0000     -10.296442      -280.1804
  27   2.0000     -10.293675      -280.1051
  28   2.0000     -10.293374      -280.0969
  29   2.0000     -10.292877      -280.0834
  30   2.0000     -10.292388      -280.0701
  31   2.0000     -10.289438      -279.9898
  32   2.0000     -10.284704      -279.8610
  33   2.0000     -10.284414      -279.8531
  34   2.0000     -10.284027      -279.8426
  35   2.0000     -10.282219      -279.7934
  36   2.0000     -10.281398      -279.7711
  37   2.0000     -10.279447      -279.7180
  38   2.0000     -10.277378      -279.6617
  39   2.0000     -10.275059      -279.5986
  40   2.0000     -10.274511      -279.5837
  41   2.0000     -10.273992      -279.5695
  42   2.0000     -10.273780      -279.5638
  43   2.0000     -10.272047      -279.5166
  44   2.0000     -10.271711      -279.5075
  45   2.0000     -10.271391      -279.4987
  46   2.0000     -10.271014      -279.4885
  47   2.0000     -10.270832      -279.4836
  48   2.0000     -10.270033      -279.4618
  49   2.0000     -10.268463      -279.4191
  50   2.0000     -10.268086      -279.4088
  51   2.0000     -10.267294      -279.3873
  52   2.0000     -10.264365      -279.3076
  53   2.0000     -10.263414      -279.2817
  54   2.0000     -10.262331      -279.2522
  55   2.0000     -10.261648      -279.2336
  56   2.0000     -10.261554      -279.2311
  57   2.0000     -10.260194      -279.1941
  58   2.0000      -8.053454      -219.1456
  59   2.0000      -8.051532      -219.0933
  60   2.0000      -6.022393      -163.8776
  61   2.0000      -6.020354      -163.8222
  62   2.0000      -6.018174      -163.7628
  63   2.0000      -6.016504      -163.7174
  64   2.0000      -6.016435      -163.7155
  65   2.0000      -6.014404      -163.6603
  66   2.0000      -1.395697       -37.9789
  67   2.0000      -1.393936       -37.9309
  68   2.0000      -1.298716       -35.3399
  69   2.0000      -1.297729       -35.3130
  70   2.0000      -1.296645       -35.2835
  71   2.0000      -1.296289       -35.2738
  72   2.0000      -1.244042       -33.8521
  73   2.0000      -1.236756       -33.6538
  74   2.0000      -1.150264       -31.3003
  75   2.0000      -1.149137       -31.2696
  76   2.0000      -1.032058       -28.0837
  77   2.0000      -0.989429       -26.9237
  78   2.0000      -0.985729       -26.8231
  79   2.0000      -0.938513       -25.5382
  80   2.0000      -0.938198       -25.5297
  81   2.0000      -0.935494       -25.4561
  82   2.0000      -0.932430       -25.3727
  83   2.0000      -0.927805       -25.2468
  84   2.0000      -0.916873       -24.9494
  85   2.0000      -0.904926       -24.6243
  86   2.0000      -0.893972       -24.3262
  87   2.0000      -0.872844       -23.7513
  88   2.0000      -0.869503       -23.6604
  89   2.0000      -0.868901       -23.6440
  90   2.0000      -0.860161       -23.4062
  91   2.0000      -0.850184       -23.1347
  92   2.0000      -0.842651       -22.9297
  93   2.0000      -0.833278       -22.6747
  94   2.0000      -0.829670       -22.5765
  95   2.0000      -0.824707       -22.4414
  96   2.0000      -0.811716       -22.0879
  97   2.0000      -0.807050       -21.9610
  98   2.0000      -0.791174       -21.5289
  99   2.0000      -0.775194       -21.0941
 100   2.0000      -0.766499       -20.8575
 101   2.0000      -0.758741       -20.6464
 102   2.0000      -0.755226       -20.5508
 103   2.0000      -0.753870       -20.5138
 104   2.0000      -0.743362       -20.2279
 105   2.0000      -0.728784       -19.8312
 106   2.0000      -0.723533       -19.6883
 107   2.0000      -0.714446       -19.4411
 108   2.0000      -0.712282       -19.3822
 109   2.0000      -0.706385       -19.2217
 110   2.0000      -0.698881       -19.0175
 111   2.0000      -0.686724       -18.6867
 112   2.0000      -0.684295       -18.6206
 113   2.0000      -0.681080       -18.5331
 114   2.0000      -0.679077       -18.4786
 115   2.0000      -0.677642       -18.4396
 116   2.0000      -0.677130       -18.4257
 117   2.0000      -0.665116       -18.0987
 118   2.0000      -0.657694       -17.8968
 119   2.0000      -0.654566       -17.8117
 120   2.0000      -0.650497       -17.7009
 121   2.0000      -0.643878       -17.5208
 122   2.0000      -0.632972       -17.2241
 123   2.0000      -0.629468       -17.1287
 124   2.0000      -0.622692       -16.9443
 125   2.0000      -0.612632       -16.6706
 126   2.0000      -0.603994       -16.4355
 127   2.0000      -0.601348       -16.3635
 128   2.0000      -0.595374       -16.2010
 129   2.0000      -0.593839       -16.1592
 130   2.0000      -0.590250       -16.0615
 131   2.0000      -0.587018       -15.9736
 132   2.0000      -0.579801       -15.7772
 133   2.0000      -0.569604       -15.4997
 134   2.0000      -0.562842       -15.3157
 135   2.0000      -0.561506       -15.2793
 136   2.0000      -0.557349       -15.1662
 137   2.0000      -0.556263       -15.1367
 138   2.0000      -0.554129       -15.0786
 139   2.0000      -0.552172       -15.0254
 140   2.0000      -0.552085       -15.0230
 141   2.0000      -0.548314       -14.9204
 142   2.0000      -0.547392       -14.8953
 143   2.0000      -0.544273       -14.8104
 144   2.0000      -0.537747       -14.6328
 145   2.0000      -0.535583       -14.5740
 146   2.0000      -0.530611       -14.4387
 147   2.0000      -0.529372       -14.4049
 148   2.0000      -0.526302       -14.3214
 149   2.0000      -0.524918       -14.2837
 150   2.0000      -0.522862       -14.2278
 151   2.0000      -0.521307       -14.1855
 152   2.0000      -0.520654       -14.1677
 153   2.0000      -0.512881       -13.9562
 154   2.0000      -0.510060       -13.8794
 155   2.0000      -0.508191       -13.8286
 156   2.0000      -0.506309       -13.7774
 157   2.0000      -0.505989       -13.7687
 158   2.0000      -0.503993       -13.7143
 159   2.0000      -0.498328       -13.5602
 160   2.0000      -0.497158       -13.5284
 161   2.0000      -0.494995       -13.4695
 162   2.0000      -0.493541       -13.4299
 163   2.0000      -0.492716       -13.4075
 164   2.0000      -0.491610       -13.3774
 165   2.0000      -0.490790       -13.3551
 166   2.0000      -0.489440       -13.3183
 167   2.0000      -0.488293       -13.2871
 168   2.0000      -0.487562       -13.2672
 169   2.0000      -0.485588       -13.2135
 170   2.0000      -0.482572       -13.1314
 171   2.0000      -0.481644       -13.1062
 172   2.0000      -0.478250       -13.0139
 173   2.0000      -0.475072       -12.9274
 174   2.0000      -0.470989       -12.8163
 175   2.0000      -0.466588       -12.6965
 176   2.0000      -0.463128       -12.6024
 177   2.0000      -0.460018       -12.5177
 178   2.0000      -0.457996       -12.4627
 179   2.0000      -0.454291       -12.3619
 180   2.0000      -0.453050       -12.3281
 181   2.0000      -0.451412       -12.2836
 182   2.0000      -0.443965       -12.0809
 183   2.0000      -0.433849       -11.8056
 184   2.0000      -0.422966       -11.5095
 185   2.0000      -0.420639       -11.4462
 186   2.0000      -0.417110       -11.3501
 187   2.0000      -0.413846       -11.2613
 188   2.0000      -0.412561       -11.2264
 189   2.0000      -0.410488       -11.1699
 190   2.0000      -0.408512       -11.1162
 191   2.0000      -0.405436       -11.0325
 192   2.0000      -0.400484       -10.8977
 193   2.0000      -0.396897       -10.8001
 194   2.0000      -0.386599       -10.5199
 195   2.0000      -0.380698       -10.3593
 196   2.0000      -0.380655       -10.3581
 197   2.0000      -0.368492       -10.0272
 198   2.0000      -0.363502        -9.8914
 199   2.0000      -0.357686        -9.7331
 200   2.0000      -0.355686        -9.6787
 201   2.0000      -0.353767        -9.6265
 202   2.0000      -0.348788        -9.4910
 203   2.0000      -0.324104        -8.8193
 204   2.0000      -0.320247        -8.7144
 205   2.0000      -0.317849        -8.6491
 206   2.0000      -0.304235        -8.2787
 207   2.0000      -0.291395        -7.9293
 208   2.0000      -0.289706        -7.8833
 209   2.0000      -0.265905        -7.2356
 210   2.0000      -0.258363        -7.0304
 211   2.0000      -0.211392        -5.7523
 212   0.0000      -0.067252        -1.8300
 213   0.0000      -0.062900        -1.7116
 214   0.0000      -0.051019        -1.3883
 215   0.0000      -0.024208        -0.6587
 216   0.0000      -0.006319        -0.1719

MULLIKEN ATOMIC CHARGES
-----------------------
   0 C :   -0.125187
   1 S :    0.139461
   2 C :   -0.136197
   3 C :    0.152658
   4 C :    0.103316
   5 C :   -0.076394
   6 C :    0.076919
   7 C :   -0.036795
   8 C :   -0.014948
   9 C :   -0.069880
  10 C :    0.099138
  11 C :   -0.097469
  12 C :   -0.004407
  13 C :    0.027250
  14 C :   -0.122389
  15 S :    0.153512
  16 C :   -0.140414
  17 C :    0.129178
  18 C :    0.117759
  19 C :   -0.117038
  20 C :    0.080438
  21 C :   -0.032501
  22 C :   -0.013248
  23 C :   -0.074359
  24 C :    0.098848
  25 C :   -0.105488
  26 C :    0.066521
  27 C :   -0.027867
  28 C :    0.078591
  29 C :   -0.034803
  30 C :    0.069091
  31 C :   -0.010505
  32 N :   -0.049196
  33 C :   -0.021922
  34 C :    0.025056
  35 C :   -0.039100
  36 C :    0.135553
  37 O :   -0.157327
  38 C :    0.141027
  39 C :   -0.033758
  40 C :   -0.040280
  41 C :    0.015431
  42 O :   -0.140946
  43 C :    0.474059
  44 F :   -0.170128
  45 F :   -0.134196
  46 F :   -0.170455
  47 C :    0.148591
  48 O :   -0.170651
  49 C :    0.151796
  50 C :    0.018127
  51 C :   -0.080172
  52 C :    0.014785
  53 O :   -0.127738
  54 C :    0.460635
  55 F :   -0.167918
  56 F :   -0.138458
  57 F :   -0.168782
  58 H :    0.014223
  59 H :   -0.037646
  60 H :   -0.003504
  61 H :    0.018959
  62 H :    0.020953
  63 H :    0.028870
  64 H :    0.006959
  65 H :    0.030450
  66 H :   -0.049879
  67 H :   -0.013901
  68 H :   -0.015211
  69 H :   -0.030826
  70 H :   -0.005075
  71 H :    0.012039
  72 H :    0.021801
  73 H :    0.030235
  74 H :    0.029935
  75 H :    0.009860
  76 H :   -0.046262
  77 H :   -0.014743
  78 H :   -0.015517
  79 H :   -0.001437
  80 H :    0.003211
  81 H :   -0.005836
  82 H :    0.017635
  83 H :    0.019591
  84 H :    0.012342
  85 H :    0.021020
  86 H :    0.014928
Sum of atomic charges:   -0.0000000

LOEWDIN ATOMIC CHARGES
----------------------
   0 C :   -0.193698
   1 S :    0.474521
   2 C :   -0.186995
   3 C :   -0.041683
   4 C :   -0.055211
   5 C :   -0.004037
   6 C :   -0.031948
   7 C :   -0.020354
   8 C :   -0.040680
   9 C :   -0.016518
  10 C :   -0.045232
  11 C :   -0.031582
  12 C :   -0.035515
  13 C :   -0.061935
  14 C :   -0.168150
  15 S :    0.476914
  16 C :   -0.188980
  17 C :   -0.036269
  18 C :   -0.049572
  19 C :   -0.005271
  20 C :   -0.031598
  21 C :   -0.019222
  22 C :   -0.041849
  23 C :   -0.014030
  24 C :   -0.045115
  25 C :   -0.029603
  26 C :   -0.032058
  27 C :   -0.040077
  28 C :   -0.042225
  29 C :    0.021078
  30 C :   -0.054812
  31 C :    0.028984
  32 N :   -0.062999
  33 C :    0.023086
  34 C :    0.038284
  35 C :   -0.053569
  36 C :    0.101610
  37 O :    0.055618
  38 C :    0.003106
  39 C :   -0.013890
  40 C :   -0.129680
  41 C :    0.034510
  42 O :   -0.113457
  43 C :    0.142614
  44 F :   -0.062956
  45 F :   -0.034573
  46 F :   -0.062917
  47 C :    0.069080
  48 O :    0.038718
  49 C :    0.043593
  50 C :   -0.047938
  51 C :   -0.125818
  52 C :    0.032843
  53 O :   -0.114218
  54 C :    0.140960
  55 F :   -0.061629
  56 F :   -0.038352
  57 F :   -0.061879
  58 H :    0.022520
  59 H :    0.027179
  60 H :    0.027665
  61 H :    0.021348
  62 H :    0.023997
  63 H :    0.033838
  64 H :    0.028992
  65 H :    0.035161
  66 H :    0.021922
  67 H :    0.031100
  68 H :    0.019914
  69 H :    0.026332
  70 H :    0.028419
  71 H :    0.018062
  72 H :    0.024632
  73 H :    0.035206
  74 H :    0.034650
  75 H :    0.030229
  76 H :    0.023728
  77 H :    0.026555
  78 H :    0.026362
  79 H :    0.032045
  80 H :    0.022176
  81 H :    0.019621
  82 H :    0.038415
  83 H :    0.039150
  84 H :    0.037679
  85 H :    0.029749
  86 H :    0.035929

  Mayer bond orders larger than 0.100000
B(  0-C ,  1-S ) :   1.1956 B(  0-C ,  2-C ) :   0.1045 B(  0-C ,  4-C ) :   1.4094
B(  0-C , 58-H ) :   0.9693 B(  1-S ,  2-C ) :   1.1446 B(  2-C ,  3-C ) :   1.3277
B(  2-C , 12-C ) :   1.1986 B(  3-C ,  4-C ) :   1.2017 B(  3-C , 11-C ) :   1.1850
B(  4-C ,  5-C ) :   1.1488 B(  5-C ,  6-C ) :   1.5433 B(  5-C , 59-H ) :   1.0038
B(  6-C ,  7-C ) :   1.0226 B(  6-C ,  9-C ) :   1.1858 B(  7-C ,  8-C ) :   1.9842
B(  7-C , 60-H ) :   0.9503 B(  8-C , 61-H ) :   0.9583 B(  8-C , 62-H ) :   0.9508
B(  9-C , 10-C ) :   1.0870 B(  9-C , 11-C ) :   1.5739 B( 10-C , 63-H ) :   0.9403
B( 10-C , 64-H ) :   0.9545 B( 10-C , 65-H ) :   0.9426 B( 11-C , 66-H ) :   0.9896
B( 12-C , 13-C ) :   1.6359 B( 12-C , 67-H ) :   0.9610 B( 13-C , 14-C ) :   1.1616
B( 13-C , 68-H ) :   0.9472 B( 14-C , 15-S ) :   1.1662 B( 14-C , 16-C ) :   0.1075
B( 14-C , 18-C ) :   1.3095 B( 15-S , 16-C ) :   1.1398 B( 16-C , 17-C ) :   1.3390
B( 16-C , 26-C ) :   1.1464 B( 17-C , 18-C ) :   1.2156 B( 17-C , 25-C ) :   1.1865
B( 18-C , 19-C ) :   1.1968 B( 19-C , 20-C ) :   1.5102 B( 19-C , 69-H ) :   0.9875
B( 20-C , 21-C ) :   1.0303 B( 20-C , 23-C ) :   1.2035 B( 21-C , 22-C ) :   1.9778
B( 21-C , 70-H ) :   0.9507 B( 22-C , 71-H ) :   0.9557 B( 22-C , 72-H ) :   0.9500
B( 23-C , 24-C ) :   1.0869 B( 23-C , 25-C ) :   1.5511 B( 24-C , 73-H ) :   0.9438
B( 24-C , 74-H ) :   0.9404 B( 24-C , 75-H ) :   0.9540 B( 25-C , 76-H ) :   0.9910
B( 26-C , 27-C ) :   1.6836 B( 26-C , 77-H ) :   0.9410 B( 27-C , 28-C ) :   1.0684
B( 27-C , 78-H ) :   0.9787 B( 28-C , 29-C ) :   1.3463 B( 28-C , 33-C ) :   1.3085
B( 29-C , 30-C ) :   1.3662 B( 29-C , 79-H ) :   0.9915 B( 30-C , 31-C ) :   1.3087
B( 30-C , 34-C ) :   1.0475 B( 31-C , 32-N ) :   1.5758 B( 31-C , 80-H ) :   0.9839
B( 32-N , 33-C ) :   1.5587 B( 33-C , 81-H ) :   0.9874 B( 34-C , 35-C ) :   1.6335
B( 34-C , 82-H ) :   0.9821 B( 35-C , 36-C ) :   1.1906 B( 35-C , 83-H ) :   0.9479
B( 36-C , 37-O ) :   1.2196 B( 36-C , 40-C ) :   1.3357 B( 37-O , 38-C ) :   1.1511
B( 38-C , 39-C ) :   1.4537 B( 38-C , 47-C ) :   1.0602 B( 39-C , 40-C ) :   1.2029
B( 39-C , 84-H ) :   1.0039 B( 40-C , 41-C ) :   0.9656 B( 41-C , 42-O ) :   2.1792
B( 41-C , 43-C ) :   0.8864 B( 43-C , 44-F ) :   1.1272 B( 43-C , 45-F ) :   1.1913
B( 43-C , 46-F ) :   1.1259 B( 47-C , 48-O ) :   1.2678 B( 47-C , 51-C ) :   1.4121
B( 48-O , 49-C ) :   1.0948 B( 49-C , 50-C ) :   1.5890 B( 49-C , 85-H ) :   1.0023
B( 50-C , 51-C ) :   1.2011 B( 50-C , 86-H ) :   0.9771 B( 51-C , 52-C ) :   0.9775
B( 52-C , 53-O ) :   2.1786 B( 52-C , 54-C ) :   0.8825 B( 54-C , 55-F ) :   1.1272
B( 54-C , 56-F ) :   1.1850 B( 54-C , 57-F ) :   1.1255

-----------------------------------------------------------------------------
         ABSORPTION SPECTRUM VIA TRANSITION ELECTRIC DIPOLE MOMENTS
-----------------------------------------------------------------------------
State   Energy  Wavelength   fosc         T2         TX        TY        TZ
        (cm-1)    (nm)                  (au**2)     (au)      (au)      (au)
-----------------------------------------------------------------------------
   0   17558.4    569.5   1.261982516  23.66156  -1.89010  -4.03009  -1.96149
   1   20090.8    497.7   0.011743509   0.19243  -0.26696   0.34702   0.02717
   2   24499.1    408.2   0.111266656   1.49517   0.79321  -0.73349   0.57270
   3   24930.9    401.1   0.003138028   0.04144   0.08499   0.08824   0.16256
   4   25216.9    396.6   0.645750272   8.43041  -2.19861   1.80183  -0.59156
   5   27612.5    362.2   0.348004504   4.14910  -0.86803  -1.03445  -1.52497
   6   27915.5    358.2   0.033137982   0.39080  -0.25213  -0.51944  -0.23961
   7   28920.2    345.8   0.282740249   3.21856  -1.10318  -0.69900  -1.23002
   8   31299.6    319.5   0.036125489   0.37997  -0.35265  -0.21402  -0.45804
   9   31836.5    314.1   0.055395544   0.57283  -0.26154  -0.59541  -0.38718
  10   32254.3    310.0   0.222390665   2.26989   0.95392   0.10114   1.16177
  11   33033.8    302.7   0.139021371   1.38547   0.70921  -0.25279   0.90476
  12   33509.7    298.4   0.000192195   0.00189  -0.01183  -0.04165   0.00365
  13   34746.2    287.8   0.163361918   1.54782  -0.09637  -0.49748  -1.13624
  14   35633.3    280.6   0.134204429   1.23990  -0.20111  -0.82380  -0.72166
  15   36035.3    277.5   0.025744828   0.23520  -0.12927  -0.32521  -0.33575
  16   36137.5    276.7   0.014489568   0.13200  -0.26415  -0.05368  -0.24361
  17   36451.0    274.3   0.119772719   1.08174  -0.50026  -0.67706  -0.61079
  18   36986.2    270.4   0.065327208   0.58147  -0.47111  -0.32808  -0.50189
  19   38170.3    262.0   0.066710979   0.57537  -0.45979  -0.30078  -0.52297
  20   38284.5    261.2   0.023189730   0.19941  -0.19837   0.37235  -0.14634
  21   38392.0    260.5   0.074346485   0.63752   0.07918  -0.74108   0.28645
  22   39074.3    255.9   0.012613430   0.10627  -0.22530  -0.21811  -0.08910
  23   39221.4    255.0   0.070225110   0.58945  -0.24347  -0.45949  -0.56484
  24   39501.6    253.2   0.022399079   0.18668   0.16478  -0.01708   0.39904
  25   40114.1    249.3   0.085092058   0.69834  -0.00164   0.83561  -0.01002
  26   40300.8    248.1   0.108163646   0.88357  -0.49732  -0.28813  -0.74380

FINAL SINGLE POINT ENERGY     -3479.789969742146

DIPOLE MOMENT
-------------
                                X             Y             Z
Electronic contribution:   -107.56706     -26.16475     -98.67578
Nuclear contribution   :    107.54359      28.18969     100.03381
                        -----------------------------------------
Total Dipole Moment    :     -0.02347       2.02494       1.35803
                        -----------------------------------------
Magnitude (a.u.)       :      2.43827
Magnitude (Debye)      :      6.19759

Rotational constants in cm-1:     0.002001     0.000419     0.000360
Rotational constants in MHz :    59.977630    12.573376    10.787070

                             ****ORCA TERMINATED NORMALLY****
TOTAL RUN TIME: 0 days 0 hours 6 minutes 10 seconds 651 msec
