                         Program Version 4.2.0 -  RELEASE  -
|  1> # ORCA input file
|  2> # SCF done       -151.670829949594          0.000384228880
|  3> ! CAM-B3LYP def2-SVP def2/J RIJCOSX Grid4 TightSCF
|  4> %maxcore 5000
|  5> %tddft
|  6>     Mode sTDDFT
|  7>     Ethresh 5.0
|  8>     maxcore 5000
|  9> end
| 10>
| 11> %pal
| 12>   nprocs 6
| 13>   end
| 14> * xyz 0 1
| 15>    C        0.63541        -1.76022         3.51820
| 16>    S        0.07407        -1.55428         1.92378
| 17>    C       -0.67557        -3.12118         1.88854
| 18>    C       -0.48028        -3.78008         3.10714
| 19>    C        0.27859        -2.98393         4.03873
| 20>    C        0.58234        -3.48816         5.32268
| 21>    C        0.15675        -4.74174         5.67239
| 22>    C        0.45625        -5.26650         6.95128
| 23>    N        0.71008        -5.67622         7.99064
| 24>    C       -0.59145        -5.53962         4.74532
| 25>    C       -1.01092        -6.83418         5.12561
| 26>    N       -1.35889        -7.88840         5.41027
| 27>    C       -0.90149        -5.06518         3.49417
| 28>    C       -1.34677        -3.53030         0.70509
| 29>    S       -2.28893        -5.00063         0.58933
| 30>    C       -2.69303        -4.68833        -1.06951
| 31>    C       -2.10922        -3.49403        -1.49135
| 32>    C       -1.36358        -2.84917        -0.49127
| 33>    C       -2.25507        -3.01635        -2.80287
| 34>    N       -2.37710        -2.65075        -3.88403
| 35>    C       -3.49343        -5.54906        -1.85955
| 36>    C       -4.08044        -6.68085        -1.40550
| 37>    C       -4.87195        -7.58135        -2.17609
| 38>    C       -5.80016        -8.49135        -1.67070
| 39>    C       -6.15259        -8.70801        -0.24575
| 40>    C       -6.43280        -9.21084        -2.74244
| 41>    C       -5.85432        -8.74026        -3.92299
| 42>    C       -4.86759        -7.72398        -3.60766
| 43>    C       -4.13252        -7.20272        -4.64151
| 44>    C       -4.42551        -7.63656        -5.95204
| 45>    C       -5.40000        -8.56726        -6.15847
| 46>    O       -6.09684        -9.12555        -5.17697
| 47>    C       -7.46075       -10.17794        -2.58951
| 48>    C       -8.03835       -10.87610        -3.60406
| 49>    C       -9.09114       -11.80646        -3.43145
| 50>    C       -9.78106       -12.15607        -2.28501
| 51>    C      -10.77623       -13.10730        -2.60505
| 52>    C      -10.65915       -13.35528        -4.05895
| 53>    C       -9.65810       -12.57174        -4.53370
| 54>    C      -11.42922       -14.22802        -4.83263
| 55>    N      -12.04021       -14.93331        -5.50404
| 56>    C      -11.70169       -13.68622        -1.75852
| 57>    C      -12.69755       -14.64077        -2.08427
| 58>    C      -13.41157       -14.97001        -0.94816
| 59>    C      -12.87745       -14.18620         0.14907
| 60>    C      -11.85766       -13.41500        -0.32198
| 61>    C      -11.11808       -12.51046         0.44466
| 62>    N      -10.52380       -11.77170         1.09488
| 63>    C      -14.50322       -15.87892        -0.90806
| 64>    S      -15.30828       -16.27322        -2.39621
| 65>    C      -16.43527       -17.28397        -1.62259
| 66>    C      -16.22303       -17.35681        -0.26111
| 67>    C      -15.10244       -16.55657         0.16245
| 68>    C      -14.71748       -16.58949         1.51420
| 69>    C      -15.44060       -17.33556         2.41494
| 70>    C      -15.05255       -17.36764         3.77324
| 71>    N      -14.72415       -17.38028         4.87128
| 72>    C      -16.58268       -18.09259         1.99677
| 73>    C      -17.30879       -18.83761         2.95466
| 74>    N      -17.91120       -19.44593         3.71613
| 75>    C      -16.95849       -18.10901         0.67877
| 76>    H        1.19739        -0.98192         3.99392
| 77>    H        1.14904        -2.88450         6.01535
| 78>    H       -1.46257        -5.69015         2.81780
| 79>    H       -0.84745        -1.91783        -0.64618
| 80>    H       -3.64475        -5.21514        -2.87577
| 81>    H       -3.96491        -6.91992        -0.35520
| 82>    H       -5.53136        -8.11524         0.41778
| 83>    H       -6.03894        -9.75995         0.01491
| 84>    H       -7.19439        -8.43789        -0.07170
| 85>    H       -3.33901        -6.48965        -4.49049
| 86>    H       -3.88308        -7.23671        -6.79115
| 87>    H       -5.67961        -8.93970        -7.13260
| 88>    H       -7.80089       -10.35514        -1.57978
| 89>    H       -7.69290       -10.72819        -4.61760
| 90>    H       -9.61296       -11.76871        -1.30050
| 91>    H       -9.32178       -12.51390        -5.55318
| 92>    H      -12.85300       -15.05974        -3.05936
| 93>    H      -13.25643       -14.16629         1.15302
| 94>    H      -17.19650       -17.78020        -2.19095
| 95>    H      -13.84481       -16.05579         1.85415
| 96>    H      -17.80515       -18.69504         0.35435
| 97> *
| 98>
| 99>                          ****END OF INPUT****

CARTESIAN COORDINATES (ANGSTROEM)
---------------------------------
  C      0.635410   -1.760220    3.518200
  S      0.074070   -1.554280    1.923780
  C     -0.675570   -3.121180    1.888540
  C     -0.480280   -3.780080    3.107140
  C      0.278590   -2.983930    4.038730
  C      0.582340   -3.488160    5.322680
  C      0.156750   -4.741740    5.672390
  C      0.456250   -5.266500    6.951280
  N      0.710080   -5.676220    7.990640
  C     -0.591450   -5.539620    4.745320
  C     -1.010920   -6.834180    5.125610
  N     -1.358890   -7.888400    5.410270
  C     -0.901490   -5.065180    3.494170
  C     -1.346770   -3.530300    0.705090
  S     -2.288930   -5.000630    0.589330
  C     -2.693030   -4.688330   -1.069510
  C     -2.109220   -3.494030   -1.491350
  C     -1.363580   -2.849170   -0.491270
  C     -2.255070   -3.016350   -2.802870
  N     -2.377100   -2.650750   -3.884030
  C     -3.493430   -5.549060   -1.859550
  C     -4.080440   -6.680850   -1.405500
  C     -4.871950   -7.581350   -2.176090
  C     -5.800160   -8.491350   -1.670700
  C     -6.152590   -8.708010   -0.245750
  C     -6.432800   -9.210840   -2.742440
  C     -5.854320   -8.740260   -3.922990
  C     -4.867590   -7.723980   -3.607660
  C     -4.132520   -7.202720   -4.641510
  C     -4.425510   -7.636560   -5.952040
  C     -5.400000   -8.567260   -6.158470
  O     -6.096840   -9.125550   -5.176970
  C     -7.460750  -10.177940   -2.589510
  C     -8.038350  -10.876100   -3.604060
  C     -9.091140  -11.806460   -3.431450
  C     -9.781060  -12.156070   -2.285010
  C    -10.776230  -13.107300   -2.605050
  C    -10.659150  -13.355280   -4.058950
  C     -9.658100  -12.571740   -4.533700
  C    -11.429220  -14.228020   -4.832630
  N    -12.040210  -14.933310   -5.504040
  C    -11.701690  -13.686220   -1.758520
  C    -12.697550  -14.640770   -2.084270
  C    -13.411570  -14.970010   -0.948160
  C    -12.877450  -14.186200    0.149070
  C    -11.857660  -13.415000   -0.321980
  C    -11.118080  -12.510460    0.444660
  N    -10.523800  -11.771700    1.094880
  C    -14.503220  -15.878920   -0.908060
  S    -15.308280  -16.273220   -2.396210
  C    -16.435270  -17.283970   -1.622590
  C    -16.223030  -17.356810   -0.261110
  C    -15.102440  -16.556570    0.162450
  C    -14.717480  -16.589490    1.514200
  C    -15.440600  -17.335560    2.414940
  C    -15.052550  -17.367640    3.773240
  N    -14.724150  -17.380280    4.871280
  C    -16.582680  -18.092590    1.996770
  C    -17.308790  -18.837610    2.954660
  N    -17.911200  -19.445930    3.716130
  C    -16.958490  -18.109010    0.678770
  H      1.197390   -0.981920    3.993920
  H      1.149040   -2.884500    6.015350
  H     -1.462570   -5.690150    2.817800
  H     -0.847450   -1.917830   -0.646180
  H     -3.644750   -5.215140   -2.875770
  H     -3.964910   -6.919920   -0.355200
  H     -5.531360   -8.115240    0.417780
  H     -6.038940   -9.759950    0.014910
  H     -7.194390   -8.437890   -0.071700
  H     -3.339010   -6.489650   -4.490490
  H     -3.883080   -7.236710   -6.791150
  H     -5.679610   -8.939700   -7.132600
  H     -7.800890  -10.355140   -1.579780
  H     -7.692900  -10.728190   -4.617600
  H     -9.612960  -11.768710   -1.300500
  H     -9.321780  -12.513900   -5.553180
  H    -12.853000  -15.059740   -3.059360
  H    -13.256430  -14.166290    1.153020
  H    -17.196500  -17.780200   -2.190950
  H    -13.844810  -16.055790    1.854150
  H    -17.805150  -18.695040    0.354350

 Total Charge           Charge          ....    0
 Multiplicity           Mult            ....    1
 Number of Electrons    NEL             ....  426
 Basis Dimension        Dim             ....  971

ORBITAL ENERGIES
----------------

  NO   OCC          E(Eh)            E(eV)
   0   2.0000     -88.998866     -2421.7823
   1   2.0000     -88.991643     -2421.5857
   2   2.0000     -88.987888     -2421.4835
   3   2.0000     -19.353310      -526.6303
   4   2.0000     -14.415214      -392.2579
   5   2.0000     -14.412398      -392.1813
   6   2.0000     -14.412187      -392.1756
   7   2.0000     -14.411487      -392.1565
   8   2.0000     -14.407971      -392.0608
   9   2.0000     -14.407658      -392.0523
  10   2.0000     -14.407578      -392.0501
  11   2.0000     -10.389210      -282.7048
  12   2.0000     -10.373667      -282.2818
  13   2.0000     -10.341766      -281.4138
  14   2.0000     -10.338847      -281.3343
  15   2.0000     -10.336742      -281.2770
  16   2.0000     -10.336348      -281.2663
  17   2.0000     -10.336091      -281.2593
  18   2.0000     -10.335120      -281.2329
  19   2.0000     -10.331577      -281.1365
  20   2.0000     -10.331106      -281.1237
  21   2.0000     -10.329826      -281.0889
  22   2.0000     -10.325974      -280.9840
  23   2.0000     -10.322473      -280.8888
  24   2.0000     -10.322072      -280.8779
  25   2.0000     -10.321301      -280.8569
  26   2.0000     -10.320744      -280.8417
  27   2.0000     -10.320575      -280.8371
  28   2.0000     -10.320043      -280.8226
  29   2.0000     -10.317559      -280.7550
  30   2.0000     -10.316587      -280.7286
  31   2.0000     -10.316448      -280.7248
  32   2.0000     -10.316307      -280.7210
  33   2.0000     -10.315751      -280.7059
  34   2.0000     -10.315587      -280.7014
  35   2.0000     -10.314783      -280.6795
  36   2.0000     -10.314750      -280.6786
  37   2.0000     -10.313739      -280.6511
  38   2.0000     -10.313134      -280.6347
  39   2.0000     -10.311166      -280.5811
  40   2.0000     -10.310872      -280.5731
  41   2.0000     -10.310571      -280.5649
  42   2.0000     -10.310495      -280.5628
  43   2.0000     -10.309844      -280.5451
  44   2.0000     -10.309054      -280.5236
  45   2.0000     -10.308705      -280.5141
  46   2.0000     -10.307676      -280.4861
  47   2.0000     -10.307412      -280.4790
  48   2.0000     -10.307146      -280.4717
  49   2.0000     -10.306202      -280.4460
  50   2.0000     -10.305915      -280.4382
  51   2.0000     -10.305418      -280.4247
  52   2.0000     -10.303075      -280.3609
  53   2.0000     -10.303020      -280.3594
  54   2.0000     -10.295180      -280.1461
  55   2.0000     -10.289456      -279.9903
  56   2.0000     -10.287058      -279.9251
  57   2.0000     -10.285780      -279.8903
  58   2.0000     -10.283960      -279.8408
  59   2.0000     -10.282839      -279.8103
  60   2.0000     -10.272661      -279.5333
  61   2.0000      -8.094081      -220.2511
  62   2.0000      -8.086663      -220.0493
  63   2.0000      -8.082641      -219.9398
  64   2.0000      -6.063043      -164.9838
  65   2.0000      -6.058647      -164.8642
  66   2.0000      -6.057167      -164.8239
  67   2.0000      -6.055483      -164.7781
  68   2.0000      -6.052014      -164.6837
  69   2.0000      -6.051129      -164.6596
  70   2.0000      -6.050014      -164.6293
  71   2.0000      -6.047951      -164.5731
  72   2.0000      -6.044609      -164.4822
  73   2.0000      -1.262581       -34.3566
  74   2.0000      -1.035122       -28.1671
  75   2.0000      -1.026342       -27.9282
  76   2.0000      -1.019113       -27.7315
  77   2.0000      -1.014157       -27.5966
  78   2.0000      -1.005612       -27.3641
  79   2.0000      -1.004516       -27.3343
  80   2.0000      -1.002589       -27.2818
  81   2.0000      -0.998187       -27.1620
  82   2.0000      -0.993236       -27.0273
  83   2.0000      -0.992733       -27.0136
  84   2.0000      -0.988029       -26.8856
  85   2.0000      -0.985851       -26.8264
  86   2.0000      -0.979675       -26.6583
  87   2.0000      -0.966350       -26.2957
  88   2.0000      -0.959983       -26.1225
  89   2.0000      -0.953945       -25.9582
  90   2.0000      -0.925385       -25.1810
  91   2.0000      -0.910329       -24.7713
  92   2.0000      -0.904609       -24.6157
  93   2.0000      -0.900560       -24.5055
  94   2.0000      -0.892550       -24.2875
  95   2.0000      -0.881724       -23.9929
  96   2.0000      -0.879810       -23.9409
  97   2.0000      -0.877507       -23.8782
  98   2.0000      -0.870583       -23.6898
  99   2.0000      -0.863340       -23.4927
 100   2.0000      -0.853760       -23.2320
 101   2.0000      -0.845179       -22.9985
 102   2.0000      -0.830709       -22.6048
 103   2.0000      -0.826212       -22.4824
 104   2.0000      -0.820285       -22.3211
 105   2.0000      -0.805246       -21.9119
 106   2.0000      -0.784277       -21.3413
 107   2.0000      -0.771607       -20.9965
 108   2.0000      -0.766146       -20.8479
 109   2.0000      -0.760341       -20.6899
 110   2.0000      -0.751143       -20.4396
 111   2.0000      -0.743770       -20.2390
 112   2.0000      -0.742000       -20.1909
 113   2.0000      -0.728103       -19.8127
 114   2.0000      -0.722198       -19.6520
 115   2.0000      -0.716493       -19.4968
 116   2.0000      -0.708524       -19.2799
 117   2.0000      -0.698605       -19.0100
 118   2.0000      -0.683644       -18.6029
 119   2.0000      -0.681917       -18.5559
 120   2.0000      -0.677440       -18.4341
 121   2.0000      -0.671340       -18.2681
 122   2.0000      -0.661670       -18.0049
 123   2.0000      -0.652368       -17.7518
 124   2.0000      -0.641962       -17.4687
 125   2.0000      -0.638704       -17.3800
 126   2.0000      -0.635676       -17.2976
 127   2.0000      -0.631496       -17.1839
 128   2.0000      -0.621308       -16.9067
 129   2.0000      -0.618118       -16.8199
 130   2.0000      -0.611805       -16.6481
 131   2.0000      -0.606731       -16.5100
 132   2.0000      -0.604307       -16.4440
 133   2.0000      -0.601001       -16.3541
 134   2.0000      -0.594189       -16.1687
 135   2.0000      -0.589411       -16.0387
 136   2.0000      -0.572638       -15.5823
 137   2.0000      -0.570716       -15.5300
 138   2.0000      -0.559988       -15.2381
 139   2.0000      -0.557473       -15.1696
 140   2.0000      -0.555144       -15.1062
 141   2.0000      -0.551838       -15.0163
 142   2.0000      -0.551003       -14.9936
 143   2.0000      -0.547979       -14.9113
 144   2.0000      -0.540343       -14.7035
 145   2.0000      -0.537571       -14.6281
 146   2.0000      -0.533367       -14.5137
 147   2.0000      -0.530864       -14.4455
 148   2.0000      -0.528797       -14.3893
 149   2.0000      -0.526201       -14.3187
 150   2.0000      -0.524381       -14.2691
 151   2.0000      -0.519471       -14.1355
 152   2.0000      -0.518446       -14.1076
 153   2.0000      -0.517445       -14.0804
 154   2.0000      -0.514140       -13.9905
 155   2.0000      -0.512671       -13.9505
 156   2.0000      -0.508388       -13.8339
 157   2.0000      -0.501456       -13.6453
 158   2.0000      -0.500186       -13.6107
 159   2.0000      -0.492711       -13.4073
 160   2.0000      -0.490813       -13.3557
 161   2.0000      -0.489588       -13.3224
 162   2.0000      -0.485756       -13.2181
 163   2.0000      -0.481817       -13.1109
 164   2.0000      -0.480130       -13.0650
 165   2.0000      -0.478626       -13.0241
 166   2.0000      -0.475917       -12.9504
 167   2.0000      -0.472757       -12.8644
 168   2.0000      -0.470367       -12.7993
 169   2.0000      -0.461599       -12.5607
 170   2.0000      -0.455556       -12.3963
 171   2.0000      -0.453475       -12.3397
 172   2.0000      -0.450986       -12.2719
 173   2.0000      -0.449997       -12.2450
 174   2.0000      -0.446914       -12.1611
 175   2.0000      -0.446630       -12.1534
 176   2.0000      -0.446534       -12.1508
 177   2.0000      -0.444053       -12.0833
 178   2.0000      -0.443868       -12.0783
 179   2.0000      -0.441621       -12.0171
 180   2.0000      -0.439875       -11.9696
 181   2.0000      -0.439203       -11.9513
 182   2.0000      -0.438858       -11.9419
 183   2.0000      -0.438120       -11.9219
 184   2.0000      -0.434528       -11.8241
 185   2.0000      -0.434330       -11.8187
 186   2.0000      -0.433160       -11.7869
 187   2.0000      -0.431371       -11.7382
 188   2.0000      -0.427279       -11.6268
 189   2.0000      -0.423481       -11.5235
 190   2.0000      -0.420347       -11.4382
 191   2.0000      -0.417176       -11.3519
 192   2.0000      -0.416735       -11.3399
 193   2.0000      -0.414590       -11.2816
 194   2.0000      -0.414253       -11.2724
 195   2.0000      -0.409396       -11.1402
 196   2.0000      -0.409131       -11.1330
 197   2.0000      -0.404834       -11.0161
 198   2.0000      -0.397366       -10.8129
 199   2.0000      -0.396015       -10.7761
 200   2.0000      -0.386127       -10.5070
 201   2.0000      -0.377379       -10.2690
 202   2.0000      -0.350266        -9.5312
 203   2.0000      -0.343426        -9.3451
 204   2.0000      -0.338843        -9.2204
 205   2.0000      -0.337730        -9.1901
 206   2.0000      -0.332964        -9.0604
 207   2.0000      -0.320708        -8.7269
 208   2.0000      -0.318194        -8.6585
 209   2.0000      -0.300629        -8.1805
 210   2.0000      -0.279437        -7.6039
 211   2.0000      -0.261709        -7.1215
 212   2.0000      -0.241101        -6.5607
 213   0.0000      -0.126413        -3.4399
 214   0.0000      -0.087636        -2.3847
 215   0.0000      -0.071829        -1.9546
 216   0.0000      -0.065000        -1.7687
 217   0.0000      -0.047767        -1.2998

MULLIKEN ATOMIC CHARGES
-----------------------
   0 C :   -0.118304
   1 S :    0.184648
   2 C :   -0.103724
   3 C :    0.118486
   4 C :    0.104989
   5 C :   -0.019186
   6 C :   -0.071749
   7 C :   -0.175661
   8 N :    0.174472
   9 C :   -0.071922
  10 C :   -0.176925
  11 N :    0.175425
  12 C :   -0.058666
  13 C :   -0.049975
  14 S :    0.098762
  15 C :   -0.021991
  16 C :   -0.051812
  17 C :   -0.017184
  18 C :   -0.196814
  19 N :    0.122569
  20 C :   -0.037483
  21 C :   -0.024398
  22 C :    0.062551
  23 C :   -0.142163
  24 C :    0.118860
  25 C :    0.022251
  26 C :    0.076165
  27 C :    0.047480
  28 C :    0.016538
  29 C :   -0.033094
  30 C :    0.185493
  31 O :   -0.141144
  32 C :    0.011261
  33 C :   -0.032931
  34 C :    0.136794
  35 C :   -0.145097
  36 C :    0.130621
  37 C :   -0.093740
  38 C :   -0.010730
  39 C :   -0.168310
  40 N :    0.126017
  41 C :    0.105355
  42 C :   -0.144624
  43 C :    0.108206
  44 C :   -0.029188
  45 C :   -0.106911
  46 C :   -0.166266
  47 N :    0.125692
  48 C :   -0.154345
  49 S :    0.210999
  50 C :   -0.113562
  51 C :    0.093242
  52 C :    0.163162
  53 C :   -0.063271
  54 C :   -0.070395
  55 C :   -0.176274
  56 N :    0.174134
  57 C :   -0.072185
  58 C :   -0.176560
  59 N :    0.171528
  60 C :   -0.015552
  61 H :    0.033279
  62 H :   -0.003279
  63 H :    0.003453
  64 H :    0.003009
  65 H :   -0.001230
  66 H :   -0.008543
  67 H :    0.011473
  68 H :    0.044498
  69 H :    0.048511
  70 H :    0.014568
  71 H :    0.026924
  72 H :    0.039792
  73 H :   -0.011720
  74 H :   -0.025906
  75 H :   -0.006465
  76 H :   -0.007292
  77 H :    0.003013
  78 H :   -0.000723
  79 H :    0.033655
  80 H :   -0.006473
  81 H :   -0.004112
Sum of atomic charges:   -0.0000000

LOEWDIN ATOMIC CHARGES
----------------------
   0 C :   -0.183682
   1 S :    0.516659
   2 C :   -0.181258
   3 C :   -0.053401
   4 C :   -0.049623
   5 C :    0.037954
   6 C :   -0.056039
   7 C :   -0.032640
   8 N :   -0.033910
   9 C :   -0.054258
  10 C :   -0.033369
  11 N :   -0.036059
  12 C :    0.022869
  13 C :   -0.186267
  14 S :    0.457971
  15 C :   -0.123996
  16 C :   -0.117433
  17 C :   -0.033118
  18 C :   -0.032447
  19 N :   -0.065213
  20 C :   -0.075948
  21 C :    0.010431
  22 C :   -0.090047
  23 C :    0.030958
  24 C :   -0.046644
  25 C :   -0.102295
  26 C :    0.077747
  27 C :   -0.017727
  28 C :    0.046687
  29 C :   -0.066919
  30 C :    0.093960
  31 O :    0.066961
  32 C :    0.031401
  33 C :   -0.053460
  34 C :    0.001741
  35 C :   -0.058792
  36 C :    0.048925
  37 C :   -0.077088
  38 C :    0.053061
  39 C :   -0.029926
  40 N :   -0.067408
  41 C :    0.015149
  42 C :   -0.038237
  43 C :   -0.044345
  44 C :    0.033857
  45 C :   -0.078569
  46 C :   -0.027072
  47 N :   -0.071214
  48 C :   -0.165630
  49 S :    0.536853
  50 C :   -0.179406
  51 C :   -0.051930
  52 C :   -0.044304
  53 C :    0.029840
  54 C :   -0.053936
  55 C :   -0.033435
  56 N :   -0.035058
  57 C :   -0.057197
  58 C :   -0.032303
  59 N :   -0.035935
  60 C :    0.037822
  61 H :    0.031165
  62 H :    0.045909
  63 H :    0.026868
  64 H :    0.033304
  65 H :    0.034581
  66 H :    0.024131
  67 H :    0.034093
  68 H :    0.046040
  69 H :    0.049216
  70 H :    0.042938
  71 H :    0.048160
  72 H :    0.038599
  73 H :    0.036282
  74 H :    0.022378
  75 H :    0.028986
  76 H :    0.034903
  77 H :    0.026746
  78 H :    0.033857
  79 H :    0.031142
  80 H :    0.041820
  81 H :    0.045573

  Mayer bond orders larger than 0.100000
B(  0-C ,  1-S ) :   1.1981 B(  0-C ,  2-C ) :   0.1065 B(  0-C ,  4-C ) :   1.4237
B(  0-C , 61-H ) :   0.9706 B(  1-S ,  2-C ) :   1.1966 B(  2-C ,  3-C ) :   1.3566
B(  2-C , 13-C ) :   1.1603 B(  3-C ,  4-C ) :   1.1791 B(  3-C , 12-C ) :   1.1793
B(  4-C ,  5-C ) :   1.1527 B(  5-C ,  6-C ) :   1.5844 B(  5-C , 62-H ) :   1.0070
B(  6-C ,  7-C ) :   1.0759 B(  6-C ,  9-C ) :   1.2204 B(  7-C ,  8-N ) :   3.0483
B(  9-C , 10-C ) :   1.0820 B(  9-C , 12-C ) :   1.6016 B( 10-C , 11-N ) :   3.0434
B( 12-C , 63-H ) :   0.9803 B( 13-C , 14-S ) :   1.0996 B( 13-C , 17-C ) :   1.4961
B( 14-S , 15-C ) :   1.1175 B( 15-C , 16-C ) :   1.4486 B( 15-C , 20-C ) :   1.1933
B( 16-C , 17-C ) :   1.2691 B( 16-C , 18-C ) :   1.1004 B( 17-C , 64-H ) :   0.9963
B( 18-C , 19-N ) :   3.0116 B( 20-C , 21-C ) :   1.6228 B( 20-C , 65-H ) :   0.9598
B( 21-C , 22-C ) :   1.1367 B( 21-C , 66-H ) :   0.9641 B( 22-C , 23-C ) :   1.4621
B( 22-C , 27-C ) :   1.0921 B( 23-C , 24-C ) :   1.1266 B( 23-C , 25-C ) :   1.1755
B( 24-C , 67-H ) :   0.9410 B( 24-C , 68-H ) :   0.9335 B( 24-C , 69-H ) :   0.9324
B( 25-C , 26-C ) :   1.3704 B( 25-C , 32-C ) :   1.1525 B( 26-C , 27-C ) :   1.1171
B( 26-C , 31-O ) :   1.1511 B( 27-C , 28-C ) :   1.4929 B( 28-C , 29-C ) :   1.2270
B( 28-C , 70-H ) :   0.9841 B( 29-C , 30-C ) :   1.5811 B( 29-C , 71-H ) :   0.9681
B( 30-C , 31-O ) :   1.1651 B( 30-C , 72-H ) :   0.9801 B( 32-C , 33-C ) :   1.5804
B( 32-C , 73-H ) :   0.9655 B( 33-C , 34-C ) :   1.1279 B( 33-C , 74-H ) :   0.9800
B( 34-C , 35-C ) :   1.4986 B( 34-C , 38-C ) :   1.0192 B( 35-C , 36-C ) :   1.1809
B( 35-C , 75-H ) :   0.9966 B( 36-C , 37-C ) :   1.0881 B( 36-C , 41-C ) :   1.3515
B( 37-C , 38-C ) :   1.6818 B( 37-C , 39-C ) :   1.0881 B( 38-C , 76-H ) :   1.0245
B( 39-C , 40-N ) :   2.9576 B( 41-C , 42-C ) :   1.1601 B( 41-C , 45-C ) :   1.1263
B( 42-C , 43-C ) :   1.5158 B( 42-C , 77-H ) :   0.9927 B( 43-C , 44-C ) :   1.0797
B( 43-C , 48-C ) :   1.0991 B( 44-C , 45-C ) :   1.6482 B( 44-C , 78-H ) :   1.0130
B( 45-C , 46-C ) :   1.0890 B( 46-C , 47-N ) :   2.9597 B( 48-C , 49-S ) :   1.2056
B( 48-C , 50-C ) :   0.1094 B( 48-C , 52-C ) :   1.3393 B( 49-S , 50-C ) :   1.2161
B( 50-C , 51-C ) :   1.4051 B( 50-C , 79-H ) :   0.9713 B( 51-C , 52-C ) :   1.1817
B( 51-C , 60-C ) :   1.1566 B( 52-C , 53-C ) :   1.1829 B( 53-C , 54-C ) :   1.5741
B( 53-C , 80-H ) :   0.9967 B( 54-C , 55-C ) :   1.0828 B( 54-C , 57-C ) :   1.2239
B( 55-C , 56-N ) :   3.0421 B( 57-C , 58-C ) :   1.0775 B( 57-C , 60-C ) :   1.5762
B( 58-C , 59-N ) :   3.0483 B( 60-C , 81-H ) :   1.0076

-----------------------------------------------------------------------------
         ABSORPTION SPECTRUM VIA TRANSITION ELECTRIC DIPOLE MOMENTS
-----------------------------------------------------------------------------
State   Energy  Wavelength   fosc         T2         TX        TY        TZ
        (cm-1)    (nm)                  (au**2)     (au)      (au)      (au)
-----------------------------------------------------------------------------
   0   10556.3    947.3   0.824318864  25.70750   3.77710   3.11708  -1.31333
   1   15521.7    644.3   0.031090968   0.65943  -0.14581   0.05073   0.79724
   2   17440.0    573.4   0.100622762   1.89944  -0.74176  -0.71419  -0.91606
   3   18119.0    551.9   0.258134439   4.69014   1.18348   1.19785   1.36186
   4   20087.7    497.8   0.564860567   9.25734  -1.65902  -1.36863  -2.15218
   5   23174.3    431.5   0.595686489   8.46225   1.99447   1.75546  -1.18436
   6   24553.7    407.3   0.053512116   0.71748  -0.62272  -0.57414  -0.00823
   7   25168.1    397.3   0.050782681   0.66426   0.68399   0.43965   0.05590
   8   25664.1    389.6   0.009069068   0.11634   0.23838  -0.18820   0.15521
   9   26910.7    371.6   0.222181998   2.71806   1.02898   1.19845   0.47220
  10   27523.0    363.3   0.034550006   0.41327  -0.35506  -0.48662  -0.22450
  11   28070.2    356.2   0.166801242   1.95627   0.39369   0.35905   1.29320
  12   30132.6    331.9   0.022080920   0.24124  -0.12791  -0.01207  -0.47406
  13   30322.6    329.8   0.015973779   0.17343  -0.34770  -0.21196  -0.08720
  14   30948.8    323.1   0.051896725   0.55204   0.33702   0.60300  -0.27359
  15   32376.0    308.9   0.161377629   1.64095  -0.78641  -0.50581   0.87559
  16   32738.4    305.5   0.099181989   0.99736  -0.44559  -0.80474  -0.38885
  17   32983.1    303.2   0.052643886   0.52545  -0.65858  -0.29454  -0.07055
  18   33434.8    299.1   0.291552690   2.87074  -1.02602  -1.14048   0.71925
  19   34216.1    292.3   0.004921614   0.04735   0.15112  -0.01984  -0.15532
  20   34613.5    288.9   0.030557713   0.29064   0.20312   0.42559   0.26125
  21   35020.1    285.6   0.075873919   0.71326  -0.27804  -0.34285   0.72001
  22   35569.6    281.1   0.002708118   0.02506   0.13652   0.07192  -0.03544
  23   35650.7    280.5   0.046890799   0.43301   0.44193   0.38733  -0.29612
  24   36507.4    273.9   0.004304496   0.03882  -0.17467  -0.00214   0.09111
  25   36835.6    271.5   0.014052182   0.12559  -0.32747  -0.12111   0.06070
  26   37331.5    267.9   0.253550152   2.23596  -0.56228  -0.82076   1.11631
  27   37370.4    267.6   0.100244558   0.88310   0.41890   0.49726  -0.67849
  28   37506.6    266.6   0.052030814   0.45670   0.67146   0.04802   0.05944
  29   38343.5    260.8   0.113250166   0.97235   0.30496   0.41506  -0.84088
  30   38695.9    258.4   0.011863314   0.10093  -0.22935  -0.05536  -0.21275
  31   39042.8    256.1   0.085334530   0.71955  -0.13927  -0.71054   0.44192
  32   39197.3    255.1   0.069307548   0.58210   0.12911   0.69839  -0.27873
  33   39433.7    253.6   0.171121418   1.42861   0.35272   1.08511  -0.35599
  34   39827.6    251.1   0.001995913   0.01650  -0.04442   0.01594   0.11946
  35   39917.2    250.5   0.040891755   0.33725  -0.28380  -0.07322  -0.50134

FINAL SINGLE POINT ENERGY     -3567.404266600206

DIPOLE MOMENT
-------------
                                X             Y             Z
Electronic contribution:     -3.53111      -3.28834      14.06797
Nuclear contribution   :      5.75599       7.00221     -19.70599
                        -----------------------------------------
Total Dipole Moment    :      2.22487       3.71387      -5.63802
                        -----------------------------------------
Magnitude (a.u.)       :      7.10845
Magnitude (Debye)      :     18.06825

Rotational constants in cm-1:     0.001718     0.000310     0.000267
Rotational constants in MHz :    51.512549     9.291759     7.991759

                             ****ORCA TERMINATED NORMALLY****
TOTAL RUN TIME: 0 days 0 hours 7 minutes 28 seconds 310 msec
