                         Program Version 4.2.0 -  RELEASE  -
|  1> # ORCA input file
|  2> # SCF done       -153.361157555893          0.000780290026
|  3> ! CAM-B3LYP def2-SVP def2/J RIJCOSX Grid4 TightSCF
|  4> %maxcore 5000
|  5> %tddft
|  6>     Mode sTDDFT
|  7>     Ethresh 5.0
|  8>     maxcore 5000
|  9> end
| 10>
| 11> %pal
| 12>   nprocs 6
| 13>   end
| 14> * xyz 0 1
| 15>    C        0.06659        -4.16509        -1.97234
| 16>    C       -0.03463        -3.48549        -0.77675
| 17>    C       -1.20733        -2.81177        -0.44995
| 18>    N       -1.20953        -2.07350         0.78361
| 19>    O       -0.39258        -2.39028         1.62361
| 20>    O       -2.00884        -1.16797         0.91581
| 21>    C       -2.31977        -2.81803        -1.31031
| 22>    C       -2.18425        -3.51957        -2.51388
| 23>    C       -1.01530        -4.17392        -2.84351
| 24>    C       -3.57900        -2.18890        -0.96700
| 25>    C       -4.39749        -1.62023        -1.87037
| 26>    C       -5.64422        -0.99919        -1.55406
| 27>    S       -6.57276        -0.24908        -2.82214
| 28>    C       -7.83168         0.22169        -1.72120
| 29>    C       -7.51086        -0.18574        -0.42532
| 30>    C       -6.28375        -0.86859        -0.34374
| 31>    C       -8.26065         0.10255         0.72921
| 32>    N       -8.80509         0.33744         1.71119
| 33>    C       -8.95406         0.93315        -2.21836
| 34>    C      -10.10887         1.12291        -1.53080
| 35>    C      -11.27296         1.83218        -1.92295
| 36>    N      -11.45905         2.74079        -2.94652
| 37>    C      -10.48040         3.30704        -3.84389
| 38>    C       -9.46998         4.18996        -3.11726
| 39>    C      -12.77616         3.23937        -2.96325
| 40>    O      -13.16472         4.06827        -3.76671
| 41>    C      -13.44392         2.55535        -1.88401
| 42>    C      -12.49339         1.70755        -1.26695
| 43>    C      -13.15307         0.98042        -0.20508
| 44>    O      -12.77054         0.12953         0.56633
| 45>    N      -14.48049         1.46212        -0.23975
| 46>    C      -15.45416         1.01868         0.72724
| 47>    C      -15.64578         2.03603         1.84971
| 48>    C      -14.66593         2.39932        -1.22834
| 49>    C      -15.90299         3.04131        -1.48135
| 50>    C      -16.04309         3.99311        -2.44018
| 51>    C      -17.25232         4.67764        -2.72530
| 52>    S      -17.24870         5.93762        -3.93308
| 53>    C      -18.93441         6.25859        -3.69492
| 54>    C      -19.45772         5.40649        -2.72056
| 55>    C      -18.51046         4.52447        -2.17982
| 56>    C      -20.80625         5.43362        -2.32393
| 57>    N      -21.90571         5.44516        -1.99735
| 58>    C      -19.65281         7.26277        -4.40022
| 59>    C      -19.09810         8.06941        -5.32781
| 60>    C      -19.76365         9.11200        -6.06880
| 61>    C      -21.11108         9.43030        -5.90446
| 62>    C      -21.69963        10.44118        -6.64736
| 63>    N      -23.10927        10.65894        -6.44004
| 64>    O      -23.57650        10.29822        -5.38012
| 65>    O      -23.74950        11.17253        -7.33325
| 66>    C      -20.97280        11.19761        -7.58129
| 67>    C      -19.62121        10.87043        -7.73208
| 68>    C      -19.03504         9.85830        -7.00816
| 69>    C      -21.54573        12.31108        -8.32705
| 70>    C      -21.20659        12.61645        -9.57332
| 71>    H        0.97853        -4.68108        -2.22720
| 72>    H        0.78958        -3.44903        -0.08037
| 73>    H       -3.02984        -3.56751        -3.18237
| 74>    H       -0.94603        -4.70363        -3.78157
| 75>    H       -3.84703        -2.16115         0.07831
| 76>    H       -4.10783        -1.57559        -2.91212
| 77>    H       -5.88729        -1.23587         0.58536
| 78>    H       -8.84560         1.28978        -3.23170
| 79>    H      -10.21882         0.65262        -0.56185
| 80>    H      -11.05608         3.91514        -4.54917
| 81>    H       -9.98243         2.51383        -4.40798
| 82>    H       -9.98506         5.00693        -2.61791
| 83>    H       -8.76746         4.60827        -3.83299
| 84>    H       -8.91627         3.62472        -2.37132
| 85>    H      -15.06029         0.08672         1.14275
| 86>    H      -16.40247         0.80655         0.22478
| 87>    H      -14.70323         2.19644         2.36700
| 88>    H      -16.37496         1.66360         2.56388
| 89>    H      -15.99228         2.99050         1.45886
| 90>    H      -16.74956         2.75476        -0.87526
| 91>    H      -15.18219         4.27166        -3.03389
| 92>    H      -18.75312         3.80377        -1.41994
| 93>    H      -20.69837         7.34536        -4.13520
| 94>    H      -18.04587         7.93998        -5.55221
| 95>    H      -21.73237         8.89319        -5.20452
| 96>    H      -19.02627        11.44752        -8.42299
| 97>    H      -17.98860         9.63496        -7.15671
| 98>    H      -22.29744        12.89976        -7.81994
| 99>    H      -20.50890        12.02314       -10.14107
|100>    H      -21.64513        13.45663       -10.08183
|101> *
|102>
|103>                          ****END OF INPUT****

CARTESIAN COORDINATES (ANGSTROEM)
---------------------------------
  C      0.066590   -4.165090   -1.972340
  C     -0.034630   -3.485490   -0.776750
  C     -1.207330   -2.811770   -0.449950
  N     -1.209530   -2.073500    0.783610
  O     -0.392580   -2.390280    1.623610
  O     -2.008840   -1.167970    0.915810
  C     -2.319770   -2.818030   -1.310310
  C     -2.184250   -3.519570   -2.513880
  C     -1.015300   -4.173920   -2.843510
  C     -3.579000   -2.188900   -0.967000
  C     -4.397490   -1.620230   -1.870370
  C     -5.644220   -0.999190   -1.554060
  S     -6.572760   -0.249080   -2.822140
  C     -7.831680    0.221690   -1.721200
  C     -7.510860   -0.185740   -0.425320
  C     -6.283750   -0.868590   -0.343740
  C     -8.260650    0.102550    0.729210
  N     -8.805090    0.337440    1.711190
  C     -8.954060    0.933150   -2.218360
  C    -10.108870    1.122910   -1.530800
  C    -11.272960    1.832180   -1.922950
  N    -11.459050    2.740790   -2.946520
  C    -10.480400    3.307040   -3.843890
  C     -9.469980    4.189960   -3.117260
  C    -12.776160    3.239370   -2.963250
  O    -13.164720    4.068270   -3.766710
  C    -13.443920    2.555350   -1.884010
  C    -12.493390    1.707550   -1.266950
  C    -13.153070    0.980420   -0.205080
  O    -12.770540    0.129530    0.566330
  N    -14.480490    1.462120   -0.239750
  C    -15.454160    1.018680    0.727240
  C    -15.645780    2.036030    1.849710
  C    -14.665930    2.399320   -1.228340
  C    -15.902990    3.041310   -1.481350
  C    -16.043090    3.993110   -2.440180
  C    -17.252320    4.677640   -2.725300
  S    -17.248700    5.937620   -3.933080
  C    -18.934410    6.258590   -3.694920
  C    -19.457720    5.406490   -2.720560
  C    -18.510460    4.524470   -2.179820
  C    -20.806250    5.433620   -2.323930
  N    -21.905710    5.445160   -1.997350
  C    -19.652810    7.262770   -4.400220
  C    -19.098100    8.069410   -5.327810
  C    -19.763650    9.112000   -6.068800
  C    -21.111080    9.430300   -5.904460
  C    -21.699630   10.441180   -6.647360
  N    -23.109270   10.658940   -6.440040
  O    -23.576500   10.298220   -5.380120
  O    -23.749500   11.172530   -7.333250
  C    -20.972800   11.197610   -7.581290
  C    -19.621210   10.870430   -7.732080
  C    -19.035040    9.858300   -7.008160
  C    -21.545730   12.311080   -8.327050
  C    -21.206590   12.616450   -9.573320
  H      0.978530   -4.681080   -2.227200
  H      0.789580   -3.449030   -0.080370
  H     -3.029840   -3.567510   -3.182370
  H     -0.946030   -4.703630   -3.781570
  H     -3.847030   -2.161150    0.078310
  H     -4.107830   -1.575590   -2.912120
  H     -5.887290   -1.235870    0.585360
  H     -8.845600    1.289780   -3.231700
  H    -10.218820    0.652620   -0.561850
  H    -11.056080    3.915140   -4.549170
  H     -9.982430    2.513830   -4.407980
  H     -9.985060    5.006930   -2.617910
  H     -8.767460    4.608270   -3.832990
  H     -8.916270    3.624720   -2.371320
  H    -15.060290    0.086720    1.142750
  H    -16.402470    0.806550    0.224780
  H    -14.703230    2.196440    2.367000
  H    -16.374960    1.663600    2.563880
  H    -15.992280    2.990500    1.458860
  H    -16.749560    2.754760   -0.875260
  H    -15.182190    4.271660   -3.033890
  H    -18.753120    3.803770   -1.419940
  H    -20.698370    7.345360   -4.135200
  H    -18.045870    7.939980   -5.552210
  H    -21.732370    8.893190   -5.204520
  H    -19.026270   11.447520   -8.422990
  H    -17.988600    9.634960   -7.156710
  H    -22.297440   12.899760   -7.819940
  H    -20.508900   12.023140  -10.141070
  H    -21.645130   13.456630  -10.081830

 Total Charge           Charge          ....    0
 Multiplicity           Mult            ....    1
 Number of Electrons    NEL             ....  404
 Basis Dimension        Dim             ....  942

ORBITAL ENERGIES
----------------

  NO   OCC          E(Eh)            E(eV)
   0   2.0000     -88.979813     -2421.2638
   1   2.0000     -88.975783     -2421.1541
   2   2.0000     -19.245818      -523.7053
   3   2.0000     -19.243838      -523.6514
   4   2.0000     -19.243632      -523.6458
   5   2.0000     -19.241741      -523.5944
   6   2.0000     -19.189933      -522.1846
   7   2.0000     -19.189844      -522.1822
   8   2.0000     -14.650715      -398.6662
   9   2.0000     -14.648159      -398.5967
  10   2.0000     -14.453287      -393.2939
  11   2.0000     -14.452733      -393.2789
  12   2.0000     -14.410399      -392.1269
  13   2.0000     -14.403227      -391.9317
  14   2.0000     -10.373383      -282.2741
  15   2.0000     -10.372856      -282.2598
  16   2.0000     -10.344603      -281.4910
  17   2.0000     -10.335049      -281.2310
  18   2.0000     -10.334463      -281.2150
  19   2.0000     -10.334322      -281.2112
  20   2.0000     -10.333522      -281.1894
  21   2.0000     -10.329128      -281.0699
  22   2.0000     -10.323903      -280.9277
  23   2.0000     -10.321814      -280.8708
  24   2.0000     -10.319293      -280.8022
  25   2.0000     -10.316301      -280.7208
  26   2.0000     -10.316268      -280.7199
  27   2.0000     -10.311591      -280.5926
  28   2.0000     -10.310544      -280.5642
  29   2.0000     -10.308868      -280.5186
  30   2.0000     -10.307479      -280.4808
  31   2.0000     -10.304206      -280.3917
  32   2.0000     -10.304189      -280.3912
  33   2.0000     -10.304148      -280.3901
  34   2.0000     -10.303450      -280.3711
  35   2.0000     -10.302414      -280.3429
  36   2.0000     -10.302102      -280.3345
  37   2.0000     -10.301406      -280.3155
  38   2.0000     -10.301198      -280.3098
  39   2.0000     -10.300639      -280.2946
  40   2.0000     -10.299405      -280.2611
  41   2.0000     -10.298634      -280.2401
  42   2.0000     -10.298500      -280.2364
  43   2.0000     -10.296964      -280.1946
  44   2.0000     -10.296323      -280.1772
  45   2.0000     -10.295050      -280.1425
  46   2.0000     -10.294575      -280.1296
  47   2.0000     -10.294516      -280.1280
  48   2.0000     -10.293508      -280.1006
  49   2.0000     -10.293308      -280.0952
  50   2.0000     -10.282188      -279.7926
  51   2.0000     -10.272400      -279.5262
  52   2.0000     -10.263922      -279.2955
  53   2.0000     -10.263035      -279.2714
  54   2.0000     -10.262955      -279.2692
  55   2.0000     -10.260087      -279.1912
  56   2.0000      -8.075220      -219.7379
  57   2.0000      -8.071675      -219.6414
  58   2.0000      -6.044321      -164.4743
  59   2.0000      -6.040787      -164.3782
  60   2.0000      -6.040302      -164.3650
  61   2.0000      -6.037565      -164.2905
  62   2.0000      -6.036811      -164.2700
  63   2.0000      -6.033929      -164.1916
  64   2.0000      -1.325696       -36.0740
  65   2.0000      -1.323945       -36.0264
  66   2.0000      -1.143677       -31.1210
  67   2.0000      -1.142215       -31.0812
  68   2.0000      -1.132712       -30.8226
  69   2.0000      -1.125950       -30.6387
  70   2.0000      -1.062933       -28.9239
  71   2.0000      -1.053353       -28.6632
  72   2.0000      -1.017367       -27.6840
  73   2.0000      -1.011474       -27.5236
  74   2.0000      -0.992988       -27.0206
  75   2.0000      -0.991878       -26.9904
  76   2.0000      -0.989092       -26.9146
  77   2.0000      -0.982650       -26.7393
  78   2.0000      -0.935926       -25.4678
  79   2.0000      -0.929097       -25.2820
  80   2.0000      -0.925310       -25.1790
  81   2.0000      -0.917784       -24.9742
  82   2.0000      -0.905620       -24.6432
  83   2.0000      -0.903150       -24.5760
  84   2.0000      -0.899086       -24.4654
  85   2.0000      -0.888787       -24.1851
  86   2.0000      -0.877139       -23.8682
  87   2.0000      -0.871506       -23.7149
  88   2.0000      -0.869672       -23.6650
  89   2.0000      -0.858750       -23.3678
  90   2.0000      -0.848229       -23.0815
  91   2.0000      -0.830004       -22.5855
  92   2.0000      -0.820516       -22.3274
  93   2.0000      -0.819481       -22.2992
  94   2.0000      -0.798019       -21.7152
  95   2.0000      -0.792333       -21.5605
  96   2.0000      -0.785181       -21.3659
  97   2.0000      -0.774200       -21.0671
  98   2.0000      -0.760742       -20.7009
  99   2.0000      -0.750101       -20.4113
 100   2.0000      -0.744414       -20.2565
 101   2.0000      -0.728057       -19.8114
 102   2.0000      -0.717818       -19.5328
 103   2.0000      -0.712193       -19.3798
 104   2.0000      -0.707617       -19.2552
 105   2.0000      -0.698762       -19.0143
 106   2.0000      -0.688613       -18.7381
 107   2.0000      -0.681925       -18.5561
 108   2.0000      -0.679231       -18.4828
 109   2.0000      -0.675614       -18.3844
 110   2.0000      -0.667313       -18.1585
 111   2.0000      -0.655871       -17.8472
 112   2.0000      -0.651955       -17.7406
 113   2.0000      -0.643237       -17.5034
 114   2.0000      -0.639972       -17.4145
 115   2.0000      -0.635735       -17.2992
 116   2.0000      -0.632355       -17.2072
 117   2.0000      -0.628296       -17.0968
 118   2.0000      -0.625083       -17.0094
 119   2.0000      -0.618521       -16.8308
 120   2.0000      -0.615291       -16.7429
 121   2.0000      -0.599178       -16.3045
 122   2.0000      -0.595562       -16.2061
 123   2.0000      -0.594402       -16.1745
 124   2.0000      -0.591586       -16.0979
 125   2.0000      -0.588769       -16.0212
 126   2.0000      -0.585599       -15.9350
 127   2.0000      -0.581476       -15.8228
 128   2.0000      -0.577182       -15.7059
 129   2.0000      -0.566366       -15.4116
 130   2.0000      -0.564688       -15.3660
 131   2.0000      -0.558266       -15.1912
 132   2.0000      -0.554280       -15.0827
 133   2.0000      -0.552360       -15.0305
 134   2.0000      -0.547268       -14.8919
 135   2.0000      -0.542270       -14.7559
 136   2.0000      -0.539003       -14.6670
 137   2.0000      -0.535203       -14.5636
 138   2.0000      -0.534272       -14.5383
 139   2.0000      -0.531823       -14.4716
 140   2.0000      -0.526586       -14.3291
 141   2.0000      -0.520432       -14.1617
 142   2.0000      -0.518668       -14.1137
 143   2.0000      -0.517485       -14.0815
 144   2.0000      -0.515095       -14.0164
 145   2.0000      -0.510246       -13.8845
 146   2.0000      -0.509455       -13.8630
 147   2.0000      -0.507331       -13.8052
 148   2.0000      -0.506012       -13.7693
 149   2.0000      -0.499721       -13.5981
 150   2.0000      -0.486581       -13.2405
 151   2.0000      -0.486436       -13.2366
 152   2.0000      -0.483882       -13.1671
 153   2.0000      -0.482991       -13.1429
 154   2.0000      -0.477917       -13.0048
 155   2.0000      -0.475973       -12.9519
 156   2.0000      -0.474405       -12.9092
 157   2.0000      -0.471592       -12.8327
 158   2.0000      -0.466398       -12.6913
 159   2.0000      -0.462728       -12.5915
 160   2.0000      -0.456991       -12.4354
 161   2.0000      -0.455361       -12.3910
 162   2.0000      -0.453424       -12.3383
 163   2.0000      -0.451316       -12.2809
 164   2.0000      -0.450553       -12.2602
 165   2.0000      -0.449817       -12.2401
 166   2.0000      -0.447910       -12.1883
 167   2.0000      -0.441927       -12.0254
 168   2.0000      -0.441507       -12.0140
 169   2.0000      -0.439420       -11.9572
 170   2.0000      -0.438999       -11.9458
 171   2.0000      -0.437790       -11.9129
 172   2.0000      -0.434808       -11.8317
 173   2.0000      -0.433746       -11.8028
 174   2.0000      -0.429787       -11.6951
 175   2.0000      -0.429624       -11.6907
 176   2.0000      -0.421414       -11.4673
 177   2.0000      -0.418488       -11.3876
 178   2.0000      -0.413598       -11.2546
 179   2.0000      -0.408692       -11.1211
 180   2.0000      -0.400476       -10.8975
 181   2.0000      -0.395919       -10.7735
 182   2.0000      -0.389744       -10.6055
 183   2.0000      -0.383593       -10.4381
 184   2.0000      -0.383045       -10.4232
 185   2.0000      -0.380080       -10.3425
 186   2.0000      -0.379292       -10.3211
 187   2.0000      -0.369258       -10.0480
 188   2.0000      -0.364470        -9.9177
 189   2.0000      -0.354128        -9.6363
 190   2.0000      -0.348526        -9.4839
 191   2.0000      -0.347439        -9.4543
 192   2.0000      -0.346240        -9.4217
 193   2.0000      -0.340610        -9.2685
 194   2.0000      -0.335949        -9.1416
 195   2.0000      -0.333645        -9.0790
 196   2.0000      -0.331362        -9.0168
 197   2.0000      -0.320374        -8.7178
 198   2.0000      -0.315993        -8.5986
 199   2.0000      -0.284143        -7.7319
 200   2.0000      -0.274656        -7.4738
 201   2.0000      -0.232680        -6.3315
 202   0.0000      -0.097450        -2.6517
 203   0.0000      -0.067333        -1.8322
 204   0.0000      -0.054831        -1.4920
 205   0.0000      -0.047453        -1.2913
 206   0.0000      -0.035334        -0.9615

MULLIKEN ATOMIC CHARGES
-----------------------
   0 C :    0.023728
   1 C :   -0.008999
   2 C :    0.116667
   3 N :    0.243043
   4 O :   -0.233856
   5 O :   -0.234943
   6 C :    0.063371
   7 C :   -0.046411
   8 C :    0.062679
   9 C :    0.005012
  10 C :    0.059169
  11 C :   -0.076502
  12 S :    0.143718
  13 C :   -0.075305
  14 C :   -0.059637
  15 C :    0.014152
  16 C :   -0.189401
  17 N :    0.137135
  18 C :    0.055330
  19 C :   -0.046479
  20 C :    0.098452
  21 N :   -0.265446
  22 C :    0.097090
  23 C :   -0.001948
  24 C :    0.165126
  25 O :   -0.225775
  26 C :   -0.072267
  27 C :   -0.026064
  28 C :    0.153107
  29 O :   -0.176419
  30 N :   -0.267042
  31 C :    0.099386
  32 C :    0.002665
  33 C :    0.147931
  34 C :   -0.032018
  35 C :    0.084688
  36 C :   -0.076363
  37 S :    0.161922
  38 C :   -0.041785
  39 C :   -0.070430
  40 C :    0.019909
  41 C :   -0.189078
  42 N :    0.136754
  43 C :    0.013798
  44 C :   -0.005400
  45 C :    0.110909
  46 C :   -0.058816
  47 C :    0.141393
  48 N :    0.240982
  49 O :   -0.229930
  50 O :   -0.228255
  51 C :    0.037422
  52 C :   -0.033113
  53 C :    0.012276
  54 C :    0.002047
  55 C :   -0.021954
  56 H :    0.001414
  57 H :    0.013704
  58 H :   -0.009263
  59 H :    0.000118
  60 H :    0.016251
  61 H :   -0.012683
  62 H :    0.002954
  63 H :   -0.027254
  64 H :    0.029153
  65 H :    0.043869
  66 H :    0.023530
  67 H :    0.025611
  68 H :    0.020519
  69 H :    0.028949
  70 H :    0.046542
  71 H :    0.020405
  72 H :    0.034477
  73 H :    0.025060
  74 H :    0.013372
  75 H :   -0.027718
  76 H :    0.010253
  77 H :   -0.001261
  78 H :    0.018922
  79 H :   -0.009470
  80 H :    0.005384
  81 H :   -0.010063
  82 H :   -0.011353
  83 H :    0.017526
  84 H :    0.021583
  85 H :    0.033251
Sum of atomic charges:   -0.0000000

LOEWDIN ATOMIC CHARGES
----------------------
   0 C :   -0.019484
   1 C :    0.006313
   2 C :   -0.030943
   3 N :    0.285062
   4 O :   -0.200895
   5 O :   -0.195311
   6 C :   -0.002152
   7 C :   -0.011996
   8 C :    0.004674
   9 C :   -0.003251
  10 C :   -0.037530
  11 C :   -0.165202
  12 S :    0.455471
  13 C :   -0.143814
  14 C :   -0.098904
  15 C :   -0.018567
  16 C :   -0.033689
  17 N :   -0.044869
  18 C :   -0.041578
  19 C :   -0.011847
  20 C :    0.060183
  21 N :   -0.004661
  22 C :    0.034180
  23 C :   -0.062806
  24 C :    0.080035
  25 O :   -0.212543
  26 C :   -0.130977
  27 C :   -0.101236
  28 C :    0.081997
  29 O :   -0.179072
  30 N :   -0.005069
  31 C :    0.035791
  32 C :   -0.060898
  33 C :    0.086233
  34 C :   -0.046342
  35 C :    0.015252
  36 C :   -0.168178
  37 S :    0.475947
  38 C :   -0.134334
  39 C :   -0.104062
  40 C :   -0.016287
  41 C :   -0.035098
  42 N :   -0.049975
  43 C :   -0.033415
  44 C :   -0.005158
  45 C :   -0.029842
  46 C :    0.016421
  47 C :   -0.024999
  48 N :    0.283908
  49 O :   -0.199541
  50 O :   -0.188710
  51 C :    0.000949
  52 C :   -0.007823
  53 C :    0.008393
  54 C :   -0.018792
  55 C :   -0.029669
  56 H :    0.035434
  57 H :    0.042544
  58 H :    0.032883
  59 H :    0.035584
  60 H :    0.030688
  61 H :    0.027328
  62 H :    0.041315
  63 H :    0.027053
  64 H :    0.052812
  65 H :    0.036860
  66 H :    0.017897
  67 H :    0.031473
  68 H :    0.030069
  69 H :    0.023921
  70 H :    0.039276
  71 H :    0.021599
  72 H :    0.034401
  73 H :    0.031341
  74 H :    0.020827
  75 H :    0.028208
  76 H :    0.037551
  77 H :    0.038504
  78 H :    0.042474
  79 H :    0.025281
  80 H :    0.039709
  81 H :    0.035344
  82 H :    0.033582
  83 H :    0.033057
  84 H :    0.021916
  85 H :    0.029779

  Mayer bond orders larger than 0.100000
B(  0-C ,  1-C ) :   1.3707 B(  0-C ,  8-C ) :   1.3507 B(  0-C , 56-H ) :   0.9925
B(  1-C ,  2-C ) :   1.3882 B(  1-C , 57-H ) :   0.9866 B(  2-C ,  3-N ) :   0.8871
B(  2-C ,  6-C ) :   1.3469 B(  3-N ,  4-O ) :   1.5586 B(  3-N ,  5-O ) :   1.5205
B(  4-O ,  5-O ) :   0.2638 B(  6-C ,  7-C ) :   1.3635 B(  6-C ,  9-C ) :   1.0574
B(  7-C ,  8-C ) :   1.3941 B(  7-C , 58-H ) :   0.9905 B(  8-C , 59-H ) :   0.9912
B(  9-C , 10-C ) :   1.7731 B(  9-C , 60-H ) :   0.9416 B( 10-C , 11-C ) :   1.0943
B( 10-C , 61-H ) :   0.9589 B( 11-C , 12-S ) :   1.1155 B( 11-C , 15-C ) :   1.5018
B( 12-S , 13-C ) :   1.1352 B( 13-C , 14-C ) :   1.4505 B( 13-C , 18-C ) :   1.1490
B( 14-C , 15-C ) :   1.2950 B( 14-C , 16-C ) :   1.1115 B( 15-C , 62-H ) :   0.9994
B( 16-C , 17-N ) :   2.9942 B( 18-C , 19-C ) :   1.5940 B( 18-C , 63-H ) :   0.9487
B( 19-C , 20-C ) :   1.1971 B( 19-C , 64-H ) :   0.9366 B( 20-C , 21-N ) :   1.1532
B( 20-C , 27-C ) :   1.3620 B( 21-N , 22-C ) :   0.9463 B( 21-N , 24-C ) :   1.0670
B( 22-C , 23-C ) :   1.1165 B( 22-C , 65-H ) :   0.9227 B( 22-C , 66-H ) :   0.9501
B( 23-C , 67-H ) :   0.9621 B( 23-C , 68-H ) :   0.9671 B( 23-C , 69-H ) :   0.9667
B( 24-C , 25-O ) :   1.9981 B( 24-C , 26-C ) :   1.0013 B( 25-O , 76-H ) :   0.1194
B( 26-C , 27-C ) :   1.2444 B( 26-C , 33-C ) :   1.3150 B( 27-C , 28-C ) :   0.9672
B( 28-C , 29-O ) :   2.1450 B( 28-C , 30-N ) :   1.0231 B( 30-N , 31-C ) :   0.9448
B( 30-N , 33-C ) :   1.1720 B( 31-C , 32-C ) :   1.1211 B( 31-C , 70-H ) :   0.9267
B( 31-C , 71-H ) :   0.9499 B( 32-C , 72-H ) :   0.9636 B( 32-C , 73-H ) :   0.9679
B( 32-C , 74-H ) :   0.9683 B( 33-C , 34-C ) :   1.1707 B( 34-C , 35-C ) :   1.6200
B( 34-C , 75-H ) :   0.9626 B( 35-C , 36-C ) :   1.1224 B( 35-C , 76-H ) :   0.9335
B( 36-C , 37-S ) :   1.1202 B( 36-C , 40-C ) :   1.4722 B( 37-S , 38-C ) :   1.1348
B( 38-C , 39-C ) :   1.4364 B( 38-C , 43-C ) :   1.1777 B( 39-C , 40-C ) :   1.2933
B( 39-C , 41-C ) :   1.1005 B( 40-C , 77-H ) :   0.9996 B( 41-C , 42-N ) :   3.0210
B( 43-C , 44-C ) :   1.6727 B( 43-C , 78-H ) :   0.9546 B( 44-C , 45-C ) :   1.0780
B( 44-C , 79-H ) :   0.9842 B( 45-C , 46-C ) :   1.3008 B( 45-C , 53-C ) :   1.3168
B( 46-C , 47-C ) :   1.3866 B( 46-C , 80-H ) :   0.9870 B( 47-C , 48-N ) :   0.8764
B( 47-C , 51-C ) :   1.3545 B( 48-N , 49-O ) :   1.5502 B( 48-N , 50-O ) :   1.5298
B( 49-O , 50-O ) :   0.2676 B( 51-C , 52-C ) :   1.3589 B( 51-C , 54-C ) :   1.0448
B( 52-C , 53-C ) :   1.3885 B( 52-C , 81-H ) :   0.9907 B( 53-C , 82-H ) :   0.9991
B( 54-C , 55-C ) :   1.9703 B( 54-C , 83-H ) :   0.9454 B( 55-C , 84-H ) :   0.9618
B( 55-C , 85-H ) :   0.9521

-----------------------------------------------------------------------------
         ABSORPTION SPECTRUM VIA TRANSITION ELECTRIC DIPOLE MOMENTS
-----------------------------------------------------------------------------
State   Energy  Wavelength   fosc         T2         TX        TY        TZ
        (cm-1)    (nm)                  (au**2)     (au)      (au)      (au)
-----------------------------------------------------------------------------
   0   14584.5    685.7   1.254319293  28.31337   4.80208  -2.24340   0.46959
   1   22393.4    446.6   0.115478570   1.69768  -1.23142  -0.00324   0.42577
   2   24777.6    403.6   0.510850994   6.78751  -0.43440   1.92020  -1.70635
   3   25648.6    389.9   0.808674500  10.37970   2.33845  -1.87659   1.17888
   4   26381.2    379.1   0.106617513   1.33048   0.02851  -0.77487   0.85396
   5   26916.7    371.5   0.025420105   0.31091  -0.20040   0.39290  -0.34114
   6   28655.5    349.0   0.080157123   0.92089   0.22837  -0.78549   0.50175
   7   28841.1    346.7   0.106036498   1.21037  -0.29570   0.82194  -0.66884
   8   29514.3    338.8   0.082877192   0.92444   0.71857  -0.58480   0.25709
   9   32027.3    312.2   0.005345245   0.05494   0.00402   0.11629  -0.20348
  10   32278.1    309.8   0.009274797   0.09460   0.02564   0.12075   0.28171
  11   32886.7    304.1   0.305581207   3.05902  -0.17559   1.33640  -1.11455
  12   33927.0    294.8   0.168560433   1.63563  -1.20979   0.38230   0.16087
  13   34070.1    293.5   0.005104878   0.04933  -0.19497   0.10410   0.02187
  14   35160.1    284.4   0.023824279   0.22307  -0.41101   0.22764  -0.04824
  15   36070.8    277.2   0.082261456   0.75079  -0.68998   0.49780   0.16404
  16   36550.2    273.6   0.069725005   0.62802  -0.19139  -0.55926   0.52785
  17   36975.5    270.4   0.097077187   0.86433  -0.55129  -0.08512   0.74375
  18   37799.2    264.6   0.031522479   0.27454   0.17236   0.26707   0.41655
  19   38097.4    262.5   0.072787077   0.62898   0.27384  -0.29015   0.68542
  20   38561.6    259.3   0.040520416   0.34594  -0.58029   0.06859  -0.06703
  21   38872.8    257.2   0.096449602   0.81683   0.27522   0.45959  -0.72792
  22   39786.4    251.3   0.078942911   0.65321  -0.04705  -0.49038   0.64072
  23   40027.4    249.8   0.084516103   0.69512   0.55212  -0.47283   0.40831
  24   40314.0    248.1   0.072014445   0.58808   0.47776  -0.53499   0.27131

FINAL SINGLE POINT ENERGY     -3191.292792918943

DIPOLE MOMENT
-------------
                                X             Y             Z
Electronic contribution:     -0.48133      -6.62375       4.91947
Nuclear contribution   :      3.60734       5.80879      -8.13931
                        -----------------------------------------
Total Dipole Moment    :      3.12601      -0.81495      -3.21984
                        -----------------------------------------
Magnitude (a.u.)       :      4.56108
Magnitude (Debye)      :     11.59334

Rotational constants in cm-1:     0.003704     0.000286     0.000270
Rotational constants in MHz :   111.039037     8.575966     8.089306

                             ****ORCA TERMINATED NORMALLY****
TOTAL RUN TIME: 0 days 0 hours 6 minutes 42 seconds 617 msec
