                         Program Version 4.2.0 -  RELEASE  -
|  1> # ORCA input file
|  2> # SCF done       -197.364692993035          0.000917331008
|  3> ! CAM-B3LYP def2-SVP def2/J RIJCOSX Grid4 TightSCF
|  4> %maxcore 5000
|  5> %tddft
|  6>     Mode sTDDFT
|  7>     Ethresh 5.0
|  8>     maxcore 5000
|  9> end
| 10>
| 11> %pal
| 12>   nprocs 6
| 13>   end
| 14> * xyz 0 1
| 15>    C        1.22397         2.78383         4.04499
| 16>    C        1.87359         3.81784         3.38369
| 17>    C        2.82531         3.55674         2.40684
| 18>    C        3.11012         2.23647         2.11144
| 19>    C        2.45429         1.19344         2.77921
| 20>    C        1.50474         1.45705         3.74894
| 21>    C        2.93800        -0.11119         2.28233
| 22>    O        2.48887        -1.20701         2.55630
| 23>    C        4.01048         0.20040         1.31701
| 24>    C        4.06529         1.67761         1.13174
| 25>    O        4.75598         2.27330         0.33917
| 26>    C        4.82739        -0.60991         0.60316
| 27>    C        5.01977        -2.01848         0.68566
| 28>    S        5.44768        -2.84254        -0.78658
| 29>    C        5.52705        -4.37216         0.02112
| 30>    C        5.24589        -4.23261         1.37610
| 31>    C        4.98433        -2.90486         1.75304
| 32>    C        4.85971        -2.53321         3.19493
| 33>    N        5.54227        -1.24393         3.46157
| 34>    O        4.96350        -0.44296         4.15469
| 35>    O        6.64488        -1.09580         2.99576
| 36>    C        5.53970        -3.59919         4.06076
| 37>    C        4.91000        -4.95431         3.76946
| 38>    C        5.17329        -5.38625         2.32133
| 39>    N        4.07706        -6.35079         1.92717
| 40>    O        3.78065        -7.16722         2.75855
| 41>    O        3.57752        -6.24008         0.83957
| 42>    C        5.85380        -5.58460        -0.62582
| 43>    C        5.96553        -5.78695        -1.96220
| 44>    C        6.22621        -7.09031        -2.45311
| 45>    N        6.34550        -7.42075        -3.77757
| 46>    C        6.34105        -6.50802        -4.89413
| 47>    C        7.66267        -5.75324        -5.01347
| 48>    C        6.53084        -8.81019        -3.96396
| 49>    O        6.64949        -9.32774        -5.05118
| 50>    C        6.52331        -9.34531        -2.61889
| 51>    C        6.34295        -8.27255        -1.71609
| 52>    C        6.31977        -8.82970        -0.38538
| 53>    O        6.23800        -8.30220         0.71456
| 54>    N        6.45462       -10.21161        -0.56874
| 55>    C        6.49053       -11.07992         0.58464
| 56>    C        5.09217       -11.53793         0.99326
| 57>    C        6.57189       -10.53984        -1.90361
| 58>    C        6.72796       -11.80841        -2.52040
| 59>    C        6.49304       -13.03489        -1.99245
| 60>    C        6.65001       -14.28736        -2.66785
| 61>    C        7.30857       -14.52152        -3.87097
| 62>    F        7.91665       -13.51603        -4.51763
| 63>    C        7.41189       -15.78682        -4.46854
| 64>    F        8.08197       -15.83154        -5.62630
| 65>    C        6.86273       -16.94502        -3.92566
| 66>    C        6.18937       -16.74645        -2.68684
| 67>    C        6.09544       -15.45427        -2.06936
| 68>    N        5.43343       -15.49964        -0.91570
| 69>    S        4.97521       -17.01590        -0.63772
| 70>    N        5.59087       -17.68748        -1.96074
| 71>    C        6.91498       -18.26554        -4.47696
| 72>    C        7.55019       -18.67077        -5.60354
| 73>    C        7.50728       -20.02977        -6.01664
| 74>    C        8.13745       -20.53528        -7.10748
| 75>    C        8.05345       -21.96384        -7.49230
| 76>    O        7.43927       -22.83475        -6.91664
| 77>    C        8.87454       -22.09866        -8.71833
| 78>    C        9.13381       -23.22054        -9.48454
| 79>    C        9.94880       -23.07862       -10.59984
| 80>    C       10.48994       -21.84507       -10.93853
| 81>    C       10.23156       -20.71663       -10.17209
| 82>    C        9.42026       -20.85436        -9.06056
| 83>    C        8.99490       -19.82331        -8.08200
| 84>    O        9.29909       -18.65115        -8.09149
| 85>    H        0.48938         3.01694         4.80146
| 86>    H        1.63476         4.84071         3.63483
| 87>    H        3.33617         4.35386         1.88892
| 88>    H        1.00539         0.64714         4.25800
| 89>    H        5.40179        -0.11232        -0.17434
| 90>    H        3.80800        -2.40276         3.48338
| 91>    H        5.41199        -3.35209         5.11565
| 92>    H        6.60825        -3.61778         3.83211
| 93>    H        3.83245        -4.88327         3.93610
| 94>    H        5.30027        -5.70635         4.45422
| 95>    H        6.08757        -5.98980         2.25757
| 96>    H        6.01393        -6.43300         0.02369
| 97>    H        5.81551        -4.97515        -2.65927
| 98>    H        5.50325        -5.81189        -4.79512
| 99>    H        6.18645        -7.12317        -5.78498
|100>    H        7.85566        -5.16117        -4.12148
|101>    H        7.63140        -5.09052        -5.87369
|102>    H        8.48080        -6.45680        -5.14663
|103>    H        6.91945       -10.48863         1.39999
|104>    H        7.14990       -11.92490         0.37806
|105>    H        4.49464       -10.67516         1.27737
|106>    H        5.15921       -12.20988         1.84439
|107>    H        4.58928       -12.05259         0.17764
|108>    H        7.01761       -11.71769        -3.55846
|109>    H        6.08905       -13.14828        -0.99848
|110>    H        6.37583       -18.99756        -3.88752
|111>    H        8.11253       -17.99048        -6.22476
|112>    H        6.92814       -20.72601        -5.41724
|113>    H        8.70974       -24.17538        -9.21362
|114>    H       10.16774       -23.94030       -11.21330
|115>    H       11.12168       -21.76429       -11.81083
|116>    H       10.64743       -19.75383       -10.42639
|117> *
|118>
|119>                          ****END OF INPUT****

CARTESIAN COORDINATES (ANGSTROEM)
---------------------------------
  C      1.223970    2.783830    4.044990
  C      1.873590    3.817840    3.383690
  C      2.825310    3.556740    2.406840
  C      3.110120    2.236470    2.111440
  C      2.454290    1.193440    2.779210
  C      1.504740    1.457050    3.748940
  C      2.938000   -0.111190    2.282330
  O      2.488870   -1.207010    2.556300
  C      4.010480    0.200400    1.317010
  C      4.065290    1.677610    1.131740
  O      4.755980    2.273300    0.339170
  C      4.827390   -0.609910    0.603160
  C      5.019770   -2.018480    0.685660
  S      5.447680   -2.842540   -0.786580
  C      5.527050   -4.372160    0.021120
  C      5.245890   -4.232610    1.376100
  C      4.984330   -2.904860    1.753040
  C      4.859710   -2.533210    3.194930
  N      5.542270   -1.243930    3.461570
  O      4.963500   -0.442960    4.154690
  O      6.644880   -1.095800    2.995760
  C      5.539700   -3.599190    4.060760
  C      4.910000   -4.954310    3.769460
  C      5.173290   -5.386250    2.321330
  N      4.077060   -6.350790    1.927170
  O      3.780650   -7.167220    2.758550
  O      3.577520   -6.240080    0.839570
  C      5.853800   -5.584600   -0.625820
  C      5.965530   -5.786950   -1.962200
  C      6.226210   -7.090310   -2.453110
  N      6.345500   -7.420750   -3.777570
  C      6.341050   -6.508020   -4.894130
  C      7.662670   -5.753240   -5.013470
  C      6.530840   -8.810190   -3.963960
  O      6.649490   -9.327740   -5.051180
  C      6.523310   -9.345310   -2.618890
  C      6.342950   -8.272550   -1.716090
  C      6.319770   -8.829700   -0.385380
  O      6.238000   -8.302200    0.714560
  N      6.454620  -10.211610   -0.568740
  C      6.490530  -11.079920    0.584640
  C      5.092170  -11.537930    0.993260
  C      6.571890  -10.539840   -1.903610
  C      6.727960  -11.808410   -2.520400
  C      6.493040  -13.034890   -1.992450
  C      6.650010  -14.287360   -2.667850
  C      7.308570  -14.521520   -3.870970
  F      7.916650  -13.516030   -4.517630
  C      7.411890  -15.786820   -4.468540
  F      8.081970  -15.831540   -5.626300
  C      6.862730  -16.945020   -3.925660
  C      6.189370  -16.746450   -2.686840
  C      6.095440  -15.454270   -2.069360
  N      5.433430  -15.499640   -0.915700
  S      4.975210  -17.015900   -0.637720
  N      5.590870  -17.687480   -1.960740
  C      6.914980  -18.265540   -4.476960
  C      7.550190  -18.670770   -5.603540
  C      7.507280  -20.029770   -6.016640
  C      8.137450  -20.535280   -7.107480
  C      8.053450  -21.963840   -7.492300
  O      7.439270  -22.834750   -6.916640
  C      8.874540  -22.098660   -8.718330
  C      9.133810  -23.220540   -9.484540
  C      9.948800  -23.078620  -10.599840
  C     10.489940  -21.845070  -10.938530
  C     10.231560  -20.716630  -10.172090
  C      9.420260  -20.854360   -9.060560
  C      8.994900  -19.823310   -8.082000
  O      9.299090  -18.651150   -8.091490
  H      0.489380    3.016940    4.801460
  H      1.634760    4.840710    3.634830
  H      3.336170    4.353860    1.888920
  H      1.005390    0.647140    4.258000
  H      5.401790   -0.112320   -0.174340
  H      3.808000   -2.402760    3.483380
  H      5.411990   -3.352090    5.115650
  H      6.608250   -3.617780    3.832110
  H      3.832450   -4.883270    3.936100
  H      5.300270   -5.706350    4.454220
  H      6.087570   -5.989800    2.257570
  H      6.013930   -6.433000    0.023690
  H      5.815510   -4.975150   -2.659270
  H      5.503250   -5.811890   -4.795120
  H      6.186450   -7.123170   -5.784980
  H      7.855660   -5.161170   -4.121480
  H      7.631400   -5.090520   -5.873690
  H      8.480800   -6.456800   -5.146630
  H      6.919450  -10.488630    1.399990
  H      7.149900  -11.924900    0.378060
  H      4.494640  -10.675160    1.277370
  H      5.159210  -12.209880    1.844390
  H      4.589280  -12.052590    0.177640
  H      7.017610  -11.717690   -3.558460
  H      6.089050  -13.148280   -0.998480
  H      6.375830  -18.997560   -3.887520
  H      8.112530  -17.990480   -6.224760
  H      6.928140  -20.726010   -5.417240
  H      8.709740  -24.175380   -9.213620
  H     10.167740  -23.940300  -11.213300
  H     11.121680  -21.764290  -11.810830
  H     10.647430  -19.753830  -10.426390

 Total Charge           Charge          ....    0
 Multiplicity           Mult            ....    1
 Number of Electrons    NEL             ....  504
 Basis Dimension        Dim             .... 1148

ORBITAL ENERGIES
----------------

  NO   OCC          E(Eh)            E(eV)
   0   2.0000     -89.032062     -2422.6856
   1   2.0000     -88.976379     -2421.1704
   2   2.0000     -24.804252      -674.9580
   3   2.0000     -24.803618      -674.9408
   4   2.0000     -19.251888      -523.8705
   5   2.0000     -19.250579      -523.8349
   6   2.0000     -19.245596      -523.6993
   7   2.0000     -19.243822      -523.6510
   8   2.0000     -19.215455      -522.8791
   9   2.0000     -19.211555      -522.7730
  10   2.0000     -19.205069      -522.5965
  11   2.0000     -19.201731      -522.5057
  12   2.0000     -19.193224      -522.2742
  13   2.0000     -19.193013      -522.2684
  14   2.0000     -14.647899      -398.5896
  15   2.0000     -14.642488      -398.4424
  16   2.0000     -14.455656      -393.3584
  17   2.0000     -14.454703      -393.3325
  18   2.0000     -14.447795      -393.1445
  19   2.0000     -14.446677      -393.1141
  20   2.0000     -10.388000      -282.6719
  21   2.0000     -10.385458      -282.6027
  22   2.0000     -10.376449      -282.3575
  23   2.0000     -10.374572      -282.3065
  24   2.0000     -10.367354      -282.1101
  25   2.0000     -10.361253      -281.9440
  26   2.0000     -10.355600      -281.7902
  27   2.0000     -10.352085      -281.6946
  28   2.0000     -10.346251      -281.5358
  29   2.0000     -10.340661      -281.3837
  30   2.0000     -10.336621      -281.2738
  31   2.0000     -10.336337      -281.2660
  32   2.0000     -10.334502      -281.2161
  33   2.0000     -10.334256      -281.2094
  34   2.0000     -10.325317      -280.9661
  35   2.0000     -10.323197      -280.9085
  36   2.0000     -10.318345      -280.7764
  37   2.0000     -10.315217      -280.6913
  38   2.0000     -10.312042      -280.6049
  39   2.0000     -10.310141      -280.5532
  40   2.0000     -10.310054      -280.5508
  41   2.0000     -10.305518      -280.4274
  42   2.0000     -10.304316      -280.3947
  43   2.0000     -10.300870      -280.3009
  44   2.0000     -10.299147      -280.2540
  45   2.0000     -10.297484      -280.2088
  46   2.0000     -10.297091      -280.1981
  47   2.0000     -10.296799      -280.1901
  48   2.0000     -10.295616      -280.1580
  49   2.0000     -10.295460      -280.1537
  50   2.0000     -10.293326      -280.0957
  51   2.0000     -10.290193      -280.0104
  52   2.0000     -10.289873      -280.0017
  53   2.0000     -10.289408      -279.9890
  54   2.0000     -10.289323      -279.9867
  55   2.0000     -10.286813      -279.9184
  56   2.0000     -10.286584      -279.9122
  57   2.0000     -10.286190      -279.9015
  58   2.0000     -10.285463      -279.8817
  59   2.0000     -10.285101      -279.8718
  60   2.0000     -10.284353      -279.8515
  61   2.0000     -10.284186      -279.8469
  62   2.0000     -10.280490      -279.7464
  63   2.0000     -10.280136      -279.7367
  64   2.0000     -10.279036      -279.7068
  65   2.0000     -10.271639      -279.5055
  66   2.0000     -10.265798      -279.3466
  67   2.0000     -10.263551      -279.2854
  68   2.0000     -10.260314      -279.1973
  69   2.0000     -10.257352      -279.1167
  70   2.0000      -8.123778      -221.0592
  71   2.0000      -8.071996      -219.6502
  72   2.0000      -6.095022      -165.8540
  73   2.0000      -6.087354      -165.6453
  74   2.0000      -6.086038      -165.6095
  75   2.0000      -6.041047      -164.3853
  76   2.0000      -6.037163      -164.2796
  77   2.0000      -6.034269      -164.2008
  78   2.0000      -1.331867       -36.2420
  79   2.0000      -1.329058       -36.1655
  80   2.0000      -1.327028       -36.1103
  81   2.0000      -1.309850       -35.6428
  82   2.0000      -1.152194       -31.3528
  83   2.0000      -1.149030       -31.2667
  84   2.0000      -1.135150       -30.8890
  85   2.0000      -1.134335       -30.8668
  86   2.0000      -1.130926       -30.7741
  87   2.0000      -1.128159       -30.6988
  88   2.0000      -1.124632       -30.6028
  89   2.0000      -1.120660       -30.4947
  90   2.0000      -1.113942       -30.3119
  91   2.0000      -1.065460       -28.9926
  92   2.0000      -1.055480       -28.7211
  93   2.0000      -1.019061       -27.7301
  94   2.0000      -0.991160       -26.9708
  95   2.0000      -0.982313       -26.7301
  96   2.0000      -0.979305       -26.6482
  97   2.0000      -0.972228       -26.4557
  98   2.0000      -0.962364       -26.1873
  99   2.0000      -0.941359       -25.6157
 100   2.0000      -0.929845       -25.3024
 101   2.0000      -0.926561       -25.2130
 102   2.0000      -0.922054       -25.0904
 103   2.0000      -0.914533       -24.8857
 104   2.0000      -0.911012       -24.7899
 105   2.0000      -0.896255       -24.3883
 106   2.0000      -0.881638       -23.9906
 107   2.0000      -0.874104       -23.7856
 108   2.0000      -0.868412       -23.6307
 109   2.0000      -0.865116       -23.5410
 110   2.0000      -0.854019       -23.2390
 111   2.0000      -0.853486       -23.2245
 112   2.0000      -0.847967       -23.0744
 113   2.0000      -0.838659       -22.8211
 114   2.0000      -0.832042       -22.6410
 115   2.0000      -0.827562       -22.5191
 116   2.0000      -0.820182       -22.3183
 117   2.0000      -0.801268       -21.8036
 118   2.0000      -0.789607       -21.4863
 119   2.0000      -0.769172       -20.9302
 120   2.0000      -0.760108       -20.6836
 121   2.0000      -0.758942       -20.6518
 122   2.0000      -0.750937       -20.4340
 123   2.0000      -0.735928       -20.0256
 124   2.0000      -0.731040       -19.8926
 125   2.0000      -0.729012       -19.8374
 126   2.0000      -0.727578       -19.7984
 127   2.0000      -0.721444       -19.6315
 128   2.0000      -0.715581       -19.4720
 129   2.0000      -0.710566       -19.3355
 130   2.0000      -0.706339       -19.2205
 131   2.0000      -0.695111       -18.9149
 132   2.0000      -0.688738       -18.7415
 133   2.0000      -0.685705       -18.6590
 134   2.0000      -0.674134       -18.3441
 135   2.0000      -0.671924       -18.2840
 136   2.0000      -0.666337       -18.1319
 137   2.0000      -0.656122       -17.8540
 138   2.0000      -0.653590       -17.7851
 139   2.0000      -0.652602       -17.7582
 140   2.0000      -0.649314       -17.6687
 141   2.0000      -0.644831       -17.5467
 142   2.0000      -0.644179       -17.5290
 143   2.0000      -0.639288       -17.3959
 144   2.0000      -0.638947       -17.3866
 145   2.0000      -0.630679       -17.1616
 146   2.0000      -0.628955       -17.1147
 147   2.0000      -0.626709       -17.0536
 148   2.0000      -0.623293       -16.9607
 149   2.0000      -0.618423       -16.8281
 150   2.0000      -0.611679       -16.6446
 151   2.0000      -0.596956       -16.2440
 152   2.0000      -0.594549       -16.1785
 153   2.0000      -0.593937       -16.1618
 154   2.0000      -0.591330       -16.0909
 155   2.0000      -0.587690       -15.9919
 156   2.0000      -0.584154       -15.8956
 157   2.0000      -0.579168       -15.7600
 158   2.0000      -0.578730       -15.7480
 159   2.0000      -0.574132       -15.6229
 160   2.0000      -0.572934       -15.5903
 161   2.0000      -0.565350       -15.3839
 162   2.0000      -0.564337       -15.3564
 163   2.0000      -0.562150       -15.2969
 164   2.0000      -0.556041       -15.1306
 165   2.0000      -0.553782       -15.0692
 166   2.0000      -0.552750       -15.0411
 167   2.0000      -0.550882       -14.9903
 168   2.0000      -0.548643       -14.9293
 169   2.0000      -0.545425       -14.8418
 170   2.0000      -0.539222       -14.6730
 171   2.0000      -0.535436       -14.5700
 172   2.0000      -0.533512       -14.5176
 173   2.0000      -0.531293       -14.4572
 174   2.0000      -0.530283       -14.4297
 175   2.0000      -0.528846       -14.3906
 176   2.0000      -0.527359       -14.3502
 177   2.0000      -0.525879       -14.3099
 178   2.0000      -0.522552       -14.2194
 179   2.0000      -0.522303       -14.2126
 180   2.0000      -0.521134       -14.1808
 181   2.0000      -0.517556       -14.0834
 182   2.0000      -0.516880       -14.0650
 183   2.0000      -0.514220       -13.9926
 184   2.0000      -0.513653       -13.9772
 185   2.0000      -0.509948       -13.8764
 186   2.0000      -0.509169       -13.8552
 187   2.0000      -0.508600       -13.8397
 188   2.0000      -0.503688       -13.7060
 189   2.0000      -0.500436       -13.6175
 190   2.0000      -0.499746       -13.5988
 191   2.0000      -0.498062       -13.5529
 192   2.0000      -0.489808       -13.3283
 193   2.0000      -0.485948       -13.2233
 194   2.0000      -0.484080       -13.1725
 195   2.0000      -0.479163       -13.0387
 196   2.0000      -0.474279       -12.9058
 197   2.0000      -0.473982       -12.8977
 198   2.0000      -0.472871       -12.8675
 199   2.0000      -0.467119       -12.7110
 200   2.0000      -0.465737       -12.6734
 201   2.0000      -0.464976       -12.6526
 202   2.0000      -0.462339       -12.5809
 203   2.0000      -0.459530       -12.5044
 204   2.0000      -0.457521       -12.4498
 205   2.0000      -0.456325       -12.4172
 206   2.0000      -0.453515       -12.3408
 207   2.0000      -0.452496       -12.3130
 208   2.0000      -0.451818       -12.2946
 209   2.0000      -0.450844       -12.2681
 210   2.0000      -0.448679       -12.2092
 211   2.0000      -0.446129       -12.1398
 212   2.0000      -0.444348       -12.0913
 213   2.0000      -0.444064       -12.0836
 214   2.0000      -0.439670       -11.9640
 215   2.0000      -0.438125       -11.9220
 216   2.0000      -0.436309       -11.8726
 217   2.0000      -0.433148       -11.7865
 218   2.0000      -0.432839       -11.7781
 219   2.0000      -0.430666       -11.7190
 220   2.0000      -0.427186       -11.6243
 221   2.0000      -0.425670       -11.5831
 222   2.0000      -0.417272       -11.3546
 223   2.0000      -0.409947       -11.1552
 224   2.0000      -0.400660       -10.9025
 225   2.0000      -0.399170       -10.8620
 226   2.0000      -0.386730       -10.5234
 227   2.0000      -0.385587       -10.4924
 228   2.0000      -0.383657       -10.4398
 229   2.0000      -0.378973       -10.3124
 230   2.0000      -0.377931       -10.2840
 231   2.0000      -0.374449       -10.1893
 232   2.0000      -0.368822       -10.0362
 233   2.0000      -0.367629       -10.0037
 234   2.0000      -0.354007        -9.6330
 235   2.0000      -0.351256        -9.5582
 236   2.0000      -0.349988        -9.5237
 237   2.0000      -0.339077        -9.2268
 238   2.0000      -0.337780        -9.1915
 239   2.0000      -0.337262        -9.1774
 240   2.0000      -0.336400        -9.1539
 241   2.0000      -0.334564        -9.1040
 242   2.0000      -0.333613        -9.0781
 243   2.0000      -0.333043        -9.0626
 244   2.0000      -0.332509        -9.0480
 245   2.0000      -0.326338        -8.8801
 246   2.0000      -0.323496        -8.8028
 247   2.0000      -0.316569        -8.6143
 248   2.0000      -0.312334        -8.4990
 249   2.0000      -0.293285        -7.9807
 250   2.0000      -0.279647        -7.6096
 251   2.0000      -0.235178        -6.3995
 252   0.0000      -0.104968        -2.8563
 253   0.0000      -0.083032        -2.2594
 254   0.0000      -0.055968        -1.5230
 255   0.0000      -0.046305        -1.2600
 256   0.0000      -0.041937        -1.1412

MULLIKEN ATOMIC CHARGES
-----------------------
   0 C :    0.038292
   1 C :    0.040423
   2 C :   -0.023941
   3 C :    0.023670
   4 C :   -0.004836
   5 C :   -0.015567
   6 C :    0.186401
   7 O :   -0.176300
   8 C :   -0.150269
   9 C :    0.148108
  10 O :   -0.139338
  11 C :   -0.007987
  12 C :   -0.120713
  13 S :    0.161647
  14 C :   -0.053883
  15 C :   -0.075560
  16 C :    0.060276
  17 C :    0.097791
  18 N :    0.179739
  19 O :   -0.223029
  20 O :   -0.210685
  21 C :    0.068046
  22 C :    0.093330
  23 C :    0.088314
  24 N :    0.210292
  25 O :   -0.222411
  26 O :   -0.210485
  27 C :    0.038700
  28 C :   -0.038612
  29 C :    0.145956
  30 N :   -0.264229
  31 C :    0.097166
  32 C :    0.000977
  33 C :    0.153111
  34 O :   -0.179770
  35 C :   -0.042242
  36 C :   -0.075729
  37 C :    0.182248
  38 O :   -0.254410
  39 N :   -0.255906
  40 C :    0.104624
  41 C :    0.003895
  42 C :    0.105272
  43 C :   -0.010963
  44 C :   -0.044756
  45 C :    0.033543
  46 C :    0.169104
  47 F :   -0.161774
  48 C :    0.181506
  49 F :   -0.154000
  50 C :    0.026174
  51 C :    0.017437
  52 C :    0.004725
  53 N :   -0.285185
  54 S :    0.515634
  55 N :   -0.279262
  56 C :   -0.022870
  57 C :    0.023286
  58 C :   -0.028108
  59 C :   -0.132100
  60 C :    0.160737
  61 O :   -0.145431
  62 C :   -0.000967
  63 C :   -0.022638
  64 C :    0.038990
  65 C :    0.038796
  66 C :   -0.020581
  67 C :   -0.012160
  68 C :    0.171722
  69 O :   -0.146891
  70 H :   -0.000370
  71 H :   -0.001188
  72 H :   -0.004427
  73 H :   -0.006719
  74 H :    0.027156
  75 H :    0.067268
  76 H :    0.028492
  77 H :    0.030431
  78 H :    0.025935
  79 H :    0.033809
  80 H :    0.073370
  81 H :    0.010157
  82 H :   -0.023645
  83 H :    0.025652
  84 H :    0.046570
  85 H :    0.015089
  86 H :    0.026323
  87 H :    0.030850
  88 H :    0.033319
  89 H :    0.025189
  90 H :    0.036617
  91 H :    0.021161
  92 H :    0.025811
  93 H :    0.023562
  94 H :   -0.000715
  95 H :    0.009270
  96 H :    0.035767
  97 H :    0.008426
  98 H :   -0.007298
  99 H :   -0.002812
 100 H :   -0.002279
 101 H :   -0.007117
Sum of atomic charges:   -0.0000000

LOEWDIN ATOMIC CHARGES
----------------------
   0 C :   -0.001824
   1 C :   -0.002028
   2 C :    0.012101
   3 C :   -0.043021
   4 C :   -0.038075
   5 C :    0.013043
   6 C :    0.078807
   7 O :   -0.151217
   8 C :   -0.115198
   9 C :    0.083060
  10 O :   -0.137022
  11 C :    0.040482
  12 C :   -0.164010
  13 S :    0.474411
  14 C :   -0.153265
  15 C :   -0.060279
  16 C :   -0.033811
  17 C :    0.009207
  18 N :    0.277097
  19 O :   -0.189010
  20 O :   -0.190376
  21 C :   -0.017639
  22 C :   -0.021193
  23 C :    0.016322
  24 N :    0.275791
  25 O :   -0.189278
  26 O :   -0.178154
  27 C :    0.022466
  28 C :   -0.050601
  29 C :    0.090228
  30 N :   -0.003301
  31 C :    0.036341
  32 C :   -0.060908
  33 C :    0.083340
  34 O :   -0.182656
  35 C :   -0.105076
  36 C :   -0.131375
  37 C :    0.083508
  38 O :   -0.228591
  39 N :    0.006201
  40 C :    0.036235
  41 C :   -0.061626
  42 C :    0.061117
  43 C :   -0.009683
  44 C :   -0.014388
  45 C :   -0.049161
  46 C :    0.072605
  47 F :   -0.034197
  48 C :    0.083696
  49 F :   -0.027223
  50 C :   -0.062876
  51 C :   -0.043981
  52 C :   -0.046741
  53 N :   -0.287157
  54 S :    0.647325
  55 N :   -0.284679
  56 C :    0.016857
  57 C :   -0.014272
  58 C :    0.072193
  59 C :   -0.119904
  60 C :    0.076201
  61 O :   -0.146846
  62 C :   -0.045453
  63 C :    0.008999
  64 C :   -0.005069
  65 C :   -0.004892
  66 C :    0.009143
  67 C :   -0.044132
  68 C :    0.078485
  69 O :   -0.142113
  70 H :    0.033844
  71 H :    0.033701
  72 H :    0.038848
  73 H :    0.037967
  74 H :    0.046323
  75 H :    0.044367
  76 H :    0.037125
  77 H :    0.031704
  78 H :    0.035859
  79 H :    0.041538
  80 H :    0.057102
  81 H :    0.034657
  82 H :    0.025084
  83 H :    0.023788
  84 H :    0.038686
  85 H :    0.021680
  86 H :    0.031653
  87 H :    0.032705
  88 H :    0.034499
  89 H :    0.024523
  90 H :    0.035287
  91 H :    0.030625
  92 H :    0.023210
  93 H :    0.044681
  94 H :    0.035344
  95 H :    0.039136
  96 H :    0.032075
  97 H :    0.040160
  98 H :    0.037570
  99 H :    0.032822
 100 H :    0.032926
 101 H :    0.037555

  Mayer bond orders larger than 0.100000
B(  0-C ,  1-C ) :   1.3744 B(  0-C ,  5-C ) :   1.3621 B(  0-C , 70-H ) :   0.9891
B(  1-C ,  2-C ) :   1.3641 B(  1-C , 71-H ) :   0.9892 B(  2-C ,  3-C ) :   1.3819
B(  2-C , 72-H ) :   1.0044 B(  3-C ,  4-C ) :   1.3488 B(  3-C ,  9-C ) :   0.9187
B(  4-C ,  5-C ) :   1.3860 B(  4-C ,  6-C ) :   0.9263 B(  5-C , 73-H ) :   1.0042
B(  6-C ,  7-O ) :   2.1433 B(  6-C ,  8-C ) :   0.9615 B(  8-C ,  9-C ) :   0.9438
B(  8-C , 11-C ) :   1.7288 B(  9-C , 10-O ) :   2.2682 B( 11-C , 12-C ) :   1.0610
B( 11-C , 74-H ) :   0.9359 B( 12-C , 13-S ) :   1.1294 B( 12-C , 16-C ) :   1.5107
B( 13-S , 14-C ) :   1.1309 B( 14-C , 15-C ) :   1.4604 B( 14-C , 27-C ) :   1.1572
B( 15-C , 16-C ) :   1.3638 B( 15-C , 23-C ) :   1.0008 B( 16-C , 17-C ) :   0.9712
B( 17-C , 18-N ) :   0.8296 B( 17-C , 21-C ) :   1.0531 B( 17-C , 75-H ) :   0.8664
B( 18-N , 19-O ) :   1.5360 B( 18-N , 20-O ) :   1.5799 B( 19-O , 20-O ) :   0.2657
B( 21-C , 22-C ) :   1.1033 B( 21-C , 76-H ) :   0.9294 B( 21-C , 77-H ) :   0.9243
B( 22-C , 23-C ) :   1.0811 B( 22-C , 78-H ) :   0.9167 B( 22-C , 79-H ) :   0.9167
B( 23-C , 24-N ) :   0.8329 B( 23-C , 80-H ) :   0.8625 B( 24-N , 25-O ) :   1.5726
B( 24-N , 26-O ) :   1.6097 B( 25-O , 26-O ) :   0.2659 B( 27-C , 28-C ) :   1.5940
B( 27-C , 81-H ) :   0.9194 B( 28-C , 29-C ) :   1.1643 B( 28-C , 82-H ) :   0.9760
B( 29-C , 30-N ) :   1.1761 B( 29-C , 36-C ) :   1.3149 B( 30-N , 31-C ) :   0.9447
B( 30-N , 33-C ) :   1.0204 B( 31-C , 32-C ) :   1.1198 B( 31-C , 83-H ) :   0.9503
B( 31-C , 84-H ) :   0.9289 B( 32-C , 85-H ) :   0.9687 B( 32-C , 86-H ) :   0.9682
B( 32-C , 87-H ) :   0.9644 B( 33-C , 34-O ) :   2.1474 B( 33-C , 35-C ) :   0.9714
B( 35-C , 36-C ) :   1.2506 B( 35-C , 42-C ) :   1.3551 B( 36-C , 37-C ) :   1.0123
B( 37-C , 38-O ) :   1.9327 B( 37-C , 39-N ) :   1.0945 B( 38-O , 81-H ) :   0.1345
B( 39-N , 40-C ) :   0.9408 B( 39-N , 42-C ) :   1.1553 B( 40-C , 41-C ) :   1.1204
B( 40-C , 88-H ) :   0.9276 B( 40-C , 89-H ) :   0.9495 B( 41-C , 90-H ) :   0.9592
B( 41-C , 91-H ) :   0.9683 B( 41-C , 92-H ) :   0.9645 B( 42-C , 43-C ) :   1.1757
B( 43-C , 44-C ) :   1.5574 B( 43-C , 93-H ) :   0.9488 B( 44-C , 45-C ) :   1.1589
B( 44-C , 94-H ) :   0.9723 B( 45-C , 46-C ) :   1.3484 B( 45-C , 50-C ) :   0.1288
B( 45-C , 52-C ) :   1.1489 B( 46-C , 47-F ) :   1.1381 B( 46-C , 48-C ) :   1.1736
B( 48-C , 49-F ) :   1.1473 B( 48-C , 50-C ) :   1.3552 B( 50-C , 51-C ) :   1.1488
B( 50-C , 56-C ) :   1.1293 B( 51-C , 52-C ) :   1.1474 B( 51-C , 55-N ) :   1.5631
B( 52-C , 53-N ) :   1.5578 B( 53-N , 54-S ) :   1.2588 B( 53-N , 55-N ) :   0.1465
B( 54-S , 55-N ) :   1.2602 B( 56-C , 57-C ) :   1.5864 B( 56-C , 95-H ) :   0.9835
B( 57-C , 58-C ) :   1.1021 B( 57-C , 96-H ) :   0.9683 B( 58-C , 59-C ) :   1.6282
B( 58-C , 97-H ) :   0.9820 B( 59-C , 60-C ) :   0.9486 B( 59-C , 68-C ) :   0.9500
B( 60-C , 61-O ) :   2.2688 B( 60-C , 62-C ) :   0.9147 B( 62-C , 63-C ) :   1.3844
B( 62-C , 67-C ) :   1.3538 B( 63-C , 64-C ) :   1.3628 B( 63-C , 98-H ) :   1.0038
B( 64-C , 65-C ) :   1.3762 B( 64-C , 99-H ) :   0.9883 B( 65-C , 66-C ) :   1.3622
B( 65-C ,100-H ) :   0.9885 B( 66-C , 67-C ) :   1.3854 B( 66-C ,101-H ) :   1.0035
B( 67-C , 68-C ) :   0.9316 B( 68-C , 69-O ) :   2.2108

-----------------------------------------------------------------------------
         ABSORPTION SPECTRUM VIA TRANSITION ELECTRIC DIPOLE MOMENTS
-----------------------------------------------------------------------------
State   Energy  Wavelength   fosc         T2         TX        TY        TZ
        (cm-1)    (nm)                  (au**2)     (au)      (au)      (au)
-----------------------------------------------------------------------------
   0   13831.7    723.0   1.407955228  33.51102   0.90998  -5.56436  -1.31183
   1   19540.4    511.8   0.013150532   0.22156   0.18403   0.00834   0.43315
   2   23936.5    417.8   0.561741439   7.72593   0.54944  -2.02052  -1.82799
   3   25463.7    392.7   0.047315238   0.61172   0.20928   0.29166  -0.69488
   4   25630.7    390.2   0.000020816   0.00027   0.01145  -0.01165  -0.00065
   5   25808.8    387.5   0.810746551  10.34174  -0.94896   2.48123   1.81238
   6   26753.0    373.8   0.047962654   0.59021  -0.20697   0.63166   0.38520
   7   27353.8    365.6   0.105182984   1.26591  -0.32761   0.85989   0.64744
   8   27668.2    361.4   0.135407650   1.61116   0.43262  -0.72776  -0.94571
   9   28951.9    345.4   0.012617175   0.14347  -0.21206   0.22251   0.22134
  10   29952.9    333.9   0.017794498   0.19558  -0.18282  -0.21102   0.34297
  11   30051.3    332.8   0.000091733   0.00100  -0.02431   0.00095  -0.02033
  12   30577.3    327.0   0.021992967   0.23679   0.06130  -0.19444  -0.44184
  13   30844.3    324.2   0.063661076   0.67948   0.48497   0.03282  -0.66574
  14   31224.6    320.3   0.015056776   0.15875   0.10093  -0.10829  -0.36991
  15   31810.0    314.4   0.044576640   0.46134  -0.00623   0.32236  -0.59782
  16   32580.8    306.9   0.004239011   0.04283  -0.09238  -0.14212   0.11874
  17   32646.2    306.3   0.000490715   0.00495   0.01828  -0.00224  -0.06789
  18   32909.3    303.9   0.022027662   0.22036  -0.16595   0.40525   0.16908
  19   32993.3    303.1   0.040063002   0.39975  -0.48398   0.38720   0.12488
  20   33385.4    299.5   0.059025177   0.58204   0.04301   0.75694  -0.08507
  21   34221.9    292.2   0.049303786   0.47430   0.23171   0.62334  -0.17906
  22   34271.9    291.8   0.000584352   0.00561   0.05322  -0.03528   0.03919
  23   35012.3    285.6   0.027231572   0.25605  -0.20357   0.46059  -0.04966
  24   35144.2    284.5   0.352766062   3.30452  -0.84689   0.03974   1.60802
  25   35811.2    279.2   0.000902106   0.00829  -0.07451  -0.03284  -0.04079
  26   36041.9    277.5   0.028299145   0.25849  -0.34596   0.27266   0.25388
  27   36264.6    275.8   0.030594718   0.27774   0.33665  -0.00088  -0.40547
  28   36615.7    273.1   0.000089598   0.00081  -0.02460   0.01215   0.00726
  29   36769.9    272.0   0.037008480   0.33135  -0.14452   0.44494  -0.33539
  30   37069.0    269.8   0.002987882   0.02654  -0.06690  -0.13259   0.06693
  31   37112.1    269.5   0.005953548   0.05281   0.14410  -0.15855  -0.08312
  32   37552.9    266.3   0.013235689   0.11603   0.02930   0.32733  -0.08962
  33   38161.5    262.0   0.014540726   0.12544  -0.15042  -0.29367  -0.12875
  34   38382.0    260.5   0.013747491   0.11792   0.06887   0.29393   0.16364
  35   38705.5    258.4   0.096981389   0.82488  -0.14835   0.13911   0.88517
  36   38875.0    257.2   0.011036353   0.09346  -0.03815   0.23079   0.19683
  37   38878.8    257.2   0.007766529   0.06576   0.03311  -0.24636  -0.06305
  38   39155.8    255.4   0.008836979   0.07430  -0.14171  -0.22417   0.06297
  39   39288.1    254.5   0.000081353   0.00068  -0.00898   0.00434   0.02413
  40   39470.8    253.4   0.221668012   1.84885   0.14116  -0.70357  -1.15496
  41   39726.5    251.7   0.007114893   0.05896  -0.09876   0.05994   0.21357
  42   39876.4    250.8   0.046660979   0.38522   0.10003  -0.31661  -0.52438

FINAL SINGLE POINT ENERGY     -3997.097283782195

DIPOLE MOMENT
-------------
                                X             Y             Z
Electronic contribution:      1.40907     -27.35229     -10.98458
Nuclear contribution   :     -1.53471      27.79372      11.90534
                        -----------------------------------------
Total Dipole Moment    :     -0.12564       0.44143       0.92076
                        -----------------------------------------
Magnitude (a.u.)       :      1.02881
Magnitude (Debye)      :      2.61502

Rotational constants in cm-1:     0.003266     0.000222     0.000211
Rotational constants in MHz :    97.905505     6.649738     6.339721

                             ****ORCA TERMINATED NORMALLY****
TOTAL RUN TIME: 0 days 0 hours 14 minutes 28 seconds 971 msec
