                         Program Version 4.2.0 -  RELEASE  -
|  1> # ORCA input file
|  2> # SCF done       -208.002646109506          0.000765621539
|  3> ! CAM-B3LYP def2-SVP def2/J RIJCOSX Grid4 TightSCF
|  4> %maxcore 5000
|  5> %tddft
|  6>     Mode sTDDFT
|  7>     Ethresh 5.0
|  8>     maxcore 5000
|  9> end
| 10>
| 11> %pal
| 12>   nprocs 6
| 13>   end
| 14> * xyz 0 1
| 15>    C       -0.06568         1.01735        -2.14249
| 16>    C       -1.13577         1.85507        -2.20999
| 17>    S       -2.60264         1.02437        -1.84272
| 18>    C       -1.76305        -0.48805        -1.59526
| 19>   Cl       -2.59185        -1.90083        -1.16607
| 20>    C       -0.42259        -0.32498        -1.78911
| 21>    C        0.77355        -1.16808        -1.75295
| 22>    O        0.84393        -2.36070        -1.56436
| 23>    C        1.90078        -0.24256        -2.09550
| 24>    C        1.36939         1.09360        -2.32515
| 25>    C        2.06595         2.23807        -2.60411
| 26>    C        1.40558         3.47296        -2.78253
| 27>    N        0.88081         4.48146        -2.93299
| 28>    C        3.46761         2.33430        -2.72106
| 29>    N        4.60306         2.47611        -2.80726
| 30>    C        3.18017        -0.65513        -2.29810
| 31>    C        3.70845        -1.93441        -1.96046
| 32>    C        4.69523        -2.59334        -2.65555
| 33>    C        4.92764        -3.86614        -2.04602
| 34>    C        4.05738        -3.91159        -0.85969
| 35>    C        3.33849        -2.75837        -0.81446
| 36>    C        4.02158        -4.90282         0.12650
| 37>    N        3.98547        -5.67740         0.97470
| 38>    C        5.79022        -4.85065        -2.46874
| 39>    C        5.96785        -6.13567        -1.89084
| 40>    C        6.98532        -6.79183        -2.55879
| 41>    C        7.47451        -5.91893        -3.62069
| 42>    C        6.75874        -4.76732        -3.58472
| 43>    C        6.92526        -3.68497        -4.45897
| 44>    N        7.06436        -2.81158        -5.19075
| 45>    C        7.49765        -8.06365        -2.25046
| 46>    C        8.62314        -8.71728        -2.79258
| 47>    C        8.93452        -9.94470        -2.11698
| 48>    N        9.89225       -10.75280        -2.56673
| 49>    C       10.63290       -10.31364        -3.55564
| 50>    C       11.69735       -11.22031        -4.07284
| 51>    O       11.79052       -12.37635        -3.73421
| 52>    C       12.63322       -10.58886        -5.02304
| 53>    C       12.46675        -9.36013        -5.52193
| 54>    C       11.32295        -8.49166        -5.18923
| 55>    O       11.12210        -7.43289        -5.73914
| 56>    C       10.42284        -9.02206        -4.12765
| 57>    N        9.39698        -8.27697        -3.78192
| 58>    C        8.07523       -10.21078        -1.03916
| 59>    S        6.83952        -8.99434        -0.94988
| 60>    C        8.18557       -11.19196        -0.03289
| 61>    C        9.32387       -11.66582         0.60376
| 62>    N       10.67254       -11.30042         0.38607
| 63>    O       11.52196       -11.99752         0.90234
| 64>    O       10.90306       -10.28714        -0.25136
| 65>    C        8.92703       -12.46187         1.73382
| 66>    C        7.57132       -12.44603         1.83851
| 67>    C        7.03796       -11.73887         0.70921
| 68>    C        5.74393       -11.80959         0.24473
| 69>    C        5.35067       -11.87561        -1.13305
| 70>    C        4.08409       -12.36376        -1.19800
| 71>    C        3.57679       -12.52597         0.13766
| 72>    N        2.25254       -12.93748         0.40224
| 73>    O        1.54237       -13.16723        -0.55760
| 74>    O        1.90263       -13.05704         1.56291
| 75>    C        4.55249       -12.14808         1.04891
| 76>    C        4.35749       -11.80811         2.40933
| 77>    C        5.07669       -10.81847         3.00741
| 78>    C        4.74015       -10.23086         4.24854
| 79>    C        5.09737        -8.96746         4.61656
| 80>    C        5.02798        -8.53923         6.05113
| 81>    O        4.46405        -9.11826         6.94555
| 82>    C        5.84331        -7.31921         6.09913
| 83>    C        6.27580        -6.44159         7.04877
| 84>    S        7.23982        -5.17752         6.31937
| 85>    C        7.03711        -5.84314         4.74049
| 86>    C        6.28214        -6.97320         4.77738
| 87>    C        5.72161        -7.91880         3.83171
| 88>    C        5.66673        -7.72607         2.47475
| 89>    C        6.41996        -6.71812         1.83624
| 90>    N        7.09075        -5.97421         1.27531
| 91>    C        4.85353        -8.44313         1.57411
| 92>    N        4.20968        -8.97064         0.78276
| 93>   Cl        5.97968        -6.47434         8.71466
| 94>    H       -1.16810         2.89878        -2.45256
| 95>    H        3.87331         0.01463        -2.79344
| 96>    H        5.16943        -2.24807        -3.55371
| 97>    H        2.66124        -2.46830        -0.03512
| 98>    H        5.40377        -6.52505        -1.06548
| 99>    H        8.27032        -6.17672        -4.29382
|100>    H       13.47274       -11.20566        -5.31401
|101>    H       13.16678        -8.94080        -6.23194
|102>    H        9.62936       -12.95270         2.38094
|103>    H        6.97597       -12.97296         2.55826
|104>    H        6.01261       -11.71557        -1.96212
|105>    H        3.51618       -12.60024        -2.07808
|106>    H        3.47524       -12.20362         2.89506
|107>    H        5.90748       -10.37938         2.47157
|108>    H        4.17916       -10.81063         4.97251
|109>    H        7.49462        -5.35994         3.89990
|110> *
|111>
|112>                          ****END OF INPUT****

CARTESIAN COORDINATES (ANGSTROEM)
---------------------------------
  C     -0.065680    1.017350   -2.142490
  C     -1.135770    1.855070   -2.209990
  S     -2.602640    1.024370   -1.842720
  C     -1.763050   -0.488050   -1.595260
  Cl    -2.591850   -1.900830   -1.166070
  C     -0.422590   -0.324980   -1.789110
  C      0.773550   -1.168080   -1.752950
  O      0.843930   -2.360700   -1.564360
  C      1.900780   -0.242560   -2.095500
  C      1.369390    1.093600   -2.325150
  C      2.065950    2.238070   -2.604110
  C      1.405580    3.472960   -2.782530
  N      0.880810    4.481460   -2.932990
  C      3.467610    2.334300   -2.721060
  N      4.603060    2.476110   -2.807260
  C      3.180170   -0.655130   -2.298100
  C      3.708450   -1.934410   -1.960460
  C      4.695230   -2.593340   -2.655550
  C      4.927640   -3.866140   -2.046020
  C      4.057380   -3.911590   -0.859690
  C      3.338490   -2.758370   -0.814460
  C      4.021580   -4.902820    0.126500
  N      3.985470   -5.677400    0.974700
  C      5.790220   -4.850650   -2.468740
  C      5.967850   -6.135670   -1.890840
  C      6.985320   -6.791830   -2.558790
  C      7.474510   -5.918930   -3.620690
  C      6.758740   -4.767320   -3.584720
  C      6.925260   -3.684970   -4.458970
  N      7.064360   -2.811580   -5.190750
  C      7.497650   -8.063650   -2.250460
  C      8.623140   -8.717280   -2.792580
  C      8.934520   -9.944700   -2.116980
  N      9.892250  -10.752800   -2.566730
  C     10.632900  -10.313640   -3.555640
  C     11.697350  -11.220310   -4.072840
  O     11.790520  -12.376350   -3.734210
  C     12.633220  -10.588860   -5.023040
  C     12.466750   -9.360130   -5.521930
  C     11.322950   -8.491660   -5.189230
  O     11.122100   -7.432890   -5.739140
  C     10.422840   -9.022060   -4.127650
  N      9.396980   -8.276970   -3.781920
  C      8.075230  -10.210780   -1.039160
  S      6.839520   -8.994340   -0.949880
  C      8.185570  -11.191960   -0.032890
  C      9.323870  -11.665820    0.603760
  N     10.672540  -11.300420    0.386070
  O     11.521960  -11.997520    0.902340
  O     10.903060  -10.287140   -0.251360
  C      8.927030  -12.461870    1.733820
  C      7.571320  -12.446030    1.838510
  C      7.037960  -11.738870    0.709210
  C      5.743930  -11.809590    0.244730
  C      5.350670  -11.875610   -1.133050
  C      4.084090  -12.363760   -1.198000
  C      3.576790  -12.525970    0.137660
  N      2.252540  -12.937480    0.402240
  O      1.542370  -13.167230   -0.557600
  O      1.902630  -13.057040    1.562910
  C      4.552490  -12.148080    1.048910
  C      4.357490  -11.808110    2.409330
  C      5.076690  -10.818470    3.007410
  C      4.740150  -10.230860    4.248540
  C      5.097370   -8.967460    4.616560
  C      5.027980   -8.539230    6.051130
  O      4.464050   -9.118260    6.945550
  C      5.843310   -7.319210    6.099130
  C      6.275800   -6.441590    7.048770
  S      7.239820   -5.177520    6.319370
  C      7.037110   -5.843140    4.740490
  C      6.282140   -6.973200    4.777380
  C      5.721610   -7.918800    3.831710
  C      5.666730   -7.726070    2.474750
  C      6.419960   -6.718120    1.836240
  N      7.090750   -5.974210    1.275310
  C      4.853530   -8.443130    1.574110
  N      4.209680   -8.970640    0.782760
  Cl     5.979680   -6.474340    8.714660
  H     -1.168100    2.898780   -2.452560
  H      3.873310    0.014630   -2.793440
  H      5.169430   -2.248070   -3.553710
  H      2.661240   -2.468300   -0.035120
  H      5.403770   -6.525050   -1.065480
  H      8.270320   -6.176720   -4.293820
  H     13.472740  -11.205660   -5.314010
  H     13.166780   -8.940800   -6.231940
  H      9.629360  -12.952700    2.380940
  H      6.975970  -12.972960    2.558260
  H      6.012610  -11.715570   -1.962120
  H      3.516180  -12.600240   -2.078080
  H      3.475240  -12.203620    2.895060
  H      5.907480  -10.379380    2.471570
  H      4.179160  -10.810630    4.972510
  H      7.494620   -5.359940    3.899900

 Total Charge           Charge          ....    0
 Multiplicity           Mult            ....    1
 Number of Electrons    NEL             ....  568
 Basis Dimension        Dim             .... 1206

ORBITAL ENERGIES
----------------

  NO   OCC          E(Eh)            E(eV)
   0   2.0000    -101.625031     -2765.3577
   1   2.0000    -101.623133     -2765.3060
   2   2.0000     -89.011210     -2422.1182
   3   2.0000     -89.001941     -2421.8659
   4   2.0000     -88.999503     -2421.7996
   5   2.0000     -19.249218      -523.7979
   6   2.0000     -19.247787      -523.7589
   7   2.0000     -19.246883      -523.7343
   8   2.0000     -19.245714      -523.7025
   9   2.0000     -19.235367      -523.4209
  10   2.0000     -19.234641      -523.4012
  11   2.0000     -19.233196      -523.3619
  12   2.0000     -19.228073      -523.2225
  13   2.0000     -14.657672      -398.8555
  14   2.0000     -14.654562      -398.7709
  15   2.0000     -14.458309      -393.4306
  16   2.0000     -14.453977      -393.3127
  17   2.0000     -14.428868      -392.6294
  18   2.0000     -14.428739      -392.6260
  19   2.0000     -14.428141      -392.6097
  20   2.0000     -14.427785      -392.6000
  21   2.0000     -14.415883      -392.2761
  22   2.0000     -14.412525      -392.1847
  23   2.0000     -10.389943      -282.7247
  24   2.0000     -10.385125      -282.5936
  25   2.0000     -10.384190      -282.5682
  26   2.0000     -10.383854      -282.5590
  27   2.0000     -10.382797      -282.5303
  28   2.0000     -10.382152      -282.5127
  29   2.0000     -10.359470      -281.8955
  30   2.0000     -10.358161      -281.8599
  31   2.0000     -10.358009      -281.8558
  32   2.0000     -10.357133      -281.8319
  33   2.0000     -10.350787      -281.6592
  34   2.0000     -10.349154      -281.6148
  35   2.0000     -10.348930      -281.6087
  36   2.0000     -10.348113      -281.5865
  37   2.0000     -10.347133      -281.5598
  38   2.0000     -10.346188      -281.5341
  39   2.0000     -10.345651      -281.5195
  40   2.0000     -10.345537      -281.5164
  41   2.0000     -10.344874      -281.4983
  42   2.0000     -10.344167      -281.4791
  43   2.0000     -10.337987      -281.3109
  44   2.0000     -10.337619      -281.3009
  45   2.0000     -10.335757      -281.2502
  46   2.0000     -10.334661      -281.2204
  47   2.0000     -10.333926      -281.2004
  48   2.0000     -10.333541      -281.1900
  49   2.0000     -10.332882      -281.1720
  50   2.0000     -10.332325      -281.1569
  51   2.0000     -10.332283      -281.1557
  52   2.0000     -10.330356      -281.1033
  53   2.0000     -10.329548      -281.0813
  54   2.0000     -10.329358      -281.0761
  55   2.0000     -10.322941      -280.9015
  56   2.0000     -10.322850      -280.8990
  57   2.0000     -10.321376      -280.8589
  58   2.0000     -10.320155      -280.8257
  59   2.0000     -10.320135      -280.8251
  60   2.0000     -10.319962      -280.8204
  61   2.0000     -10.319713      -280.8137
  62   2.0000     -10.318012      -280.7674
  63   2.0000     -10.317759      -280.7605
  64   2.0000     -10.317166      -280.7444
  65   2.0000     -10.316474      -280.7255
  66   2.0000     -10.315094      -280.6880
  67   2.0000     -10.314813      -280.6803
  68   2.0000     -10.314246      -280.6649
  69   2.0000     -10.314097      -280.6608
  70   2.0000     -10.313299      -280.6391
  71   2.0000     -10.311423      -280.5881
  72   2.0000     -10.311281      -280.5842
  73   2.0000     -10.309097      -280.5248
  74   2.0000     -10.307271      -280.4751
  75   2.0000     -10.307073      -280.4697
  76   2.0000     -10.303569      -280.3744
  77   2.0000     -10.302173      -280.3364
  78   2.0000     -10.297769      -280.2165
  79   2.0000      -9.579796      -260.6795
  80   2.0000      -9.577907      -260.6281
  81   2.0000      -8.104593      -220.5372
  82   2.0000      -8.097636      -220.3479
  83   2.0000      -8.095248      -220.2829
  84   2.0000      -7.350452      -200.0160
  85   2.0000      -7.348561      -199.9645
  86   2.0000      -7.339833      -199.7270
  87   2.0000      -7.339262      -199.7115
  88   2.0000      -7.337941      -199.6755
  89   2.0000      -7.337382      -199.6603
  90   2.0000      -6.073429      -165.2664
  91   2.0000      -6.069287      -165.1537
  92   2.0000      -6.067777      -165.1126
  93   2.0000      -6.066996      -165.0914
  94   2.0000      -6.064637      -165.0272
  95   2.0000      -6.062380      -164.9657
  96   2.0000      -6.060023      -164.9016
  97   2.0000      -6.059924      -164.8989
  98   2.0000      -6.057468      -164.8321
  99   2.0000      -1.328938       -36.1622
 100   2.0000      -1.326198       -36.0877
 101   2.0000      -1.152837       -31.3703
 102   2.0000      -1.151894       -31.3446
 103   2.0000      -1.148096       -31.2413
 104   2.0000      -1.146659       -31.2022
 105   2.0000      -1.145187       -31.1621
 106   2.0000      -1.144407       -31.1409
 107   2.0000      -1.110764       -30.2254
 108   2.0000      -1.046835       -28.4858
 109   2.0000      -1.045313       -28.4444
 110   2.0000      -1.039302       -28.2808
 111   2.0000      -1.035498       -28.1773
 112   2.0000      -1.027360       -27.9559
 113   2.0000      -1.026342       -27.9282
 114   2.0000      -1.025091       -27.8941
 115   2.0000      -1.018220       -27.7072
 116   2.0000      -1.010040       -27.4846
 117   2.0000      -1.007636       -27.4192
 118   2.0000      -1.006377       -27.3849
 119   2.0000      -1.002827       -27.2883
 120   2.0000      -0.997673       -27.1481
 121   2.0000      -0.996629       -27.1196
 122   2.0000      -0.992261       -27.0008
 123   2.0000      -0.986580       -26.8462
 124   2.0000      -0.964154       -26.2360
 125   2.0000      -0.962764       -26.1981
 126   2.0000      -0.946020       -25.7425
 127   2.0000      -0.939370       -25.5615
 128   2.0000      -0.923818       -25.1384
 129   2.0000      -0.920854       -25.0577
 130   2.0000      -0.914461       -24.8838
 131   2.0000      -0.910377       -24.7726
 132   2.0000      -0.902247       -24.5514
 133   2.0000      -0.892044       -24.2737
 134   2.0000      -0.884773       -24.0759
 135   2.0000      -0.882669       -24.0186
 136   2.0000      -0.869519       -23.6608
 137   2.0000      -0.858301       -23.3556
 138   2.0000      -0.851513       -23.1709
 139   2.0000      -0.841255       -22.8917
 140   2.0000      -0.840547       -22.8724
 141   2.0000      -0.838377       -22.8134
 142   2.0000      -0.827256       -22.5108
 143   2.0000      -0.812513       -22.1096
 144   2.0000      -0.807818       -21.9818
 145   2.0000      -0.799959       -21.7680
 146   2.0000      -0.790564       -21.5123
 147   2.0000      -0.781052       -21.2535
 148   2.0000      -0.772553       -21.0222
 149   2.0000      -0.763608       -20.7788
 150   2.0000      -0.761558       -20.7231
 151   2.0000      -0.752504       -20.4767
 152   2.0000      -0.743319       -20.2267
 153   2.0000      -0.731537       -19.9061
 154   2.0000      -0.725827       -19.7508
 155   2.0000      -0.716399       -19.4942
 156   2.0000      -0.715749       -19.4765
 157   2.0000      -0.704760       -19.1775
 158   2.0000      -0.692986       -18.8571
 159   2.0000      -0.688071       -18.7234
 160   2.0000      -0.685879       -18.6637
 161   2.0000      -0.685411       -18.6510
 162   2.0000      -0.683913       -18.6102
 163   2.0000      -0.679259       -18.4836
 164   2.0000      -0.676398       -18.4057
 165   2.0000      -0.671160       -18.2632
 166   2.0000      -0.664805       -18.0903
 167   2.0000      -0.652571       -17.7574
 168   2.0000      -0.650471       -17.7002
 169   2.0000      -0.642730       -17.4896
 170   2.0000      -0.642267       -17.4770
 171   2.0000      -0.640432       -17.4270
 172   2.0000      -0.638706       -17.3801
 173   2.0000      -0.635033       -17.2801
 174   2.0000      -0.629102       -17.1187
 175   2.0000      -0.624057       -16.9814
 176   2.0000      -0.623587       -16.9687
 177   2.0000      -0.620970       -16.8974
 178   2.0000      -0.617816       -16.8116
 179   2.0000      -0.616270       -16.7696
 180   2.0000      -0.612109       -16.6563
 181   2.0000      -0.602917       -16.4062
 182   2.0000      -0.593718       -16.1559
 183   2.0000      -0.591997       -16.1091
 184   2.0000      -0.586060       -15.9475
 185   2.0000      -0.580038       -15.7836
 186   2.0000      -0.573070       -15.5940
 187   2.0000      -0.571019       -15.5382
 188   2.0000      -0.567112       -15.4319
 189   2.0000      -0.564932       -15.3726
 190   2.0000      -0.562349       -15.3023
 191   2.0000      -0.560956       -15.2644
 192   2.0000      -0.560025       -15.2391
 193   2.0000      -0.554412       -15.0863
 194   2.0000      -0.552382       -15.0311
 195   2.0000      -0.548439       -14.9238
 196   2.0000      -0.545070       -14.8321
 197   2.0000      -0.541247       -14.7281
 198   2.0000      -0.540982       -14.7209
 199   2.0000      -0.538223       -14.6458
 200   2.0000      -0.537226       -14.6187
 201   2.0000      -0.534277       -14.5384
 202   2.0000      -0.532710       -14.4958
 203   2.0000      -0.531434       -14.4610
 204   2.0000      -0.529070       -14.3967
 205   2.0000      -0.524804       -14.2806
 206   2.0000      -0.524323       -14.2676
 207   2.0000      -0.522767       -14.2252
 208   2.0000      -0.520236       -14.1564
 209   2.0000      -0.518107       -14.0984
 210   2.0000      -0.515211       -14.0196
 211   2.0000      -0.513707       -13.9787
 212   2.0000      -0.512215       -13.9381
 213   2.0000      -0.509234       -13.8570
 214   2.0000      -0.507848       -13.8192
 215   2.0000      -0.506250       -13.7758
 216   2.0000      -0.505201       -13.7472
 217   2.0000      -0.504452       -13.7268
 218   2.0000      -0.501047       -13.6342
 219   2.0000      -0.498465       -13.5639
 220   2.0000      -0.496989       -13.5238
 221   2.0000      -0.494990       -13.4694
 222   2.0000      -0.493609       -13.4318
 223   2.0000      -0.491899       -13.3853
 224   2.0000      -0.491073       -13.3628
 225   2.0000      -0.487087       -13.2543
 226   2.0000      -0.480750       -13.0819
 227   2.0000      -0.477373       -12.9900
 228   2.0000      -0.473481       -12.8841
 229   2.0000      -0.471276       -12.8241
 230   2.0000      -0.464154       -12.6303
 231   2.0000      -0.463088       -12.6013
 232   2.0000      -0.461908       -12.5691
 233   2.0000      -0.460648       -12.5349
 234   2.0000      -0.459618       -12.5068
 235   2.0000      -0.457251       -12.4424
 236   2.0000      -0.455183       -12.3862
 237   2.0000      -0.454466       -12.3667
 238   2.0000      -0.452536       -12.3141
 239   2.0000      -0.449795       -12.2395
 240   2.0000      -0.445027       -12.1098
 241   2.0000      -0.442777       -12.0486
 242   2.0000      -0.441118       -12.0034
 243   2.0000      -0.440832       -11.9956
 244   2.0000      -0.440168       -11.9776
 245   2.0000      -0.439004       -11.9459
 246   2.0000      -0.435404       -11.8479
 247   2.0000      -0.432173       -11.7600
 248   2.0000      -0.431228       -11.7343
 249   2.0000      -0.424972       -11.5641
 250   2.0000      -0.421098       -11.4587
 251   2.0000      -0.419148       -11.4056
 252   2.0000      -0.418011       -11.3746
 253   2.0000      -0.414815       -11.2877
 254   2.0000      -0.410965       -11.1829
 255   2.0000      -0.409382       -11.1399
 256   2.0000      -0.405090       -11.0230
 257   2.0000      -0.399836       -10.8801
 258   2.0000      -0.395098       -10.7512
 259   2.0000      -0.393118       -10.6973
 260   2.0000      -0.386749       -10.5240
 261   2.0000      -0.385760       -10.4971
 262   2.0000      -0.380289       -10.3482
 263   2.0000      -0.379129       -10.3166
 264   2.0000      -0.375882       -10.2283
 265   2.0000      -0.375159       -10.2086
 266   2.0000      -0.371373       -10.1056
 267   2.0000      -0.365248        -9.9389
 268   2.0000      -0.363969        -9.9041
 269   2.0000      -0.356544        -9.7020
 270   2.0000      -0.353356        -9.6153
 271   2.0000      -0.352827        -9.6009
 272   2.0000      -0.351826        -9.5737
 273   2.0000      -0.348284        -9.4773
 274   2.0000      -0.345256        -9.3949
 275   2.0000      -0.341736        -9.2991
 276   2.0000      -0.340355        -9.2615
 277   2.0000      -0.330610        -8.9964
 278   2.0000      -0.324452        -8.8288
 279   2.0000      -0.321946        -8.7606
 280   2.0000      -0.319889        -8.7046
 281   2.0000      -0.305679        -8.3180
 282   2.0000      -0.293785        -7.9943
 283   2.0000      -0.268943        -7.3183
 284   0.0000      -0.151127        -4.1124
 285   0.0000      -0.135852        -3.6967
 286   0.0000      -0.105539        -2.8719
 287   0.0000      -0.098440        -2.6787
 288   0.0000      -0.090630        -2.4662

MULLIKEN ATOMIC CHARGES
-----------------------
   0 C :    0.030362
   1 C :   -0.126586
   2 S :    0.194008
   3 C :   -0.167287
   4 Cl:    0.006185
   5 C :    0.074061
   6 C :    0.141317
   7 O :   -0.127239
   8 C :   -0.103094
   9 C :    0.293295
  10 C :   -0.316362
  11 C :   -0.195080
  12 N :    0.162082
  13 C :   -0.195403
  14 N :    0.174585
  15 C :   -0.024989
  16 C :    0.075534
  17 C :   -0.063417
  18 C :    0.101124
  19 C :   -0.128902
  20 C :    0.079366
  21 C :   -0.143567
  22 N :    0.111185
  23 C :    0.127136
  24 C :   -0.108993
  25 C :    0.088282
  26 C :    0.001997
  27 C :   -0.088765
  28 C :   -0.176200
  29 N :    0.145522
  30 C :   -0.115384
  31 C :    0.019210
  32 C :    0.084599
  33 N :    0.071113
  34 C :   -0.115691
  35 C :    0.142851
  36 O :   -0.092932
  37 C :   -0.017276
  38 C :   -0.010938
  39 C :    0.144472
  40 O :   -0.100635
  41 C :   -0.101736
  42 N :    0.062220
  43 C :   -0.246232
  44 S :    0.247143
  45 C :    0.089115
  46 C :    0.074830
  47 N :    0.272620
  48 O :   -0.236978
  49 O :   -0.247063
  50 C :    0.020338
  51 C :    0.013717
  52 C :   -0.014056
  53 C :   -0.007534
  54 C :    0.036078
  55 C :    0.025696
  56 C :    0.114107
  57 N :    0.270401
  58 O :   -0.234841
  59 O :   -0.247423
  60 C :    0.029111
  61 C :   -0.004042
  62 C :    0.000381
  63 C :    0.036071
  64 C :   -0.120905
  65 C :    0.143030
  66 O :   -0.117245
  67 C :    0.077389
  68 C :   -0.170507
  69 S :    0.189832
  70 C :   -0.126235
  71 C :    0.026391
  72 C :    0.269178
  73 C :   -0.319798
  74 C :   -0.187832
  75 N :    0.151762
  76 C :   -0.188261
  77 N :    0.167629
  78 Cl:    0.004334
  79 H :    0.056699
  80 H :    0.041410
  81 H :    0.015641
  82 H :    0.005085
  83 H :    0.002657
  84 H :    0.023675
  85 H :    0.023624
  86 H :    0.022395
  87 H :    0.011247
  88 H :    0.002581
  89 H :    0.007974
  90 H :    0.011388
  91 H :    0.037102
  92 H :    0.052683
  93 H :    0.030533
  94 H :    0.055074
Sum of atomic charges:   -0.0000000

LOEWDIN ATOMIC CHARGES
----------------------
   0 C :   -0.058823
   1 C :   -0.147570
   2 S :    0.482880
   3 C :   -0.270238
   4 Cl:    0.197255
   5 C :   -0.119032
   6 C :    0.082394
   7 O :   -0.119927
   8 C :   -0.078278
   9 C :    0.070709
  10 C :   -0.126855
  11 C :   -0.015569
  12 N :   -0.044521
  13 C :   -0.025544
  14 N :   -0.034869
  15 C :    0.075144
  16 C :   -0.030206
  17 C :    0.025930
  18 C :    0.033768
  19 C :   -0.096480
  20 C :    0.082033
  21 C :   -0.005929
  22 N :   -0.069514
  23 C :    0.048916
  24 C :   -0.016715
  25 C :   -0.023361
  26 C :    0.069822
  27 C :   -0.078106
  28 C :   -0.029729
  29 N :   -0.055109
  30 C :   -0.159988
  31 C :   -0.034260
  32 C :   -0.034340
  33 N :    0.010935
  34 C :   -0.030920
  35 C :    0.058627
  36 O :   -0.088476
  37 C :   -0.008654
  38 C :   -0.012683
  39 C :    0.057760
  40 O :   -0.095256
  41 C :   -0.032305
  42 N :    0.002848
  43 C :   -0.169213
  44 S :    0.587171
  45 C :   -0.019995
  46 C :   -0.028722
  47 N :    0.286103
  48 O :   -0.198800
  49 O :   -0.205820
  50 C :    0.016549
  51 C :   -0.035615
  52 C :    0.025561
  53 C :    0.043937
  54 C :   -0.031391
  55 C :    0.023958
  56 C :   -0.021216
  57 N :    0.284786
  58 O :   -0.198605
  59 O :   -0.209467
  60 C :    0.009001
  61 C :    0.025122
  62 C :   -0.006691
  63 C :    0.066372
  64 C :   -0.068020
  65 C :    0.079042
  66 O :   -0.124866
  67 C :   -0.119024
  68 C :   -0.270868
  69 S :    0.478282
  70 C :   -0.150242
  71 C :   -0.056602
  72 C :    0.068491
  73 C :   -0.124429
  74 C :   -0.017342
  75 N :   -0.058367
  76 C :   -0.022976
  77 N :   -0.061658
  78 Cl:    0.196222
  79 H :    0.038997
  80 H :    0.054027
  81 H :    0.041029
  82 H :    0.037561
  83 H :    0.030109
  84 H :    0.042960
  85 H :    0.047449
  86 H :    0.047295
  87 H :    0.041477
  88 H :    0.032951
  89 H :    0.031843
  90 H :    0.042137
  91 H :    0.044369
  92 H :    0.031666
  93 H :    0.051262
  94 H :    0.038438

  Mayer bond orders larger than 0.100000
B(  0-C ,  1-C ) :   1.5458 B(  0-C ,  5-C ) :   1.2221 B(  0-C ,  9-C ) :   1.0017
B(  1-C ,  2-S ) :   1.1636 B(  1-C , 79-H ) :   0.9536 B(  2-S ,  3-C ) :   1.1554
B(  3-C ,  4-Cl) :   1.1344 B(  3-C ,  5-C ) :   1.4678 B(  5-C ,  6-C ) :   0.9571
B(  6-C ,  7-O ) :   2.2219 B(  6-C ,  8-C ) :   0.9336 B(  8-C ,  9-C ) :   1.0473
B(  8-C , 15-C ) :   1.6545 B(  9-C , 10-C ) :   1.6717 B( 10-C , 11-C ) :   1.1442
B( 10-C , 13-C ) :   1.1363 B( 11-C , 12-N ) :   2.9923 B( 13-C , 14-N ) :   2.9833
B( 15-C , 16-C ) :   1.0844 B( 15-C , 80-H ) :   0.9472 B( 16-C , 17-C ) :   1.5283
B( 16-C , 20-C ) :   1.0547 B( 17-C , 18-C ) :   1.0987 B( 17-C , 81-H ) :   1.0075
B( 18-C , 19-C ) :   1.1166 B( 18-C , 23-C ) :   1.4142 B( 19-C , 20-C ) :   1.6658
B( 19-C , 21-C ) :   1.1014 B( 20-C , 82-H ) :   1.0048 B( 21-C , 22-N ) :   2.9289
B( 23-C , 24-C ) :   1.1453 B( 23-C , 27-C ) :   1.0955 B( 24-C , 25-C ) :   1.5067
B( 24-C , 83-H ) :   0.9943 B( 25-C , 26-C ) :   1.0608 B( 25-C , 30-C ) :   1.1460
B( 26-C , 27-C ) :   1.6580 B( 26-C , 84-H ) :   1.0162 B( 27-C , 28-C ) :   1.0894
B( 28-C , 29-N ) :   2.9686 B( 30-C , 31-C ) :   1.2822 B( 30-C , 43-C ) :   0.1390
B( 30-C , 44-S ) :   1.2006 B( 31-C , 32-C ) :   1.1964 B( 31-C , 42-N ) :   1.4508
B( 32-C , 33-N ) :   1.4473 B( 32-C , 43-C ) :   1.3026 B( 33-N , 34-C ) :   1.6824
B( 34-C , 35-C ) :   0.8856 B( 34-C , 41-C ) :   1.1120 B( 35-C , 36-O ) :   2.2663
B( 35-C , 37-C ) :   1.0140 B( 37-C , 38-C ) :   1.6901 B( 37-C , 85-H ) :   0.9949
B( 38-C , 39-C ) :   1.0270 B( 38-C , 86-H ) :   0.9961 B( 39-C , 40-O ) :   2.2381
B( 39-C , 41-C ) :   0.8890 B( 41-C , 42-N ) :   1.7012 B( 43-C , 44-S ) :   1.1867
B( 43-C , 45-C ) :   1.1268 B( 45-C , 46-C ) :   1.5619 B( 45-C , 52-C ) :   1.0302
B( 46-C , 47-N ) :   0.9348 B( 46-C , 50-C ) :   1.1354 B( 47-N , 48-O ) :   1.5280
B( 47-N , 49-O ) :   1.5100 B( 48-O , 49-O ) :   0.2657 B( 50-C , 51-C ) :   1.5796
B( 50-C , 87-H ) :   1.0109 B( 51-C , 52-C ) :   1.1340 B( 51-C , 88-H ) :   1.0041
B( 52-C , 53-C ) :   1.4935 B( 53-C , 54-C ) :   1.1541 B( 53-C , 60-C ) :   0.9892
B( 54-C , 55-C ) :   1.5688 B( 54-C , 89-H ) :   0.9991 B( 55-C , 56-C ) :   1.1457
B( 55-C , 90-H ) :   1.0087 B( 56-C , 57-N ) :   0.9348 B( 56-C , 60-C ) :   1.5312
B( 57-N , 58-O ) :   1.5433 B( 57-N , 59-O ) :   1.5043 B( 58-O , 59-O ) :   0.2691
B( 60-C , 61-C ) :   1.1695 B( 61-C , 62-C ) :   1.5959 B( 61-C , 91-H ) :   0.9708
B( 62-C , 63-C ) :   1.1378 B( 62-C , 92-H ) :   0.9347 B( 63-C , 64-C ) :   1.6457
B( 63-C , 93-H ) :   0.9631 B( 64-C , 65-C ) :   0.9280 B( 64-C , 72-C ) :   1.0447
B( 65-C , 66-O ) :   2.2960 B( 65-C , 67-C ) :   0.9254 B( 67-C , 68-C ) :   1.4822
B( 67-C , 71-C ) :   1.2199 B( 68-C , 69-S ) :   1.1542 B( 68-C , 78-Cl) :   1.1334
B( 69-S , 70-C ) :   1.1598 B( 70-C , 71-C ) :   1.5539 B( 70-C , 94-H ) :   0.9551
B( 71-C , 72-C ) :   1.0191 B( 72-C , 73-C ) :   1.6336 B( 73-C , 74-C ) :   1.1507
B( 73-C , 76-C ) :   1.1979 B( 74-C , 75-N ) :   2.9305 B( 76-C , 77-N ) :   2.9157

-----------------------------------------------------------------------------
         ABSORPTION SPECTRUM VIA TRANSITION ELECTRIC DIPOLE MOMENTS
-----------------------------------------------------------------------------
State   Energy  Wavelength   fosc         T2         TX        TY        TZ
        (cm-1)    (nm)                  (au**2)     (au)      (au)      (au)
-----------------------------------------------------------------------------
   0    8808.3   1135.3   0.158020976   5.90606   0.42011  -1.90925   1.44372
   1   13022.2    767.9   0.287709194   7.27351   1.86211  -1.94714  -0.12116
   2   13538.0    738.7   0.335019833   8.14690   1.28454  -2.44514  -0.71982
   3   17660.6    566.2   0.025185142   0.46948   0.51261  -0.44707  -0.08269
   4   18772.2    532.7   0.112817738   1.97851   0.03071   1.39127  -0.20474
   5   19604.4    510.1   0.035817919   0.60148   0.05464  -0.19224   0.74936
   6   19861.0    503.5   0.019982339   0.33122   0.41958   0.30000   0.25531
   7   20423.4    489.6   0.040751908   0.65689  -0.34732   0.73213   0.01583
   8   21284.4    469.8   0.006113404   0.09456  -0.23503  -0.19780  -0.01396
   9   21807.3    458.6   0.457626195   6.90853   1.53709  -2.13167   0.04310
  10   22718.0    440.2   0.049239756   0.71355   0.11772  -0.61446  -0.56756
  11   22807.4    438.5   0.120874553   1.74476   0.53590  -0.84831  -0.85903
  12   23320.6    428.8   0.116825198   1.64920  -0.09169  -1.26213  -0.21869
  13   24003.3    416.6   0.040227747   0.55173   0.64770  -0.04996  -0.36017
  14   24286.5    411.8   0.025982647   0.35220   0.30507  -0.49619  -0.11370
  15   24987.0    400.2   0.109920338   1.44823  -1.11223   0.45257   0.07975
  16   25167.1    397.3   0.052484002   0.68654  -0.75056   0.33126   0.11607
  17   25527.9    391.7   0.017466429   0.22525  -0.46776  -0.07895  -0.01487
  18   25748.6    388.4   0.016051220   0.20522  -0.05377  -0.29655   0.33821
  19   26005.6    384.5   0.017824562   0.22565  -0.14643  -0.44947  -0.04670
  20   26034.2    384.1   0.047589270   0.60178  -0.32333   0.35231  -0.61083
  21   26196.2    381.7   0.010782611   0.13551  -0.33950  -0.07541   0.12067
  22   26526.2    377.0   0.073531293   0.91258   0.10668   0.94210   0.11682
  23   26810.0    373.0   0.060592632   0.74404   0.68776   0.32137   0.40957
  24   27272.5    366.7   0.027983368   0.33779  -0.10616   0.50307   0.27101
  25   27334.3    365.8   0.043981790   0.52971  -0.65975  -0.15632  -0.26460
  26   27627.8    362.0   0.035051320   0.41767   0.47506  -0.34491  -0.27023
  27   28012.3    357.0   0.175277758   2.05994  -1.10959  -0.87896  -0.23704
  28   28192.4    354.7   0.095169540   1.11133   0.58499  -0.77777  -0.40521
  29   28336.8    352.9   0.044262032   0.51423   0.59722  -0.23859  -0.31723
  30   29139.9    343.2   0.073024739   0.82501   0.38116  -0.81242  -0.14034
  31   29193.5    342.5   0.007685252   0.08667   0.29171  -0.03442   0.01967
  32   29261.4    341.7   0.048311023   0.54353  -0.22998  -0.67885   0.17264
  33   29315.2    341.1   0.041287940   0.46367   0.66169  -0.15171   0.05307
  34   29510.9    338.9   0.106725265   1.19058   0.77334  -0.76862  -0.04191
  35   30049.3    332.8   0.130540009   1.43016   0.94139  -0.40271  -0.61788
  36   30358.6    329.4   0.009835236   0.10665   0.09197   0.28451   0.13134
  37   30561.0    327.2   0.089638141   0.96561  -0.20277   0.30055   0.91332
  38   30843.1    324.2   0.046533285   0.49668  -0.27243   0.34795   0.54900
  39   31110.3    321.4   0.006001766   0.06351  -0.21801  -0.08676   0.09196
  40   31159.3    320.9   0.064763914   0.68426   0.34933   0.12371  -0.73954
  41   31255.1    319.9   0.024361384   0.25660  -0.17258   0.34057   0.33291
  42   31371.2    318.8   0.021112975   0.22156   0.40110   0.17328   0.17509
  43   31385.5    318.6   0.000483274   0.00507  -0.03693   0.03718   0.04819
  44   31572.3    316.7   0.042857205   0.44688  -0.15328   0.30387   0.57537
  45   31688.8    315.6   0.070469028   0.73210   0.64361   0.52459  -0.20657
  46   31920.2    313.3   0.064381791   0.66401   0.31754   0.60454  -0.44465
  47   31953.6    313.0   0.016329401   0.16824   0.17427   0.05839   0.36669
  48   32363.3    309.0   0.025163088   0.25597   0.10002   0.20904   0.44974
  49   32505.6    307.6   0.010334873   0.10467   0.27855   0.01853  -0.16352
  50   32586.1    306.9   0.018606777   0.18798  -0.42868   0.02743   0.05882
  51   32901.0    303.9   0.175354943   1.75463   1.12893   0.24518   0.64809
  52   32998.9    303.0   0.010029778   0.10006  -0.25131  -0.18499  -0.05181
  53   33063.1    302.5   0.119087882   1.18577  -0.79662  -0.29419  -0.68163
  54   33120.9    301.9   0.131104078   1.30314   0.93839   0.57230   0.30827
  55   33238.3    300.9   0.108585143   1.07549  -0.86050   0.03474  -0.57777
  56   33352.0    299.8   0.083706965   0.82626  -0.38884  -0.41597  -0.70854
  57   33688.1    296.8   0.022855102   0.22335  -0.37325   0.25582  -0.13634
  58   33793.2    295.9   0.120992828   1.17871   0.98884  -0.43960   0.08747
  59   33872.8    295.2   0.049577274   0.48184  -0.18443   0.32835   0.58311
  60   34156.6    292.8   0.018919384   0.18235   0.13382  -0.40483  -0.02358
  61   34318.6    291.4   0.045261618   0.43419   0.01532   0.10372   0.65053
  62   34532.7    289.6   0.279134383   2.66108   1.39106   0.41745   0.74281
  63   34650.4    288.6   0.055450590   0.52683  -0.71609  -0.09121   0.07568
  64   34954.8    286.1   0.136782206   1.28824  -0.50450   0.07346   1.01407
  65   35030.7    285.5   0.012508542   0.11755  -0.06360   0.00161   0.33690
  66   35123.4    284.7   0.014310986   0.13414  -0.34765   0.05889   0.09904
  67   35153.8    284.5   0.038306307   0.35874  -0.24590   0.50746   0.20188
  68   35221.5    283.9   0.002846673   0.02661  -0.04340   0.15462   0.02856
  69   35315.7    283.2   0.021051140   0.19624  -0.33371   0.28441  -0.06312
  70   35473.1    281.9   0.050000025   0.46403  -0.67784   0.01080   0.06666
  71   35553.5    281.3   0.011191756   0.10363  -0.23649   0.11369   0.18649
  72   35956.4    278.1   0.037088763   0.33958   0.47989   0.11117  -0.31133
  73   35988.1    277.9   0.015611347   0.14281  -0.15532   0.09865   0.33008
  74   36270.1    275.7   0.035003027   0.31771   0.55616   0.05602   0.07250
  75   36289.6    275.6   0.013588286   0.12327  -0.27870   0.18399   0.10837
  76   36411.1    274.6   0.011671968   0.10553   0.28565   0.00005  -0.15472
  77   36495.9    274.0   0.012174678   0.10982   0.01899   0.11624  -0.30976
  78   36607.5    273.2   0.143786647   1.29307   1.08127   0.19274   0.29458
  79   36667.8    272.7   0.054955536   0.49340  -0.24915  -0.25543   0.60505
  80   36770.9    272.0   0.079857760   0.71497   0.76589  -0.15643   0.32235
  81   36831.9    271.5   0.026088616   0.23319  -0.04654  -0.45316  -0.16020
  82   37054.6    269.9   0.011481265   0.10201  -0.11207   0.24742   0.16801
  83   37163.6    269.1   0.033807668   0.29948  -0.52567   0.14133   0.05639
  84   37247.0    268.5   0.017899533   0.15821  -0.03039  -0.06619   0.39103
  85   37310.5    268.0   0.024364366   0.21498  -0.35327   0.29305   0.06557
  86   37543.9    266.4   0.280890990   2.46305   0.73156  -0.46642  -1.30779
  87   37609.3    265.9   0.217105798   1.90043   0.28999  -0.15905  -1.33830
  88   37909.0    263.8   0.006603809   0.05735   0.11208  -0.18325  -0.10586
  89   38037.1    262.9   0.112021651   0.96955   0.68825   0.23373   0.66425
  90   38133.8    262.2   0.079514736   0.68646  -0.21443  -0.41308  -0.68545
  91   38435.9    260.2   0.035067359   0.30036   0.44898   0.29807   0.09965
  92   38539.4    259.5   0.196050429   1.67471   1.18069   0.52226  -0.08898
  93   38714.8    258.3   0.025899211   0.22023  -0.35120  -0.20252   0.23639
  94   38787.1    257.8   0.222062935   1.88479   0.84442   0.92243  -0.56646
  95   38939.1    256.8   0.106444678   0.89994   0.64198   0.62839   0.30483
  96   39271.6    254.6   0.025359598   0.21259   0.20568   0.23958  -0.33599
  97   39323.4    254.3   0.007876376   0.06594   0.11969   0.07048  -0.21598
  98   39455.1    253.5   0.016135552   0.13463  -0.18419  -0.01218  -0.31711
  99   39592.6    252.6   0.034252915   0.28481  -0.31091   0.20745  -0.38094
 100   39722.4    251.7   0.052371636   0.43405   0.60191  -0.26778   0.00644
 101   39812.3    251.2   0.114203810   0.94436   0.27399  -0.90893   0.20770
 102   39859.6    250.9   0.011854136   0.09791  -0.09182   0.21585  -0.20709
 103   40079.7    249.5   0.016784590   0.13787   0.18364   0.30401   0.10828
 104   40260.7    248.4   0.009052158   0.07402  -0.22773   0.02943   0.14592
 105   40325.4    248.0   0.004578187   0.03738   0.05880  -0.11572  -0.14328

FINAL SINGLE POINT ENERGY     -5402.607768725950

DIPOLE MOMENT
-------------
                                X             Y             Z
Electronic contribution:    -21.72362      23.93163      19.10806
Nuclear contribution   :     21.18199     -24.56445     -17.86768
                        -----------------------------------------
Total Dipole Moment    :     -0.54163      -0.63281       1.24038
                        -----------------------------------------
Magnitude (a.u.)       :      1.49411
Magnitude (Debye)      :      3.79772

Rotational constants in cm-1:     0.000825     0.000420     0.000348
Rotational constants in MHz :    24.734443    12.592498    10.432623

                             ****ORCA TERMINATED NORMALLY****
TOTAL RUN TIME: 0 days 0 hours 11 minutes 57 seconds 244 msec
