                         Program Version 4.2.0 -  RELEASE  -
|  1> # ORCA input file
|  2> # SCF done       -190.176514377695          0.000491302082
|  3> ! CAM-B3LYP def2-SVP def2/J RIJCOSX Grid4 TightSCF
|  4> %maxcore 5000
|  5> %tddft
|  6>     Mode sTDDFT
|  7>     Ethresh 5.0
|  8>     maxcore 5000
|  9> end
| 10>
| 11> %pal
| 12>   nprocs 6
| 13>   end
| 14> * xyz 0 1
| 15>    C        1.29704        10.08833         0.55281
| 16>    C        0.82607        10.70174         1.68315
| 17>    C        1.48178        11.77195         2.32868
| 18>    N        1.96992        12.63854         2.90141
| 19>    C       -0.39552        10.40232         2.32450
| 20>    N       -1.39120        10.24422         2.87387
| 21>    C        2.47754        10.48841        -0.20362
| 22>    C        2.52342         9.72898        -1.40896
| 23>    C        3.50990         9.90367        -2.33684
| 24>    C        4.51911        10.86190        -2.09520
| 25>    C        4.48644        11.61944        -0.88831
| 26>    C        3.45065        11.41775         0.05278
| 27>    C        5.50024        12.57108        -0.65686
| 28>    C        6.49777        12.76790        -1.57290
| 29>    C        6.52844        12.02224        -2.76082
| 30>    C        5.56018        11.08930        -3.01653
| 31>    C        1.38690         8.79911        -1.44141
| 32>    O        1.10828         8.01784        -2.33102
| 33>    C        0.66892         8.99027        -0.16488
| 34>    C       -0.34321         8.20534         0.30568
| 35>    C       -1.04543         7.15896        -0.32504
| 36>    S       -0.88705         6.60341        -1.99100
| 37>    C       -2.17930         5.47701        -1.80227
| 38>    C       -2.69940         5.49699        -0.54745
| 39>    C       -2.05706         6.44374         0.30333
| 40>    C       -2.65677         6.40150         1.60208
| 41>    C       -3.66258         5.47233         1.58687
| 42>    C       -3.77002         4.84594         0.22714
| 43>    O       -4.58145         4.01200        -0.09604
| 44>    C       -4.55330         5.09395         2.61719
| 45>    S       -5.88419         4.01343         2.26677
| 46>    C       -4.58499         5.47038         3.94518
| 47>    C       -3.78289         6.28430         4.87387
| 48>    O       -2.76029         6.89791         4.69093
| 49>    N       -4.44573         6.18837         6.09183
| 50>    C       -4.00374         6.88299         7.28295
| 51>    C       -4.51771         8.31792         7.30823
| 52>    C       -5.58799         5.39550         6.05306
| 53>    O       -6.31177         5.17169         6.99072
| 54>    C       -5.66438         4.92258         4.66095
| 55>    C       -6.48992         4.10941         3.91228
| 56>    C       -7.66579         3.46467         4.36476
| 57>    C       -8.45020         2.66506         3.60306
| 58>    C       -9.65245         2.08520         4.08466
| 59>    O      -10.10186         2.33416         5.32879
| 60>    C      -11.27751         1.68991         5.51000
| 61>    C      -11.60273         0.98614         4.34771
| 62>    C      -10.55085         1.24297         3.42665
| 63>    C      -10.43010         0.75426         2.11868
| 64>    N      -10.32423         0.35974         1.04781
| 65>    C      -12.71193         0.16560         4.09545
| 66>    N      -13.59222        -0.52320         3.84233
| 67>    C      -11.93238         1.84380         6.75701
| 68>    C      -13.15400         1.34545         7.07761
| 69>    C      -13.71561         1.58610         8.35644
| 70>    C      -14.95703         1.18900         8.75570
| 71>    C      -15.56751         1.41081        10.05608
| 72>    C      -15.01725         2.07468        11.12192
| 73>    C      -15.66627         2.25838        12.36176
| 74>    N      -16.13254         2.44721        13.39373
| 75>    C      -13.74084         2.67458        11.15286
| 76>    N      -12.72007         3.18948        11.26297
| 77>    C      -16.89228         0.80160        10.03474
| 78>    C      -17.11074         0.22303         8.75179
| 79>    C      -15.92857         0.44475         7.90294
| 80>    O      -15.78645         0.10054         6.75087
| 81>    C      -18.27315        -0.41969         8.43648
| 82>    C      -19.29256        -0.51612         9.40955
| 83>    C      -19.08295         0.05949        10.69629
| 84>    C      -17.86855         0.71863        10.99329
| 85>    C      -20.10698        -0.04127        11.66030
| 86>    C      -21.28179        -0.67922        11.36904
| 87>    C      -21.48692        -1.24571        10.10190
| 88>    C      -20.51361        -1.16608         9.14306
| 89>    H        3.51879         9.31828        -3.24423
| 90>    H        3.45665        12.00424         0.95774
| 91>    H        5.47188        13.14393         0.25830
| 92>    H        7.26897        13.50015        -1.38697
| 93>    H        7.32287        12.19057        -3.47222
| 94>    H        5.57836        10.51215        -3.92934
| 95>    H       -0.68660         8.38948         1.31719
| 96>    H       -2.47385         4.86009        -2.62956
| 97>    H       -2.37188         6.99543         2.45298
| 98>    H       -2.91105         6.87292         7.28513
| 99>    H       -4.38315         6.32373         8.14119
|100>    H       -4.14250         8.86560         6.44695
|101>    H       -4.17711         8.81351         8.21274
|102>    H       -5.60514         8.32924         7.29123
|103>    H       -7.93142         3.65931         5.39641
|104>    H       -8.19214         2.44421         2.57645
|105>    H      -11.38435         2.43557         7.48042
|106>    H      -13.72557         0.76990         6.36417
|107>    H      -13.09327         2.13444         9.05233
|108>    H      -18.41119        -0.84878         7.45522
|109>    H      -17.74288         1.14268        11.97666
|110>    H      -19.94438         0.39674        12.63416
|111>    H      -22.06025        -0.75072        12.11376
|112>    H      -22.42019        -1.74541         9.88953
|113>    H      -20.66560        -1.60032         8.16585
|114> *
|115>
|116>                          ****END OF INPUT****

CARTESIAN COORDINATES (ANGSTROEM)
---------------------------------
  C      1.297040   10.088330    0.552810
  C      0.826070   10.701740    1.683150
  C      1.481780   11.771950    2.328680
  N      1.969920   12.638540    2.901410
  C     -0.395520   10.402320    2.324500
  N     -1.391200   10.244220    2.873870
  C      2.477540   10.488410   -0.203620
  C      2.523420    9.728980   -1.408960
  C      3.509900    9.903670   -2.336840
  C      4.519110   10.861900   -2.095200
  C      4.486440   11.619440   -0.888310
  C      3.450650   11.417750    0.052780
  C      5.500240   12.571080   -0.656860
  C      6.497770   12.767900   -1.572900
  C      6.528440   12.022240   -2.760820
  C      5.560180   11.089300   -3.016530
  C      1.386900    8.799110   -1.441410
  O      1.108280    8.017840   -2.331020
  C      0.668920    8.990270   -0.164880
  C     -0.343210    8.205340    0.305680
  C     -1.045430    7.158960   -0.325040
  S     -0.887050    6.603410   -1.991000
  C     -2.179300    5.477010   -1.802270
  C     -2.699400    5.496990   -0.547450
  C     -2.057060    6.443740    0.303330
  C     -2.656770    6.401500    1.602080
  C     -3.662580    5.472330    1.586870
  C     -3.770020    4.845940    0.227140
  O     -4.581450    4.012000   -0.096040
  C     -4.553300    5.093950    2.617190
  S     -5.884190    4.013430    2.266770
  C     -4.584990    5.470380    3.945180
  C     -3.782890    6.284300    4.873870
  O     -2.760290    6.897910    4.690930
  N     -4.445730    6.188370    6.091830
  C     -4.003740    6.882990    7.282950
  C     -4.517710    8.317920    7.308230
  C     -5.587990    5.395500    6.053060
  O     -6.311770    5.171690    6.990720
  C     -5.664380    4.922580    4.660950
  C     -6.489920    4.109410    3.912280
  C     -7.665790    3.464670    4.364760
  C     -8.450200    2.665060    3.603060
  C     -9.652450    2.085200    4.084660
  O    -10.101860    2.334160    5.328790
  C    -11.277510    1.689910    5.510000
  C    -11.602730    0.986140    4.347710
  C    -10.550850    1.242970    3.426650
  C    -10.430100    0.754260    2.118680
  N    -10.324230    0.359740    1.047810
  C    -12.711930    0.165600    4.095450
  N    -13.592220   -0.523200    3.842330
  C    -11.932380    1.843800    6.757010
  C    -13.154000    1.345450    7.077610
  C    -13.715610    1.586100    8.356440
  C    -14.957030    1.189000    8.755700
  C    -15.567510    1.410810   10.056080
  C    -15.017250    2.074680   11.121920
  C    -15.666270    2.258380   12.361760
  N    -16.132540    2.447210   13.393730
  C    -13.740840    2.674580   11.152860
  N    -12.720070    3.189480   11.262970
  C    -16.892280    0.801600   10.034740
  C    -17.110740    0.223030    8.751790
  C    -15.928570    0.444750    7.902940
  O    -15.786450    0.100540    6.750870
  C    -18.273150   -0.419690    8.436480
  C    -19.292560   -0.516120    9.409550
  C    -19.082950    0.059490   10.696290
  C    -17.868550    0.718630   10.993290
  C    -20.106980   -0.041270   11.660300
  C    -21.281790   -0.679220   11.369040
  C    -21.486920   -1.245710   10.101900
  C    -20.513610   -1.166080    9.143060
  H      3.518790    9.318280   -3.244230
  H      3.456650   12.004240    0.957740
  H      5.471880   13.143930    0.258300
  H      7.268970   13.500150   -1.386970
  H      7.322870   12.190570   -3.472220
  H      5.578360   10.512150   -3.929340
  H     -0.686600    8.389480    1.317190
  H     -2.473850    4.860090   -2.629560
  H     -2.371880    6.995430    2.452980
  H     -2.911050    6.872920    7.285130
  H     -4.383150    6.323730    8.141190
  H     -4.142500    8.865600    6.446950
  H     -4.177110    8.813510    8.212740
  H     -5.605140    8.329240    7.291230
  H     -7.931420    3.659310    5.396410
  H     -8.192140    2.444210    2.576450
  H    -11.384350    2.435570    7.480420
  H    -13.725570    0.769900    6.364170
  H    -13.093270    2.134440    9.052330
  H    -18.411190   -0.848780    7.455220
  H    -17.742880    1.142680   11.976660
  H    -19.944380    0.396740   12.634160
  H    -22.060250   -0.750720   12.113760
  H    -22.420190   -1.745410    9.889530
  H    -20.665600   -1.600320    8.165850

 Total Charge           Charge          ....    0
 Multiplicity           Mult            ....    1
 Number of Electrons    NEL             ....  508
 Basis Dimension        Dim             .... 1169

ORBITAL ENERGIES
----------------

  NO   OCC          E(Eh)            E(eV)
   0   2.0000     -88.981042     -2421.2972
   1   2.0000     -88.977166     -2421.1918
   2   2.0000     -19.334274      -526.1124
   3   2.0000     -19.240747      -523.5673
   4   2.0000     -19.230562      -523.2902
   5   2.0000     -19.219351      -522.9851
   6   2.0000     -19.217595      -522.9373
   7   2.0000     -19.216740      -522.9141
   8   2.0000     -14.458727      -393.4420
   9   2.0000     -14.423567      -392.4852
  10   2.0000     -14.421147      -392.4194
  11   2.0000     -14.420706      -392.4074
  12   2.0000     -14.419635      -392.3782
  13   2.0000     -14.419327      -392.3698
  14   2.0000     -14.416488      -392.2926
  15   2.0000     -10.401257      -283.0326
  16   2.0000     -10.399203      -282.9767
  17   2.0000     -10.385658      -282.6081
  18   2.0000     -10.381589      -282.4974
  19   2.0000     -10.379810      -282.4490
  20   2.0000     -10.379308      -282.4353
  21   2.0000     -10.367878      -282.1243
  22   2.0000     -10.350342      -281.6471
  23   2.0000     -10.348598      -281.5997
  24   2.0000     -10.345142      -281.5056
  25   2.0000     -10.342807      -281.4421
  26   2.0000     -10.342376      -281.4303
  27   2.0000     -10.340922      -281.3908
  28   2.0000     -10.337972      -281.3105
  29   2.0000     -10.335260      -281.2367
  30   2.0000     -10.333941      -281.2008
  31   2.0000     -10.331808      -281.1428
  32   2.0000     -10.327605      -281.0284
  33   2.0000     -10.325715      -280.9770
  34   2.0000     -10.323669      -280.9213
  35   2.0000     -10.321875      -280.8725
  36   2.0000     -10.319956      -280.8203
  37   2.0000     -10.319810      -280.8163
  38   2.0000     -10.319331      -280.8033
  39   2.0000     -10.319150      -280.7983
  40   2.0000     -10.318356      -280.7767
  41   2.0000     -10.317005      -280.7400
  42   2.0000     -10.313776      -280.6521
  43   2.0000     -10.313195      -280.6363
  44   2.0000     -10.311766      -280.5974
  45   2.0000     -10.311698      -280.5956
  46   2.0000     -10.310788      -280.5708
  47   2.0000     -10.310298      -280.5575
  48   2.0000     -10.306666      -280.4586
  49   2.0000     -10.304840      -280.4089
  50   2.0000     -10.304531      -280.4005
  51   2.0000     -10.304342      -280.3954
  52   2.0000     -10.304271      -280.3935
  53   2.0000     -10.303704      -280.3780
  54   2.0000     -10.303623      -280.3758
  55   2.0000     -10.301524      -280.3187
  56   2.0000     -10.300914      -280.3021
  57   2.0000     -10.300500      -280.2909
  58   2.0000     -10.297966      -280.2219
  59   2.0000     -10.297710      -280.2149
  60   2.0000     -10.297167      -280.2001
  61   2.0000     -10.296755      -280.1889
  62   2.0000     -10.296358      -280.1782
  63   2.0000     -10.293489      -280.1001
  64   2.0000     -10.292777      -280.0807
  65   2.0000     -10.292302      -280.0678
  66   2.0000     -10.291946      -280.0581
  67   2.0000     -10.291413      -280.0436
  68   2.0000     -10.288550      -279.9657
  69   2.0000     -10.286574      -279.9119
  70   2.0000     -10.286063      -279.8980
  71   2.0000     -10.285819      -279.8914
  72   2.0000     -10.285481      -279.8822
  73   2.0000     -10.257859      -279.1305
  74   2.0000      -8.074907      -219.7294
  75   2.0000      -8.070775      -219.6169
  76   2.0000      -6.044364      -164.4755
  77   2.0000      -6.040421      -164.3682
  78   2.0000      -6.039835      -164.3523
  79   2.0000      -6.037093      -164.2776
  80   2.0000      -6.035501      -164.2343
  81   2.0000      -6.032845      -164.1620
  82   2.0000      -1.254850       -34.1462
  83   2.0000      -1.163658       -31.6647
  84   2.0000      -1.154891       -31.4262
  85   2.0000      -1.146235       -31.1907
  86   2.0000      -1.140476       -31.0339
  87   2.0000      -1.132892       -30.8276
  88   2.0000      -1.055390       -28.7186
  89   2.0000      -1.026302       -27.9271
  90   2.0000      -1.021427       -27.7945
  91   2.0000      -1.020226       -27.7618
  92   2.0000      -1.010386       -27.4940
  93   2.0000      -1.007695       -27.4208
  94   2.0000      -1.006148       -27.3787
  95   2.0000      -1.001087       -27.2410
  96   2.0000      -1.000502       -27.2250
  97   2.0000      -0.999872       -27.2079
  98   2.0000      -0.995764       -27.0961
  99   2.0000      -0.979095       -26.6425
 100   2.0000      -0.972733       -26.4694
 101   2.0000      -0.958760       -26.0892
 102   2.0000      -0.954381       -25.9700
 103   2.0000      -0.951312       -25.8865
 104   2.0000      -0.932862       -25.3845
 105   2.0000      -0.931163       -25.3382
 106   2.0000      -0.921452       -25.0740
 107   2.0000      -0.914916       -24.8961
 108   2.0000      -0.905072       -24.6283
 109   2.0000      -0.899622       -24.4800
 110   2.0000      -0.890409       -24.2293
 111   2.0000      -0.886967       -24.1356
 112   2.0000      -0.885808       -24.1041
 113   2.0000      -0.881027       -23.9740
 114   2.0000      -0.862465       -23.4689
 115   2.0000      -0.844252       -22.9733
 116   2.0000      -0.839929       -22.8556
 117   2.0000      -0.835249       -22.7283
 118   2.0000      -0.830965       -22.6117
 119   2.0000      -0.828581       -22.5468
 120   2.0000      -0.815332       -22.1863
 121   2.0000      -0.802843       -21.8465
 122   2.0000      -0.797173       -21.6922
 123   2.0000      -0.782581       -21.2951
 124   2.0000      -0.770431       -20.9645
 125   2.0000      -0.764117       -20.7927
 126   2.0000      -0.762581       -20.7509
 127   2.0000      -0.760520       -20.6948
 128   2.0000      -0.753674       -20.5085
 129   2.0000      -0.748143       -20.3580
 130   2.0000      -0.741449       -20.1759
 131   2.0000      -0.726307       -19.7638
 132   2.0000      -0.720196       -19.5975
 133   2.0000      -0.711787       -19.3687
 134   2.0000      -0.706687       -19.2299
 135   2.0000      -0.704423       -19.1683
 136   2.0000      -0.702351       -19.1119
 137   2.0000      -0.695570       -18.9274
 138   2.0000      -0.685148       -18.6438
 139   2.0000      -0.682883       -18.5822
 140   2.0000      -0.672311       -18.2945
 141   2.0000      -0.665793       -18.1171
 142   2.0000      -0.663712       -18.0605
 143   2.0000      -0.658113       -17.9082
 144   2.0000      -0.653392       -17.7797
 145   2.0000      -0.643758       -17.5175
 146   2.0000      -0.639375       -17.3983
 147   2.0000      -0.635162       -17.2836
 148   2.0000      -0.625157       -17.0114
 149   2.0000      -0.617443       -16.8015
 150   2.0000      -0.616444       -16.7743
 151   2.0000      -0.613006       -16.6808
 152   2.0000      -0.606980       -16.5168
 153   2.0000      -0.606784       -16.5114
 154   2.0000      -0.601729       -16.3739
 155   2.0000      -0.598685       -16.2910
 156   2.0000      -0.588057       -16.0018
 157   2.0000      -0.583743       -15.8845
 158   2.0000      -0.581644       -15.8273
 159   2.0000      -0.581631       -15.8270
 160   2.0000      -0.574823       -15.6417
 161   2.0000      -0.568295       -15.4641
 162   2.0000      -0.559333       -15.2202
 163   2.0000      -0.556198       -15.1349
 164   2.0000      -0.554253       -15.0820
 165   2.0000      -0.551891       -15.0177
 166   2.0000      -0.550442       -14.9783
 167   2.0000      -0.547872       -14.9083
 168   2.0000      -0.546757       -14.8780
 169   2.0000      -0.546178       -14.8623
 170   2.0000      -0.545705       -14.8494
 171   2.0000      -0.541411       -14.7325
 172   2.0000      -0.539808       -14.6889
 173   2.0000      -0.538364       -14.6496
 174   2.0000      -0.535650       -14.5758
 175   2.0000      -0.531361       -14.4591
 176   2.0000      -0.530560       -14.4373
 177   2.0000      -0.528927       -14.3928
 178   2.0000      -0.523465       -14.2442
 179   2.0000      -0.519596       -14.1389
 180   2.0000      -0.516995       -14.0681
 181   2.0000      -0.515132       -14.0175
 182   2.0000      -0.514155       -13.9909
 183   2.0000      -0.512181       -13.9372
 184   2.0000      -0.508852       -13.8466
 185   2.0000      -0.506638       -13.7863
 186   2.0000      -0.505214       -13.7476
 187   2.0000      -0.504773       -13.7356
 188   2.0000      -0.501558       -13.6481
 189   2.0000      -0.499434       -13.5903
 190   2.0000      -0.498526       -13.5656
 191   2.0000      -0.495722       -13.4893
 192   2.0000      -0.494227       -13.4486
 193   2.0000      -0.492702       -13.4071
 194   2.0000      -0.488212       -13.2849
 195   2.0000      -0.487391       -13.2626
 196   2.0000      -0.483790       -13.1646
 197   2.0000      -0.482331       -13.1249
 198   2.0000      -0.481154       -13.0929
 199   2.0000      -0.478306       -13.0154
 200   2.0000      -0.475527       -12.9398
 201   2.0000      -0.472740       -12.8639
 202   2.0000      -0.467739       -12.7278
 203   2.0000      -0.465138       -12.6571
 204   2.0000      -0.462214       -12.5775
 205   2.0000      -0.455502       -12.3948
 206   2.0000      -0.451491       -12.2857
 207   2.0000      -0.451247       -12.2791
 208   2.0000      -0.450877       -12.2690
 209   2.0000      -0.448121       -12.1940
 210   2.0000      -0.447321       -12.1722
 211   2.0000      -0.446393       -12.1470
 212   2.0000      -0.446141       -12.1401
 213   2.0000      -0.445778       -12.1302
 214   2.0000      -0.442075       -12.0295
 215   2.0000      -0.440811       -11.9951
 216   2.0000      -0.440718       -11.9925
 217   2.0000      -0.439507       -11.9596
 218   2.0000      -0.435050       -11.8383
 219   2.0000      -0.433840       -11.8054
 220   2.0000      -0.433622       -11.7994
 221   2.0000      -0.432714       -11.7747
 222   2.0000      -0.431336       -11.7373
 223   2.0000      -0.428016       -11.6469
 224   2.0000      -0.427454       -11.6316
 225   2.0000      -0.426008       -11.5923
 226   2.0000      -0.421006       -11.4562
 227   2.0000      -0.420110       -11.4318
 228   2.0000      -0.418997       -11.4015
 229   2.0000      -0.414023       -11.2661
 230   2.0000      -0.412411       -11.2223
 231   2.0000      -0.407433       -11.0868
 232   2.0000      -0.407162       -11.0795
 233   2.0000      -0.393584       -10.7100
 234   2.0000      -0.387794       -10.5524
 235   2.0000      -0.376810       -10.2535
 236   2.0000      -0.371966       -10.1217
 237   2.0000      -0.368786       -10.0352
 238   2.0000      -0.368215       -10.0197
 239   2.0000      -0.359370        -9.7790
 240   2.0000      -0.358255        -9.7486
 241   2.0000      -0.355850        -9.6832
 242   2.0000      -0.350773        -9.5450
 243   2.0000      -0.341329        -9.2880
 244   2.0000      -0.336377        -9.1533
 245   2.0000      -0.335734        -9.1358
 246   2.0000      -0.331493        -9.0204
 247   2.0000      -0.325116        -8.8469
 248   2.0000      -0.318014        -8.6536
 249   2.0000      -0.314508        -8.5582
 250   2.0000      -0.300607        -8.1799
 251   2.0000      -0.295988        -8.0542
 252   2.0000      -0.288928        -7.8621
 253   2.0000      -0.262935        -7.1548
 254   0.0000      -0.117310        -3.1922
 255   0.0000      -0.107358        -2.9214
 256   0.0000      -0.078629        -2.1396
 257   0.0000      -0.069059        -1.8792
 258   0.0000      -0.060961        -1.6588

MULLIKEN ATOMIC CHARGES
-----------------------
   0 C :    0.315160
   1 C :   -0.336547
   2 C :   -0.179799
   3 N :    0.150740
   4 C :   -0.208138
   5 N :    0.164361
   6 C :    0.046665
   7 C :   -0.005683
   8 C :   -0.075623
   9 C :    0.095536
  10 C :    0.095274
  11 C :   -0.080567
  12 C :   -0.017644
  13 C :    0.035998
  14 C :    0.036687
  15 C :   -0.014278
  16 C :    0.171092
  17 O :   -0.169841
  18 C :   -0.083498
  19 C :   -0.058001
  20 C :   -0.096916
  21 S :    0.204398
  22 C :   -0.093622
  23 C :    0.011717
  24 C :    0.087381
  25 C :   -0.011903
  26 C :   -0.043333
  27 C :    0.157727
  28 O :   -0.127765
  29 C :   -0.119888
  30 S :    0.198196
  31 C :    0.010206
  32 C :    0.198632
  33 O :   -0.168401
  34 N :   -0.310793
  35 C :    0.131522
  36 C :   -0.010296
  37 C :    0.185877
  38 O :   -0.162747
  39 C :    0.027477
  40 C :   -0.118481
  41 C :    0.005265
  42 C :   -0.053389
  43 C :    0.141241
  44 O :   -0.175076
  45 C :    0.173575
  46 C :   -0.026770
  47 C :   -0.013511
  48 C :   -0.296271
  49 N :    0.235614
  50 C :   -0.289300
  51 N :    0.245042
  52 C :   -0.009276
  53 C :   -0.021276
  54 C :   -0.057212
  55 C :   -0.049960
  56 C :    0.342004
  57 C :   -0.352339
  58 C :   -0.180168
  59 N :    0.148246
  60 C :   -0.190183
  61 N :    0.149151
  62 C :    0.044382
  63 C :   -0.002829
  64 C :    0.146884
  65 O :   -0.130784
  66 C :   -0.076860
  67 C :    0.095684
  68 C :    0.096066
  69 C :   -0.082278
  70 C :   -0.018167
  71 C :    0.035428
  72 C :    0.038251
  73 C :   -0.013544
  74 H :   -0.010746
  75 H :   -0.006669
  76 H :   -0.007185
  77 H :   -0.001884
  78 H :   -0.002188
  79 H :   -0.016276
  80 H :    0.020739
  81 H :    0.040958
  82 H :    0.034673
  83 H :    0.033082
  84 H :    0.035116
  85 H :    0.036470
  86 H :    0.024564
  87 H :    0.024972
  88 H :    0.030754
  89 H :    0.031204
  90 H :    0.023173
  91 H :    0.059450
  92 H :    0.013770
  93 H :   -0.009630
  94 H :   -0.009591
  95 H :   -0.009608
  96 H :   -0.003192
  97 H :   -0.004595
  98 H :   -0.015876
Sum of atomic charges:   -0.0000000

LOEWDIN ATOMIC CHARGES
----------------------
   0 C :    0.075206
   1 C :   -0.134721
   2 C :   -0.017019
   3 N :   -0.049169
   4 C :   -0.024551
   5 N :   -0.045066
   6 C :   -0.025440
   7 C :   -0.057053
   8 C :    0.035155
   9 C :   -0.008268
  10 C :   -0.005071
  11 C :    0.021078
  12 C :   -0.004679
  13 C :   -0.010958
  14 C :   -0.010468
  15 C :   -0.008486
  16 C :    0.085968
  17 O :   -0.158673
  18 C :   -0.092494
  19 C :    0.058324
  20 C :   -0.172541
  21 S :    0.506119
  22 C :   -0.114355
  23 C :   -0.111328
  24 C :   -0.021287
  25 C :    0.054800
  26 C :   -0.076052
  27 C :    0.090120
  28 O :   -0.119976
  29 C :   -0.127246
  30 S :    0.494519
  31 C :   -0.087555
  32 C :    0.094597
  33 O :   -0.159004
  34 N :   -0.030888
  35 C :    0.043641
  36 C :   -0.059265
  37 C :    0.089086
  38 O :   -0.160878
  39 C :   -0.080109
  40 C :   -0.148705
  41 C :    0.002840
  42 C :   -0.042975
  43 C :    0.077126
  44 O :    0.040860
  45 C :    0.061480
  46 C :   -0.069439
  47 C :   -0.085692
  48 C :   -0.036169
  49 N :   -0.026677
  50 C :   -0.036409
  51 N :   -0.012575
  52 C :   -0.001112
  53 C :   -0.000757
  54 C :    0.059814
  55 C :   -0.076683
  56 C :    0.074344
  57 C :   -0.134403
  58 C :   -0.016556
  59 N :   -0.050832
  60 C :   -0.020308
  61 N :   -0.049990
  62 C :   -0.026529
  63 C :   -0.056117
  64 C :    0.082817
  65 O :   -0.129289
  66 C :    0.034947
  67 C :   -0.007464
  68 C :   -0.005876
  69 C :    0.020006
  70 C :   -0.005098
  71 C :   -0.012791
  72 C :   -0.011092
  73 C :   -0.008460
  74 H :    0.039897
  75 H :    0.039667
  76 H :    0.035526
  77 H :    0.034322
  78 H :    0.033881
  79 H :    0.032442
  80 H :    0.052975
  81 H :    0.037361
  82 H :    0.039472
  83 H :    0.032923
  84 H :    0.033321
  85 H :    0.031357
  86 H :    0.031563
  87 H :    0.027813
  88 H :    0.048153
  89 H :    0.043348
  90 H :    0.049089
  91 H :    0.041908
  92 H :    0.042721
  93 H :    0.040746
  94 H :    0.038956
  95 H :    0.034820
  96 H :    0.033593
  97 H :    0.033168
  98 H :    0.032733

  Mayer bond orders larger than 0.100000
B(  0-C ,  1-C ) :   1.6436 B(  0-C ,  6-C ) :   0.9918 B(  0-C , 18-C ) :   1.0604
B(  1-C ,  2-C ) :   1.1444 B(  1-C ,  4-C ) :   1.1381 B(  2-C ,  3-N ) :   2.9664
B(  4-C ,  5-N ) :   2.9947 B(  6-C ,  7-C ) :   1.2128 B(  6-C , 11-C ) :   1.4511
B(  7-C ,  8-C ) :   1.4694 B(  7-C , 16-C ) :   0.9588 B(  8-C ,  9-C ) :   1.1813
B(  8-C , 74-H ) :   1.0156 B(  9-C , 10-C ) :   1.2544 B(  9-C , 15-C ) :   1.2452
B( 10-C , 11-C ) :   1.2066 B( 10-C , 12-C ) :   1.2400 B( 11-C , 75-H ) :   0.9901
B( 12-C , 13-C ) :   1.4891 B( 12-C , 76-H ) :   0.9974 B( 13-C , 14-C ) :   1.2600
B( 13-C , 77-H ) :   0.9888 B( 14-C , 15-C ) :   1.4890 B( 14-C , 78-H ) :   0.9887
B( 15-C , 79-H ) :   0.9973 B( 16-C , 17-O ) :   2.1537 B( 16-C , 18-C ) :   0.9547
B( 18-C , 19-C ) :   1.5654 B( 19-C , 20-C ) :   1.2263 B( 19-C , 80-H ) :   0.9451
B( 20-C , 21-S ) :   1.0848 B( 20-C , 24-C ) :   1.3882 B( 21-S , 22-C ) :   1.1662
B( 22-C , 23-C ) :   1.5432 B( 22-C , 81-H ) :   0.9674 B( 23-C , 24-C ) :   1.2453
B( 23-C , 27-C ) :   0.9177 B( 24-C , 25-C ) :   1.0402 B( 25-C , 26-C ) :   1.6157
B( 25-C , 82-H ) :   0.9837 B( 26-C , 27-C ) :   0.9233 B( 26-C , 29-C ) :   1.1451
B( 27-C , 28-O ) :   2.2209 B( 29-C , 30-S ) :   1.1544 B( 29-C , 31-C ) :   1.4994
B( 30-S , 40-C ) :   1.0752 B( 31-C , 32-C ) :   0.8906 B( 31-C , 39-C ) :   1.2744
B( 32-C , 33-O ) :   2.1220 B( 32-C , 34-N ) :   1.0852 B( 34-N , 35-C ) :   0.9146
B( 34-N , 37-C ) :   1.0721 B( 35-C , 36-C ) :   1.1273 B( 35-C , 83-H ) :   0.9419
B( 35-C , 84-H ) :   0.9403 B( 36-C , 85-H ) :   0.9693 B( 36-C , 86-H ) :   0.9702
B( 36-C , 87-H ) :   0.9682 B( 37-C , 38-O ) :   2.1844 B( 37-C , 39-C ) :   0.8885
B( 39-C , 40-C ) :   1.4983 B( 40-C , 41-C ) :   1.1589 B( 41-C , 42-C ) :   1.5968
B( 41-C , 88-H ) :   0.9823 B( 42-C , 43-C ) :   1.2035 B( 42-C , 89-H ) :   0.9550
B( 43-C , 44-O ) :   1.1724 B( 43-C , 47-C ) :   1.3624 B( 44-O , 45-C ) :   1.1345
B( 45-C , 46-C ) :   1.3941 B( 45-C , 52-C ) :   1.1412 B( 46-C , 47-C ) :   1.3372
B( 46-C , 50-C ) :   1.1637 B( 47-C , 48-C ) :   1.1508 B( 48-C , 49-N ) :   3.0190
B( 50-C , 51-N ) :   2.9802 B( 52-C , 53-C ) :   1.5723 B( 52-C , 90-H ) :   0.9595
B( 53-C , 54-C ) :   1.1502 B( 53-C , 91-H ) :   0.9677 B( 54-C , 55-C ) :   1.5614
B( 54-C , 92-H ) :   0.9633 B( 55-C , 56-C ) :   1.0571 B( 55-C , 64-C ) :   0.9286
B( 56-C , 57-C ) :   1.6268 B( 56-C , 62-C ) :   0.9901 B( 57-C , 58-C ) :   1.1450
B( 57-C , 60-C ) :   1.1491 B( 58-C , 59-N ) :   2.9606 B( 60-C , 61-N ) :   2.9572
B( 62-C , 63-C ) :   1.2170 B( 62-C , 69-C ) :   1.4441 B( 63-C , 64-C ) :   0.9427
B( 63-C , 66-C ) :   1.4707 B( 64-C , 65-O ) :   2.2162 B( 66-C , 67-C ) :   1.1786
B( 66-C , 93-H ) :   1.0163 B( 67-C , 68-C ) :   1.2566 B( 67-C , 73-C ) :   1.2447
B( 68-C , 69-C ) :   1.2103 B( 68-C , 70-C ) :   1.2377 B( 69-C , 94-H ) :   0.9883
B( 70-C , 71-C ) :   1.4916 B( 70-C , 95-H ) :   0.9967 B( 71-C , 72-C ) :   1.2593
B( 71-C , 96-H ) :   0.9881 B( 72-C , 73-C ) :   1.4901 B( 72-C , 97-H ) :   0.9880
B( 73-C , 98-H ) :   0.9972

-----------------------------------------------------------------------------
         ABSORPTION SPECTRUM VIA TRANSITION ELECTRIC DIPOLE MOMENTS
-----------------------------------------------------------------------------
State   Energy  Wavelength   fosc         T2         TX        TY        TZ
        (cm-1)    (nm)                  (au**2)     (au)      (au)      (au)
-----------------------------------------------------------------------------
   0   16990.3    588.6   1.933817763  37.47063   4.84383   2.56314  -2.72731
   1   20058.0    498.6   0.367727621   6.03550   1.73110  -0.25919  -1.72383
   2   24087.4    415.2   0.208502423   2.84968   0.84331   1.35100   0.55974
   3   24468.7    408.7   0.017842686   0.24006  -0.45939   0.09280   0.14286
   4   25591.0    390.8   0.003849479   0.04952   0.22147  -0.02146   0.00332
   5   25705.2    389.0   0.000961076   0.01231  -0.10937  -0.01536   0.01057
   6   25944.0    385.4   0.009107362   0.11557  -0.05782   0.32728   0.07152
   7   26366.7    379.3   0.292220500   3.64864  -1.42124  -1.26891  -0.13630
   8   26753.5    373.8   0.460700100   5.66910   1.62030   1.61299   0.66481
   9   27085.3    369.2   0.081816301   0.99445  -0.08653   0.29719   0.94796
  10   27729.6    360.6   0.020878395   0.24787   0.13025   0.22318   0.42556
  11   28503.6    350.8   0.043202001   0.49898  -0.59171  -0.37416   0.09414
  12   28657.7    348.9   0.149914180   1.72217  -1.14458  -0.52972   0.36263
  13   28882.4    346.2   0.058825855   0.67052   0.70370   0.18421  -0.37601
  14   30224.7    330.9   0.233226866   2.54035   1.23240   0.44810  -0.90595
  15   30596.8    326.8   0.271007266   2.91596   1.52263   0.75987   0.14199
  16   31251.6    320.0   0.023666449   0.24931  -0.34359  -0.35320   0.08064
  17   32403.6    308.6   0.027124636   0.27558  -0.22833  -0.22351   0.41652
  18   32587.6    306.9   0.461428130   4.66152   1.68827   0.23956  -1.32433
  19   32611.6    306.6   0.206642314   2.08604   0.71648  -0.11438  -1.24885
  20   32866.3    304.3   0.591919829   5.92909   2.14308   1.15466   0.05530
  21   33008.7    303.0   0.285181289   2.84426   0.80090  -0.06192  -1.48289
  22   33095.0    302.2   0.051224558   0.50956  -0.63059  -0.30728   0.13225
  23   33368.7    299.7   0.024648146   0.24318   0.01143   0.03835  -0.49150
  24   33880.9    295.2   0.025059042   0.24349   0.45134   0.18088   0.08405
  25   34310.7    291.5   0.010887316   0.10446  -0.29417  -0.12183  -0.05553
  26   34491.7    289.9   0.026246688   0.25052   0.47441   0.10956  -0.11598
  27   34628.5    288.8   0.004875790   0.04635  -0.19911  -0.06231  -0.05317
  28   35368.1    282.7   0.023040602   0.21447  -0.37758  -0.11258   0.24336
  29   35403.1    282.5   0.016300104   0.15157  -0.33998  -0.05672   0.18102
  30   35876.3    278.7   0.027000496   0.24777  -0.33281   0.03025   0.36890
  31   35990.6    277.9   0.009762889   0.08930  -0.04702  -0.09495  -0.27942
  32   36284.1    275.6   0.003661279   0.03322   0.01615  -0.08166  -0.16214
  33   36364.1    275.0   0.014320474   0.12965  -0.34130  -0.11433   0.00956
  34   36405.7    274.7   0.030009066   0.27137   0.04040   0.22453   0.46832
  35   37049.2    269.9   0.080305694   0.71358   0.72865   0.42016  -0.07817
  36   37842.2    264.3   0.195112449   1.69740  -0.45431  -0.65160  -1.03267
  37   37874.6    264.0   0.017553749   0.15258   0.32182   0.08610  -0.20395
  38   38013.6    263.1   0.113386406   0.98197   0.60463  -0.22616  -0.75183
  39   38486.9    259.8   0.001070192   0.00915  -0.01586  -0.00364  -0.09428
  40   38664.7    258.6   0.024141905   0.20556   0.04251   0.11925   0.43535
  41   39096.5    255.8   0.202719613   1.70700   0.79644   0.75316   0.71094
  42   39272.6    254.6   0.168172759   1.40975  -0.21062   0.57689   1.01616
  43   39563.1    252.8   0.259214067   2.15697   0.25063   0.68416   1.27518
  44   39673.4    252.1   0.122273945   1.01464   0.40090   0.73947   0.55417
  45   39706.5    251.8   0.066712709   0.55312  -0.46577  -0.13322   0.56430
  46   39885.2    250.7   0.008866992   0.07319  -0.10990   0.20701   0.13511
  47   40014.0    249.9   0.043029000   0.35402  -0.03797  -0.38143  -0.45507

FINAL SINGLE POINT ENERGY     -3890.111655619603

DIPOLE MOMENT
-------------
                                X             Y             Z
Electronic contribution:      2.41188     -12.29155     -20.05855
Nuclear contribution   :     -0.17959      13.00619      18.26543
                        -----------------------------------------
Total Dipole Moment    :      2.23229       0.71465      -1.79312
                        -----------------------------------------
Magnitude (a.u.)       :      2.95112
Magnitude (Debye)      :      7.50115

Rotational constants in cm-1:     0.002690     0.000188     0.000177
Rotational constants in MHz :    80.646614     5.636431     5.316074

                             ****ORCA TERMINATED NORMALLY****
TOTAL RUN TIME: 0 days 0 hours 9 minutes 16 seconds 159 msec
