                         Program Version 4.2.0 -  RELEASE  -
|  1> # ORCA input file
|  2> # SCF done       -160.592144791018          0.000553684605
|  3> ! CAM-B3LYP def2-SVP def2/J RIJCOSX Grid4 TightSCF
|  4> %maxcore 5000
|  5> %tddft
|  6>     Mode sTDDFT
|  7>     Ethresh 5.0
|  8>     maxcore 5000
|  9> end
| 10>
| 11> %pal
| 12>   nprocs 6
| 13>   end
| 14> * xyz 0 1
| 15>    C       -1.09937        -1.29339         1.83677
| 16>    N       -0.40110        -0.87199         0.74969
| 17>    C        0.59617        -1.63251         0.03961
| 18>    C        1.90758        -1.70295         0.81768
| 19>    C       -0.71629         0.46978         0.42023
| 20>    O       -0.21944         1.06631        -0.51366
| 21>    C       -1.69502         0.84170         1.41055
| 22>    C       -1.90664        -0.27850         2.27158
| 23>    C       -2.88624         0.11605         3.26053
| 24>    O       -3.39021        -0.47158         4.19105
| 25>    N       -3.19300         1.46015         2.93779
| 26>    C       -4.21074         2.14871         3.69322
| 27>    C       -5.52571         2.24995         2.92354
| 28>    C       -2.49034         1.89615         1.83372
| 29>    C       -2.47728         3.16079         1.18391
| 30>    C       -3.09546         4.31914         1.51722
| 31>    C       -2.96192         5.52501         0.77428
| 32>    S       -3.74328         6.97260         1.36643
| 33>    C       -3.14680         7.91437         0.03860
| 34>    C       -2.38566         7.11370        -0.81676
| 35>    C       -2.28336         5.77827        -0.39831
| 36>    C       -1.78587         7.62080        -1.98239
| 37>    N       -1.30014         8.04393        -2.93132
| 38>    C       -3.40089         9.29812        -0.11540
| 39>    C       -4.11604        10.04943         0.75517
| 40>    C       -4.35074        11.44041         0.61417
| 41>    S       -3.74546        12.36421        -0.73602
| 42>    C       -4.43222        13.83811        -0.12274
| 43>    C       -5.10090        13.59712         1.08021
| 44>    C       -5.04903        12.25131         1.48179
| 45>    C       -5.77383        14.55917         1.85113
| 46>    N       -6.33785        15.29943         2.52306
| 47>    C       -4.24674        15.03331        -0.86240
| 48>    C       -4.70189        16.25902        -0.50381
| 49>    C       -4.50843        17.44463        -1.26169
| 50>    S       -5.13959        18.95493        -0.66416
| 51>    C       -4.54763        19.82850        -2.04071
| 52>    C       -3.88729        18.95670        -2.91784
| 53>    C       -3.87038        17.62690        -2.47258
| 54>    C       -3.29360        19.32546        -4.13578
| 55>    N       -2.79688        19.57605        -5.14041
| 56>    C       -4.78775        21.22002        -2.12488
| 57>    C       -4.37996        22.02574        -3.14172
| 58>    C       -4.66951        23.41136        -3.17706
| 59>    N       -4.28380        24.23977        -4.20709
| 60>    C       -3.58708        23.85103        -5.40994
| 61>    C       -4.51677        23.17912        -6.41710
| 62>    C       -4.70069        25.56597        -4.00375
| 63>    O       -4.46710        26.46794        -4.78369
| 64>    C       -5.39159        25.53315        -2.73328
| 65>    C       -5.35232        24.19547        -2.25151
| 66>    C       -6.03914        24.16194        -0.98389
| 67>    O       -6.26948        23.26003        -0.19944
| 68>    N       -6.45953        25.48930        -0.78070
| 69>    C       -7.14876        25.87124         0.42741
| 70>    C       -6.21328        26.55083         1.42478
| 71>    C       -6.07788        26.31275        -1.81314
| 72>    C       -6.39388        27.71104        -1.86604
| 73>    C       -6.00196        28.50571        -2.86451
| 74>    H       -0.97715        -2.28972         2.22015
| 75>    H        0.75487        -1.11977        -0.91295
| 76>    H        0.21220        -2.63877        -0.15286
| 77>    H        2.29377        -0.70132         0.98934
| 78>    H        2.64312        -2.26749         0.25176
| 79>    H        1.75848        -2.18821         1.77979
| 80>    H       -3.84681         3.13285         3.99996
| 81>    H       -4.36432         1.54417         4.59284
| 82>    H       -5.39105         2.77064         1.97808
| 83>    H       -6.26126         2.78475         3.51843
| 84>    H       -5.90649         1.25308         2.71538
| 85>    H       -1.84093         3.15057         0.30844
| 86>    H       -3.72289         4.39375         2.39156
| 87>    H       -1.73149         5.03484        -0.94429
| 88>    H       -2.96960         9.75934        -0.99615
| 89>    H       -4.54402         9.58547         1.63539
| 90>    H       -5.51056        11.88998         2.38409
| 91>    H       -3.68888        14.91886        -1.78177
| 92>    H       -5.25407        16.37587         0.41742
| 93>    H       -3.40488        16.83501        -3.03162
| 94>    H       -5.34755        21.65108        -1.30449
| 95>    H       -3.81560        21.61271        -3.96328
| 96>    H       -2.75303        23.19125        -5.15589
| 97>    H       -3.18954        24.77559        -5.83809
| 98>    H       -4.94518        22.26792        -6.00595
| 99>    H       -3.96006        22.92503        -7.31441
|100>    H       -5.32529        23.85481        -6.68583
|101>    H       -7.53283        24.94294         0.86019
|102>    H       -7.99385        26.52015         0.18060
|103>    H       -5.40449        25.87545         1.69284
|104>    H       -6.76180        26.81117         2.32584
|105>    H       -5.78209        27.45563         1.00188
|106>    H       -6.98150        28.10972        -1.05050
|107>    H       -5.41667        28.13059        -3.68736
|108>    H       -6.26058        29.55046        -2.87854
|109> *
|110>
|111>                          ****END OF INPUT****

CARTESIAN COORDINATES (ANGSTROEM)
---------------------------------
  C     -1.099370   -1.293390    1.836770
  N     -0.401100   -0.871990    0.749690
  C      0.596170   -1.632510    0.039610
  C      1.907580   -1.702950    0.817680
  C     -0.716290    0.469780    0.420230
  O     -0.219440    1.066310   -0.513660
  C     -1.695020    0.841700    1.410550
  C     -1.906640   -0.278500    2.271580
  C     -2.886240    0.116050    3.260530
  O     -3.390210   -0.471580    4.191050
  N     -3.193000    1.460150    2.937790
  C     -4.210740    2.148710    3.693220
  C     -5.525710    2.249950    2.923540
  C     -2.490340    1.896150    1.833720
  C     -2.477280    3.160790    1.183910
  C     -3.095460    4.319140    1.517220
  C     -2.961920    5.525010    0.774280
  S     -3.743280    6.972600    1.366430
  C     -3.146800    7.914370    0.038600
  C     -2.385660    7.113700   -0.816760
  C     -2.283360    5.778270   -0.398310
  C     -1.785870    7.620800   -1.982390
  N     -1.300140    8.043930   -2.931320
  C     -3.400890    9.298120   -0.115400
  C     -4.116040   10.049430    0.755170
  C     -4.350740   11.440410    0.614170
  S     -3.745460   12.364210   -0.736020
  C     -4.432220   13.838110   -0.122740
  C     -5.100900   13.597120    1.080210
  C     -5.049030   12.251310    1.481790
  C     -5.773830   14.559170    1.851130
  N     -6.337850   15.299430    2.523060
  C     -4.246740   15.033310   -0.862400
  C     -4.701890   16.259020   -0.503810
  C     -4.508430   17.444630   -1.261690
  S     -5.139590   18.954930   -0.664160
  C     -4.547630   19.828500   -2.040710
  C     -3.887290   18.956700   -2.917840
  C     -3.870380   17.626900   -2.472580
  C     -3.293600   19.325460   -4.135780
  N     -2.796880   19.576050   -5.140410
  C     -4.787750   21.220020   -2.124880
  C     -4.379960   22.025740   -3.141720
  C     -4.669510   23.411360   -3.177060
  N     -4.283800   24.239770   -4.207090
  C     -3.587080   23.851030   -5.409940
  C     -4.516770   23.179120   -6.417100
  C     -4.700690   25.565970   -4.003750
  O     -4.467100   26.467940   -4.783690
  C     -5.391590   25.533150   -2.733280
  C     -5.352320   24.195470   -2.251510
  C     -6.039140   24.161940   -0.983890
  O     -6.269480   23.260030   -0.199440
  N     -6.459530   25.489300   -0.780700
  C     -7.148760   25.871240    0.427410
  C     -6.213280   26.550830    1.424780
  C     -6.077880   26.312750   -1.813140
  C     -6.393880   27.711040   -1.866040
  C     -6.001960   28.505710   -2.864510
  H     -0.977150   -2.289720    2.220150
  H      0.754870   -1.119770   -0.912950
  H      0.212200   -2.638770   -0.152860
  H      2.293770   -0.701320    0.989340
  H      2.643120   -2.267490    0.251760
  H      1.758480   -2.188210    1.779790
  H     -3.846810    3.132850    3.999960
  H     -4.364320    1.544170    4.592840
  H     -5.391050    2.770640    1.978080
  H     -6.261260    2.784750    3.518430
  H     -5.906490    1.253080    2.715380
  H     -1.840930    3.150570    0.308440
  H     -3.722890    4.393750    2.391560
  H     -1.731490    5.034840   -0.944290
  H     -2.969600    9.759340   -0.996150
  H     -4.544020    9.585470    1.635390
  H     -5.510560   11.889980    2.384090
  H     -3.688880   14.918860   -1.781770
  H     -5.254070   16.375870    0.417420
  H     -3.404880   16.835010   -3.031620
  H     -5.347550   21.651080   -1.304490
  H     -3.815600   21.612710   -3.963280
  H     -2.753030   23.191250   -5.155890
  H     -3.189540   24.775590   -5.838090
  H     -4.945180   22.267920   -6.005950
  H     -3.960060   22.925030   -7.314410
  H     -5.325290   23.854810   -6.685830
  H     -7.532830   24.942940    0.860190
  H     -7.993850   26.520150    0.180600
  H     -5.404490   25.875450    1.692840
  H     -6.761800   26.811170    2.325840
  H     -5.782090   27.455630    1.001880
  H     -6.981500   28.109720   -1.050500
  H     -5.416670   28.130590   -3.687360
  H     -6.260580   29.550460   -2.878540

 Total Charge           Charge          ....    0
 Multiplicity           Mult            ....    1
 Number of Electrons    NEL             ....  434
 Basis Dimension        Dim             .... 1013

ORBITAL ENERGIES
----------------

  NO   OCC          E(Eh)            E(eV)
   0   2.0000     -88.981936     -2421.3216
   1   2.0000     -88.981245     -2421.3028
   2   2.0000     -88.978688     -2421.2332
   3   2.0000     -19.191955      -522.2396
   4   2.0000     -19.191016      -522.2141
   5   2.0000     -19.187728      -522.1246
   6   2.0000     -19.184251      -522.0300
   7   2.0000     -14.455499      -393.3541
   8   2.0000     -14.453325      -393.2950
   9   2.0000     -14.451778      -393.2529
  10   2.0000     -14.447710      -393.1422
  11   2.0000     -14.415401      -392.2630
  12   2.0000     -14.414698      -392.2439
  13   2.0000     -14.410943      -392.1417
  14   2.0000     -10.374487      -282.3041
  15   2.0000     -10.374127      -282.2943
  16   2.0000     -10.372106      -282.2394
  17   2.0000     -10.368079      -282.1298
  18   2.0000     -10.343268      -281.4546
  19   2.0000     -10.339532      -281.3530
  20   2.0000     -10.336339      -281.2661
  21   2.0000     -10.335352      -281.2392
  22   2.0000     -10.335081      -281.2319
  23   2.0000     -10.334787      -281.2238
  24   2.0000     -10.332728      -281.1678
  25   2.0000     -10.326599      -281.0010
  26   2.0000     -10.325558      -280.9727
  27   2.0000     -10.323880      -280.9271
  28   2.0000     -10.322691      -280.8947
  29   2.0000     -10.322294      -280.8839
  30   2.0000     -10.322149      -280.8800
  31   2.0000     -10.316555      -280.7277
  32   2.0000     -10.315867      -280.7090
  33   2.0000     -10.311188      -280.5817
  34   2.0000     -10.310651      -280.5671
  35   2.0000     -10.310412      -280.5606
  36   2.0000     -10.310291      -280.5573
  37   2.0000     -10.309440      -280.5341
  38   2.0000     -10.307285      -280.4755
  39   2.0000     -10.307211      -280.4735
  40   2.0000     -10.305786      -280.4347
  41   2.0000     -10.305634      -280.4305
  42   2.0000     -10.305418      -280.4247
  43   2.0000     -10.303544      -280.3737
  44   2.0000     -10.302675      -280.3500
  45   2.0000     -10.300115      -280.2804
  46   2.0000     -10.299870      -280.2737
  47   2.0000     -10.297163      -280.2001
  48   2.0000     -10.292967      -280.0859
  49   2.0000     -10.285640      -279.8865
  50   2.0000     -10.276964      -279.6504
  51   2.0000     -10.266575      -279.3677
  52   2.0000     -10.266436      -279.3639
  53   2.0000     -10.263107      -279.2733
  54   2.0000     -10.262394      -279.2539
  55   2.0000     -10.261138      -279.2198
  56   2.0000     -10.258306      -279.1427
  57   2.0000     -10.255373      -279.0629
  58   2.0000     -10.254625      -279.0425
  59   2.0000      -8.077581      -219.8022
  60   2.0000      -8.076853      -219.7823
  61   2.0000      -8.074217      -219.7106
  62   2.0000      -6.046700      -164.5391
  63   2.0000      -6.045985      -164.5196
  64   2.0000      -6.043299      -164.4465
  65   2.0000      -6.042765      -164.4320
  66   2.0000      -6.042019      -164.4117
  67   2.0000      -6.039801      -164.3513
  68   2.0000      -6.039189      -164.3347
  69   2.0000      -6.039047      -164.3308
  70   2.0000      -6.036636      -164.2652
  71   2.0000      -1.132699       -30.8223
  72   2.0000      -1.130622       -30.7658
  73   2.0000      -1.125945       -30.6385
  74   2.0000      -1.122505       -30.5449
  75   2.0000      -1.063459       -28.9382
  76   2.0000      -1.060359       -28.8538
  77   2.0000      -1.054055       -28.6823
  78   2.0000      -1.051330       -28.6081
  79   2.0000      -1.020882       -27.7796
  80   2.0000      -1.017913       -27.6988
  81   2.0000      -1.016195       -27.6521
  82   2.0000      -0.994083       -27.0504
  83   2.0000      -0.993306       -27.0292
  84   2.0000      -0.989966       -26.9383
  85   2.0000      -0.938902       -25.5488
  86   2.0000      -0.930157       -25.3109
  87   2.0000      -0.927769       -25.2459
  88   2.0000      -0.923702       -25.1352
  89   2.0000      -0.913771       -24.8650
  90   2.0000      -0.901328       -24.5264
  91   2.0000      -0.889051       -24.1923
  92   2.0000      -0.880253       -23.9529
  93   2.0000      -0.875647       -23.8276
  94   2.0000      -0.873269       -23.7628
  95   2.0000      -0.869999       -23.6739
  96   2.0000      -0.867740       -23.6124
  97   2.0000      -0.861134       -23.4326
  98   2.0000      -0.840616       -22.8743
  99   2.0000      -0.823064       -22.3967
 100   2.0000      -0.822032       -22.3686
 101   2.0000      -0.815921       -22.2024
 102   2.0000      -0.805081       -21.9074
 103   2.0000      -0.790082       -21.4992
 104   2.0000      -0.781427       -21.2637
 105   2.0000      -0.771834       -21.0027
 106   2.0000      -0.762867       -20.7587
 107   2.0000      -0.756451       -20.5841
 108   2.0000      -0.754002       -20.5174
 109   2.0000      -0.739225       -20.1153
 110   2.0000      -0.723986       -19.7006
 111   2.0000      -0.722125       -19.6500
 112   2.0000      -0.710958       -19.3462
 113   2.0000      -0.705287       -19.1918
 114   2.0000      -0.701011       -19.0755
 115   2.0000      -0.690745       -18.7961
 116   2.0000      -0.684371       -18.6227
 117   2.0000      -0.682567       -18.5736
 118   2.0000      -0.674914       -18.3653
 119   2.0000      -0.664586       -18.0843
 120   2.0000      -0.655572       -17.8390
 121   2.0000      -0.655359       -17.8332
 122   2.0000      -0.648980       -17.6596
 123   2.0000      -0.644358       -17.5339
 124   2.0000      -0.632718       -17.2171
 125   2.0000      -0.627316       -17.0701
 126   2.0000      -0.621126       -16.9017
 127   2.0000      -0.612130       -16.6569
 128   2.0000      -0.605203       -16.4684
 129   2.0000      -0.591708       -16.1012
 130   2.0000      -0.588199       -16.0057
 131   2.0000      -0.585055       -15.9202
 132   2.0000      -0.584472       -15.9043
 133   2.0000      -0.579893       -15.7797
 134   2.0000      -0.575452       -15.6588
 135   2.0000      -0.567775       -15.4500
 136   2.0000      -0.565275       -15.3819
 137   2.0000      -0.561586       -15.2815
 138   2.0000      -0.560887       -15.2625
 139   2.0000      -0.554768       -15.0960
 140   2.0000      -0.549502       -14.9527
 141   2.0000      -0.540712       -14.7135
 142   2.0000      -0.534053       -14.5323
 143   2.0000      -0.533030       -14.5045
 144   2.0000      -0.530356       -14.4317
 145   2.0000      -0.528181       -14.3725
 146   2.0000      -0.526194       -14.3185
 147   2.0000      -0.524146       -14.2627
 148   2.0000      -0.523263       -14.2387
 149   2.0000      -0.519586       -14.1387
 150   2.0000      -0.518434       -14.1073
 151   2.0000      -0.517392       -14.0789
 152   2.0000      -0.516472       -14.0539
 153   2.0000      -0.514529       -14.0011
 154   2.0000      -0.513177       -13.9643
 155   2.0000      -0.512030       -13.9330
 156   2.0000      -0.506612       -13.7856
 157   2.0000      -0.505313       -13.7503
 158   2.0000      -0.502733       -13.6801
 159   2.0000      -0.501401       -13.6438
 160   2.0000      -0.497402       -13.5350
 161   2.0000      -0.491307       -13.3691
 162   2.0000      -0.485551       -13.2125
 163   2.0000      -0.478714       -13.0265
 164   2.0000      -0.476082       -12.9549
 165   2.0000      -0.474033       -12.8991
 166   2.0000      -0.471299       -12.8247
 167   2.0000      -0.470644       -12.8069
 168   2.0000      -0.468513       -12.7489
 169   2.0000      -0.466383       -12.6909
 170   2.0000      -0.461626       -12.5615
 171   2.0000      -0.459149       -12.4941
 172   2.0000      -0.459013       -12.4904
 173   2.0000      -0.456319       -12.4171
 174   2.0000      -0.455448       -12.3934
 175   2.0000      -0.454653       -12.3717
 176   2.0000      -0.453371       -12.3368
 177   2.0000      -0.451331       -12.2813
 178   2.0000      -0.449527       -12.2323
 179   2.0000      -0.448219       -12.1967
 180   2.0000      -0.447295       -12.1715
 181   2.0000      -0.444901       -12.1064
 182   2.0000      -0.443531       -12.0691
 183   2.0000      -0.439942       -11.9714
 184   2.0000      -0.438962       -11.9448
 185   2.0000      -0.438326       -11.9274
 186   2.0000      -0.437742       -11.9116
 187   2.0000      -0.434496       -11.8232
 188   2.0000      -0.433292       -11.7905
 189   2.0000      -0.433145       -11.7865
 190   2.0000      -0.432335       -11.7644
 191   2.0000      -0.427281       -11.6269
 192   2.0000      -0.422476       -11.4962
 193   2.0000      -0.420388       -11.4393
 194   2.0000      -0.417012       -11.3475
 195   2.0000      -0.414673       -11.2838
 196   2.0000      -0.411746       -11.2042
 197   2.0000      -0.407936       -11.1005
 198   2.0000      -0.406642       -11.0653
 199   2.0000      -0.404893       -11.0177
 200   2.0000      -0.384022       -10.4498
 201   2.0000      -0.359753        -9.7894
 202   2.0000      -0.347675        -9.4607
 203   2.0000      -0.347400        -9.4532
 204   2.0000      -0.345080        -9.3901
 205   2.0000      -0.342887        -9.3304
 206   2.0000      -0.342369        -9.3163
 207   2.0000      -0.339656        -9.2425
 208   2.0000      -0.330912        -9.0046
 209   2.0000      -0.328086        -8.9277
 210   2.0000      -0.327039        -8.8992
 211   2.0000      -0.315777        -8.5927
 212   2.0000      -0.311120        -8.4660
 213   2.0000      -0.296123        -8.0579
 214   2.0000      -0.267089        -7.2679
 215   2.0000      -0.245073        -6.6688
 216   2.0000      -0.233917        -6.3652
 217   0.0000      -0.098609        -2.6833
 218   0.0000      -0.083261        -2.2656
 219   0.0000      -0.061124        -1.6633
 220   0.0000      -0.037008        -1.0070
 221   0.0000      -0.019108        -0.5199

MULLIKEN ATOMIC CHARGES
-----------------------
   0 C :    0.051466
   1 N :   -0.265974
   2 C :    0.112789
   3 C :   -0.004314
   4 C :    0.164074
   5 O :   -0.196258
   6 C :   -0.081739
   7 C :    0.003956
   8 C :    0.164933
   9 O :   -0.187375
  10 N :   -0.279482
  11 C :    0.099336
  12 C :   -0.001684
  13 C :    0.136723
  14 C :   -0.043304
  15 C :    0.085326
  16 C :   -0.083060
  17 S :    0.132317
  18 C :   -0.038107
  19 C :   -0.066749
  20 C :    0.023731
  21 C :   -0.189238
  22 N :    0.133815
  23 C :   -0.016719
  24 C :    0.027006
  25 C :   -0.039831
  26 S :    0.145638
  27 C :   -0.049610
  28 C :   -0.069090
  29 C :    0.014140
  30 C :   -0.176529
  31 N :    0.115657
  32 C :    0.037733
  33 C :    0.063274
  34 C :   -0.081240
  35 S :    0.197367
  36 C :   -0.062665
  37 C :   -0.087378
  38 C :    0.017998
  39 C :   -0.161669
  40 N :    0.115224
  41 C :    0.056796
  42 C :   -0.037395
  43 C :    0.136446
  44 N :   -0.259592
  45 C :    0.095418
  46 C :    0.010263
  47 C :    0.159925
  48 O :   -0.209032
  49 C :   -0.058275
  50 C :   -0.064523
  51 C :    0.162980
  52 O :   -0.214929
  53 N :   -0.259127
  54 C :    0.097622
  55 C :    0.004956
  56 C :    0.107338
  57 C :   -0.038222
  58 C :    0.015176
  59 H :    0.017526
  60 H :    0.043123
  61 H :    0.018685
  62 H :    0.031765
  63 H :    0.025247
  64 H :    0.014609
  65 H :    0.021571
  66 H :    0.045775
  67 H :    0.019109
  68 H :    0.021551
  69 H :    0.029749
  70 H :    0.008820
  71 H :   -0.021798
  72 H :    0.014643
  73 H :    0.020456
  74 H :    0.000216
  75 H :   -0.002958
  76 H :   -0.013138
  77 H :    0.003557
  78 H :   -0.001074
  79 H :    0.004021
  80 H :   -0.014037
  81 H :    0.034605
  82 H :    0.040448
  83 H :    0.015452
  84 H :    0.026830
  85 H :    0.024029
  86 H :    0.043369
  87 H :    0.024665
  88 H :    0.029076
  89 H :    0.022457
  90 H :    0.016068
  91 H :   -0.018713
  92 H :    0.057942
  93 H :    0.030045
Sum of atomic charges:   -0.0000000

LOEWDIN ATOMIC CHARGES
----------------------
   0 C :    0.099556
   1 N :   -0.002628
   2 C :    0.038241
   3 C :   -0.060516
   4 C :    0.076949
   5 O :   -0.197863
   6 C :   -0.117939
   7 C :   -0.133079
   8 C :    0.084257
   9 O :   -0.189451
  10 N :   -0.013711
  11 C :    0.033530
  12 C :   -0.063737
  13 C :    0.075274
  14 C :   -0.022024
  15 C :   -0.026156
  16 C :   -0.162863
  17 S :    0.452284
  18 C :   -0.137166
  19 C :   -0.102043
  20 C :   -0.016442
  21 C :   -0.033115
  22 N :   -0.051731
  23 C :   -0.046664
  24 C :   -0.025836
  25 C :   -0.168959
  26 S :    0.464754
  27 C :   -0.128859
  28 C :   -0.111974
  29 C :   -0.016977
  30 C :   -0.029093
  31 N :   -0.058098
  32 C :   -0.045573
  33 C :   -0.014011
  34 C :   -0.170314
  35 S :    0.496069
  36 C :   -0.140210
  37 C :   -0.103771
  38 C :   -0.016942
  39 C :   -0.025467
  40 N :   -0.060702
  41 C :   -0.006881
  42 C :   -0.029255
  43 C :    0.072277
  44 N :    0.000682
  45 C :    0.036207
  46 C :   -0.059161
  47 C :    0.080778
  48 O :   -0.200850
  49 C :   -0.124462
  50 C :   -0.118618
  51 C :    0.080644
  52 O :   -0.203299
  53 N :    0.000909
  54 C :    0.036042
  55 C :   -0.060905
  56 C :    0.081113
  57 C :   -0.055500
  58 C :    0.025832
  59 H :    0.033804
  60 H :    0.036887
  61 H :    0.024738
  62 H :    0.031981
  63 H :    0.030949
  64 H :    0.022213
  65 H :    0.018286
  66 H :    0.038333
  67 H :    0.020951
  68 H :    0.030160
  69 H :    0.033183
  70 H :    0.046297
  71 H :    0.027993
  72 H :    0.044747
  73 H :    0.036839
  74 H :    0.032383
  75 H :    0.040726
  76 H :    0.030519
  77 H :    0.038932
  78 H :    0.038617
  79 H :    0.036912
  80 H :    0.035349
  81 H :    0.026916
  82 H :    0.036991
  83 H :    0.022526
  84 H :    0.032956
  85 H :    0.029718
  86 H :    0.037357
  87 H :    0.023151
  88 H :    0.032097
  89 H :    0.030313
  90 H :    0.022454
  91 H :    0.029403
  92 H :    0.033204
  93 H :    0.029563

  Mayer bond orders larger than 0.100000
B(  0-C ,  1-N ) :   1.1994 B(  0-C ,  7-C ) :   1.4503 B(  0-C , 59-H ) :   0.9891
B(  1-N ,  2-C ) :   0.9410 B(  1-N ,  4-C ) :   1.0305 B(  2-C ,  3-C ) :   1.1190
B(  2-C , 60-H ) :   0.9344 B(  2-C , 61-H ) :   0.9539 B(  3-C , 62-H ) :   0.9674
B(  3-C , 63-H ) :   0.9689 B(  3-C , 64-H ) :   0.9691 B(  4-C ,  5-O ) :   2.1174
B(  4-C ,  6-C ) :   0.9919 B(  6-C ,  7-C ) :   1.1943 B(  6-C , 13-C ) :   1.3889
B(  7-C ,  8-C ) :   0.9539 B(  8-C ,  9-O ) :   2.1663 B(  8-C , 10-N ) :   1.0165
B( 10-N , 11-C ) :   0.9471 B( 10-N , 13-C ) :   1.1562 B( 11-C , 12-C ) :   1.1149
B( 11-C , 65-H ) :   0.9508 B( 11-C , 66-H ) :   0.9224 B( 12-C , 67-H ) :   0.9684
B( 12-C , 68-H ) :   0.9681 B( 12-C , 69-H ) :   0.9622 B( 13-C , 14-C ) :   1.1809
B( 14-C , 15-C ) :   1.6164 B( 14-C , 70-H ) :   0.9469 B( 15-C , 16-C ) :   1.1121
B( 15-C , 71-H ) :   0.9610 B( 16-C , 17-S ) :   1.1098 B( 16-C , 20-C ) :   1.4928
B( 17-S , 18-C ) :   1.1252 B( 18-C , 19-C ) :   1.4425 B( 18-C , 23-C ) :   1.2034
B( 19-C , 20-C ) :   1.2841 B( 19-C , 21-C ) :   1.1035 B( 20-C , 72-H ) :   0.9982
B( 21-C , 22-N ) :   3.0188 B( 23-C , 24-C ) :   1.6263 B( 23-C , 73-H ) :   0.9556
B( 24-C , 25-C ) :   1.1644 B( 24-C , 74-H ) :   0.9760 B( 25-C , 26-S ) :   1.1016
B( 25-C , 29-C ) :   1.4606 B( 26-S , 27-C ) :   1.1407 B( 27-C , 28-C ) :   1.4437
B( 27-C , 32-C ) :   1.1646 B( 28-C , 29-C ) :   1.2785 B( 28-C , 30-C ) :   1.1149
B( 29-C , 75-H ) :   1.0106 B( 30-C , 31-N ) :   2.9686 B( 32-C , 33-C ) :   1.6896
B( 32-C , 76-H ) :   0.9441 B( 33-C , 34-C ) :   1.1283 B( 33-C , 77-H ) :   0.9450
B( 34-C , 35-S ) :   1.1282 B( 34-C , 38-C ) :   1.4602 B( 35-S , 36-C ) :   1.1562
B( 36-C , 37-C ) :   1.4113 B( 36-C , 41-C ) :   1.1610 B( 37-C , 38-C ) :   1.3223
B( 37-C , 39-C ) :   1.1186 B( 38-C , 78-H ) :   0.9987 B( 39-C , 40-N ) :   2.9679
B( 41-C , 42-C ) :   1.6121 B( 41-C , 79-H ) :   0.9220 B( 42-C , 43-C ) :   1.1697
B( 42-C , 80-H ) :   0.9470 B( 43-C , 44-N ) :   1.1601 B( 43-C , 50-C ) :   1.3413
B( 44-N , 45-C ) :   0.9414 B( 44-N , 47-C ) :   1.0586 B( 45-C , 46-C ) :   1.1239
B( 45-C , 81-H ) :   0.9481 B( 45-C , 82-H ) :   0.9268 B( 46-C , 83-H ) :   0.9676
B( 46-C , 84-H ) :   0.9674 B( 46-C , 85-H ) :   0.9632 B( 47-C , 48-O ) :   2.0473
B( 47-C , 49-C ) :   0.9802 B( 49-C , 50-C ) :   1.2406 B( 49-C , 56-C ) :   1.3688
B( 50-C , 51-C ) :   0.9914 B( 51-C , 52-O ) :   2.0145 B( 51-C , 53-N ) :   1.0602
B( 52-O , 79-H ) :   0.1160 B( 53-N , 54-C ) :   0.9465 B( 53-N , 56-C ) :   1.1670
B( 54-C , 55-C ) :   1.1201 B( 54-C , 86-H ) :   0.9283 B( 54-C , 87-H ) :   0.9505
B( 55-C , 88-H ) :   0.9638 B( 55-C , 89-H ) :   0.9680 B( 55-C , 90-H ) :   0.9688
B( 56-C , 57-C ) :   1.1272 B( 57-C , 58-C ) :   1.8877 B( 57-C , 91-H ) :   0.9528
B( 58-C , 92-H ) :   0.9262 B( 58-C , 93-H ) :   0.9445

-----------------------------------------------------------------------------
         ABSORPTION SPECTRUM VIA TRANSITION ELECTRIC DIPOLE MOMENTS
-----------------------------------------------------------------------------
State   Energy  Wavelength   fosc         T2         TX        TY        TZ
        (cm-1)    (nm)                  (au**2)     (au)      (au)      (au)
-----------------------------------------------------------------------------
   0   15622.1    640.1   1.744121893  36.75468   1.27478  -5.92418   0.18365
   1   18836.2    530.9   0.829502961  14.49772   0.93678  -3.65628   0.50177
   2   22201.4    450.4   0.281445013   4.17339  -0.76109  -1.26183   1.41489
   3   22725.1    440.0   0.112707405   1.63276  -0.16099  -1.18919   0.43895
   4   24864.6    402.2   0.176273695   2.33390   0.68652  -1.28573  -0.45769
   5   26773.9    373.5   0.001092851   0.01344  -0.02897   0.07263   0.08558
   6   27124.2    368.7   0.023935326   0.29051  -0.11742  -0.31296   0.42282
   7   27608.5    362.2   0.094819378   1.13066   0.08468   0.90477  -0.55216
   8   28561.9    350.1   0.009683445   0.11161  -0.00861   0.30113   0.14442
   9   28698.4    348.5   0.016704458   0.19162   0.19422  -0.32341  -0.22206
  10   29360.0    340.6   0.001268874   0.01423   0.04551   0.10259   0.04040
  11   30413.7    328.8   0.013843728   0.14985   0.22325   0.09289  -0.30230
  12   30974.0    322.9   0.028959904   0.30780   0.21264   0.30290  -0.41333
  13   31670.8    315.7   0.106572047   1.10780   0.10599   0.91257  -0.51359
  14   32521.7    307.5   0.093817690   0.94970  -0.36631  -0.45372   0.78081
  15   33397.3    299.4   0.000686833   0.00677   0.06043  -0.04963   0.02559
  16   34528.0    289.6   0.150758291   1.43742  -0.53666   1.01758   0.33757
  17   35034.6    285.4   0.000058915   0.00055   0.01914  -0.00021  -0.01368
  18   35676.1    280.3   0.089940616   0.82995   0.18471  -0.89022   0.05783
  19   35901.8    278.5   0.007661805   0.07026  -0.07982   0.24854   0.04595
  20   36698.3    272.5   0.000391141   0.00351   0.00319   0.00587  -0.05886
  21   36991.2    270.3   0.216402764   1.92593   0.60623   0.46199  -1.15973
  22   37169.3    269.0   0.062832240   0.55651  -0.26209   0.62075   0.32014
  23   37485.4    266.8   0.002632120   0.02312   0.07206  -0.12504  -0.04786
  24   38540.0    259.5   0.010148319   0.08669   0.15665   0.12279  -0.21696
  25   38677.9    258.5   0.020568425   0.17507   0.22367  -0.08132  -0.34414
  26   38939.4    256.8   0.112536097   0.95143  -0.54696   0.25378   0.76672
  27   39356.5    254.1   0.181735099   1.52019   0.63332   0.07731  -1.05504
  28   40088.4    249.4   0.020127949   0.16529  -0.17545  -0.08958   0.35565

FINAL SINGLE POINT ENERGY     -3611.141813819341

DIPOLE MOMENT
-------------
                                X             Y             Z
Electronic contribution:     -1.21955      -7.10678      -0.06586
Nuclear contribution   :      0.66917       6.13997       1.51207
                        -----------------------------------------
Total Dipole Moment    :     -0.55037      -0.96680       1.44621
                        -----------------------------------------
Magnitude (a.u.)       :      1.82459
Magnitude (Debye)      :      4.63775

Rotational constants in cm-1:     0.004443     0.000208     0.000200
Rotational constants in MHz :   133.201207     6.220724     5.983399

                             ****ORCA TERMINATED NORMALLY****
TOTAL RUN TIME: 0 days 0 hours 6 minutes 54 seconds 4 msec
