                         Program Version 4.2.0 -  RELEASE  -
|  1> # ORCA input file
|  2> # SCF done       -201.466566861154          0.000581861970
|  3> ! CAM-B3LYP def2-SVP def2/J RIJCOSX Grid4 TightSCF
|  4> %maxcore 5000
|  5> %tddft
|  6>     Mode sTDDFT
|  7>     Ethresh 5.0
|  8>     maxcore 5000
|  9> end
| 10>
| 11> %pal
| 12>   nprocs 6
| 13>   end
| 14> * xyz 0 1
| 15>    C       -1.23641         1.68423         3.29106
| 16>    N       -1.03423         1.17132         2.04838
| 17>    C       -0.73736        -0.20531         1.73762
| 18>    C        0.47356        -0.72072         2.50655
| 19>    C       -1.14190         2.17099         1.06382
| 20>    O       -0.97833         1.95977        -0.13101
| 21>    C       -1.44803         3.36711         1.79612
| 22>    C       -1.48535         3.02454         3.18275
| 23>    C       -1.78706         4.22727         3.93215
| 24>    O       -1.92501         4.44191         5.11487
| 25>    N       -1.92903         5.21960         2.94056
| 26>    C       -2.17763         6.59391         3.29916
| 27>    C       -0.91169         7.44184         3.20396
| 28>    C       -1.73412         4.72506         1.67103
| 29>    C       -1.89211         5.50865         0.50654
| 30>    C       -1.70980         5.02856        -0.75528
| 31>    C       -1.97843         5.77748        -1.91947
| 32>    S       -2.81588         7.30461        -1.79726
| 33>    C       -2.95844         7.45920        -3.47554
| 34>    C       -2.37719         6.40649        -4.15471
| 35>    C       -1.77212         5.45106        -3.27181
| 36>    C       -1.04559         4.36836        -3.82825
| 37>    C       -1.07880         4.18551        -5.20685
| 38>    C       -1.73213         5.10593        -6.05442
| 39>    C       -2.34199         6.21435        -5.55192
| 40>    O       -0.41561         3.12798        -5.72540
| 41>    C       -0.18853         3.49728        -3.03772
| 42>    S       -0.31812         1.78365        -3.15612
| 43>    C        0.96489         1.52833        -2.01485
| 44>    C        1.49708         2.74624        -1.61352
| 45>    C        0.84813         3.85223        -2.20601
| 46>    C        1.40206         5.22666        -1.97044
| 47>    N        1.04716         6.17633        -3.04441
| 48>    O        0.51517         7.20938        -2.71458
| 49>    O        1.34769         5.88139        -4.17543
| 50>    C        2.93191         5.09762        -1.98458
| 51>    C        3.40167         4.25241        -0.80807
| 52>    C        2.58164         2.96922        -0.60267
| 53>    N        1.85146         3.06150         0.70060
| 54>    O        1.29523         4.09978         0.95902
| 55>    O        1.84795         2.07780         1.40095
| 56>    C        1.26112         0.16903        -1.71273
| 57>    C        1.98029        -0.31858        -0.67559
| 58>    C        2.20607        -1.70788        -0.44144
| 59>    C        1.45374        -2.77611        -0.83915
| 60>    C        1.96274        -3.95892        -0.19027
| 61>    C        1.44989        -5.24820        -0.37851
| 62>    N        1.02287        -6.30309        -0.53244
| 63>    C        3.01189        -3.61654         0.63315
| 64>    C        3.25272        -2.22032         0.47665
| 65>    C        4.33391        -1.49817         0.92892
| 66>    C        5.25214        -1.82900         2.03777
| 67>    C        6.24271        -0.88137         2.04623
| 68>    C        6.00357         0.04479         0.97247
| 69>    C        4.84774        -0.31461         0.31763
| 70>    C        6.78946         1.15805         0.65336
| 71>    N        7.39157         2.09747         0.38024
| 72>    C        5.04123        -2.86453         2.99363
| 73>    C        6.01341        -3.37302         3.78770
| 74>    C        5.78111        -4.35196         4.80178
| 75>    C        4.62886        -4.47748         5.52336
| 76>    C        4.84704        -5.42496         6.59272
| 77>    C        3.89315        -5.74937         7.56747
| 78>    N        3.10387        -6.01190         8.35847
| 79>    C        6.12327        -5.90844         6.51194
| 80>    C        6.75011        -5.34013         5.34584
| 81>    C        7.92843        -5.74499         4.77888
| 82>    C        8.91900        -6.69569         5.33898
| 83>    C       10.06953        -6.54195         4.64021
| 84>    C        9.83692        -5.61560         3.54190
| 85>    C        8.55006        -5.17327         3.60513
| 86>    C       10.79487        -5.27686         2.57808
| 87>    N       11.58762        -5.00141         1.79452
| 88>    C        8.75806        -7.69872         6.37675
| 89>    C        7.73495        -8.54149         6.46180
| 90>    H       -1.19524         1.06201         4.16461
| 91>    H       -0.54465        -0.23465         0.66131
| 92>    H       -1.61530        -0.82584         1.95341
| 93>    H        1.30960        -0.03954         2.37575
| 94>    H        0.75065        -1.70335         2.13426
| 95>    H        0.25510        -0.80398         3.56814
| 96>    H       -2.52986         6.57378         4.33457
| 97>    H       -2.97028         7.00410         2.66628
| 98>    H       -0.15073         7.04414         3.87053
| 99>    H       -1.12992         8.46563         3.49484
|100>    H       -0.51709         7.43943         2.19049
|101>    H       -2.19528         6.53912         0.63142
|102>    H       -1.38191         4.00638        -0.88152
|103>    H       -3.45896         8.30649        -3.90046
|104>    H       -1.69952         4.93379        -7.12151
|105>    H       -2.79759         6.94641        -6.19942
|106>    H       -0.44373         3.15621        -6.68959
|107>    H        1.04374         5.65197        -1.02572
|108>    H        3.39562         6.08355        -1.92370
|109>    H        3.22404         4.63779        -2.93145
|110>    H        3.33186         4.85615         0.09963
|111>    H        4.44975         3.98970        -0.95241
|112>    H        3.23083         2.09623        -0.52834
|113>    H        0.82345        -0.53765        -2.40660
|114>    H        2.37743         0.34175         0.07681
|115>    H        0.58998        -2.76681        -1.47620
|116>    H        3.62231        -4.30693         1.18230
|117>    H        7.05079        -0.79077         2.74733
|118>    H        4.48209         0.12674        -0.58945
|119>    H        4.04271        -3.27168         3.06190
|120>    H        7.02122        -2.99919         3.68308
|121>    H        3.72447        -3.91169         5.40058
|122>    H        6.57724        -6.60304         7.18900
|123>    H       10.99804        -7.05655         4.80366
|124>    H        8.07997        -4.52136         2.89750
|125>    H        9.60558        -7.81111         7.04205
|126>    H        6.90453        -8.50289         5.77562
|127>    H        7.70057        -9.31193         7.21271
|128> *
|129>
|130>                          ****END OF INPUT****

CARTESIAN COORDINATES (ANGSTROEM)
---------------------------------
  C     -1.236410    1.684230    3.291060
  N     -1.034230    1.171320    2.048380
  C     -0.737360   -0.205310    1.737620
  C      0.473560   -0.720720    2.506550
  C     -1.141900    2.170990    1.063820
  O     -0.978330    1.959770   -0.131010
  C     -1.448030    3.367110    1.796120
  C     -1.485350    3.024540    3.182750
  C     -1.787060    4.227270    3.932150
  O     -1.925010    4.441910    5.114870
  N     -1.929030    5.219600    2.940560
  C     -2.177630    6.593910    3.299160
  C     -0.911690    7.441840    3.203960
  C     -1.734120    4.725060    1.671030
  C     -1.892110    5.508650    0.506540
  C     -1.709800    5.028560   -0.755280
  C     -1.978430    5.777480   -1.919470
  S     -2.815880    7.304610   -1.797260
  C     -2.958440    7.459200   -3.475540
  C     -2.377190    6.406490   -4.154710
  C     -1.772120    5.451060   -3.271810
  C     -1.045590    4.368360   -3.828250
  C     -1.078800    4.185510   -5.206850
  C     -1.732130    5.105930   -6.054420
  C     -2.341990    6.214350   -5.551920
  O     -0.415610    3.127980   -5.725400
  C     -0.188530    3.497280   -3.037720
  S     -0.318120    1.783650   -3.156120
  C      0.964890    1.528330   -2.014850
  C      1.497080    2.746240   -1.613520
  C      0.848130    3.852230   -2.206010
  C      1.402060    5.226660   -1.970440
  N      1.047160    6.176330   -3.044410
  O      0.515170    7.209380   -2.714580
  O      1.347690    5.881390   -4.175430
  C      2.931910    5.097620   -1.984580
  C      3.401670    4.252410   -0.808070
  C      2.581640    2.969220   -0.602670
  N      1.851460    3.061500    0.700600
  O      1.295230    4.099780    0.959020
  O      1.847950    2.077800    1.400950
  C      1.261120    0.169030   -1.712730
  C      1.980290   -0.318580   -0.675590
  C      2.206070   -1.707880   -0.441440
  C      1.453740   -2.776110   -0.839150
  C      1.962740   -3.958920   -0.190270
  C      1.449890   -5.248200   -0.378510
  N      1.022870   -6.303090   -0.532440
  C      3.011890   -3.616540    0.633150
  C      3.252720   -2.220320    0.476650
  C      4.333910   -1.498170    0.928920
  C      5.252140   -1.829000    2.037770
  C      6.242710   -0.881370    2.046230
  C      6.003570    0.044790    0.972470
  C      4.847740   -0.314610    0.317630
  C      6.789460    1.158050    0.653360
  N      7.391570    2.097470    0.380240
  C      5.041230   -2.864530    2.993630
  C      6.013410   -3.373020    3.787700
  C      5.781110   -4.351960    4.801780
  C      4.628860   -4.477480    5.523360
  C      4.847040   -5.424960    6.592720
  C      3.893150   -5.749370    7.567470
  N      3.103870   -6.011900    8.358470
  C      6.123270   -5.908440    6.511940
  C      6.750110   -5.340130    5.345840
  C      7.928430   -5.744990    4.778880
  C      8.919000   -6.695690    5.338980
  C     10.069530   -6.541950    4.640210
  C      9.836920   -5.615600    3.541900
  C      8.550060   -5.173270    3.605130
  C     10.794870   -5.276860    2.578080
  N     11.587620   -5.001410    1.794520
  C      8.758060   -7.698720    6.376750
  C      7.734950   -8.541490    6.461800
  H     -1.195240    1.062010    4.164610
  H     -0.544650   -0.234650    0.661310
  H     -1.615300   -0.825840    1.953410
  H      1.309600   -0.039540    2.375750
  H      0.750650   -1.703350    2.134260
  H      0.255100   -0.803980    3.568140
  H     -2.529860    6.573780    4.334570
  H     -2.970280    7.004100    2.666280
  H     -0.150730    7.044140    3.870530
  H     -1.129920    8.465630    3.494840
  H     -0.517090    7.439430    2.190490
  H     -2.195280    6.539120    0.631420
  H     -1.381910    4.006380   -0.881520
  H     -3.458960    8.306490   -3.900460
  H     -1.699520    4.933790   -7.121510
  H     -2.797590    6.946410   -6.199420
  H     -0.443730    3.156210   -6.689590
  H      1.043740    5.651970   -1.025720
  H      3.395620    6.083550   -1.923700
  H      3.224040    4.637790   -2.931450
  H      3.331860    4.856150    0.099630
  H      4.449750    3.989700   -0.952410
  H      3.230830    2.096230   -0.528340
  H      0.823450   -0.537650   -2.406600
  H      2.377430    0.341750    0.076810
  H      0.589980   -2.766810   -1.476200
  H      3.622310   -4.306930    1.182300
  H      7.050790   -0.790770    2.747330
  H      4.482090    0.126740   -0.589450
  H      4.042710   -3.271680    3.061900
  H      7.021220   -2.999190    3.683080
  H      3.724470   -3.911690    5.400580
  H      6.577240   -6.603040    7.189000
  H     10.998040   -7.056550    4.803660
  H      8.079970   -4.521360    2.897500
  H      9.605580   -7.811110    7.042050
  H      6.904530   -8.502890    5.775620
  H      7.700570   -9.311930    7.212710

 Total Charge           Charge          ....    0
 Multiplicity           Mult            ....    1
 Number of Electrons    NEL             ....  530
 Basis Dimension        Dim             .... 1248

ORBITAL ENERGIES
----------------

  NO   OCC          E(Eh)            E(eV)
   0   2.0000     -88.970501     -2421.0104
   1   2.0000     -88.957224     -2420.6491
   2   2.0000     -19.262390      -524.1563
   3   2.0000     -19.259748      -524.0844
   4   2.0000     -19.259469      -524.0768
   5   2.0000     -19.244887      -523.6800
   6   2.0000     -19.244818      -523.6781
   7   2.0000     -19.173424      -521.7354
   8   2.0000     -19.173364      -521.7338
   9   2.0000     -14.652835      -398.7239
  10   2.0000     -14.642289      -398.4370
  11   2.0000     -14.438072      -392.8799
  12   2.0000     -14.436463      -392.8361
  13   2.0000     -14.419760      -392.3816
  14   2.0000     -14.419071      -392.3629
  15   2.0000     -14.417713      -392.3259
  16   2.0000     -14.414963      -392.2511
  17   2.0000     -10.358507      -281.8693
  18   2.0000     -10.353700      -281.7385
  19   2.0000     -10.350025      -281.6385
  20   2.0000     -10.345096      -281.5044
  21   2.0000     -10.332968      -281.1744
  22   2.0000     -10.332535      -281.1626
  23   2.0000     -10.331730      -281.1407
  24   2.0000     -10.331370      -281.1309
  25   2.0000     -10.330977      -281.1202
  26   2.0000     -10.329158      -281.0707
  27   2.0000     -10.328578      -281.0549
  28   2.0000     -10.328077      -281.0413
  29   2.0000     -10.326525      -280.9990
  30   2.0000     -10.326059      -280.9864
  31   2.0000     -10.318482      -280.7802
  32   2.0000     -10.316478      -280.7256
  33   2.0000     -10.315776      -280.7065
  34   2.0000     -10.313330      -280.6400
  35   2.0000     -10.310817      -280.5716
  36   2.0000     -10.309750      -280.5426
  37   2.0000     -10.308981      -280.5216
  38   2.0000     -10.308541      -280.5097
  39   2.0000     -10.305336      -280.4224
  40   2.0000     -10.304952      -280.4120
  41   2.0000     -10.304764      -280.4069
  42   2.0000     -10.304531      -280.4005
  43   2.0000     -10.304431      -280.3978
  44   2.0000     -10.303650      -280.3766
  45   2.0000     -10.302207      -280.3373
  46   2.0000     -10.301932      -280.3298
  47   2.0000     -10.301138      -280.3082
  48   2.0000     -10.300662      -280.2953
  49   2.0000     -10.300578      -280.2930
  50   2.0000     -10.300521      -280.2914
  51   2.0000     -10.299986      -280.2769
  52   2.0000     -10.299840      -280.2729
  53   2.0000     -10.299583      -280.2659
  54   2.0000     -10.297358      -280.2054
  55   2.0000     -10.296478      -280.1814
  56   2.0000     -10.296097      -280.1710
  57   2.0000     -10.295278      -280.1488
  58   2.0000     -10.294813      -280.1361
  59   2.0000     -10.294691      -280.1328
  60   2.0000     -10.294339      -280.1232
  61   2.0000     -10.293817      -280.1090
  62   2.0000     -10.292208      -280.0652
  63   2.0000     -10.292003      -280.0596
  64   2.0000     -10.288104      -279.9536
  65   2.0000     -10.287787      -279.9449
  66   2.0000     -10.287472      -279.9363
  67   2.0000     -10.286982      -279.9230
  68   2.0000     -10.286885      -279.9204
  69   2.0000     -10.284682      -279.8604
  70   2.0000     -10.273860      -279.5659
  71   2.0000     -10.257836      -279.1299
  72   2.0000     -10.253814      -279.0205
  73   2.0000     -10.241849      -278.6949
  74   2.0000     -10.237756      -278.5835
  75   2.0000      -8.065764      -219.4806
  76   2.0000      -8.052707      -219.1253
  77   2.0000      -6.034562      -164.2088
  78   2.0000      -6.030440      -164.0966
  79   2.0000      -6.028955      -164.0562
  80   2.0000      -6.021852      -163.8629
  81   2.0000      -6.017778      -163.7521
  82   2.0000      -6.014949      -163.6751
  83   2.0000      -1.337765       -36.4024
  84   2.0000      -1.325405       -36.0661
  85   2.0000      -1.160411       -31.5764
  86   2.0000      -1.159083       -31.5402
  87   2.0000      -1.144655       -31.1476
  88   2.0000      -1.116183       -30.3729
  89   2.0000      -1.108994       -30.1773
  90   2.0000      -1.046606       -28.4796
  91   2.0000      -1.038208       -28.2511
  92   2.0000      -1.021206       -27.7884
  93   2.0000      -1.019388       -27.7390
  94   2.0000      -1.010294       -27.4915
  95   2.0000      -1.008706       -27.4483
  96   2.0000      -1.006919       -27.3996
  97   2.0000      -0.999463       -27.1968
  98   2.0000      -0.996567       -27.1180
  99   2.0000      -0.993970       -27.0473
 100   2.0000      -0.985199       -26.8086
 101   2.0000      -0.983161       -26.7532
 102   2.0000      -0.957000       -26.0413
 103   2.0000      -0.939363       -25.5614
 104   2.0000      -0.932594       -25.3772
 105   2.0000      -0.917981       -24.9795
 106   2.0000      -0.912301       -24.8250
 107   2.0000      -0.907424       -24.6923
 108   2.0000      -0.899880       -24.4870
 109   2.0000      -0.899405       -24.4740
 110   2.0000      -0.886367       -24.1193
 111   2.0000      -0.882956       -24.0265
 112   2.0000      -0.877156       -23.8686
 113   2.0000      -0.860947       -23.4276
 114   2.0000      -0.856946       -23.3187
 115   2.0000      -0.850115       -23.1328
 116   2.0000      -0.840993       -22.8846
 117   2.0000      -0.831660       -22.6306
 118   2.0000      -0.826748       -22.4970
 119   2.0000      -0.825513       -22.4634
 120   2.0000      -0.816580       -22.2203
 121   2.0000      -0.810179       -22.0461
 122   2.0000      -0.809240       -22.0205
 123   2.0000      -0.805521       -21.9193
 124   2.0000      -0.801306       -21.8046
 125   2.0000      -0.793216       -21.5845
 126   2.0000      -0.782049       -21.2806
 127   2.0000      -0.757477       -20.6120
 128   2.0000      -0.749217       -20.3872
 129   2.0000      -0.746456       -20.3121
 130   2.0000      -0.741428       -20.1753
 131   2.0000      -0.735985       -20.0272
 132   2.0000      -0.730492       -19.8777
 133   2.0000      -0.727585       -19.7986
 134   2.0000      -0.722964       -19.6729
 135   2.0000      -0.710249       -19.3269
 136   2.0000      -0.704627       -19.1739
 137   2.0000      -0.701242       -19.0818
 138   2.0000      -0.697095       -18.9689
 139   2.0000      -0.695645       -18.9295
 140   2.0000      -0.691137       -18.8068
 141   2.0000      -0.683774       -18.6064
 142   2.0000      -0.675887       -18.3918
 143   2.0000      -0.665763       -18.1163
 144   2.0000      -0.656100       -17.8534
 145   2.0000      -0.652380       -17.7522
 146   2.0000      -0.647811       -17.6278
 147   2.0000      -0.643877       -17.5208
 148   2.0000      -0.643240       -17.5035
 149   2.0000      -0.640747       -17.4356
 150   2.0000      -0.636172       -17.3111
 151   2.0000      -0.635860       -17.3026
 152   2.0000      -0.632145       -17.2015
 153   2.0000      -0.629538       -17.1306
 154   2.0000      -0.623873       -16.9764
 155   2.0000      -0.616262       -16.7693
 156   2.0000      -0.614381       -16.7182
 157   2.0000      -0.612715       -16.6728
 158   2.0000      -0.604129       -16.4392
 159   2.0000      -0.603765       -16.4293
 160   2.0000      -0.601859       -16.3774
 161   2.0000      -0.601036       -16.3550
 162   2.0000      -0.592604       -16.1256
 163   2.0000      -0.589233       -16.0338
 164   2.0000      -0.582320       -15.8457
 165   2.0000      -0.576527       -15.6881
 166   2.0000      -0.570909       -15.5352
 167   2.0000      -0.568866       -15.4796
 168   2.0000      -0.568573       -15.4717
 169   2.0000      -0.565020       -15.3750
 170   2.0000      -0.559380       -15.2215
 171   2.0000      -0.557995       -15.1838
 172   2.0000      -0.550230       -14.9725
 173   2.0000      -0.541115       -14.7245
 174   2.0000      -0.540337       -14.7033
 175   2.0000      -0.536656       -14.6031
 176   2.0000      -0.534563       -14.5462
 177   2.0000      -0.533649       -14.5213
 178   2.0000      -0.532242       -14.4831
 179   2.0000      -0.528276       -14.3751
 180   2.0000      -0.525887       -14.3101
 181   2.0000      -0.525396       -14.2967
 182   2.0000      -0.523551       -14.2466
 183   2.0000      -0.518434       -14.1073
 184   2.0000      -0.516430       -14.0528
 185   2.0000      -0.515898       -14.0383
 186   2.0000      -0.514344       -13.9960
 187   2.0000      -0.512608       -13.9488
 188   2.0000      -0.509764       -13.8714
 189   2.0000      -0.507538       -13.8108
 190   2.0000      -0.506693       -13.7878
 191   2.0000      -0.502948       -13.6859
 192   2.0000      -0.502218       -13.6660
 193   2.0000      -0.501804       -13.6548
 194   2.0000      -0.501225       -13.6390
 195   2.0000      -0.500642       -13.6232
 196   2.0000      -0.498193       -13.5565
 197   2.0000      -0.496301       -13.5051
 198   2.0000      -0.494187       -13.4475
 199   2.0000      -0.491816       -13.3830
 200   2.0000      -0.491114       -13.3639
 201   2.0000      -0.489075       -13.3084
 202   2.0000      -0.485771       -13.2185
 203   2.0000      -0.477805       -13.0017
 204   2.0000      -0.474428       -12.9099
 205   2.0000      -0.473477       -12.8840
 206   2.0000      -0.471554       -12.8316
 207   2.0000      -0.467347       -12.7172
 208   2.0000      -0.465660       -12.6712
 209   2.0000      -0.461627       -12.5615
 210   2.0000      -0.457561       -12.4509
 211   2.0000      -0.454982       -12.3807
 212   2.0000      -0.452193       -12.3048
 213   2.0000      -0.450858       -12.2685
 214   2.0000      -0.448873       -12.2145
 215   2.0000      -0.447939       -12.1890
 216   2.0000      -0.446800       -12.1581
 217   2.0000      -0.446182       -12.1412
 218   2.0000      -0.444863       -12.1053
 219   2.0000      -0.444712       -12.1012
 220   2.0000      -0.444154       -12.0860
 221   2.0000      -0.442536       -12.0420
 222   2.0000      -0.442121       -12.0307
 223   2.0000      -0.440790       -11.9945
 224   2.0000      -0.437729       -11.9112
 225   2.0000      -0.432590       -11.7714
 226   2.0000      -0.430003       -11.7010
 227   2.0000      -0.428170       -11.6511
 228   2.0000      -0.424065       -11.5394
 229   2.0000      -0.421926       -11.4812
 230   2.0000      -0.420807       -11.4507
 231   2.0000      -0.419418       -11.4130
 232   2.0000      -0.419249       -11.4083
 233   2.0000      -0.416478       -11.3329
 234   2.0000      -0.416353       -11.3295
 235   2.0000      -0.415544       -11.3075
 236   2.0000      -0.414543       -11.2803
 237   2.0000      -0.413635       -11.2556
 238   2.0000      -0.403247       -10.9729
 239   2.0000      -0.397034       -10.8039
 240   2.0000      -0.394202       -10.7268
 241   2.0000      -0.393240       -10.7006
 242   2.0000      -0.389976       -10.6118
 243   2.0000      -0.385684       -10.4950
 244   2.0000      -0.383661       -10.4400
 245   2.0000      -0.380508       -10.3541
 246   2.0000      -0.375893       -10.2286
 247   2.0000      -0.372314       -10.1312
 248   2.0000      -0.371672       -10.1137
 249   2.0000      -0.368032       -10.0147
 250   2.0000      -0.343124        -9.3369
 251   2.0000      -0.338734        -9.2174
 252   2.0000      -0.335722        -9.1355
 253   2.0000      -0.332122        -9.0375
 254   2.0000      -0.327073        -8.9001
 255   2.0000      -0.320317        -8.7163
 256   2.0000      -0.318066        -8.6550
 257   2.0000      -0.313843        -8.5401
 258   2.0000      -0.304762        -8.2930
 259   2.0000      -0.302830        -8.2404
 260   2.0000      -0.295736        -8.0474
 261   2.0000      -0.276290        -7.5182
 262   2.0000      -0.270745        -7.3674
 263   2.0000      -0.255152        -6.9430
 264   2.0000      -0.221745        -6.0340
 265   0.0000      -0.136137        -3.7045
 266   0.0000      -0.121741        -3.3127
 267   0.0000      -0.067911        -1.8479
 268   0.0000      -0.041822        -1.1380
 269   0.0000      -0.031589        -0.8596

MULLIKEN ATOMIC CHARGES
-----------------------
   0 C :    0.031934
   1 N :   -0.246159
   2 C :    0.125644
   3 C :   -0.031188
   4 C :    0.146088
   5 O :   -0.250708
   6 C :   -0.083281
   7 C :    0.002761
   8 C :    0.158947
   9 O :   -0.189213
  10 N :   -0.272812
  11 C :    0.100698
  12 C :    0.007713
  13 C :    0.189246
  14 C :   -0.068165
  15 C :    0.015560
  16 C :   -0.203488
  17 S :    0.162018
  18 C :   -0.089704
  19 C :    0.077807
  20 C :    0.155026
  21 C :   -0.051017
  22 C :    0.139258
  23 C :   -0.046843
  24 C :    0.023676
  25 O :   -0.161050
  26 C :   -0.200847
  27 S :    0.206191
  28 C :   -0.080212
  29 C :   -0.052019
  30 C :    0.008304
  31 C :    0.159659
  32 N :    0.184084
  33 O :   -0.218933
  34 O :   -0.217607
  35 C :    0.051455
  36 C :    0.107598
  37 C :    0.089245
  38 N :    0.221331
  39 O :   -0.210553
  40 O :   -0.218340
  41 C :    0.072415
  42 C :   -0.086626
  43 C :    0.082409
  44 C :   -0.038441
  45 C :   -0.097349
  46 C :   -0.132744
  47 N :    0.153012
  48 C :   -0.043722
  49 C :    0.044864
  50 C :    0.070069
  51 C :    0.089654
  52 C :   -0.026413
  53 C :   -0.095465
  54 C :   -0.058291
  55 C :   -0.131916
  56 N :    0.134653
  57 C :   -0.027704
  58 C :   -0.029213
  59 C :    0.066841
  60 C :   -0.013816
  61 C :   -0.093705
  62 C :   -0.132234
  63 N :    0.141005
  64 C :   -0.031933
  65 C :    0.068169
  66 C :    0.043750
  67 C :    0.046418
  68 C :    0.006883
  69 C :   -0.097039
  70 C :   -0.036496
  71 C :   -0.128730
  72 N :    0.140522
  73 C :   -0.047476
  74 C :   -0.012062
  75 H :    0.006349
  76 H :    0.037447
  77 H :    0.018293
  78 H :    0.040892
  79 H :    0.018843
  80 H :    0.014719
  81 H :    0.040427
  82 H :    0.018402
  83 H :    0.027510
  84 H :    0.017360
  85 H :    0.015647
  86 H :   -0.028264
  87 H :    0.051348
  88 H :    0.022656
  89 H :   -0.032423
  90 H :   -0.018045
  91 H :    0.184582
  92 H :    0.043805
  93 H :    0.027482
  94 H :    0.033444
  95 H :    0.027794
  96 H :    0.037025
  97 H :   -0.009331
  98 H :   -0.014701
  99 H :    0.025561
 100 H :   -0.007209
 101 H :    0.001439
 102 H :   -0.003723
 103 H :    0.023082
 104 H :    0.001560
 105 H :    0.008679
 106 H :   -0.002758
 107 H :    0.008074
 108 H :   -0.006749
 109 H :    0.001986
 110 H :    0.018252
 111 H :    0.041430
 112 H :    0.037724
Sum of atomic charges:   -0.0000000

LOEWDIN ATOMIC CHARGES
----------------------
   0 C :    0.075913
   1 N :    0.007346
   2 C :    0.039880
   3 C :   -0.066453
   4 C :    0.065696
   5 O :   -0.235577
   6 C :   -0.138483
   7 C :   -0.122982
   8 C :    0.084166
   9 O :   -0.192750
  10 N :   -0.008972
  11 C :    0.034943
  12 C :   -0.061360
  13 C :    0.094356
  14 C :   -0.081373
  15 C :    0.019731
  16 C :   -0.203783
  17 S :    0.504835
  18 C :   -0.163978
  19 C :   -0.061994
  20 C :   -0.023583
  21 C :   -0.102542
  22 C :    0.070005
  23 C :   -0.065617
  24 C :    0.016765
  25 O :   -0.038716
  26 C :   -0.154735
  27 S :    0.509876
  28 C :   -0.150128
  29 C :   -0.071857
  30 C :   -0.059497
  31 C :    0.013960
  32 N :    0.278933
  33 O :   -0.191684
  34 O :   -0.193954
  35 C :   -0.015491
  36 C :   -0.025233
  37 C :    0.022076
  38 N :    0.286161
  39 O :   -0.178482
  40 O :   -0.185823
  41 C :   -0.012572
  42 C :   -0.040215
  43 C :   -0.015890
  44 C :   -0.015609
  45 C :   -0.035598
  46 C :   -0.029755
  47 N :   -0.035784
  48 C :   -0.026566
  49 C :    0.048599
  50 C :    0.034008
  51 C :   -0.030057
  52 C :    0.006572
  53 C :   -0.054488
  54 C :   -0.005783
  55 C :   -0.030718
  56 N :   -0.047652
  57 C :   -0.013779
  58 C :   -0.015970
  59 C :   -0.030866
  60 C :    0.014365
  61 C :   -0.056829
  62 C :   -0.031509
  63 N :   -0.040647
  64 C :    0.007959
  65 C :    0.037518
  66 C :    0.038287
  67 C :   -0.024125
  68 C :    0.008139
  69 C :   -0.049231
  70 C :   -0.003124
  71 C :   -0.031536
  72 N :   -0.038355
  73 C :   -0.024991
  74 C :   -0.025283
  75 H :    0.028464
  76 H :    0.030694
  77 H :    0.022261
  78 H :    0.027006
  79 H :    0.026292
  80 H :    0.021217
  81 H :    0.036275
  82 H :    0.020347
  83 H :    0.031745
  84 H :    0.027947
  85 H :    0.021867
  86 H :    0.016235
  87 H :    0.042764
  88 H :    0.027681
  89 H :    0.028396
  90 H :    0.034881
  91 H :    0.097712
  92 H :    0.040183
  93 H :    0.035160
  94 H :    0.034142
  95 H :    0.036037
  96 H :    0.042553
  97 H :    0.035506
  98 H :    0.029253
  99 H :    0.021450
 100 H :    0.031669
 101 H :    0.033888
 102 H :    0.032600
 103 H :    0.032361
 104 H :    0.030686
 105 H :    0.029470
 106 H :    0.033383
 107 H :    0.035878
 108 H :    0.034490
 109 H :    0.034901
 110 H :    0.037896
 111 H :    0.027156
 112 H :    0.031446

  Mayer bond orders larger than 0.100000
B(  0-C ,  1-N ) :   1.1785 B(  0-C ,  7-C ) :   1.4707 B(  0-C , 75-H ) :   0.9868
B(  1-N ,  2-C ) :   0.9439 B(  1-N ,  4-C ) :   1.0812 B(  2-C ,  3-C ) :   1.1139
B(  2-C , 76-H ) :   0.9353 B(  2-C , 77-H ) :   0.9511 B(  3-C , 78-H ) :   0.9644
B(  3-C , 79-H ) :   0.9626 B(  3-C , 80-H ) :   0.9621 B(  4-C ,  5-O ) :   1.9241
B(  4-C ,  6-C ) :   1.0439 B(  5-O , 87-H ) :   0.1093 B(  6-C ,  7-C ) :   1.2123
B(  6-C , 13-C ) :   1.3354 B(  7-C ,  8-C ) :   0.9471 B(  8-C ,  9-O ) :   2.1739
B(  8-C , 10-N ) :   1.0159 B( 10-N , 11-C ) :   0.9528 B( 10-N , 13-C ) :   1.1565
B( 11-C , 12-C ) :   1.1207 B( 11-C , 81-H ) :   0.9269 B( 11-C , 82-H ) :   0.9487
B( 12-C , 83-H ) :   0.9636 B( 12-C , 84-H ) :   0.9676 B( 12-C , 85-H ) :   0.9677
B( 13-C , 14-C ) :   1.1823 B( 14-C , 15-C ) :   1.5487 B( 14-C , 86-H ) :   0.9569
B( 15-C , 16-C ) :   1.1938 B( 15-C , 87-H ) :   0.9484 B( 16-C , 17-S ) :   1.1176
B( 16-C , 18-C ) :   0.1011 B( 16-C , 20-C ) :   1.3423 B( 17-S , 18-C ) :   1.2470
B( 18-C , 19-C ) :   1.3994 B( 18-C , 88-H ) :   0.9684 B( 19-C , 20-C ) :   1.1926
B( 19-C , 24-C ) :   1.1714 B( 20-C , 21-C ) :   1.2615 B( 21-C , 22-C ) :   1.4776
B( 21-C , 26-C ) :   0.9589 B( 22-C , 23-C ) :   1.1767 B( 22-C , 25-O ) :   1.2587
B( 23-C , 24-C ) :   1.5243 B( 23-C , 89-H ) :   0.9833 B( 24-C , 90-H ) :   0.9977
B( 25-O , 91-H ) :   0.9556 B( 26-C , 27-S ) :   1.1682 B( 26-C , 28-C ) :   0.1011
B( 26-C , 30-C ) :   1.6007 B( 27-S , 28-C ) :   1.1468 B( 28-C , 29-C ) :   1.4932
B( 28-C , 41-C ) :   1.1276 B( 29-C , 30-C ) :   1.2906 B( 29-C , 37-C ) :   1.0530
B( 30-C , 31-C ) :   0.9791 B( 31-C , 32-N ) :   0.8312 B( 31-C , 35-C ) :   1.0754
B( 31-C , 92-H ) :   0.8737 B( 32-N , 33-O ) :   1.5527 B( 32-N , 34-O ) :   1.5605
B( 33-O , 34-O ) :   0.2665 B( 35-C , 36-C ) :   1.1332 B( 35-C , 93-H ) :   0.9357
B( 35-C , 94-H ) :   0.9064 B( 36-C , 37-C ) :   1.0239 B( 36-C , 95-H ) :   0.9063
B( 36-C , 96-H ) :   0.9256 B( 37-C , 38-N ) :   0.8370 B( 37-C , 97-H ) :   0.8778
B( 38-N , 39-O ) :   1.5725 B( 38-N , 40-O ) :   1.5396 B( 39-O , 40-O ) :   0.2516
B( 41-C , 42-C ) :   1.6846 B( 41-C , 98-H ) :   0.9450 B( 42-C , 43-C ) :   1.0848
B( 42-C , 99-H ) :   0.9376 B( 43-C , 44-C ) :   1.5977 B( 43-C , 49-C ) :   1.0330
B( 44-C , 45-C ) :   1.1065 B( 44-C ,100-H ) :   1.0173 B( 45-C , 46-C ) :   1.0634
B( 45-C , 48-C ) :   1.5969 B( 46-C , 47-N ) :   3.0389 B( 48-C , 49-C ) :   1.1038
B( 48-C ,101-H ) :   1.0165 B( 49-C , 50-C ) :   1.4648 B( 50-C , 51-C ) :   1.0542
B( 50-C , 54-C ) :   1.1094 B( 51-C , 52-C ) :   1.5883 B( 51-C , 57-C ) :   1.0738
B( 52-C , 53-C ) :   1.1093 B( 52-C ,102-H ) :   1.0128 B( 53-C , 54-C ) :   1.6063
B( 53-C , 55-C ) :   1.0566 B( 54-C ,103-H ) :   1.0018 B( 55-C , 56-N ) :   3.0252
B( 57-C , 58-C ) :   1.7104 B( 57-C ,104-H ) :   0.9656 B( 58-C , 59-C ) :   1.0596
B( 58-C ,105-H ) :   0.9612 B( 59-C , 60-C ) :   1.6342 B( 59-C , 65-C ) :   1.0325
B( 60-C , 61-C ) :   1.0883 B( 60-C ,106-H ) :   1.0130 B( 61-C , 62-C ) :   1.0577
B( 61-C , 64-C ) :   1.6386 B( 62-C , 63-N ) :   3.0417 B( 64-C , 65-C ) :   1.0623
B( 64-C ,107-H ) :   1.0117 B( 65-C , 66-C ) :   1.5508 B( 66-C , 67-C ) :   1.0456
B( 66-C , 70-C ) :   1.0575 B( 67-C , 68-C ) :   1.6678 B( 67-C , 73-C ) :   1.0384
B( 68-C , 69-C ) :   1.0785 B( 68-C ,108-H ) :   1.0186 B( 69-C , 70-C ) :   1.6568
B( 69-C , 71-C ) :   1.0620 B( 70-C ,109-H ) :   1.0143 B( 71-C , 72-N ) :   3.0382
B( 73-C , 74-C ) :   1.9497 B( 73-C ,110-H ) :   0.9586 B( 74-C ,111-H ) :   0.9611
B( 74-C ,112-H ) :   0.9516

-----------------------------------------------------------------------------
         ABSORPTION SPECTRUM VIA TRANSITION ELECTRIC DIPOLE MOMENTS
-----------------------------------------------------------------------------
State   Energy  Wavelength   fosc         T2         TX        TY        TZ
        (cm-1)    (nm)                  (au**2)     (au)      (au)      (au)
-----------------------------------------------------------------------------
   0    5548.3   1802.3   0.037407284   2.21957   0.91489  -1.07153   0.48412
   1    9595.8   1042.1   0.128539788   4.40995   1.24170  -1.24017   1.15331
   2   11984.2    834.4   0.039950783   1.09747  -0.44211   0.43130  -0.84616
   3   13135.1    761.3   0.000545215   0.01366   0.04851  -0.05651   0.09010
   4   14174.6    705.5   0.034847590   0.80935   0.42975  -0.66337   0.42965
   5   16133.2    619.8   0.003335935   0.06807  -0.05859   0.17034   0.18874
   6   17106.0    584.6   0.352196103   6.77816   0.54024  -1.70297   1.89373
   7   17658.5    566.3   0.006933425   0.12926   0.24515  -0.26281  -0.00978
   8   19149.8    522.2   0.004151455   0.07137  -0.10568   0.23219  -0.07930
   9   19729.4    506.9   0.062984437   1.05098   0.12943   0.37416  -0.94564
  10   21229.5    471.0   0.006886041   0.10678   0.00432   0.28747  -0.15533
  11   22166.2    451.1   0.018483263   0.27451   0.34107  -0.39043   0.07585
  12   22775.8    439.1   0.063328215   0.91538   0.09625  -0.93129   0.19699
  13   23410.3    427.2   0.015770296   0.22177   0.00859   0.47084  -0.00241
  14   23660.2    422.7   0.049151471   0.68390  -0.15194   0.00192  -0.81290
  15   23719.4    421.6   0.043720231   0.60681   0.11407   0.03325   0.76987
  16   24421.0    409.5   0.002049783   0.02763  -0.08953  -0.11554  -0.07916
  17   24570.9    407.0   0.011871058   0.15905   0.13787   0.35341   0.12306
  18   24613.8    406.3   0.005801498   0.07760   0.11798  -0.19676   0.15800
  19   25034.7    399.4   0.016390242   0.21554   0.13872  -0.44301  -0.00589
  20   26507.0    377.3   0.142779544   1.77330   0.63037  -0.65781   0.97119
  21   26887.6    371.9   0.012881333   0.15772   0.22339   0.32812   0.01251
  22   27056.9    369.6   0.093384677   1.13625  -0.68844  -0.23538   0.77903
  23   27721.5    360.7   0.271188406   3.22055   1.71901  -0.33882   0.38828
  24   28128.1    355.5   0.219657759   2.57088   0.41704  -0.10922   1.54436
  25   28397.2    352.1   0.051615449   0.59838   0.15866   0.14952   0.74220
  26   28684.1    348.6   0.381105714   4.37401  -1.84766  -0.65213  -0.73136
  27   28830.8    346.9   0.022773493   0.26004   0.46588   0.11601   0.17187
  28   29467.6    339.4   0.099646835   1.11325   0.35815  -0.29943  -0.94622
  29   29913.9    334.3   0.002191285   0.02412   0.07529   0.06386  -0.11987
  30   30452.0    328.4   0.300016451   3.24343   0.58777  -1.69992   0.09074
  31   30866.1    324.0   0.012389364   0.13214   0.20799   0.29787   0.01244
  32   30913.1    323.5   0.123593366   1.31622  -0.57222  -0.97506  -0.19507
  33   31353.0    318.9   0.373378227   3.92053   1.65849  -0.54917  -0.93186
  34   32091.5    311.6   0.001966464   0.02017  -0.11742  -0.07377  -0.03074
  35   32332.6    309.3   0.006148224   0.06260   0.15433  -0.19484   0.02866
  36   32503.4    307.7   0.009390392   0.09511  -0.05709   0.12396  -0.27656
  37   32623.8    306.5   0.002908249   0.02935   0.06986   0.13598   0.07731
  38   32847.0    304.4   0.113044412   1.13300   0.10704   1.00315   0.33945
  39   33167.7    301.5   0.226050182   2.24370   0.81908  -1.21795  -0.29902
  40   33270.4    300.6   0.000809050   0.00801  -0.07556   0.03885   0.02806
  41   33828.1    295.6   0.149294438   1.45292  -0.59369   1.04439   0.09851
  42   34020.1    293.9   0.237693373   2.30015  -0.41346   1.33028  -0.59963
  43   34252.8    291.9   0.005204092   0.05002   0.11818   0.18870   0.02107
  44   34335.6    291.2   0.003249453   0.03116   0.03870   0.13347  -0.10883
  45   34841.4    287.0   0.033326388   0.31490   0.16725  -0.32947  -0.42234
  46   35010.2    285.6   0.017357005   0.16321   0.00757  -0.36487   0.17328
  47   35042.8    285.4   0.007213274   0.06777  -0.00433   0.24917   0.07525
  48   35142.1    284.6   0.017671998   0.16555   0.10112   0.27315  -0.28410
  49   35310.5    283.2   0.007469919   0.06964   0.06298  -0.23192  -0.10905
  50   35538.8    281.4   0.029011386   0.26875   0.08009  -0.38023  -0.34315
  51   35840.3    279.0   0.014307602   0.13142  -0.16642  -0.10741   0.30363
  52   35874.2    278.8   0.008870847   0.08141   0.02550  -0.12214  -0.25659
  53   36173.5    276.4   0.024475921   0.22275  -0.34116   0.29205  -0.14515
  54   36540.4    273.7   0.166240561   1.49775   0.28704   0.76238  -0.91331
  55   36851.1    271.4   0.000967316   0.00864   0.01282  -0.09012   0.01884
  56   37151.2    269.2   0.118216171   1.04756   0.71836   0.65075  -0.32870
  57   37265.3    268.3   0.001195104   0.01056   0.03030  -0.05032   0.08431
  58   37490.0    266.7   0.314820292   2.76454  -0.36485  -1.25785   1.02433
  59   38253.4    261.4   0.059932516   0.51578   0.12192   0.61805  -0.34486
  60   38403.0    260.4   0.010976353   0.09410   0.08621  -0.12476   0.26664
  61   38652.2    258.7   0.048676941   0.41460   0.05543   0.19008  -0.61269
  62   38832.5    257.5   0.360642769   3.05743  -0.51177  -1.18350   1.18103
  63   38988.2    256.5   0.092013135   0.77695  -0.05291  -0.82925   0.29410
  64   39058.1    256.0   0.028360156   0.23904   0.37080  -0.15733  -0.27712
  65   39156.8    255.4   0.032381132   0.27225  -0.17049   0.37442  -0.32092
  66   39470.8    253.4   0.011787670   0.09832  -0.06788  -0.30037  -0.05904
  67   39614.2    252.4   0.030196994   0.25095  -0.20683  -0.43670   0.13215
  68   39684.3    252.0   0.018930829   0.15705  -0.22526   0.17019   0.27809
  69   39762.4    251.5   0.059615011   0.49358   0.22358   0.54150   0.38778
  70   39918.7    250.5   0.045228489   0.37300   0.08271   0.40246   0.45187
  71   40008.5    249.9   0.011499311   0.09462   0.18902   0.23488  -0.06103
  72   40198.1    248.8   0.121631254   0.99613  -0.12984   0.21626   0.96566
  73   40242.2    248.5   0.053080496   0.43424  -0.50733   0.25332   0.33568

FINAL SINGLE POINT ENERGY     -3989.344852875700

DIPOLE MOMENT
-------------
                                X             Y             Z
Electronic contribution:     -3.55430      -0.80034     -20.55948
Nuclear contribution   :      3.41029       1.54057      18.49358
                        -----------------------------------------
Total Dipole Moment    :     -0.14401       0.74023      -2.06590
                        -----------------------------------------
Magnitude (a.u.)       :      2.19923
Magnitude (Debye)      :      5.58999

Rotational constants in cm-1:     0.001717     0.000408     0.000383
Rotational constants in MHz :    51.485074    12.243251    11.475298

                             ****ORCA TERMINATED NORMALLY****
TOTAL RUN TIME: 0 days 0 hours 26 minutes 22 seconds 531 msec
