                         Program Version 4.2.0 -  RELEASE  -
|  1> # ORCA input file
|  2> # SCF done       -149.937753109007          0.000642961720
|  3> ! CAM-B3LYP def2-SVP def2/J RIJCOSX Grid4 TightSCF
|  4> %maxcore 5000
|  5> %tddft
|  6>     Mode sTDDFT
|  7>     Ethresh 5.0
|  8>     maxcore 5000
|  9> end
| 10>
| 11> %pal
| 12>   nprocs 6
| 13>   end
| 14> * xyz 0 1
| 15>    C        0.34203        11.24315         3.80214
| 16>    N       -0.63658        11.24134         4.65403
| 17>    C       -0.70134         9.96241         5.12923
| 18>    C        0.32294         9.11717         4.48628
| 19>    C        0.25768         7.74423         5.02010
| 20>    O        0.93920         6.78704         4.73508
| 21>    C       -0.84506         7.83097         6.00067
| 22>    C       -1.39963         9.20853         6.02550
| 23>    N       -2.40914         9.29714         6.93327
| 24>    C       -2.50611         8.10561         7.45481
| 25>    C       -1.55411         7.13876         6.92112
| 26>    C        1.01059         9.94330         3.63641
| 27>    C        2.11846         9.67137         2.75392
| 28>    C        2.48063         8.35608         2.45671
| 29>    C        3.54399         8.09451         1.61134
| 30>    N        3.86454         6.70773         1.37830
| 31>    O        2.95329         5.91307         1.42321
| 32>    O        5.02311         6.41778         1.15269
| 33>    C        4.30250         9.12565         1.02437
| 34>    C        3.92033        10.43708         1.33578
| 35>    C        2.86350        10.70730         2.17255
| 36>    C        5.38411         8.85938         0.10333
| 37>    C        6.45636         9.65216        -0.05309
| 38>    C        7.56528         9.32318        -0.92125
| 39>    C        7.91319         8.02156        -1.13731
| 40>    S        9.33188         7.80484        -2.07072
| 41>    C        9.52135         9.53183        -2.20838
| 42>    C        8.48630        10.24481        -1.55466
| 43>    C        8.46392        11.64706        -1.62601
| 44>    C        7.23766        12.44505        -1.27196
| 45>    C        6.03768        12.01778        -2.12135
| 46>    C        9.57977        12.28180        -2.19146
| 47>    C       10.56316        11.51692        -2.86397
| 48>    C       10.54651        10.13459        -2.91963
| 49>    C       11.59421         9.34734        -3.64202
| 50>    C       12.76569         9.02902        -2.71073
| 51>    S       11.75932        12.51379        -3.65099
| 52>    C       10.99613        13.92629        -3.04866
| 53>    C        9.89900        13.68927        -2.27659
| 54>    C        9.31670        14.78678        -1.52176
| 55>    C        9.05911        16.04258        -2.09130
| 56>    N        8.61984        17.06138        -1.39271
| 57>    C        8.42987        16.88193        -0.08678
| 58>    N        8.65035        15.73101         0.56073
| 59>    C        9.08524        14.71182        -0.13928
| 60>    C        7.96902        17.99512         0.71017
| 61>    N        7.71112        19.18706         0.20471
| 62>    C        7.33001        19.94572         1.25179
| 63>    C        7.34889        19.15424         2.51344
| 64>    C        6.93641        19.99729         3.65703
| 65>    O        6.83075        19.69244         4.82031
| 66>    C        6.68781        21.30266         3.01433
| 67>    C        6.93703        21.22067         1.55225
| 68>    N        6.71004        22.42371         0.96475
| 69>    C        6.35149        23.21923         1.93823
| 70>    C        6.31792        22.58571         3.24555
| 71>    C        7.75751        17.91755         2.15951
| 72>    H        0.58748        12.14715         3.27252
| 73>    H       -3.24375         7.90031         8.21138
| 74>    H       -1.47460         6.11315         7.22283
| 75>    H        1.94851         7.52417         2.89630
| 76>    H        4.45618        11.25556         0.88087
| 77>    H        2.61453        11.73457         2.38809
| 78>    H        5.32255         7.94930        -0.47561
| 79>    H        6.55500        10.54600         0.54362
| 80>    H        7.42987         7.15554        -0.72776
| 81>    H        7.42029        13.49729        -1.48104
| 82>    H        6.99910        12.36505        -0.21040
| 83>    H        5.18300        12.65162        -1.89547
| 84>    H        5.75921        10.98421        -1.93799
| 85>    H        6.27543        12.12720        -3.17714
| 86>    H       11.95665         9.92409        -4.49574
| 87>    H       11.15982         8.41488        -4.00828
| 88>    H       13.21884         9.94715        -2.34383
| 89>    H       13.52168         8.45775        -3.24232
| 90>    H       12.42445         8.44492        -1.85930
| 91>    H       11.44858        14.88092        -3.23843
| 92>    H        9.19943        16.21377        -3.15133
| 93>    H        9.27614        13.79746         0.40919
| 94>    H        6.11118        24.24927         1.73774
| 95>    H        6.05190        23.06872         4.16480
| 96>    H        7.91727        17.03548         2.74574
| 97> *
| 98>
| 99>                          ****END OF INPUT****

CARTESIAN COORDINATES (ANGSTROEM)
---------------------------------
  C      0.342030   11.243150    3.802140
  N     -0.636580   11.241340    4.654030
  C     -0.701340    9.962410    5.129230
  C      0.322940    9.117170    4.486280
  C      0.257680    7.744230    5.020100
  O      0.939200    6.787040    4.735080
  C     -0.845060    7.830970    6.000670
  C     -1.399630    9.208530    6.025500
  N     -2.409140    9.297140    6.933270
  C     -2.506110    8.105610    7.454810
  C     -1.554110    7.138760    6.921120
  C      1.010590    9.943300    3.636410
  C      2.118460    9.671370    2.753920
  C      2.480630    8.356080    2.456710
  C      3.543990    8.094510    1.611340
  N      3.864540    6.707730    1.378300
  O      2.953290    5.913070    1.423210
  O      5.023110    6.417780    1.152690
  C      4.302500    9.125650    1.024370
  C      3.920330   10.437080    1.335780
  C      2.863500   10.707300    2.172550
  C      5.384110    8.859380    0.103330
  C      6.456360    9.652160   -0.053090
  C      7.565280    9.323180   -0.921250
  C      7.913190    8.021560   -1.137310
  S      9.331880    7.804840   -2.070720
  C      9.521350    9.531830   -2.208380
  C      8.486300   10.244810   -1.554660
  C      8.463920   11.647060   -1.626010
  C      7.237660   12.445050   -1.271960
  C      6.037680   12.017780   -2.121350
  C      9.579770   12.281800   -2.191460
  C     10.563160   11.516920   -2.863970
  C     10.546510   10.134590   -2.919630
  C     11.594210    9.347340   -3.642020
  C     12.765690    9.029020   -2.710730
  S     11.759320   12.513790   -3.650990
  C     10.996130   13.926290   -3.048660
  C      9.899000   13.689270   -2.276590
  C      9.316700   14.786780   -1.521760
  C      9.059110   16.042580   -2.091300
  N      8.619840   17.061380   -1.392710
  C      8.429870   16.881930   -0.086780
  N      8.650350   15.731010    0.560730
  C      9.085240   14.711820   -0.139280
  C      7.969020   17.995120    0.710170
  N      7.711120   19.187060    0.204710
  C      7.330010   19.945720    1.251790
  C      7.348890   19.154240    2.513440
  C      6.936410   19.997290    3.657030
  O      6.830750   19.692440    4.820310
  C      6.687810   21.302660    3.014330
  C      6.937030   21.220670    1.552250
  N      6.710040   22.423710    0.964750
  C      6.351490   23.219230    1.938230
  C      6.317920   22.585710    3.245550
  C      7.757510   17.917550    2.159510
  H      0.587480   12.147150    3.272520
  H     -3.243750    7.900310    8.211380
  H     -1.474600    6.113150    7.222830
  H      1.948510    7.524170    2.896300
  H      4.456180   11.255560    0.880870
  H      2.614530   11.734570    2.388090
  H      5.322550    7.949300   -0.475610
  H      6.555000   10.546000    0.543620
  H      7.429870    7.155540   -0.727760
  H      7.420290   13.497290   -1.481040
  H      6.999100   12.365050   -0.210400
  H      5.183000   12.651620   -1.895470
  H      5.759210   10.984210   -1.937990
  H      6.275430   12.127200   -3.177140
  H     11.956650    9.924090   -4.495740
  H     11.159820    8.414880   -4.008280
  H     13.218840    9.947150   -2.343830
  H     13.521680    8.457750   -3.242320
  H     12.424450    8.444920   -1.859300
  H     11.448580   14.880920   -3.238430
  H      9.199430   16.213770   -3.151330
  H      9.276140   13.797460    0.409190
  H      6.111180   24.249270    1.737740
  H      6.051900   23.068720    4.164800
  H      7.917270   17.035480    2.745740

 Total Charge           Charge          ....    0
 Multiplicity           Mult            ....    1
 Number of Electrons    NEL             ....  402
 Basis Dimension        Dim             ....  931

ORBITAL ENERGIES
----------------

  NO   OCC          E(Eh)            E(eV)
   0   2.0000     -88.961619     -2420.7687
   1   2.0000     -88.955963     -2420.6148
   2   2.0000     -19.244585      -523.6718
   3   2.0000     -19.244258      -523.6629
   4   2.0000     -19.222227      -523.0634
   5   2.0000     -19.206427      -522.6335
   6   2.0000     -14.649224      -398.6257
   7   2.0000     -14.429765      -392.6539
   8   2.0000     -14.423753      -392.4903
   9   2.0000     -14.423313      -392.4783
  10   2.0000     -14.417507      -392.3203
  11   2.0000     -14.407055      -392.0359
  12   2.0000     -14.405830      -392.0026
  13   2.0000     -10.382152      -282.5127
  14   2.0000     -10.367845      -282.1234
  15   2.0000     -10.353478      -281.7324
  16   2.0000     -10.343687      -281.4660
  17   2.0000     -10.341203      -281.3984
  18   2.0000     -10.338175      -281.3160
  19   2.0000     -10.337521      -281.2982
  20   2.0000     -10.334960      -281.2286
  21   2.0000     -10.333923      -281.2003
  22   2.0000     -10.332990      -281.1749
  23   2.0000     -10.331298      -281.1289
  24   2.0000     -10.328793      -281.0607
  25   2.0000     -10.327223      -281.0180
  26   2.0000     -10.326231      -280.9910
  27   2.0000     -10.316018      -280.7131
  28   2.0000     -10.315222      -280.6915
  29   2.0000     -10.313583      -280.6469
  30   2.0000     -10.311654      -280.5944
  31   2.0000     -10.307965      -280.4940
  32   2.0000     -10.306012      -280.4409
  33   2.0000     -10.303954      -280.3849
  34   2.0000     -10.303591      -280.3750
  35   2.0000     -10.302465      -280.3443
  36   2.0000     -10.300704      -280.2964
  37   2.0000     -10.300160      -280.2816
  38   2.0000     -10.299119      -280.2533
  39   2.0000     -10.299087      -280.2524
  40   2.0000     -10.298140      -280.2266
  41   2.0000     -10.296828      -280.1909
  42   2.0000     -10.292667      -280.0777
  43   2.0000     -10.291754      -280.0529
  44   2.0000     -10.290553      -280.0202
  45   2.0000     -10.290385      -280.0156
  46   2.0000     -10.290183      -280.0101
  47   2.0000     -10.289761      -279.9986
  48   2.0000     -10.288800      -279.9725
  49   2.0000     -10.288534      -279.9652
  50   2.0000     -10.288340      -279.9600
  51   2.0000     -10.288147      -279.9547
  52   2.0000     -10.284197      -279.8472
  53   2.0000     -10.280233      -279.7394
  54   2.0000     -10.278405      -279.6896
  55   2.0000     -10.263087      -279.2728
  56   2.0000     -10.262272      -279.2506
  57   2.0000      -8.057641      -219.2596
  58   2.0000      -8.052047      -219.1073
  59   2.0000      -6.027154      -164.0072
  60   2.0000      -6.022902      -163.8915
  61   2.0000      -6.021516      -163.8538
  62   2.0000      -6.019311      -163.7938
  63   2.0000      -6.017289      -163.7387
  64   2.0000      -6.013782      -163.6433
  65   2.0000      -1.325320       -36.0638
  66   2.0000      -1.143763       -31.1234
  67   2.0000      -1.137744       -30.9596
  68   2.0000      -1.122378       -30.5415
  69   2.0000      -1.100921       -29.9576
  70   2.0000      -1.088294       -29.6140
  71   2.0000      -1.073728       -29.2176
  72   2.0000      -1.070499       -29.1298
  73   2.0000      -1.056957       -28.7613
  74   2.0000      -1.011222       -27.5167
  75   2.0000      -0.994503       -27.0618
  76   2.0000      -0.993005       -27.0210
  77   2.0000      -0.985311       -26.8117
  78   2.0000      -0.944837       -25.7103
  79   2.0000      -0.936938       -25.4954
  80   2.0000      -0.930591       -25.3227
  81   2.0000      -0.925263       -25.1777
  82   2.0000      -0.918835       -25.0028
  83   2.0000      -0.910560       -24.7776
  84   2.0000      -0.900140       -24.4941
  85   2.0000      -0.882123       -24.0038
  86   2.0000      -0.871353       -23.7107
  87   2.0000      -0.864512       -23.5246
  88   2.0000      -0.860875       -23.4256
  89   2.0000      -0.856928       -23.3182
  90   2.0000      -0.849266       -23.1097
  91   2.0000      -0.838984       -22.8299
  92   2.0000      -0.820735       -22.3333
  93   2.0000      -0.813067       -22.1247
  94   2.0000      -0.800499       -21.7827
  95   2.0000      -0.792746       -21.5717
  96   2.0000      -0.780771       -21.2459
  97   2.0000      -0.772421       -21.0186
  98   2.0000      -0.765050       -20.8181
  99   2.0000      -0.763425       -20.7738
 100   2.0000      -0.748324       -20.3629
 101   2.0000      -0.740511       -20.1503
 102   2.0000      -0.737390       -20.0654
 103   2.0000      -0.732731       -19.9386
 104   2.0000      -0.711385       -19.3578
 105   2.0000      -0.705203       -19.1896
 106   2.0000      -0.696706       -18.9583
 107   2.0000      -0.691520       -18.8172
 108   2.0000      -0.690067       -18.7777
 109   2.0000      -0.681023       -18.5316
 110   2.0000      -0.671170       -18.2635
 111   2.0000      -0.658658       -17.9230
 112   2.0000      -0.649400       -17.6711
 113   2.0000      -0.645001       -17.5514
 114   2.0000      -0.643056       -17.4984
 115   2.0000      -0.638150       -17.3649
 116   2.0000      -0.635234       -17.2856
 117   2.0000      -0.630764       -17.1640
 118   2.0000      -0.619938       -16.8694
 119   2.0000      -0.619379       -16.8542
 120   2.0000      -0.613261       -16.6877
 121   2.0000      -0.610483       -16.6121
 122   2.0000      -0.601848       -16.3771
 123   2.0000      -0.600567       -16.3423
 124   2.0000      -0.595593       -16.2069
 125   2.0000      -0.595127       -16.1942
 126   2.0000      -0.578804       -15.7501
 127   2.0000      -0.575612       -15.6632
 128   2.0000      -0.565478       -15.3874
 129   2.0000      -0.559715       -15.2306
 130   2.0000      -0.554509       -15.0889
 131   2.0000      -0.553397       -15.0587
 132   2.0000      -0.551483       -15.0066
 133   2.0000      -0.548886       -14.9360
 134   2.0000      -0.544806       -14.8249
 135   2.0000      -0.541425       -14.7329
 136   2.0000      -0.541263       -14.7285
 137   2.0000      -0.537861       -14.6360
 138   2.0000      -0.533653       -14.5214
 139   2.0000      -0.531595       -14.4654
 140   2.0000      -0.527510       -14.3543
 141   2.0000      -0.524461       -14.2713
 142   2.0000      -0.522108       -14.2073
 143   2.0000      -0.519314       -14.1313
 144   2.0000      -0.516216       -14.0469
 145   2.0000      -0.510533       -13.8923
 146   2.0000      -0.508422       -13.8349
 147   2.0000      -0.505737       -13.7618
 148   2.0000      -0.505178       -13.7466
 149   2.0000      -0.501158       -13.6372
 150   2.0000      -0.500559       -13.6209
 151   2.0000      -0.495509       -13.4835
 152   2.0000      -0.491965       -13.3870
 153   2.0000      -0.483850       -13.1662
 154   2.0000      -0.481032       -13.0896
 155   2.0000      -0.480732       -13.0814
 156   2.0000      -0.478953       -13.0330
 157   2.0000      -0.474437       -12.9101
 158   2.0000      -0.471030       -12.8174
 159   2.0000      -0.470491       -12.8027
 160   2.0000      -0.466752       -12.7010
 161   2.0000      -0.465257       -12.6603
 162   2.0000      -0.463329       -12.6078
 163   2.0000      -0.460597       -12.5335
 164   2.0000      -0.459885       -12.5141
 165   2.0000      -0.457041       -12.4367
 166   2.0000      -0.454233       -12.3603
 167   2.0000      -0.448715       -12.2102
 168   2.0000      -0.445147       -12.1131
 169   2.0000      -0.438376       -11.9288
 170   2.0000      -0.434110       -11.8127
 171   2.0000      -0.427636       -11.6366
 172   2.0000      -0.417014       -11.3475
 173   2.0000      -0.412151       -11.2152
 174   2.0000      -0.405905       -11.0452
 175   2.0000      -0.403803       -10.9880
 176   2.0000      -0.392820       -10.6892
 177   2.0000      -0.387158       -10.5351
 178   2.0000      -0.386638       -10.5210
 179   2.0000      -0.381312       -10.3760
 180   2.0000      -0.378704       -10.3051
 181   2.0000      -0.373827       -10.1723
 182   2.0000      -0.370000       -10.0682
 183   2.0000      -0.366434        -9.9712
 184   2.0000      -0.364743        -9.9252
 185   2.0000      -0.356645        -9.7048
 186   2.0000      -0.352770        -9.5994
 187   2.0000      -0.350749        -9.5444
 188   2.0000      -0.348630        -9.4867
 189   2.0000      -0.346192        -9.4204
 190   2.0000      -0.343673        -9.3518
 191   2.0000      -0.339772        -9.2457
 192   2.0000      -0.338872        -9.2212
 193   2.0000      -0.332684        -9.0528
 194   2.0000      -0.330371        -8.9899
 195   2.0000      -0.324976        -8.8430
 196   2.0000      -0.323030        -8.7901
 197   2.0000      -0.310335        -8.4446
 198   2.0000      -0.302967        -8.2442
 199   2.0000      -0.286135        -7.7861
 200   2.0000      -0.255140        -6.9427
 201   0.0000      -0.114905        -3.1267
 202   0.0000      -0.111111        -3.0235
 203   0.0000      -0.062948        -1.7129
 204   0.0000      -0.046606        -1.2682
 205   0.0000      -0.037301        -1.0150

MULLIKEN ATOMIC CHARGES
-----------------------
   0 C :    0.051220
   1 N :   -0.023690
   2 C :    0.042755
   3 C :   -0.143278
   4 C :    0.218580
   5 O :   -0.126243
   6 C :   -0.011618
   7 C :   -0.002396
   8 N :   -0.043438
   9 C :    0.092650
  10 C :   -0.094930
  11 C :    0.010367
  12 C :    0.085184
  13 C :   -0.048102
  14 C :    0.132660
  15 N :    0.242223
  16 O :   -0.216279
  17 O :   -0.242229
  18 C :    0.071347
  19 C :   -0.036606
  20 C :   -0.003124
  21 C :    0.010018
  22 C :   -0.035640
  23 C :    0.038791
  24 C :   -0.105038
  25 S :    0.116293
  26 C :   -0.172866
  27 C :    0.150622
  28 C :   -0.188739
  29 C :    0.033745
  30 C :    0.026326
  31 C :    0.141684
  32 C :   -0.181489
  33 C :   -0.055225
  34 C :    0.025637
  35 C :    0.033323
  36 S :    0.117259
  37 C :   -0.096701
  38 C :    0.054298
  39 C :   -0.056791
  40 C :    0.035196
  41 N :    0.012312
  42 C :   -0.155627
  43 N :   -0.037363
  44 C :    0.055746
  45 C :    0.081374
  46 N :   -0.013849
  47 C :    0.049078
  48 C :   -0.021943
  49 C :    0.211443
  50 O :   -0.117169
  51 C :   -0.039109
  52 C :   -0.001974
  53 N :   -0.052340
  54 C :    0.091580
  55 C :   -0.094270
  56 C :   -0.098456
  57 H :    0.011093
  58 H :    0.018036
  59 H :    0.003242
  60 H :    0.007045
  61 H :   -0.020429
  62 H :   -0.016689
  63 H :    0.009112
  64 H :    0.001917
  65 H :    0.040877
  66 H :    0.022126
  67 H :    0.005696
  68 H :    0.013565
  69 H :    0.031178
  70 H :    0.018418
  71 H :    0.014600
  72 H :    0.015959
  73 H :    0.012787
  74 H :    0.021738
  75 H :    0.016743
  76 H :    0.027122
  77 H :    0.010102
  78 H :    0.012682
  79 H :    0.011749
  80 H :   -0.003110
  81 H :   -0.000744
Sum of atomic charges:   -0.0000000

LOEWDIN ATOMIC CHARGES
----------------------
   0 C :    0.086907
   1 N :   -0.076565
   2 C :    0.046198
   3 C :   -0.052488
   4 C :    0.070420
   5 O :   -0.125278
   6 C :   -0.034512
   7 C :    0.037577
   8 N :   -0.089285
   9 C :    0.084899
  10 C :   -0.025176
  11 C :   -0.029187
  12 C :   -0.034306
  13 C :    0.029075
  14 C :   -0.027290
  15 N :    0.284613
  16 O :   -0.186156
  17 O :   -0.203177
  18 C :    0.006220
  19 C :   -0.012694
  20 C :    0.007064
  21 C :   -0.022442
  22 C :   -0.002290
  23 C :   -0.070396
  24 C :   -0.152467
  25 S :    0.419916
  26 C :   -0.148841
  27 C :   -0.041464
  28 C :   -0.017807
  29 C :   -0.033752
  30 C :   -0.048855
  31 C :   -0.046913
  32 C :   -0.151545
  33 C :   -0.055519
  34 C :   -0.036692
  35 C :   -0.047907
  36 S :    0.417891
  37 C :   -0.155845
  38 C :   -0.067419
  39 C :   -0.049152
  40 C :    0.044688
  41 N :   -0.037660
  42 C :    0.000691
  43 N :   -0.066407
  44 C :    0.050250
  45 C :    0.049019
  46 N :   -0.077133
  47 C :    0.041526
  48 C :   -0.037926
  49 C :    0.063422
  50 O :   -0.130453
  51 C :   -0.038318
  52 C :    0.033766
  53 N :   -0.094888
  54 C :    0.080339
  55 C :   -0.036025
  56 C :   -0.008713
  57 H :    0.025140
  58 H :    0.026872
  59 H :    0.037677
  60 H :    0.040880
  61 H :    0.032957
  62 H :    0.031892
  63 H :    0.028625
  64 H :    0.027491
  65 H :    0.031117
  66 H :    0.031110
  67 H :    0.022142
  68 H :    0.024402
  69 H :    0.025558
  70 H :    0.028992
  71 H :    0.024872
  72 H :    0.025648
  73 H :    0.022796
  74 H :    0.026458
  75 H :    0.023472
  76 H :    0.026872
  77 H :    0.028251
  78 H :    0.029244
  79 H :    0.024485
  80 H :    0.034853
  81 H :    0.036652

  Mayer bond orders larger than 0.100000
B(  0-C ,  1-N ) :   1.7346 B(  0-C , 11-C ) :   1.0385 B(  0-C , 57-H ) :   0.9869
B(  1-N ,  2-C ) :   1.2703 B(  2-C ,  3-C ) :   1.0481 B(  2-C ,  7-C ) :   1.5071
B(  3-C ,  4-C ) :   0.8940 B(  3-C , 11-C ) :   1.6133 B(  4-C ,  5-O ) :   2.2169
B(  4-C ,  6-C ) :   0.9145 B(  6-C ,  7-C ) :   1.0475 B(  6-C , 10-C ) :   1.6398
B(  7-C ,  8-N ) :   1.2840 B(  8-N ,  9-C ) :   1.6893 B(  9-C , 10-C ) :   1.0439
B(  9-C , 58-H ) :   0.9883 B( 10-C , 59-H ) :   1.0108 B( 11-C , 12-C ) :   1.0234
B( 12-C , 13-C ) :   1.3139 B( 12-C , 20-C ) :   1.3090 B( 13-C , 14-C ) :   1.3789
B( 13-C , 60-H ) :   0.9775 B( 14-C , 15-N ) :   0.8726 B( 14-C , 18-C ) :   1.3427
B( 15-N , 16-O ) :   1.5656 B( 15-N , 17-O ) :   1.5097 B( 16-O , 17-O ) :   0.2675
B( 18-C , 19-C ) :   1.3467 B( 18-C , 21-C ) :   1.0592 B( 19-C , 20-C ) :   1.4079
B( 19-C , 61-H ) :   0.9872 B( 20-C , 62-H ) :   0.9947 B( 21-C , 22-C ) :   1.7787
B( 21-C , 63-H ) :   0.9458 B( 22-C , 23-C ) :   1.0332 B( 22-C , 64-H ) :   0.9667
B( 23-C , 24-C ) :   1.6277 B( 23-C , 27-C ) :   1.1153 B( 24-C , 25-S ) :   1.1131
B( 24-C , 65-H ) :   0.9588 B( 25-S , 26-C ) :   1.0705 B( 26-C , 27-C ) :   1.2823
B( 26-C , 33-C ) :   1.4385 B( 27-C , 28-C ) :   1.3334 B( 28-C , 29-C ) :   1.0792
B( 28-C , 31-C ) :   1.3824 B( 29-C , 30-C ) :   1.1006 B( 29-C , 66-H ) :   0.9126
B( 29-C , 67-H ) :   0.9117 B( 30-C , 68-H ) :   0.9632 B( 30-C , 69-H ) :   0.9637
B( 30-C , 70-H ) :   0.9595 B( 31-C , 32-C ) :   1.2758 B( 31-C , 38-C ) :   1.1281
B( 32-C , 33-C ) :   1.4483 B( 32-C , 36-S ) :   1.0617 B( 33-C , 34-C ) :   1.0635
B( 34-C , 35-C ) :   1.1026 B( 34-C , 71-H ) :   0.9206 B( 34-C , 72-H ) :   0.9188
B( 35-C , 73-H ) :   0.9681 B( 35-C , 74-H ) :   0.9684 B( 35-C , 75-H ) :   0.9680
B( 36-S , 37-C ) :   1.1191 B( 37-C , 38-C ) :   1.6416 B( 37-C , 76-H ) :   0.9660
B( 38-C , 39-C ) :   0.9568 B( 39-C , 40-C ) :   1.3312 B( 39-C , 44-C ) :   1.3393
B( 40-C , 41-N ) :   1.5634 B( 40-C , 77-H ) :   0.9888 B( 41-N , 42-C ) :   1.6005
B( 42-C , 43-N ) :   1.6214 B( 42-C , 45-C ) :   0.9412 B( 43-N , 44-C ) :   1.5751
B( 43-N , 45-C ) :  -0.1253 B( 44-C , 78-H ) :   0.9825 B( 45-C , 46-N ) :   1.6674
B( 45-C , 47-C ) :   0.1211 B( 45-C , 56-C ) :   1.0803 B( 46-N , 47-C ) :   1.3211
B( 47-C , 48-C ) :   1.0222 B( 47-C , 52-C ) :   1.4467 B( 48-C , 49-C ) :   0.8694
B( 48-C , 56-C ) :   1.5964 B( 49-C , 50-O ) :   2.3277 B( 49-C , 51-C ) :   0.8805
B( 51-C , 52-C ) :   1.0353 B( 51-C , 55-C ) :   1.6294 B( 52-C , 53-N ) :   1.3012
B( 53-N , 54-C ) :   1.6711 B( 54-C , 55-C ) :   1.0639 B( 54-C , 79-H ) :   0.9883
B( 55-C , 80-H ) :   1.0094 B( 56-C , 81-H ) :   1.0227

-----------------------------------------------------------------------------
         ABSORPTION SPECTRUM VIA TRANSITION ELECTRIC DIPOLE MOMENTS
-----------------------------------------------------------------------------
State   Energy  Wavelength   fosc         T2         TX        TY        TZ
        (cm-1)    (nm)                  (au**2)     (au)      (au)      (au)
-----------------------------------------------------------------------------
   0   19064.1    524.5   0.218258642   3.76904   1.42573   0.67768  -1.13008
   1   19611.4    509.9   0.272191997   4.56922  -0.79950   1.71028   1.00248
   2   21143.4    473.0   0.002742736   0.04271   0.13288  -0.14634  -0.06028
   3   22888.3    436.9   0.000751083   0.01080   0.04658   0.01688   0.09137
   4   23382.2    427.7   0.003995064   0.05625  -0.19548   0.13318  -0.01732
   5   24581.0    406.8   0.037943357   0.50817  -0.19297   0.67467   0.12554
   6   24774.6    403.6   0.004867751   0.06468  -0.04017   0.25039  -0.01940
   7   26186.3    381.9   0.106962826   1.34473   0.22273  -1.05551  -0.42547
   8   26600.9    375.9   0.035552008   0.43999   0.01913   0.65220   0.11943
   9   26749.8    373.8   0.064846016   0.79807  -0.72101  -0.24423   0.46750
  10   26878.9    372.0   0.140587512   1.72191  -1.02862  -0.36143   0.73022
  11   27001.4    370.4   0.182950969   2.23061   1.16391   0.51494  -0.78152
  12   27265.2    366.8   0.234605195   2.83272   0.95233  -1.07020  -0.88344
  13   27724.6    360.7   0.120635314   1.43247  -0.33231   0.99443   0.57719
  14   28313.6    353.2   0.002764952   0.03215   0.17325   0.01822   0.04245
  15   29264.8    341.7   0.117691023   1.32396   0.88417   0.02289  -0.73599
  16   30135.4    331.8   0.484360192   5.29135   0.61417  -2.07512  -0.77975
  17   30516.0    327.7   0.115731788   1.24854   0.90302   0.11841  -0.64735
  18   30660.8    326.1   0.243690718   2.61657  -0.76307   1.19811   0.77383
  19   31414.3    318.3   0.000425311   0.00446   0.04279  -0.04364  -0.02687
  20   31728.0    315.2   0.000112957   0.00117   0.00236  -0.02594  -0.02222
  21   32311.2    309.5   0.022630639   0.23058  -0.29956  -0.15573   0.34145
  22   32556.0    307.2   0.141616112   1.43205  -0.84532  -0.26099   0.80583
  23   33274.9    300.5   0.060482322   0.59839   0.03139  -0.76297   0.12363
  24   33988.4    294.2   0.315450812   3.05546   1.31350  -0.30610  -1.11197
  25   34056.2    293.6   0.200007722   1.93342   0.78082   0.67215  -0.93378
  26   34841.1    287.0   0.047691087   0.45063   0.47374   0.32922  -0.34324
  27   35260.5    283.6   0.202549470   1.89111  -0.86111  -0.68521   0.82468
  28   35599.9    280.9   0.012549094   0.11605  -0.01112  -0.33888  -0.03293
  29   35786.6    279.4   0.024883208   0.22891   0.01421  -0.34095  -0.33535
  30   36357.9    275.0   0.075704930   0.68549  -0.54848   0.55031   0.28605
  31   36762.4    272.0   0.055765396   0.49939   0.39711   0.31838  -0.49022
  32   36945.3    270.7   0.063085439   0.56214   0.36524   0.65455   0.01733
  33   37207.3    268.8   0.005985413   0.05296  -0.14638  -0.04586   0.17155
  34   37702.6    265.2   0.096747980   0.84479  -0.67663  -0.10597   0.61297
  35   37930.6    263.6   0.024219407   0.21021   0.39340  -0.20556  -0.11484
  36   38473.3    259.9   0.000520702   0.00446  -0.01330  -0.03711   0.05386
  37   38732.1    258.2   0.041985425   0.35686  -0.21188  -0.40077   0.38904
  38   39048.6    256.1   0.022700445   0.19138  -0.37017  -0.23143  -0.02833
  39   39106.4    255.7   0.000045369   0.00038  -0.00838  -0.01618   0.00707
  40   39211.2    255.0   0.021096845   0.17713  -0.09190   0.30740   0.27237
  41   39540.9    252.9   0.038663258   0.32191   0.37983   0.35425  -0.22833

FINAL SINGLE POINT ENERGY     -3168.816475429321

DIPOLE MOMENT
-------------
                                X             Y             Z
Electronic contribution:    -17.26707       9.93742      19.33601
Nuclear contribution   :     17.85658     -10.31035     -19.99015
                        -----------------------------------------
Total Dipole Moment    :      0.58951      -0.37293      -0.65415
                        -----------------------------------------
Magnitude (a.u.)       :      0.95630
Magnitude (Debye)      :      2.43072

Rotational constants in cm-1:     0.001145     0.000712     0.000450
Rotational constants in MHz :    34.330504    21.331024    13.502417

                             ****ORCA TERMINATED NORMALLY****
TOTAL RUN TIME: 0 days 0 hours 8 minutes 51 seconds 990 msec
