                         Program Version 4.2.0 -  RELEASE  -
|  1> # ORCA input file
|  2> # SCF done       -141.555238485873          0.000570031662
|  3> ! CAM-B3LYP def2-SVP def2/J RIJCOSX Grid4 TightSCF
|  4> %maxcore 5000
|  5> %tddft
|  6>     Mode sTDDFT
|  7>     Ethresh 5.0
|  8>     maxcore 5000
|  9> end
| 10>
| 11> %pal
| 12>   nprocs 6
| 13>   end
| 14> * xyz 0 1
| 15>    C        1.60899         1.02119        -1.62069
| 16>    N        0.97137        -0.10564        -1.53039
| 17>    C        1.54657        -0.76679        -0.48346
| 18>    C        2.63148         0.03698         0.10832
| 19>    C        3.24398        -0.68829         1.23543
| 20>    O        4.15693        -0.34568         1.95289
| 21>    C        2.46714        -1.94413         1.27379
| 22>    C        1.44068        -1.94266         0.20179
| 23>    N        0.72364        -3.09730         0.22983
| 24>    C        1.22548        -3.78875         1.21642
| 25>    C        2.32062        -3.12740         1.91380
| 26>    C        2.67590         1.19756        -0.62389
| 27>    C        3.52753         2.34645        -0.50387
| 28>    C        3.41697         3.47842        -1.33227
| 29>    N        4.20283         4.51708        -1.21304
| 30>    C        5.14372         4.48965        -0.26526
| 31>    N        5.33593         3.46709         0.57523
| 32>    C        4.54836         2.42371         0.46228
| 33>    C        5.97347         5.66393        -0.18164
| 34>    N        6.99057         5.86868         0.71203
| 35>    C        7.49837         4.94949         1.70407
| 36>    C        8.41872         3.90435         1.08243
| 37>    C        7.58628         7.12838         0.53463
| 38>    O        8.51238         7.53862         1.20869
| 39>    C        6.84964         7.72744        -0.55532
| 40>    C        5.86405         6.79983        -0.97659
| 41>    C        5.11054         7.40718        -2.06090
| 42>    O        4.18758         7.03826        -2.74310
| 43>    N        5.70603         8.68774        -2.20759
| 44>    C        5.26638         9.59313        -3.24139
| 45>    C        6.20741         9.58235        -4.44368
| 46>    C        6.73517         8.88445        -1.32651
| 47>    C        7.48866        10.08640        -1.25116
| 48>    C        8.52008        10.24477        -0.38574
| 49>    C        9.28944        11.43755        -0.27152
| 50>    S       10.61287        11.50129         0.85104
| 51>    C       10.99158        13.13545         0.42621
| 52>    C       12.11745        13.70200         1.14109
| 53>    O       12.59100        14.80499         1.02764
| 54>    C       10.11083        13.61543        -0.55613
| 55>    C        9.16436        12.63848        -0.93137
| 56>    C       10.04384        14.90621        -1.18636
| 57>    N        9.07593        15.11698        -2.07555
| 58>    C        9.23439        16.38362        -2.49597
| 59>    C       10.39834        17.01798        -1.82306
| 60>    C       10.56096        18.41463        -2.28571
| 61>    O       11.39447        19.22616        -1.96580
| 62>    C        9.44197        18.56379        -3.23896
| 63>    C        8.66794        17.30202        -3.33574
| 64>    N        7.63657        17.44114        -4.20846
| 65>    C        7.71932        18.67325        -4.64034
| 66>    C        8.82143        19.43124        -4.07541
| 67>    C       10.90201        16.07779        -0.99445
| 68>    H        1.33880         1.73143        -2.38220
| 69>    H        0.83090        -4.76096         1.45648
| 70>    H        2.86080        -3.53122         2.74706
| 71>    H        2.67210         3.55034        -2.11309
| 72>    H        4.72962         1.61442         1.15829
| 73>    H        6.65969         4.46094         2.20091
| 74>    H        8.05734         5.55906         2.41945
| 75>    H        7.86296         3.27918         0.38904
| 76>    H        8.83215         3.27365         1.86369
| 77>    H        9.23640         4.38764         0.55285
| 78>    H        5.16866        10.60196        -2.83101
| 79>    H        4.27756         9.24052        -3.54773
| 80>    H        7.21206         9.88714        -4.15868
| 81>    H        5.83818        10.26369        -5.20489
| 82>    H        6.25629         8.58201        -4.86656
| 83>    H        7.21074        10.89353        -1.91244
| 84>    H        8.79427         9.42901         0.27102
| 85>    H       12.54311        12.97508         1.86038
| 86>    H        8.41947        12.85788        -1.67381
| 87>    H        7.00663        19.04706        -5.35553
| 88>    H        9.05454        20.45287        -4.30090
| 89>    H       11.73803        16.12504        -0.32656
| 90> *
| 91>
| 92>                          ****END OF INPUT****

CARTESIAN COORDINATES (ANGSTROEM)
---------------------------------
  C      1.608990    1.021190   -1.620690
  N      0.971370   -0.105640   -1.530390
  C      1.546570   -0.766790   -0.483460
  C      2.631480    0.036980    0.108320
  C      3.243980   -0.688290    1.235430
  O      4.156930   -0.345680    1.952890
  C      2.467140   -1.944130    1.273790
  C      1.440680   -1.942660    0.201790
  N      0.723640   -3.097300    0.229830
  C      1.225480   -3.788750    1.216420
  C      2.320620   -3.127400    1.913800
  C      2.675900    1.197560   -0.623890
  C      3.527530    2.346450   -0.503870
  C      3.416970    3.478420   -1.332270
  N      4.202830    4.517080   -1.213040
  C      5.143720    4.489650   -0.265260
  N      5.335930    3.467090    0.575230
  C      4.548360    2.423710    0.462280
  C      5.973470    5.663930   -0.181640
  N      6.990570    5.868680    0.712030
  C      7.498370    4.949490    1.704070
  C      8.418720    3.904350    1.082430
  C      7.586280    7.128380    0.534630
  O      8.512380    7.538620    1.208690
  C      6.849640    7.727440   -0.555320
  C      5.864050    6.799830   -0.976590
  C      5.110540    7.407180   -2.060900
  O      4.187580    7.038260   -2.743100
  N      5.706030    8.687740   -2.207590
  C      5.266380    9.593130   -3.241390
  C      6.207410    9.582350   -4.443680
  C      6.735170    8.884450   -1.326510
  C      7.488660   10.086400   -1.251160
  C      8.520080   10.244770   -0.385740
  C      9.289440   11.437550   -0.271520
  S     10.612870   11.501290    0.851040
  C     10.991580   13.135450    0.426210
  C     12.117450   13.702000    1.141090
  O     12.591000   14.804990    1.027640
  C     10.110830   13.615430   -0.556130
  C      9.164360   12.638480   -0.931370
  C     10.043840   14.906210   -1.186360
  N      9.075930   15.116980   -2.075550
  C      9.234390   16.383620   -2.495970
  C     10.398340   17.017980   -1.823060
  C     10.560960   18.414630   -2.285710
  O     11.394470   19.226160   -1.965800
  C      9.441970   18.563790   -3.238960
  C      8.667940   17.302020   -3.335740
  N      7.636570   17.441140   -4.208460
  C      7.719320   18.673250   -4.640340
  C      8.821430   19.431240   -4.075410
  C     10.902010   16.077790   -0.994450
  H      1.338800    1.731430   -2.382200
  H      0.830900   -4.760960    1.456480
  H      2.860800   -3.531220    2.747060
  H      2.672100    3.550340   -2.113090
  H      4.729620    1.614420    1.158290
  H      6.659690    4.460940    2.200910
  H      8.057340    5.559060    2.419450
  H      7.862960    3.279180    0.389040
  H      8.832150    3.273650    1.863690
  H      9.236400    4.387640    0.552850
  H      5.168660   10.601960   -2.831010
  H      4.277560    9.240520   -3.547730
  H      7.212060    9.887140   -4.158680
  H      5.838180   10.263690   -5.204890
  H      6.256290    8.582010   -4.866560
  H      7.210740   10.893530   -1.912440
  H      8.794270    9.429010    0.271020
  H     12.543110   12.975080    1.860380
  H      8.419470   12.857880   -1.673810
  H      7.006630   19.047060   -5.355530
  H      9.054540   20.452870   -4.300900
  H     11.738030   16.125040   -0.326560

 Total Charge           Charge          ....    0
 Multiplicity           Mult            ....    1
 Number of Electrons    NEL             ....  368
 Basis Dimension        Dim             ....  856

ORBITAL ENERGIES
----------------

  NO   OCC          E(Eh)            E(eV)
   0   2.0000     -88.987338     -2421.4686
   1   2.0000     -19.229294      -523.2557
   2   2.0000     -19.227754      -523.2138
   3   2.0000     -19.206554      -522.6369
   4   2.0000     -19.190935      -522.2119
   5   2.0000     -19.188419      -522.1434
   6   2.0000     -14.454416      -393.3247
   7   2.0000     -14.450966      -393.2308
   8   2.0000     -14.427361      -392.5885
   9   2.0000     -14.424448      -392.5092
  10   2.0000     -14.421241      -392.4219
  11   2.0000     -14.419850      -392.3841
  12   2.0000     -14.411917      -392.1682
  13   2.0000     -14.407678      -392.0529
  14   2.0000     -10.387720      -282.6642
  15   2.0000     -10.379103      -282.4298
  16   2.0000     -10.375512      -282.3320
  17   2.0000     -10.371079      -282.2114
  18   2.0000     -10.368413      -282.1389
  19   2.0000     -10.360433      -281.9217
  20   2.0000     -10.347894      -281.5805
  21   2.0000     -10.347802      -281.5780
  22   2.0000     -10.347699      -281.5752
  23   2.0000     -10.345707      -281.5210
  24   2.0000     -10.342017      -281.4206
  25   2.0000     -10.341664      -281.4110
  26   2.0000     -10.335991      -281.2566
  27   2.0000     -10.332466      -281.1607
  28   2.0000     -10.331268      -281.1281
  29   2.0000     -10.330541      -281.1083
  30   2.0000     -10.329700      -281.0854
  31   2.0000     -10.329062      -281.0681
  32   2.0000     -10.328574      -281.0548
  33   2.0000     -10.327646      -281.0295
  34   2.0000     -10.321754      -280.8692
  35   2.0000     -10.316428      -280.7243
  36   2.0000     -10.310674      -280.5677
  37   2.0000     -10.309640      -280.5396
  38   2.0000     -10.306896      -280.4649
  39   2.0000     -10.306861      -280.4639
  40   2.0000     -10.304566      -280.4015
  41   2.0000     -10.304545      -280.4009
  42   2.0000     -10.301937      -280.3299
  43   2.0000     -10.297425      -280.2072
  44   2.0000     -10.290647      -280.0227
  45   2.0000     -10.290309      -280.0135
  46   2.0000     -10.289864      -280.0014
  47   2.0000     -10.289751      -279.9984
  48   2.0000     -10.287002      -279.9236
  49   2.0000     -10.268222      -279.4125
  50   2.0000     -10.265218      -279.3308
  51   2.0000     -10.262099      -279.2459
  52   2.0000     -10.247958      -278.8611
  53   2.0000      -8.082891      -219.9466
  54   2.0000      -6.051742      -164.6763
  55   2.0000      -6.047651      -164.5650
  56   2.0000      -6.045782      -164.5141
  57   2.0000      -1.143368       -31.1126
  58   2.0000      -1.142699       -31.0944
  59   2.0000      -1.134082       -30.8599
  60   2.0000      -1.126193       -30.6453
  61   2.0000      -1.122814       -30.5533
  62   2.0000      -1.098773       -29.8991
  63   2.0000      -1.092245       -29.7215
  64   2.0000      -1.079464       -29.3737
  65   2.0000      -1.074507       -29.2388
  66   2.0000      -1.064266       -28.9601
  67   2.0000      -1.061475       -28.8842
  68   2.0000      -1.052250       -28.6332
  69   2.0000      -1.011808       -27.5327
  70   2.0000      -0.991723       -26.9862
  71   2.0000      -0.949664       -25.8417
  72   2.0000      -0.936276       -25.4774
  73   2.0000      -0.934157       -25.4197
  74   2.0000      -0.928540       -25.2669
  75   2.0000      -0.919175       -25.0120
  76   2.0000      -0.882579       -24.0162
  77   2.0000      -0.877568       -23.8798
  78   2.0000      -0.875479       -23.8230
  79   2.0000      -0.866972       -23.5915
  80   2.0000      -0.863756       -23.5040
  81   2.0000      -0.859108       -23.3775
  82   2.0000      -0.853336       -23.2205
  83   2.0000      -0.818309       -22.2673
  84   2.0000      -0.815914       -22.2021
  85   2.0000      -0.796596       -21.6765
  86   2.0000      -0.786069       -21.3900
  87   2.0000      -0.775405       -21.0998
  88   2.0000      -0.769395       -20.9363
  89   2.0000      -0.760079       -20.6828
  90   2.0000      -0.756264       -20.5790
  91   2.0000      -0.755132       -20.5482
  92   2.0000      -0.740638       -20.1538
  93   2.0000      -0.734336       -19.9823
  94   2.0000      -0.716515       -19.4974
  95   2.0000      -0.712487       -19.3878
  96   2.0000      -0.703765       -19.1504
  97   2.0000      -0.697262       -18.9735
  98   2.0000      -0.683145       -18.5893
  99   2.0000      -0.664371       -18.0785
 100   2.0000      -0.659054       -17.9338
 101   2.0000      -0.652753       -17.7623
 102   2.0000      -0.648146       -17.6370
 103   2.0000      -0.638392       -17.3715
 104   2.0000      -0.637198       -17.3390
 105   2.0000      -0.635626       -17.2963
 106   2.0000      -0.625553       -17.0222
 107   2.0000      -0.620263       -16.8782
 108   2.0000      -0.612564       -16.6687
 109   2.0000      -0.608365       -16.5545
 110   2.0000      -0.598099       -16.2751
 111   2.0000      -0.593796       -16.1580
 112   2.0000      -0.585279       -15.9262
 113   2.0000      -0.582057       -15.8386
 114   2.0000      -0.577443       -15.7130
 115   2.0000      -0.569392       -15.4939
 116   2.0000      -0.564392       -15.3579
 117   2.0000      -0.559526       -15.2255
 118   2.0000      -0.555060       -15.1039
 119   2.0000      -0.553873       -15.0716
 120   2.0000      -0.550192       -14.9715
 121   2.0000      -0.546115       -14.8605
 122   2.0000      -0.545573       -14.8458
 123   2.0000      -0.543994       -14.8028
 124   2.0000      -0.538025       -14.6404
 125   2.0000      -0.532173       -14.4812
 126   2.0000      -0.531232       -14.4556
 127   2.0000      -0.528754       -14.3881
 128   2.0000      -0.526930       -14.3385
 129   2.0000      -0.524046       -14.2600
 130   2.0000      -0.523378       -14.2419
 131   2.0000      -0.523177       -14.2364
 132   2.0000      -0.517707       -14.0875
 133   2.0000      -0.510346       -13.8872
 134   2.0000      -0.508940       -13.8490
 135   2.0000      -0.504673       -13.7328
 136   2.0000      -0.500945       -13.6314
 137   2.0000      -0.495852       -13.4928
 138   2.0000      -0.494550       -13.4574
 139   2.0000      -0.493370       -13.4253
 140   2.0000      -0.491377       -13.3710
 141   2.0000      -0.488530       -13.2936
 142   2.0000      -0.486619       -13.2416
 143   2.0000      -0.480935       -13.0869
 144   2.0000      -0.476747       -12.9729
 145   2.0000      -0.475397       -12.9362
 146   2.0000      -0.473542       -12.8857
 147   2.0000      -0.471222       -12.8226
 148   2.0000      -0.470808       -12.8113
 149   2.0000      -0.465272       -12.6607
 150   2.0000      -0.459308       -12.4984
 151   2.0000      -0.457933       -12.4610
 152   2.0000      -0.456789       -12.4299
 153   2.0000      -0.450884       -12.2692
 154   2.0000      -0.444190       -12.0870
 155   2.0000      -0.441606       -12.0167
 156   2.0000      -0.436854       -11.8874
 157   2.0000      -0.427746       -11.6396
 158   2.0000      -0.426547       -11.6069
 159   2.0000      -0.417053       -11.3486
 160   2.0000      -0.402073       -10.9410
 161   2.0000      -0.393127       -10.6975
 162   2.0000      -0.390067       -10.6143
 163   2.0000      -0.384098       -10.4518
 164   2.0000      -0.372220       -10.1286
 165   2.0000      -0.368843       -10.0367
 166   2.0000      -0.367515       -10.0006
 167   2.0000      -0.363982        -9.9045
 168   2.0000      -0.355533        -9.6745
 169   2.0000      -0.354517        -9.6469
 170   2.0000      -0.349572        -9.5123
 171   2.0000      -0.349281        -9.5044
 172   2.0000      -0.348049        -9.4709
 173   2.0000      -0.344931        -9.3861
 174   2.0000      -0.340266        -9.2591
 175   2.0000      -0.333336        -9.0705
 176   2.0000      -0.331957        -9.0330
 177   2.0000      -0.326056        -8.8724
 178   2.0000      -0.320154        -8.7118
 179   2.0000      -0.318688        -8.6719
 180   2.0000      -0.315928        -8.5968
 181   2.0000      -0.314094        -8.5469
 182   2.0000      -0.303785        -8.2664
 183   2.0000      -0.243580        -6.6282
 184   0.0000      -0.121715        -3.3120
 185   0.0000      -0.115715        -3.1488
 186   0.0000      -0.092564        -2.5188
 187   0.0000      -0.062734        -1.7071
 188   0.0000      -0.038795        -1.0557

MULLIKEN ATOMIC CHARGES
-----------------------
   0 C :    0.059505
   1 N :   -0.021672
   2 C :    0.044252
   3 C :   -0.142280
   4 C :    0.222140
   5 O :   -0.132949
   6 C :   -0.013186
   7 C :   -0.001701
   8 N :   -0.047739
   9 C :    0.095378
  10 C :   -0.092263
  11 C :    0.021247
  12 C :   -0.007935
  13 C :    0.017996
  14 N :    0.009080
  15 C :   -0.189502
  16 N :   -0.054788
  17 C :    0.042045
  18 C :    0.189469
  19 N :   -0.253339
  20 C :    0.138890
  21 C :    0.004818
  22 C :    0.165821
  23 O :   -0.219603
  24 C :   -0.074117
  25 C :   -0.052561
  26 C :    0.150901
  27 O :   -0.150340
  28 N :   -0.267595
  29 C :    0.098296
  30 C :    0.003429
  31 C :    0.139145
  32 C :   -0.019535
  33 C :    0.086485
  34 C :   -0.057291
  35 S :    0.194673
  36 C :   -0.210729
  37 C :    0.201707
  38 O :   -0.168378
  39 C :    0.124035
  40 C :   -0.025899
  41 C :    0.003739
  42 N :   -0.065265
  43 C :    0.049732
  44 C :   -0.038178
  45 C :    0.214674
  46 O :   -0.113277
  47 C :   -0.039721
  48 C :   -0.007094
  49 N :   -0.057898
  50 C :    0.091561
  51 C :   -0.091385
  52 C :   -0.089357
  53 H :    0.016974
  54 H :    0.017941
  55 H :    0.003348
  56 H :    0.011054
  57 H :    0.018680
  58 H :    0.029735
  59 H :    0.030082
  60 H :    0.014634
  61 H :    0.016514
  62 H :    0.015704
  63 H :    0.025603
  64 H :    0.043581
  65 H :    0.014520
  66 H :    0.027046
  67 H :    0.029636
  68 H :   -0.018004
  69 H :    0.011346
  70 H :   -0.003845
  71 H :    0.013741
  72 H :    0.011097
  73 H :   -0.002478
  74 H :    0.009651
Sum of atomic charges:   -0.0000000

LOEWDIN ATOMIC CHARGES
----------------------
   0 C :    0.090672
   1 N :   -0.074580
   2 C :    0.046894
   3 C :   -0.052943
   4 C :    0.071753
   5 O :   -0.130553
   6 C :   -0.035307
   7 C :    0.038096
   8 N :   -0.088520
   9 C :    0.085867
  10 C :   -0.024158
  11 C :   -0.032556
  12 C :   -0.076467
  13 C :    0.057557
  14 N :   -0.043716
  15 C :    0.021668
  16 N :   -0.067062
  17 C :    0.070495
  18 C :    0.046676
  19 N :    0.013835
  20 C :    0.036072
  21 C :   -0.060584
  22 C :    0.076692
  23 O :   -0.208422
  24 C :   -0.127512
  25 C :   -0.092199
  26 C :    0.085732
  27 O :   -0.159672
  28 N :   -0.005923
  29 C :    0.035433
  30 C :   -0.060720
  31 C :    0.087932
  32 C :   -0.034489
  33 C :    0.014675
  34 C :   -0.160230
  35 S :    0.507144
  36 C :   -0.215345
  37 C :    0.084954
  38 O :   -0.123178
  39 C :   -0.044209
  40 C :   -0.007965
  41 C :    0.074113
  42 N :   -0.108691
  43 C :    0.037921
  44 C :   -0.033429
  45 C :    0.064098
  46 O :   -0.126223
  47 C :   -0.037455
  48 C :    0.030665
  49 N :   -0.099965
  50 C :    0.079880
  51 C :   -0.037275
  52 C :   -0.013380
  53 H :    0.027516
  54 H :    0.027225
  55 H :    0.037754
  56 H :    0.027741
  57 H :    0.027755
  58 H :    0.024544
  59 H :    0.029491
  60 H :    0.019186
  61 H :    0.029152
  62 H :    0.024724
  63 H :    0.023368
  64 H :    0.037888
  65 H :    0.021471
  66 H :    0.032251
  67 H :    0.032314
  68 H :    0.032232
  69 H :    0.037954
  70 H :   -0.000605
  71 H :    0.038640
  72 H :    0.024291
  73 H :    0.035135
  74 H :    0.033878

  Mayer bond orders larger than 0.100000
B(  0-C ,  1-N ) :   1.7313 B(  0-C , 11-C ) :   1.0386 B(  0-C , 53-H ) :   0.9874
B(  1-N ,  2-C ) :   1.2736 B(  2-C ,  3-C ) :   1.0523 B(  2-C ,  7-C ) :   1.5009
B(  3-C ,  4-C ) :   0.8943 B(  3-C , 11-C ) :   1.6020 B(  4-C ,  5-O ) :   2.1986
B(  4-C ,  6-C ) :   0.9235 B(  6-C ,  7-C ) :   1.0500 B(  6-C , 10-C ) :   1.6352
B(  7-C ,  8-N ) :   1.2832 B(  8-N ,  9-C ) :   1.6886 B(  9-C , 10-C ) :   1.0436
B(  9-C , 54-H ) :   0.9881 B( 10-C , 55-H ) :   1.0118 B( 11-C , 12-C ) :   1.0351
B( 12-C , 13-C ) :   1.2816 B( 12-C , 17-C ) :   1.3110 B( 13-C , 14-N ) :   1.5955
B( 13-C , 56-H ) :   0.9895 B( 14-N , 15-C ) :   1.6488 B( 14-N , 18-C ) :  -0.1331
B( 15-C , 16-N ) :   1.4905 B( 15-C , 18-C ) :   0.9911 B( 16-N , 17-C ) :   1.5496
B( 17-C , 57-H ) :   0.9629 B( 18-C , 19-N ) :   1.2031 B( 18-C , 25-C ) :   1.3860
B( 19-N , 20-C ) :   0.9338 B( 19-N , 22-C ) :   1.0718 B( 20-C , 21-C ) :   1.1253
B( 20-C , 58-H ) :   0.9349 B( 20-C , 59-H ) :   0.9276 B( 21-C , 60-H ) :   0.9655
B( 21-C , 61-H ) :   0.9682 B( 21-C , 62-H ) :   0.9656 B( 22-C , 23-O ) :   2.0042
B( 22-C , 24-C ) :   0.9914 B( 23-O , 69-H ) :   0.1235 B( 24-C , 25-C ) :   1.2525
B( 24-C , 31-C ) :   1.3160 B( 25-C , 26-C ) :   0.9419 B( 26-C , 27-O ) :   2.1885
B( 26-C , 28-N ) :   1.0051 B( 28-N , 29-C ) :   0.9451 B( 28-N , 31-C ) :   1.1877
B( 29-C , 30-C ) :   1.1210 B( 29-C , 63-H ) :   0.9502 B( 29-C , 64-H ) :   0.9259
B( 30-C , 65-H ) :   0.9684 B( 30-C , 66-H ) :   0.9678 B( 30-C , 67-H ) :   0.9635
B( 31-C , 32-C ) :   1.1525 B( 32-C , 33-C ) :   1.6393 B( 32-C , 68-H ) :   0.9637
B( 33-C , 34-C ) :   1.1016 B( 33-C , 69-H ) :   0.9359 B( 34-C , 35-S ) :   1.1527
B( 34-C , 40-C ) :   1.4203 B( 35-S , 36-C ) :   1.1517 B( 36-C , 37-C ) :   0.9989
B( 36-C , 39-C ) :   1.4026 B( 37-C , 38-O ) :   2.1228 B( 37-C , 70-H ) :   0.9533
B( 39-C , 40-C ) :   1.3116 B( 39-C , 41-C ) :   1.0182 B( 40-C , 71-H ) :   0.9976
B( 41-C , 42-N ) :   1.6158 B( 41-C , 43-C ) :   0.1156 B( 41-C , 52-C ) :   1.0833
B( 42-N , 43-C ) :   1.3512 B( 43-C , 44-C ) :   1.0245 B( 43-C , 48-C ) :   1.4313
B( 44-C , 45-C ) :   0.8651 B( 44-C , 52-C ) :   1.5912 B( 45-C , 46-O ) :   2.3291
B( 45-C , 47-C ) :   0.8811 B( 47-C , 48-C ) :   1.0373 B( 47-C , 51-C ) :   1.6288
B( 48-C , 49-N ) :   1.3031 B( 49-N , 50-C ) :   1.6639 B( 50-C , 51-C ) :   1.0682
B( 50-C , 72-H ) :   0.9887 B( 51-C , 73-H ) :   1.0089 B( 52-C , 74-H ) :   0.9968

-----------------------------------------------------------------------------
         ABSORPTION SPECTRUM VIA TRANSITION ELECTRIC DIPOLE MOMENTS
-----------------------------------------------------------------------------
State   Energy  Wavelength   fosc         T2         TX        TY        TZ
        (cm-1)    (nm)                  (au**2)     (au)      (au)      (au)
-----------------------------------------------------------------------------
   0   13654.8    732.3   0.666369032  16.06592  -1.50270  -3.64647   0.71489
   1   15966.2    626.3   0.012565477   0.25909   0.38280   0.25665   0.21606
   2   17742.6    563.6   0.277553285   5.14997  -0.42048  -2.10818   0.72715
   3   21273.9    470.1   0.000332581   0.00515  -0.04784   0.04141   0.03381
   4   22301.8    448.4   0.001510141   0.02229  -0.00244  -0.14915  -0.00648
   5   23331.8    428.6   0.052695374   0.74353  -0.01317   0.75235  -0.42111
   6   23855.0    419.2   0.109374680   1.50943  -0.47054   0.87518  -0.72256
   7   24530.5    407.7   0.012146124   0.16301  -0.25198  -0.29712   0.10597
   8   24922.9    401.2   0.066199941   0.87445   0.38697   0.83746  -0.15284
   9   25863.0    386.7   0.066365192   0.84477   0.33797  -0.70001   0.49044
  10   26019.9    384.3   0.092722289   1.17315  -0.03023   0.94982  -0.51969
  11   26201.9    381.7   0.006355045   0.07985  -0.08030   0.24001  -0.12567
  12   26574.3    376.3   0.003741475   0.04635   0.00471  -0.18307   0.11320
  13   26646.1    375.3   0.200345823   2.47527  -0.56443   1.12017  -0.94968
  14   26912.5    371.6   0.087229982   1.06705  -0.08707  -0.93650   0.42713
  15   27508.1    363.5   0.002630245   0.03148  -0.07532   0.14979   0.05805
  16   27708.1    360.9   0.002105408   0.02502   0.03816   0.15060   0.02965
  17   28129.4    355.5   0.000896017   0.01049  -0.06727   0.01000   0.07656
  18   28425.1    351.8   0.280098546   3.24402   0.31641   1.66519  -0.60914
  19   28440.8    351.6   0.443118208   5.12924   0.19706   2.16819  -0.62399
  20   29206.7    342.4   0.122410055   1.37978  -0.93525  -0.21684  -0.67681
  21   29889.0    334.6   0.033059391   0.36413   0.44309   0.23666   0.33436
  22   30367.6    329.3   0.456616306   4.95013  -1.72142  -0.95849  -1.03350
  23   30769.4    325.0   0.003297104   0.03528   0.11615   0.12206   0.08298
  24   31239.3    320.1   0.007739683   0.08156   0.20426   0.16192   0.11672
  25   31381.9    318.7   0.000028899   0.00030  -0.00161   0.01733  -0.00035
  26   31569.2    316.8   0.000959737   0.01001   0.00487   0.07945  -0.06060
  27   31695.5    315.5   0.000671206   0.00697   0.01646  -0.08067   0.01390
  28   32357.6    309.0   0.451228756   4.59088  -0.96979  -1.88834   0.29079
  29   32420.4    308.4   0.246163491   2.49966  -0.79624  -1.36088   0.11689
  30   32874.6    304.2   0.127422817   1.27603  -0.00705  -0.93510   0.63370
  31   33283.1    300.5   0.045002580   0.44513   0.00614  -0.54433   0.38575
  32   33482.3    298.7   0.095855401   0.94249  -0.73143  -0.42584  -0.47557
  33   34679.0    288.4   0.000278088   0.00264   0.03383  -0.03830  -0.00538
  34   34683.3    288.3   0.004661091   0.04424  -0.14646  -0.12625  -0.08278
  35   35174.6    284.3   0.000332738   0.00311   0.03792  -0.01824  -0.03666
  36   35607.9    280.8   0.055712519   0.51509  -0.54313  -0.34102  -0.32218
  37   36297.5    275.5   0.021301449   0.19320   0.17680   0.39166  -0.09245
  38   36468.0    274.2   0.021658228   0.19552  -0.02549   0.39238  -0.20226
  39   36994.3    270.3   0.000013782   0.00012   0.00976  -0.00320  -0.00414
  40   37115.1    269.4   0.002102553   0.01865  -0.04084  -0.07555   0.10618
  41   37465.5    266.9   0.014750850   0.12962   0.13245  -0.25770   0.21369
  42   37607.7    265.9   0.009479248   0.08298  -0.16493   0.17821   0.15499
  43   37790.0    264.6   0.000107792   0.00094   0.00709  -0.02871   0.00802
  44   38157.9    262.1   0.013499169   0.11647  -0.06576  -0.24801   0.22502
  45   38229.4    261.6   0.014363304   0.12369  -0.03633   0.30522  -0.17092
  46   38717.0    258.3   0.007974066   0.06780   0.01939   0.24301  -0.09150
  47   38989.4    256.5   0.078487840   0.66272  -0.45933  -0.66867  -0.06800
  48   39937.1    250.4   0.004688897   0.03865   0.12403   0.15087  -0.02251
  49   40042.3    249.7   0.154705202   1.27193   0.30984   1.05245  -0.26128
  50   40137.0    249.1   0.006374475   0.05228  -0.10482  -0.20190   0.02307
  51   40149.9    249.1   0.003160766   0.02592  -0.05884  -0.14615   0.03311
  52   40173.4    248.9   0.024498275   0.20076  -0.02495   0.36218  -0.26261
  53   40246.6    248.5   0.009792286   0.08010   0.13019   0.23252   0.09532

FINAL SINGLE POINT ENERGY     -2708.592017090180

DIPOLE MOMENT
-------------
                                X             Y             Z
Electronic contribution:     -0.58301       7.40311       6.50081
Nuclear contribution   :     -0.31321      -9.14006      -6.50943
                        -----------------------------------------
Total Dipole Moment    :     -0.89622      -1.73695      -0.00862
                        -----------------------------------------
Magnitude (a.u.)       :      1.95455
Magnitude (Debye)      :      4.96808

Rotational constants in cm-1:     0.005217     0.000429     0.000398
Rotational constants in MHz :   156.413662    12.856421    11.943392

                             ****ORCA TERMINATED NORMALLY****
TOTAL RUN TIME: 0 days 0 hours 7 minutes 14 seconds 999 msec
