                         Program Version 4.2.0 -  RELEASE  -
|  1> # ORCA input file
|  2> # SCF done       -156.389602658605          0.000579000564
|  3> ! CAM-B3LYP def2-SVP def2/J RIJCOSX Grid4 TightSCF
|  4> %maxcore 5000
|  5> %tddft
|  6>     Mode sTDDFT
|  7>     Ethresh 5.0
|  8>     maxcore 5000
|  9> end
| 10>
| 11> %pal
| 12>   nprocs 6
| 13>   end
| 14> * xyz 0 1
| 15>    C        5.95931        -0.12230        -2.12638
| 16>    N        5.89715        -1.07932        -2.99917
| 17>    C        6.07704        -0.48283        -4.21784
| 18>    C        6.25699         0.96880        -4.05970
| 19>    C        6.46221         1.62140        -5.36178
| 20>    O        6.63812         2.79454        -5.59489
| 21>    C        6.40196         0.47657        -6.29746
| 22>    C        6.16257        -0.78552        -5.54643
| 23>    N        6.11530        -1.84220        -6.40099
| 24>    C        6.30607        -1.33414        -7.58738
| 25>    C        6.49494         0.11155        -7.59651
| 26>    C        6.18799         1.20719        -2.71433
| 27>    C        6.31589         2.42307        -1.99531
| 28>    S        6.57859         3.97087        -2.78019
| 29>    C        6.60789         4.62844        -1.15407
| 30>    N        6.42822         3.71286        -0.23133
| 31>    N        6.26793         2.51202        -0.69166
| 32>    C        6.82474         6.00673        -0.89052
| 33>    C        6.91667         6.48175         0.37738
| 34>    C        7.16820         7.84426         0.67292
| 35>    N        7.29082         8.33761         1.95135
| 36>    C        7.10511         7.60122         3.17891
| 37>    C        5.62719         7.37307         3.48522
| 38>    C        7.57659         9.71131         1.96106
| 39>    O        7.73349        10.35924         2.97840
| 40>    C        7.63261        10.07694         0.56217
| 41>    C        7.37338         8.91109        -0.20073
| 42>    C        7.43798         9.27128        -1.59995
| 43>    O        7.29028         8.62470        -2.61663
| 44>    N        7.74301        10.64501        -1.59064
| 45>    C        7.84281        11.39347        -2.82079
| 46>    C        6.58278        12.21134        -3.09312
| 47>    C        7.86260        11.13737        -0.31360
| 48>    C        8.19935        12.48614        -0.01882
| 49>    C        8.32595        12.93532         1.25159
| 50>    C        8.69690        14.26816         1.64536
| 51>    C        8.88495        15.31811         0.74448
| 52>    C        9.26826        16.57454         1.17855
| 53>    N        9.48546        17.56666         0.15381
| 54>    O        8.94457        17.38248        -0.91623
| 55>    O       10.19691        18.51520         0.40861
| 56>    C        9.48366        16.85528         2.54337
| 57>    C        9.27754        15.79321         3.43830
| 58>    C        8.89780        14.54491         3.00890
| 59>    C        9.84497        18.16412         3.03185
| 60>    C       10.58647        18.36640         4.14306
| 61>    C       10.96221        19.64655         4.63774
| 62>    N       11.71633        19.73981         5.72881
| 63>    C       11.90686        21.05314         5.93157
| 64>    C       11.21049        21.85492         4.88968
| 65>    C       11.43009        23.30111         5.11933
| 66>    O       11.00307        24.23735         4.48743
| 67>    C       12.29505        23.30312         6.31367
| 68>    C       12.55243        21.91768         6.77522
| 69>    N       13.35229        21.92189         7.87076
| 70>    C       13.60282        23.18499         8.10706
| 71>    C       12.97719        24.10126         7.17281
| 72>    C       10.62044        20.95871         4.07188
| 73>    H        5.85041        -0.30795        -1.07288
| 74>    H        6.31423        -1.96842        -8.45709
| 75>    H        6.66676         0.71011        -8.46913
| 76>    H        6.92827         6.66487        -1.74190
| 77>    H        6.80964         5.78310         1.19417
| 78>    H        7.55464         8.21146         3.96727
| 79>    H        7.64073         6.65015         3.11925
| 80>    H        5.11371         8.32752         3.57395
| 81>    H        5.52639         6.83601         4.42407
| 82>    H        5.15041         6.79357         2.69803
| 83>    H        7.97643        10.65211        -3.61353
| 84>    H        8.72721        12.03602        -2.78959
| 85>    H        5.72219        11.55174        -3.17257
| 86>    H        6.69226        12.75285        -4.02844
| 87>    H        6.39739        12.92636        -2.29448
| 88>    H        8.37127        13.14282        -0.85859
| 89>    H        8.15439        12.24173         2.06428
| 90>    H        8.74533        15.17737        -0.31636
| 91>    H        9.39508        15.98004         4.49406
| 92>    H        8.74878        13.75143         3.72586
| 93>    H        9.52493        19.01709         2.45114
| 94>    H       10.98411        17.53532         4.70924
| 95>    H       14.22717        23.46811         8.93704
| 96>    H       13.06273        25.16954         7.19542
| 97>    H       10.03452        21.12826         3.19101
| 98> *
| 99>
|100>                          ****END OF INPUT****

CARTESIAN COORDINATES (ANGSTROEM)
---------------------------------
  C      5.959310   -0.122300   -2.126380
  N      5.897150   -1.079320   -2.999170
  C      6.077040   -0.482830   -4.217840
  C      6.256990    0.968800   -4.059700
  C      6.462210    1.621400   -5.361780
  O      6.638120    2.794540   -5.594890
  C      6.401960    0.476570   -6.297460
  C      6.162570   -0.785520   -5.546430
  N      6.115300   -1.842200   -6.400990
  C      6.306070   -1.334140   -7.587380
  C      6.494940    0.111550   -7.596510
  C      6.187990    1.207190   -2.714330
  C      6.315890    2.423070   -1.995310
  S      6.578590    3.970870   -2.780190
  C      6.607890    4.628440   -1.154070
  N      6.428220    3.712860   -0.231330
  N      6.267930    2.512020   -0.691660
  C      6.824740    6.006730   -0.890520
  C      6.916670    6.481750    0.377380
  C      7.168200    7.844260    0.672920
  N      7.290820    8.337610    1.951350
  C      7.105110    7.601220    3.178910
  C      5.627190    7.373070    3.485220
  C      7.576590    9.711310    1.961060
  O      7.733490   10.359240    2.978400
  C      7.632610   10.076940    0.562170
  C      7.373380    8.911090   -0.200730
  C      7.437980    9.271280   -1.599950
  O      7.290280    8.624700   -2.616630
  N      7.743010   10.645010   -1.590640
  C      7.842810   11.393470   -2.820790
  C      6.582780   12.211340   -3.093120
  C      7.862600   11.137370   -0.313600
  C      8.199350   12.486140   -0.018820
  C      8.325950   12.935320    1.251590
  C      8.696900   14.268160    1.645360
  C      8.884950   15.318110    0.744480
  C      9.268260   16.574540    1.178550
  N      9.485460   17.566660    0.153810
  O      8.944570   17.382480   -0.916230
  O     10.196910   18.515200    0.408610
  C      9.483660   16.855280    2.543370
  C      9.277540   15.793210    3.438300
  C      8.897800   14.544910    3.008900
  C      9.844970   18.164120    3.031850
  C     10.586470   18.366400    4.143060
  C     10.962210   19.646550    4.637740
  N     11.716330   19.739810    5.728810
  C     11.906860   21.053140    5.931570
  C     11.210490   21.854920    4.889680
  C     11.430090   23.301110    5.119330
  O     11.003070   24.237350    4.487430
  C     12.295050   23.303120    6.313670
  C     12.552430   21.917680    6.775220
  N     13.352290   21.921890    7.870760
  C     13.602820   23.184990    8.107060
  C     12.977190   24.101260    7.172810
  C     10.620440   20.958710    4.071880
  H      5.850410   -0.307950   -1.072880
  H      6.314230   -1.968420   -8.457090
  H      6.666760    0.710110   -8.469130
  H      6.928270    6.664870   -1.741900
  H      6.809640    5.783100    1.194170
  H      7.554640    8.211460    3.967270
  H      7.640730    6.650150    3.119250
  H      5.113710    8.327520    3.573950
  H      5.526390    6.836010    4.424070
  H      5.150410    6.793570    2.698030
  H      7.976430   10.652110   -3.613530
  H      8.727210   12.036020   -2.789590
  H      5.722190   11.551740   -3.172570
  H      6.692260   12.752850   -4.028440
  H      6.397390   12.926360   -2.294480
  H      8.371270   13.142820   -0.858590
  H      8.154390   12.241730    2.064280
  H      8.745330   15.177370   -0.316360
  H      9.395080   15.980040    4.494060
  H      8.748780   13.751430    3.725860
  H      9.524930   19.017090    2.451140
  H     10.984110   17.535320    4.709240
  H     14.227170   23.468110    8.937040
  H     13.062730   25.169540    7.195420
  H     10.034520   21.128260    3.191010

 Total Charge           Charge          ....    0
 Multiplicity           Mult            ....    1
 Number of Electrons    NEL             ....  404
 Basis Dimension        Dim             ....  941

ORBITAL ENERGIES
----------------

  NO   OCC          E(Eh)            E(eV)
   0   2.0000     -88.978838     -2421.2373
   1   2.0000     -19.258761      -524.0575
   2   2.0000     -19.256411      -523.9936
   3   2.0000     -19.225817      -523.1611
   4   2.0000     -19.206278      -522.6294
   5   2.0000     -19.200451      -522.4708
   6   2.0000     -19.198211      -522.4099
   7   2.0000     -14.663312      -399.0090
   8   2.0000     -14.461710      -393.5231
   9   2.0000     -14.459872      -393.4731
  10   2.0000     -14.449173      -393.1820
  11   2.0000     -14.443113      -393.0171
  12   2.0000     -14.424475      -392.5099
  13   2.0000     -14.419976      -392.3875
  14   2.0000     -14.406203      -392.0127
  15   2.0000     -14.403240      -391.9321
  16   2.0000     -10.385439      -282.6022
  17   2.0000     -10.382214      -282.5144
  18   2.0000     -10.380988      -282.4810
  19   2.0000     -10.367924      -282.1256
  20   2.0000     -10.351356      -281.6747
  21   2.0000     -10.348224      -281.5895
  22   2.0000     -10.348168      -281.5880
  23   2.0000     -10.345478      -281.5148
  24   2.0000     -10.344873      -281.4983
  25   2.0000     -10.344519      -281.4887
  26   2.0000     -10.344415      -281.4859
  27   2.0000     -10.340901      -281.3902
  28   2.0000     -10.340679      -281.3842
  29   2.0000     -10.340437      -281.3776
  30   2.0000     -10.328671      -281.0574
  31   2.0000     -10.327066      -281.0137
  32   2.0000     -10.323232      -280.9094
  33   2.0000     -10.322485      -280.8891
  34   2.0000     -10.320617      -280.8383
  35   2.0000     -10.315655      -280.7032
  36   2.0000     -10.313485      -280.6442
  37   2.0000     -10.313412      -280.6422
  38   2.0000     -10.312640      -280.6212
  39   2.0000     -10.312142      -280.6076
  40   2.0000     -10.306663      -280.4586
  41   2.0000     -10.306166      -280.4450
  42   2.0000     -10.305208      -280.4190
  43   2.0000     -10.305019      -280.4138
  44   2.0000     -10.303422      -280.3704
  45   2.0000     -10.302899      -280.3561
  46   2.0000     -10.301256      -280.3114
  47   2.0000     -10.300660      -280.2952
  48   2.0000     -10.300026      -280.2779
  49   2.0000     -10.297358      -280.2054
  50   2.0000     -10.295231      -280.1475
  51   2.0000     -10.292021      -280.0601
  52   2.0000     -10.287114      -279.9266
  53   2.0000     -10.286235      -279.9027
  54   2.0000     -10.270339      -279.4701
  55   2.0000     -10.269498      -279.4472
  56   2.0000     -10.268654      -279.4243
  57   2.0000     -10.266521      -279.3662
  58   2.0000      -8.074513      -219.7187
  59   2.0000      -6.043198      -164.4438
  60   2.0000      -6.039598      -164.3458
  61   2.0000      -6.036984      -164.2747
  62   2.0000      -1.338987       -36.4357
  63   2.0000      -1.157529       -31.4980
  64   2.0000      -1.150414       -31.3043
  65   2.0000      -1.141891       -31.0724
  66   2.0000      -1.140783       -31.0423
  67   2.0000      -1.134982       -30.8844
  68   2.0000      -1.122116       -30.5343
  69   2.0000      -1.090328       -29.6693
  70   2.0000      -1.075171       -29.2569
  71   2.0000      -1.072538       -29.1852
  72   2.0000      -1.071921       -29.1685
  73   2.0000      -1.063260       -28.9328
  74   2.0000      -1.056697       -28.7542
  75   2.0000      -1.005343       -27.3568
  76   2.0000      -0.953517       -25.9465
  77   2.0000      -0.948090       -25.7988
  78   2.0000      -0.943531       -25.6748
  79   2.0000      -0.935560       -25.4579
  80   2.0000      -0.932938       -25.3865
  81   2.0000      -0.930862       -25.3300
  82   2.0000      -0.916827       -24.9481
  83   2.0000      -0.903461       -24.5844
  84   2.0000      -0.892518       -24.2866
  85   2.0000      -0.877568       -23.8798
  86   2.0000      -0.874381       -23.7931
  87   2.0000      -0.870248       -23.6807
  88   2.0000      -0.864390       -23.5213
  89   2.0000      -0.861011       -23.4293
  90   2.0000      -0.849665       -23.1205
  91   2.0000      -0.826416       -22.4879
  92   2.0000      -0.814043       -22.1512
  93   2.0000      -0.808159       -21.9911
  94   2.0000      -0.800513       -21.7831
  95   2.0000      -0.783456       -21.3189
  96   2.0000      -0.773026       -21.0351
  97   2.0000      -0.766570       -20.8594
  98   2.0000      -0.766515       -20.8579
  99   2.0000      -0.755455       -20.5570
 100   2.0000      -0.743679       -20.2365
 101   2.0000      -0.728700       -19.8289
 102   2.0000      -0.722021       -19.6472
 103   2.0000      -0.715278       -19.4637
 104   2.0000      -0.712369       -19.3845
 105   2.0000      -0.710217       -19.3260
 106   2.0000      -0.700007       -19.0482
 107   2.0000      -0.690791       -18.7974
 108   2.0000      -0.668426       -18.1888
 109   2.0000      -0.666415       -18.1341
 110   2.0000      -0.662929       -18.0392
 111   2.0000      -0.659569       -17.9478
 112   2.0000      -0.656035       -17.8516
 113   2.0000      -0.650941       -17.7130
 114   2.0000      -0.642633       -17.4869
 115   2.0000      -0.638966       -17.3871
 116   2.0000      -0.635172       -17.2839
 117   2.0000      -0.626562       -17.0496
 118   2.0000      -0.619144       -16.8478
 119   2.0000      -0.613723       -16.7003
 120   2.0000      -0.610131       -16.6025
 121   2.0000      -0.605415       -16.4742
 122   2.0000      -0.602580       -16.3970
 123   2.0000      -0.593632       -16.1535
 124   2.0000      -0.592377       -16.1194
 125   2.0000      -0.585417       -15.9300
 126   2.0000      -0.580913       -15.8074
 127   2.0000      -0.575349       -15.6560
 128   2.0000      -0.572758       -15.5855
 129   2.0000      -0.569149       -15.4873
 130   2.0000      -0.561382       -15.2760
 131   2.0000      -0.556706       -15.1487
 132   2.0000      -0.556103       -15.1323
 133   2.0000      -0.554472       -15.0880
 134   2.0000      -0.551799       -15.0152
 135   2.0000      -0.547076       -14.8867
 136   2.0000      -0.543928       -14.8010
 137   2.0000      -0.541288       -14.7292
 138   2.0000      -0.538194       -14.6450
 139   2.0000      -0.536759       -14.6060
 140   2.0000      -0.532128       -14.4799
 141   2.0000      -0.530624       -14.4390
 142   2.0000      -0.526388       -14.3238
 143   2.0000      -0.523663       -14.2496
 144   2.0000      -0.521015       -14.1775
 145   2.0000      -0.519462       -14.1353
 146   2.0000      -0.516732       -14.0610
 147   2.0000      -0.511024       -13.9057
 148   2.0000      -0.508360       -13.8332
 149   2.0000      -0.504373       -13.7247
 150   2.0000      -0.500534       -13.6202
 151   2.0000      -0.500188       -13.6108
 152   2.0000      -0.493090       -13.4177
 153   2.0000      -0.492912       -13.4128
 154   2.0000      -0.486676       -13.2431
 155   2.0000      -0.485927       -13.2227
 156   2.0000      -0.485785       -13.2189
 157   2.0000      -0.481807       -13.1106
 158   2.0000      -0.479672       -13.0525
 159   2.0000      -0.475160       -12.9298
 160   2.0000      -0.474306       -12.9065
 161   2.0000      -0.471708       -12.8358
 162   2.0000      -0.469762       -12.7829
 163   2.0000      -0.468582       -12.7508
 164   2.0000      -0.466030       -12.6813
 165   2.0000      -0.461679       -12.5629
 166   2.0000      -0.459744       -12.5103
 167   2.0000      -0.454961       -12.3801
 168   2.0000      -0.452639       -12.3169
 169   2.0000      -0.452006       -12.2997
 170   2.0000      -0.448864       -12.2142
 171   2.0000      -0.443838       -12.0774
 172   2.0000      -0.434926       -11.8349
 173   2.0000      -0.430504       -11.7146
 174   2.0000      -0.419343       -11.4109
 175   2.0000      -0.411111       -11.1869
 176   2.0000      -0.399368       -10.8674
 177   2.0000      -0.397995       -10.8300
 178   2.0000      -0.395240       -10.7550
 179   2.0000      -0.384796       -10.4708
 180   2.0000      -0.383641       -10.4394
 181   2.0000      -0.379089       -10.3155
 182   2.0000      -0.370079       -10.0704
 183   2.0000      -0.366708        -9.9786
 184   2.0000      -0.360465        -9.8087
 185   2.0000      -0.358684        -9.7603
 186   2.0000      -0.356676        -9.7056
 187   2.0000      -0.354970        -9.6592
 188   2.0000      -0.351063        -9.5529
 189   2.0000      -0.348434        -9.4814
 190   2.0000      -0.346347        -9.4246
 191   2.0000      -0.342675        -9.3247
 192   2.0000      -0.340642        -9.2693
 193   2.0000      -0.340267        -9.2591
 194   2.0000      -0.332835        -9.0569
 195   2.0000      -0.330214        -8.9856
 196   2.0000      -0.329286        -8.9603
 197   2.0000      -0.324884        -8.8405
 198   2.0000      -0.322682        -8.7806
 199   2.0000      -0.305145        -8.3034
 200   2.0000      -0.295891        -8.0516
 201   2.0000      -0.244748        -6.6599
 202   0.0000      -0.120702        -3.2845
 203   0.0000      -0.114202        -3.1076
 204   0.0000      -0.091444        -2.4883
 205   0.0000      -0.063575        -1.7300
 206   0.0000      -0.059978        -1.6321

MULLIKEN ATOMIC CHARGES
-----------------------
   0 C :    0.075446
   1 N :   -0.023544
   2 C :    0.055004
   3 C :   -0.148608
   4 C :    0.218491
   5 O :   -0.122895
   6 C :   -0.032016
   7 C :   -0.010906
   8 N :   -0.043581
   9 C :    0.094617
  10 C :   -0.090049
  11 C :    0.055196
  12 C :   -0.171370
  13 S :    0.180811
  14 C :   -0.084763
  15 N :   -0.060166
  16 N :   -0.032149
  17 C :    0.059550
  18 C :   -0.024799
  19 C :    0.140692
  20 N :   -0.255757
  21 C :    0.098820
  22 C :    0.002878
  23 C :    0.168288
  24 O :   -0.217168
  25 C :   -0.069555
  26 C :   -0.061012
  27 C :    0.166588
  28 O :   -0.203673
  29 N :   -0.258352
  30 C :    0.096745
  31 C :    0.003149
  32 C :    0.132640
  33 C :    0.008639
  34 C :   -0.000213
  35 C :    0.113115
  36 C :   -0.067815
  37 C :    0.156855
  38 N :    0.247342
  39 O :   -0.227681
  40 O :   -0.230577
  41 C :    0.047325
  42 C :   -0.024965
  43 C :    0.015965
  44 C :    0.022617
  45 C :    0.003366
  46 C :    0.049553
  47 N :   -0.048382
  48 C :    0.046860
  49 C :   -0.040561
  50 C :    0.213245
  51 O :   -0.115694
  52 C :   -0.042829
  53 C :   -0.014103
  54 N :   -0.055861
  55 C :    0.090053
  56 C :   -0.094068
  57 C :   -0.096973
  58 H :    0.028106
  59 H :    0.018636
  60 H :    0.002704
  61 H :    0.015615
  62 H :    0.005664
  63 H :    0.042215
  64 H :    0.029011
  65 H :    0.027096
  66 H :    0.025826
  67 H :    0.022701
  68 H :    0.046868
  69 H :    0.025779
  70 H :    0.030653
  71 H :    0.028020
  72 H :    0.016027
  73 H :   -0.027248
  74 H :    0.010008
  75 H :    0.002991
  76 H :    0.002353
  77 H :    0.013675
  78 H :    0.024142
  79 H :    0.009124
  80 H :    0.009311
  81 H :   -0.003008
  82 H :   -0.000036
Sum of atomic charges:   -0.0000000

LOEWDIN ATOMIC CHARGES
----------------------
   0 C :    0.110456
   1 N :   -0.077987
   2 C :    0.048036
   3 C :   -0.049515
   4 C :    0.064005
   5 O :   -0.132632
   6 C :   -0.036349
   7 C :    0.037866
   8 N :   -0.088282
   9 C :    0.085544
  10 C :   -0.025589
  11 C :   -0.063367
  12 C :   -0.159521
  13 S :    0.456806
  14 C :   -0.150934
  15 N :   -0.080438
  16 N :   -0.068447
  17 C :   -0.010282
  18 C :   -0.010206
  19 C :    0.071071
  20 N :    0.003528
  21 C :    0.037243
  22 C :   -0.060098
  23 C :    0.080182
  24 O :   -0.205518
  25 C :   -0.121748
  26 C :   -0.115076
  27 C :    0.081717
  28 O :   -0.194017
  29 N :    0.000869
  30 C :    0.036149
  31 C :   -0.060503
  32 C :    0.078566
  33 C :   -0.039333
  34 C :    0.031340
  35 C :   -0.022735
  36 C :    0.016421
  37 C :   -0.021606
  38 N :    0.285650
  39 O :   -0.196960
  40 O :   -0.189432
  41 C :   -0.007994
  42 C :    0.001394
  43 C :    0.020483
  44 C :    0.028068
  45 C :   -0.023045
  46 C :    0.063087
  47 N :   -0.105861
  48 C :    0.039956
  49 C :   -0.029965
  50 C :    0.063235
  51 O :   -0.130285
  52 C :   -0.041590
  53 C :    0.025763
  54 N :   -0.097002
  55 C :    0.075550
  56 C :   -0.038177
  57 C :   -0.020442
  58 H :    0.034349
  59 H :    0.027186
  60 H :    0.037599
  61 H :    0.038120
  62 H :    0.037898
  63 H :    0.037106
  64 H :    0.026010
  65 H :    0.031049
  66 H :    0.032193
  67 H :    0.024880
  68 H :    0.039209
  69 H :    0.023437
  70 H :    0.032830
  71 H :    0.032739
  72 H :    0.021955
  73 H :    0.028212
  74 H :    0.038588
  75 H :    0.037585
  76 H :    0.039561
  77 H :    0.044238
  78 H :    0.032895
  79 H :    0.040665
  80 H :    0.023570
  81 H :    0.034529
  82 H :    0.035545

  Mayer bond orders larger than 0.100000
B(  0-C ,  1-N ) :   1.7201 B(  0-C , 11-C ) :   1.0294 B(  0-C , 58-H ) :   0.9951
B(  1-N ,  2-C ) :   1.2744 B(  2-C ,  3-C ) :   1.0493 B(  2-C ,  7-C ) :   1.5035
B(  3-C ,  4-C ) :   0.8884 B(  3-C , 11-C ) :   1.6065 B(  4-C ,  5-O ) :   2.2756
B(  4-C ,  6-C ) :   0.9006 B(  6-C ,  7-C ) :   1.0471 B(  6-C , 10-C ) :   1.6463
B(  7-C ,  8-N ) :   1.2853 B(  8-N ,  9-C ) :   1.6867 B(  9-C , 10-C ) :   1.0459
B(  9-C , 59-H ) :   0.9883 B( 10-C , 60-H ) :   1.0094 B( 11-C , 12-C ) :   1.0794
B( 12-C , 13-S ) :   1.1312 B( 12-C , 16-N ) :   1.6880 B( 13-S , 14-C ) :   1.1004
B( 14-C , 15-N ) :   1.6294 B( 14-C , 17-C ) :   1.1126 B( 15-N , 16-N ) :   1.2527
B( 17-C , 18-C ) :   1.6521 B( 17-C , 61-H ) :   0.9282 B( 18-C , 19-C ) :   1.1328
B( 18-C , 62-H ) :   0.9697 B( 19-C , 20-N ) :   1.1579 B( 19-C , 26-C ) :   1.3456
B( 20-N , 21-C ) :   0.9430 B( 20-N , 23-C ) :   1.0700 B( 21-C , 22-C ) :   1.1204
B( 21-C , 63-H ) :   0.9289 B( 21-C , 64-H ) :   0.9496 B( 22-C , 65-H ) :   0.9638
B( 22-C , 66-H ) :   0.9682 B( 22-C , 67-H ) :   0.9687 B( 23-C , 24-O ) :   2.0124
B( 23-C , 25-C ) :   0.9874 B( 24-O , 74-H ) :   0.1192 B( 25-C , 26-C ) :   1.2545
B( 25-C , 32-C ) :   1.3453 B( 26-C , 27-C ) :   0.9840 B( 27-C , 28-O ) :   2.0367
B( 27-C , 29-N ) :   1.0543 B( 28-O , 61-H ) :   0.1064 B( 29-N , 30-C ) :   0.9442
B( 29-N , 32-C ) :   1.1663 B( 30-C , 31-C ) :   1.1189 B( 30-C , 68-H ) :   0.9272
B( 30-C , 69-H ) :   0.9499 B( 31-C , 70-H ) :   0.9637 B( 31-C , 71-H ) :   0.9682
B( 31-C , 72-H ) :   0.9688 B( 32-C , 33-C ) :   1.1459 B( 33-C , 34-C ) :   1.6173
B( 33-C , 73-H ) :   0.9562 B( 34-C , 35-C ) :   1.0766 B( 34-C , 74-H ) :   0.9644
B( 35-C , 36-C ) :   1.2834 B( 35-C , 43-C ) :   1.3091 B( 36-C , 37-C ) :   1.3953
B( 36-C , 75-H ) :   0.9853 B( 37-C , 38-N ) :   0.8787 B( 37-C , 41-C ) :   1.3337
B( 38-N , 39-O ) :   1.5528 B( 38-N , 40-O ) :   1.5202 B( 39-O , 40-O ) :   0.2651
B( 41-C , 42-C ) :   1.3409 B( 41-C , 44-C ) :   1.0651 B( 42-C , 43-C ) :   1.3888
B( 42-C , 76-H ) :   0.9914 B( 43-C , 77-H ) :   1.0024 B( 44-C , 45-C ) :   1.6807
B( 44-C , 78-H ) :   0.9438 B( 45-C , 46-C ) :   1.1071 B( 45-C , 79-H ) :   0.9720
B( 46-C , 47-N ) :   1.5666 B( 46-C , 48-C ) :   0.1072 B( 46-C , 57-C ) :   1.0467
B( 47-N , 48-C ) :   1.3553 B( 48-C , 49-C ) :   1.0286 B( 48-C , 53-C ) :   1.4280
B( 49-C , 50-C ) :   0.8659 B( 49-C , 57-C ) :   1.6474 B( 50-C , 51-O ) :   2.3272
B( 50-C , 52-C ) :   0.8859 B( 52-C , 53-C ) :   1.0436 B( 52-C , 56-C ) :   1.6158
B( 53-C , 54-N ) :   1.3120 B( 54-N , 55-C ) :   1.6592 B( 55-C , 56-C ) :   1.0752
B( 55-C , 80-H ) :   0.9893 B( 56-C , 81-H ) :   1.0095 B( 57-C , 82-H ) :   1.0058

-----------------------------------------------------------------------------
         ABSORPTION SPECTRUM VIA TRANSITION ELECTRIC DIPOLE MOMENTS
-----------------------------------------------------------------------------
State   Energy  Wavelength   fosc         T2         TX        TY        TZ
        (cm-1)    (nm)                  (au**2)     (au)      (au)      (au)
-----------------------------------------------------------------------------
   0   14260.2    701.3   1.084304906  25.03238   1.07428   4.63123   1.55886
   1   17300.0    578.0   0.181110368   3.44646   0.75049   1.69798  -0.00976
   2   20225.0    494.4   0.101541738   1.65284   0.31179  -0.12119   1.24135
   3   21864.6    457.4   0.000392505   0.00591  -0.07258   0.00266   0.02521
   4   22842.7    437.8   0.000383700   0.00553   0.06736  -0.02956  -0.01087
   5   23276.4    429.6   0.047402287   0.67044   0.06787  -0.52865  -0.62158
   6   24365.0    410.4   0.671312891   9.07055   1.14565   2.04542   1.89058
   7   25001.4    400.0   0.000655749   0.00863   0.08727   0.01029   0.03021
   8   25718.2    388.8   0.201956152   2.58519  -0.31330  -0.96765  -1.24526
   9   26092.8    383.2   0.320428688   4.04284  -0.88082  -1.57574  -0.88546
  10   26195.8    381.7   0.033183611   0.41703  -0.19107  -0.56325  -0.25154
  11   26206.2    381.6   0.002583545   0.03246  -0.07902  -0.15636  -0.04198
  12   26776.6    373.5   0.039360041   0.48392   0.00470   0.33328   0.61059
  13   26919.5    371.5   0.000515882   0.00631  -0.06852   0.02395   0.03226
  14   27172.7    368.0   0.067281945   0.81516  -0.01311   0.56240   0.70618
  15   27469.3    364.0   0.329156609   3.94486  -0.69040  -1.50994  -1.09009
  16   28078.2    356.1   0.004426958   0.05191   0.18901   0.12284   0.03302
  17   28514.0    350.7   0.314240120   3.62809   0.30404   1.37427   1.28337
  18   28622.6    349.4   0.173738201   1.99830   0.01815  -1.07389  -0.91909
  19   28816.6    347.0   0.040529188   0.46302  -0.05262  -0.51733  -0.43889
  20   29612.1    337.7   0.055166478   0.61331  -0.06496   0.76874   0.13464
  21   30790.8    324.8   0.009136763   0.09769   0.08365  -0.16209   0.25381
  22   30973.6    322.9   0.000119956   0.00127  -0.03197  -0.01035  -0.01209
  23   31283.3    319.7   0.000054164   0.00057  -0.01608  -0.01297  -0.01197
  24   31501.5    317.4   0.000580228   0.00606  -0.07607   0.00866  -0.01423
  25   32033.1    312.2   0.000146150   0.00150  -0.02555   0.02904  -0.00246
  26   32841.3    304.5   0.232293486   2.32858  -0.04691   0.54867   1.42315
  27   33050.0    302.6   0.011565535   0.11520  -0.12803  -0.29366   0.11215
  28   33531.5    298.2   0.015011613   0.14738  -0.05754   0.24964  -0.28592
  29   33915.3    294.9   0.039910594   0.38741   0.28822   0.44402   0.32739
  30   34267.6    291.8   0.024848815   0.23872  -0.07182   0.16769   0.45326
  31   34586.9    289.1   0.002370484   0.02256  -0.00691  -0.14644  -0.03272
  32   34987.1    285.8   0.227747392   2.14299   0.02039   0.83469   1.20244
  33   35544.8    281.3   0.046538005   0.43103   0.00108   0.02862  -0.65590
  34   36014.3    277.7   0.179749819   1.64312  -0.18132  -1.26312  -0.12148
  35   36542.1    273.7   0.031905070   0.28744   0.07803   0.01755  -0.53013
  36   36731.7    272.2   0.052285941   0.46862  -0.15592  -0.17463  -0.64328
  37   37104.1    269.5   0.057330824   0.50868  -0.21295  -0.42819  -0.52914
  38   37357.7    267.7   0.010239360   0.09023   0.08168   0.19523   0.21318
  39   37860.2    264.1   0.002489527   0.02165   0.14090   0.02338   0.03533
  40   37930.9    263.6   0.001721551   0.01494   0.07746  -0.06724  -0.06648
  41   38256.0    261.4   0.018164955   0.15632  -0.07540  -0.15615  -0.35532
  42   39215.4    255.0   0.004221309   0.03544   0.01145   0.16038   0.09790
  43   39399.7    253.8   0.000246993   0.00206  -0.00470   0.04514  -0.00206
  44   39698.7    251.9   0.041191861   0.34159  -0.01753  -0.57610   0.09692
  45   39891.4    250.7   0.117874847   0.97279  -0.20301  -0.94138  -0.21302
  46   39906.9    250.6   0.016434981   0.13558  -0.01830  -0.36774   0.00303

FINAL SINGLE POINT ENERGY     -2954.270669391667

DIPOLE MOMENT
-------------
                                X             Y             Z
Electronic contribution:      7.05329     -12.82645     -10.06554
Nuclear contribution   :     -7.60282      11.82761       9.33278
                        -----------------------------------------
Total Dipole Moment    :     -0.54953      -0.99884      -0.73276
                        -----------------------------------------
Magnitude (a.u.)       :      1.35521
Magnitude (Debye)      :      3.44467

Rotational constants in cm-1:     0.005079     0.000269     0.000259
Rotational constants in MHz :   152.260895     8.061813     7.766192

                             ****ORCA TERMINATED NORMALLY****
TOTAL RUN TIME: 0 days 0 hours 6 minutes 21 seconds 875 msec
