                         Program Version 4.2.0 -  RELEASE  -
|  1> # ORCA input file
|  2> # SCF done       -157.648777227374          0.000545686381
|  3> ! CAM-B3LYP def2-SVP def2/J RIJCOSX Grid4 TightSCF
|  4> %maxcore 5000
|  5> %tddft
|  6>     Mode sTDDFT
|  7>     Ethresh 5.0
|  8>     maxcore 5000
|  9> end
| 10>
| 11> %pal
| 12>   nprocs 6
| 13>   end
| 14> * xyz 0 1
| 15>    C        0.30338         0.28694         0.01475
| 16>    C       -0.96632         0.77428        -0.01571
| 17>    S       -2.12503        -0.48965         0.17686
| 18>    C       -0.87335        -1.70505         0.29964
| 19>   Cl       -1.25353        -3.34126         0.51908
| 20>    C        0.35913        -1.13433         0.19564
| 21>    C        1.75887        -1.57716         0.21550
| 22>    O        2.19854        -2.69566         0.34669
| 23>    C        2.54957        -0.32414         0.03003
| 24>    C        1.65234         0.80997        -0.08644
| 25>    C        1.97120         2.13132        -0.25733
| 26>    C        0.97241         3.12255        -0.35643
| 27>    N        0.17184         3.93992        -0.43977
| 28>    C        3.27951         2.64535        -0.34912
| 29>    N        4.32617         3.11010        -0.42767
| 30>    C        3.91238        -0.32738        -0.02613
| 31>    C        4.66039        -1.47869         0.09115
| 32>    C        5.37351        -2.46787         0.18108
| 33>    C        6.10279        -3.58191         0.27406
| 34>    C        6.74971        -4.61524         0.34960
| 35>    C        7.49141        -5.77811         0.40742
| 36>    N        6.99295        -6.96794         0.88179
| 37>    C        5.64774        -7.17579         1.36000
| 38>    C        4.64140        -7.23601         0.21462
| 39>    C        7.94671        -8.00012         0.80173
| 40>    O        7.74275        -9.14007         1.16031
| 41>    C        9.11406        -7.35225         0.23846
| 42>    C        8.80730        -5.99037         0.01089
| 43>    C        9.97680        -5.36206        -0.56312
| 44>    O       10.20506        -4.22795        -0.91561
| 45>    N       10.92366        -6.41408        -0.66367
| 46>    C       12.26587        -6.10971        -1.10017
| 47>    C       13.27233        -6.17731         0.04497
| 48>    C       10.41696        -7.60060        -0.18833
| 49>    C       11.00151        -8.89477        -0.12843
| 50>    C       12.14554        -9.34241        -0.69871
| 51>    C       12.62233       -10.67893        -0.57979
| 52>    S       14.02561       -11.15849        -1.47640
| 53>    C       13.99121       -12.74950        -0.79598
| 54>    C       14.95323       -13.70998        -1.26768
| 55>    O       15.09911       -14.84309        -0.86175
| 56>    C       12.91804       -12.89208         0.09099
| 57>    C       12.13944       -11.72945         0.17577
| 58>    C       12.57714       -14.09597         0.81464
| 59>    C       13.39521       -14.94598         1.46014
| 60>    C       12.89014       -16.31047         1.83905
| 61>    O       11.73650       -16.65320         1.90234
| 62>    C       14.11126       -17.09488         2.04078
| 63>    C       14.43600       -18.39958         2.26852
| 64>    S       16.17035       -18.58946         2.36681
| 65>    C       16.43762       -16.90552         2.10963
| 66>    C       15.26181       -16.24161         1.95057
| 67>    C       14.82731       -14.87904         1.73258
| 68>    C       15.58907       -13.76495         1.94208
| 69>    C       16.96450       -13.86163         2.24408
| 70>    N       18.08525       -13.92179         2.47974
| 71>    C       15.10356       -12.44329         1.92519
| 72>    N       14.75481       -11.34983         1.96065
| 73>   Cl       13.39226       -19.72069         2.44634
| 74>    H       -1.30515         1.78405        -0.13699
| 75>    H        4.46565         0.59211        -0.17510
| 76>    H        5.38508        -6.36816         2.05009
| 77>    H        5.65953        -8.12607         1.90059
| 78>    H        4.62053        -6.29360        -0.32824
| 79>    H        3.64866        -7.42759         0.61113
| 80>    H        4.90254        -8.03621        -0.47410
| 81>    H       12.21778        -5.08553        -1.48389
| 82>    H       12.55171        -6.76792        -1.92494
| 83>    H       13.00120        -5.46155         0.81722
| 84>    H       14.26301        -5.92778        -0.32448
| 85>    H       13.30466        -7.16914         0.48957
| 86>    H       10.38640        -9.59328         0.42359
| 87>    H       12.76153        -8.69544        -1.30294
| 88>    H       15.59444       -13.31089        -2.07651
| 89>    H       11.27513       -11.65457         0.81024
| 90>    H       11.52415       -14.36112         0.80960
| 91>    H       17.44021       -16.52763         2.07691
| 92> *
| 93>
| 94>                          ****END OF INPUT****

CARTESIAN COORDINATES (ANGSTROEM)
---------------------------------
  C      0.303380    0.286940    0.014750
  C     -0.966320    0.774280   -0.015710
  S     -2.125030   -0.489650    0.176860
  C     -0.873350   -1.705050    0.299640
  Cl    -1.253530   -3.341260    0.519080
  C      0.359130   -1.134330    0.195640
  C      1.758870   -1.577160    0.215500
  O      2.198540   -2.695660    0.346690
  C      2.549570   -0.324140    0.030030
  C      1.652340    0.809970   -0.086440
  C      1.971200    2.131320   -0.257330
  C      0.972410    3.122550   -0.356430
  N      0.171840    3.939920   -0.439770
  C      3.279510    2.645350   -0.349120
  N      4.326170    3.110100   -0.427670
  C      3.912380   -0.327380   -0.026130
  C      4.660390   -1.478690    0.091150
  C      5.373510   -2.467870    0.181080
  C      6.102790   -3.581910    0.274060
  C      6.749710   -4.615240    0.349600
  C      7.491410   -5.778110    0.407420
  N      6.992950   -6.967940    0.881790
  C      5.647740   -7.175790    1.360000
  C      4.641400   -7.236010    0.214620
  C      7.946710   -8.000120    0.801730
  O      7.742750   -9.140070    1.160310
  C      9.114060   -7.352250    0.238460
  C      8.807300   -5.990370    0.010890
  C      9.976800   -5.362060   -0.563120
  O     10.205060   -4.227950   -0.915610
  N     10.923660   -6.414080   -0.663670
  C     12.265870   -6.109710   -1.100170
  C     13.272330   -6.177310    0.044970
  C     10.416960   -7.600600   -0.188330
  C     11.001510   -8.894770   -0.128430
  C     12.145540   -9.342410   -0.698710
  C     12.622330  -10.678930   -0.579790
  S     14.025610  -11.158490   -1.476400
  C     13.991210  -12.749500   -0.795980
  C     14.953230  -13.709980   -1.267680
  O     15.099110  -14.843090   -0.861750
  C     12.918040  -12.892080    0.090990
  C     12.139440  -11.729450    0.175770
  C     12.577140  -14.095970    0.814640
  C     13.395210  -14.945980    1.460140
  C     12.890140  -16.310470    1.839050
  O     11.736500  -16.653200    1.902340
  C     14.111260  -17.094880    2.040780
  C     14.436000  -18.399580    2.268520
  S     16.170350  -18.589460    2.366810
  C     16.437620  -16.905520    2.109630
  C     15.261810  -16.241610    1.950570
  C     14.827310  -14.879040    1.732580
  C     15.589070  -13.764950    1.942080
  C     16.964500  -13.861630    2.244080
  N     18.085250  -13.921790    2.479740
  C     15.103560  -12.443290    1.925190
  N     14.754810  -11.349830    1.960650
  Cl    13.392260  -19.720690    2.446340
  H     -1.305150    1.784050   -0.136990
  H      4.465650    0.592110   -0.175100
  H      5.385080   -6.368160    2.050090
  H      5.659530   -8.126070    1.900590
  H      4.620530   -6.293600   -0.328240
  H      3.648660   -7.427590    0.611130
  H      4.902540   -8.036210   -0.474100
  H     12.217780   -5.085530   -1.483890
  H     12.551710   -6.767920   -1.924940
  H     13.001200   -5.461550    0.817220
  H     14.263010   -5.927780   -0.324480
  H     13.304660   -7.169140    0.489570
  H     10.386400   -9.593280    0.423590
  H     12.761530   -8.695440   -1.302940
  H     15.594440  -13.310890   -2.076510
  H     11.275130  -11.654570    0.810240
  H     11.524150  -14.361120    0.809600
  H     17.440210  -16.527630    2.076910

 Total Charge           Charge          ....    0
 Multiplicity           Mult            ....    1
 Number of Electrons    NEL             ....  440
 Basis Dimension        Dim             ....  936

ORBITAL ENERGIES
----------------

  NO   OCC          E(Eh)            E(eV)
   0   2.0000    -101.621624     -2765.2650
   1   2.0000    -101.616815     -2765.1341
   2   2.0000     -88.998734     -2421.7787
   3   2.0000     -88.993005     -2421.6228
   4   2.0000     -88.987827     -2421.4819
   5   2.0000     -19.228370      -523.2305
   6   2.0000     -19.226563      -523.1814
   7   2.0000     -19.221848      -523.0531
   8   2.0000     -19.202990      -522.5399
   9   2.0000     -19.195817      -522.3447
  10   2.0000     -14.464645      -393.6030
  11   2.0000     -14.461338      -393.5130
  12   2.0000     -14.428346      -392.6153
  13   2.0000     -14.426633      -392.5687
  14   2.0000     -14.420936      -392.4136
  15   2.0000     -14.420531      -392.4026
  16   2.0000     -10.386772      -282.6384
  17   2.0000     -10.382196      -282.5139
  18   2.0000     -10.381869      -282.5050
  19   2.0000     -10.381042      -282.4825
  20   2.0000     -10.377820      -282.3949
  21   2.0000     -10.377304      -282.3808
  22   2.0000     -10.375506      -282.3319
  23   2.0000     -10.360229      -281.9162
  24   2.0000     -10.356774      -281.8222
  25   2.0000     -10.356074      -281.8031
  26   2.0000     -10.356067      -281.8029
  27   2.0000     -10.350409      -281.6490
  28   2.0000     -10.348034      -281.5843
  29   2.0000     -10.340979      -281.3923
  30   2.0000     -10.337093      -281.2866
  31   2.0000     -10.335014      -281.2300
  32   2.0000     -10.329688      -281.0851
  33   2.0000     -10.328258      -281.0462
  34   2.0000     -10.327876      -281.0358
  35   2.0000     -10.324009      -280.9306
  36   2.0000     -10.323354      -280.9127
  37   2.0000     -10.322724      -280.8956
  38   2.0000     -10.321532      -280.8632
  39   2.0000     -10.321269      -280.8560
  40   2.0000     -10.320449      -280.8337
  41   2.0000     -10.319723      -280.8139
  42   2.0000     -10.318668      -280.7852
  43   2.0000     -10.318039      -280.7681
  44   2.0000     -10.316815      -280.7348
  45   2.0000     -10.315176      -280.6902
  46   2.0000     -10.312944      -280.6295
  47   2.0000     -10.312101      -280.6065
  48   2.0000     -10.311614      -280.5933
  49   2.0000     -10.310509      -280.5632
  50   2.0000     -10.310078      -280.5515
  51   2.0000     -10.308898      -280.5194
  52   2.0000     -10.305387      -280.4238
  53   2.0000     -10.302927      -280.3569
  54   2.0000     -10.300218      -280.2832
  55   2.0000     -10.281871      -279.7839
  56   2.0000     -10.274595      -279.5859
  57   2.0000     -10.268608      -279.4230
  58   2.0000     -10.260788      -279.2102
  59   2.0000      -9.576421      -260.5877
  60   2.0000      -9.571596      -260.4564
  61   2.0000      -8.094330      -220.2579
  62   2.0000      -8.088741      -220.1058
  63   2.0000      -8.083558      -219.9648
  64   2.0000      -7.347066      -199.9238
  65   2.0000      -7.342219      -199.7919
  66   2.0000      -7.336445      -199.6348
  67   2.0000      -7.335912      -199.6203
  68   2.0000      -7.331635      -199.5039
  69   2.0000      -7.331106      -199.4895
  70   2.0000      -6.063709      -165.0019
  71   2.0000      -6.059099      -164.8765
  72   2.0000      -6.058099      -164.8493
  73   2.0000      -6.056628      -164.8092
  74   2.0000      -6.053488      -164.7238
  75   2.0000      -6.052524      -164.6975
  76   2.0000      -6.051036      -164.6571
  77   2.0000      -6.048573      -164.5900
  78   2.0000      -6.046075      -164.5221
  79   2.0000      -1.143643       -31.1201
  80   2.0000      -1.142651       -31.0931
  81   2.0000      -1.140792       -31.0425
  82   2.0000      -1.138876       -30.9904
  83   2.0000      -1.134863       -30.8812
  84   2.0000      -1.074071       -29.2269
  85   2.0000      -1.064998       -28.9801
  86   2.0000      -1.043642       -28.3989
  87   2.0000      -1.037798       -28.2399
  88   2.0000      -1.024124       -27.8678
  89   2.0000      -1.021093       -27.7854
  90   2.0000      -1.013769       -27.5860
  91   2.0000      -1.005765       -27.3682
  92   2.0000      -0.998714       -27.1764
  93   2.0000      -0.994787       -27.0695
  94   2.0000      -0.988154       -26.8890
  95   2.0000      -0.961674       -26.1685
  96   2.0000      -0.954881       -25.9836
  97   2.0000      -0.938908       -25.5490
  98   2.0000      -0.931219       -25.3398
  99   2.0000      -0.929226       -25.2855
 100   2.0000      -0.912964       -24.8430
 101   2.0000      -0.911421       -24.8010
 102   2.0000      -0.901824       -24.5399
 103   2.0000      -0.898264       -24.4430
 104   2.0000      -0.882245       -24.0071
 105   2.0000      -0.865885       -23.5619
 106   2.0000      -0.859999       -23.4018
 107   2.0000      -0.849211       -23.1082
 108   2.0000      -0.838386       -22.8136
 109   2.0000      -0.832232       -22.6462
 110   2.0000      -0.826194       -22.4819
 111   2.0000      -0.822601       -22.3841
 112   2.0000      -0.805863       -21.9287
 113   2.0000      -0.788666       -21.4607
 114   2.0000      -0.783427       -21.3181
 115   2.0000      -0.765964       -20.8429
 116   2.0000      -0.760893       -20.7050
 117   2.0000      -0.755935       -20.5700
 118   2.0000      -0.737897       -20.0792
 119   2.0000      -0.725069       -19.7301
 120   2.0000      -0.722129       -19.6501
 121   2.0000      -0.712043       -19.3757
 122   2.0000      -0.700157       -19.0522
 123   2.0000      -0.699160       -19.0251
 124   2.0000      -0.692652       -18.8480
 125   2.0000      -0.682052       -18.5596
 126   2.0000      -0.679149       -18.4806
 127   2.0000      -0.677437       -18.4340
 128   2.0000      -0.675933       -18.3931
 129   2.0000      -0.660425       -17.9711
 130   2.0000      -0.651381       -17.7250
 131   2.0000      -0.642364       -17.4796
 132   2.0000      -0.630023       -17.1438
 133   2.0000      -0.623077       -16.9548
 134   2.0000      -0.620388       -16.8816
 135   2.0000      -0.618683       -16.8352
 136   2.0000      -0.613737       -16.7006
 137   2.0000      -0.600004       -16.3269
 138   2.0000      -0.597663       -16.2632
 139   2.0000      -0.594221       -16.1696
 140   2.0000      -0.585323       -15.9274
 141   2.0000      -0.578976       -15.7547
 142   2.0000      -0.575508       -15.6604
 143   2.0000      -0.571231       -15.5440
 144   2.0000      -0.558950       -15.2098
 145   2.0000      -0.557077       -15.1588
 146   2.0000      -0.556473       -15.1424
 147   2.0000      -0.548767       -14.9327
 148   2.0000      -0.541987       -14.7482
 149   2.0000      -0.538659       -14.6576
 150   2.0000      -0.538589       -14.6558
 151   2.0000      -0.535690       -14.5769
 152   2.0000      -0.534016       -14.5313
 153   2.0000      -0.533437       -14.5156
 154   2.0000      -0.531149       -14.4533
 155   2.0000      -0.528654       -14.3854
 156   2.0000      -0.524832       -14.2814
 157   2.0000      -0.521983       -14.2039
 158   2.0000      -0.521210       -14.1829
 159   2.0000      -0.516515       -14.0551
 160   2.0000      -0.516209       -14.0468
 161   2.0000      -0.512175       -13.9370
 162   2.0000      -0.508959       -13.8495
 163   2.0000      -0.505901       -13.7663
 164   2.0000      -0.503827       -13.7098
 165   2.0000      -0.500728       -13.6255
 166   2.0000      -0.496964       -13.5231
 167   2.0000      -0.495766       -13.4905
 168   2.0000      -0.485725       -13.2172
 169   2.0000      -0.483448       -13.1553
 170   2.0000      -0.482234       -13.1222
 171   2.0000      -0.480801       -13.0833
 172   2.0000      -0.476688       -12.9713
 173   2.0000      -0.473142       -12.8749
 174   2.0000      -0.469112       -12.7652
 175   2.0000      -0.465926       -12.6785
 176   2.0000      -0.461878       -12.5683
 177   2.0000      -0.459424       -12.5016
 178   2.0000      -0.459211       -12.4958
 179   2.0000      -0.456775       -12.4295
 180   2.0000      -0.455463       -12.3938
 181   2.0000      -0.455048       -12.3825
 182   2.0000      -0.454010       -12.3542
 183   2.0000      -0.451515       -12.2864
 184   2.0000      -0.450054       -12.2466
 185   2.0000      -0.448562       -12.2060
 186   2.0000      -0.446465       -12.1489
 187   2.0000      -0.444065       -12.0836
 188   2.0000      -0.440972       -11.9995
 189   2.0000      -0.440209       -11.9787
 190   2.0000      -0.438829       -11.9411
 191   2.0000      -0.434951       -11.8356
 192   2.0000      -0.434792       -11.8313
 193   2.0000      -0.431664       -11.7462
 194   2.0000      -0.428052       -11.6479
 195   2.0000      -0.426711       -11.6114
 196   2.0000      -0.424138       -11.5414
 197   2.0000      -0.421740       -11.4761
 198   2.0000      -0.412877       -11.2350
 199   2.0000      -0.411442       -11.1959
 200   2.0000      -0.407776       -11.0962
 201   2.0000      -0.403024       -10.9668
 202   2.0000      -0.386782       -10.5249
 203   2.0000      -0.380469       -10.3531
 204   2.0000      -0.372540       -10.1373
 205   2.0000      -0.359946        -9.7946
 206   2.0000      -0.356699        -9.7063
 207   2.0000      -0.352729        -9.5982
 208   2.0000      -0.343041        -9.3346
 209   2.0000      -0.342589        -9.3223
 210   2.0000      -0.340993        -9.2789
 211   2.0000      -0.334774        -9.1097
 212   2.0000      -0.327612        -8.9148
 213   2.0000      -0.327139        -8.9019
 214   2.0000      -0.326520        -8.8851
 215   2.0000      -0.321692        -8.7537
 216   2.0000      -0.314589        -8.5604
 217   2.0000      -0.308975        -8.4076
 218   2.0000      -0.306857        -8.3500
 219   2.0000      -0.251240        -6.8366
 220   0.0000      -0.123653        -3.3648
 221   0.0000      -0.099549        -2.7089
 222   0.0000      -0.086086        -2.3425
 223   0.0000      -0.057364        -1.5610
 224   0.0000      -0.046746        -1.2720

MULLIKEN ATOMIC CHARGES
-----------------------
   0 C :    0.027013
   1 C :   -0.126897
   2 S :    0.189747
   3 C :   -0.171405
   4 Cl:    0.000609
   5 C :    0.071335
   6 C :    0.150555
   7 O :   -0.111610
   8 C :   -0.109348
   9 C :    0.305383
  10 C :   -0.320307
  11 C :   -0.195404
  12 N :    0.165194
  13 C :   -0.190173
  14 N :    0.170194
  15 C :   -0.130296
  16 C :    0.045209
  17 C :    0.046685
  18 C :   -0.083442
  19 C :    0.134153
  20 C :    0.011332
  21 N :   -0.262213
  22 C :    0.113141
  23 C :   -0.001196
  24 C :    0.153862
  25 O :   -0.190639
  26 C :   -0.066372
  27 C :    0.034578
  28 C :    0.119620
  29 O :   -0.160805
  30 N :   -0.276442
  31 C :    0.094976
  32 C :   -0.004710
  33 C :    0.125903
  34 C :   -0.033432
  35 C :    0.100783
  36 C :   -0.069059
  37 S :    0.175405
  38 C :   -0.189957
  39 C :    0.204063
  40 O :   -0.196464
  41 C :    0.089177
  42 C :    0.003887
  43 C :   -0.002090
  44 C :   -0.097776
  45 C :    0.128612
  46 O :   -0.123061
  47 C :    0.095476
  48 C :   -0.172493
  49 S :    0.186682
  50 C :   -0.120849
  51 C :    0.022584
  52 C :    0.307871
  53 C :   -0.330746
  54 C :   -0.192592
  55 N :    0.161406
  56 C :   -0.192100
  57 N :    0.170024
  58 Cl:    0.000445
  59 H :    0.055003
  60 H :    0.062134
  61 H :    0.030195
  62 H :    0.042501
  63 H :    0.029626
  64 H :    0.024908
  65 H :    0.023723
  66 H :    0.050497
  67 H :    0.025815
  68 H :    0.029225
  69 H :    0.025704
  70 H :    0.031151
  71 H :    0.016025
  72 H :   -0.017863
  73 H :   -0.008850
  74 H :    0.007458
  75 H :    0.036003
  76 H :    0.052720
Sum of atomic charges:   -0.0000000

LOEWDIN ATOMIC CHARGES
----------------------
   0 C :   -0.059063
   1 C :   -0.147834
   2 S :    0.478826
   3 C :   -0.272011
   4 Cl:    0.192419
   5 C :   -0.116768
   6 C :    0.077823
   7 O :   -0.116850
   8 C :   -0.060731
   9 C :    0.069651
  10 C :   -0.127986
  11 C :   -0.015904
  12 N :   -0.044865
  13 C :   -0.022286
  14 N :   -0.037710
  15 C :    0.044963
  16 C :    0.016545
  17 C :    0.001780
  18 C :   -0.008391
  19 C :    0.007721
  20 C :    0.045938
  21 N :    0.005214
  22 C :    0.039610
  23 C :   -0.059840
  24 C :    0.075595
  25 O :   -0.196378
  26 C :   -0.113887
  27 C :   -0.088378
  28 C :    0.087256
  29 O :   -0.165610
  30 N :   -0.009329
  31 C :    0.033948
  32 C :   -0.062080
  33 C :    0.083479
  34 C :   -0.014665
  35 C :   -0.013599
  36 C :   -0.142723
  37 S :    0.489776
  38 C :   -0.229142
  39 C :    0.085086
  40 O :   -0.140336
  41 C :   -0.028342
  42 C :   -0.022313
  43 C :    0.059638
  44 C :   -0.054574
  45 C :    0.084980
  46 O :   -0.126313
  47 C :   -0.115081
  48 C :   -0.272637
  49 S :    0.479320
  50 C :   -0.146779
  51 C :   -0.048807
  52 C :    0.082311
  53 C :   -0.132645
  54 C :   -0.015850
  55 N :   -0.048834
  56 C :   -0.020360
  57 N :   -0.052126
  58 Cl:    0.192518
  59 H :    0.038300
  60 H :    0.063582
  61 H :    0.029549
  62 H :    0.036942
  63 H :    0.027880
  64 H :    0.032376
  65 H :    0.029008
  66 H :    0.039810
  67 H :    0.018916
  68 H :    0.033281
  69 H :    0.032761
  70 H :    0.024766
  71 H :    0.048288
  72 H :    0.030488
  73 H :   -0.000139
  74 H :    0.040232
  75 H :    0.052174
  76 H :    0.038419

  Mayer bond orders larger than 0.100000
B(  0-C ,  1-C ) :   1.5448 B(  0-C ,  5-C ) :   1.2256 B(  0-C ,  9-C ) :   1.0035
B(  1-C ,  2-S ) :   1.1639 B(  1-C , 59-H ) :   0.9541 B(  2-S ,  3-C ) :   1.1492
B(  3-C ,  4-Cl) :   1.1283 B(  3-C ,  5-C ) :   1.4841 B(  5-C ,  6-C ) :   0.9424
B(  6-C ,  7-O ) :   2.2745 B(  6-C ,  8-C ) :   0.9223 B(  8-C ,  9-C ) :   1.0482
B(  8-C , 15-C ) :   1.6501 B(  9-C , 10-C ) :   1.6633 B( 10-C , 11-C ) :   1.1429
B( 10-C , 13-C ) :   1.1462 B( 11-C , 12-N ) :   2.9921 B( 13-C , 14-N ) :   2.9733
B( 15-C , 16-C ) :   1.0338 B( 15-C , 60-H ) :   0.9362 B( 16-C , 17-C ) :   2.0384
B( 16-C , 19-C ) :   0.1717 B( 17-C , 18-C ) :   0.9225 B( 18-C , 19-C ) :   2.0628
B( 19-C , 20-C ) :   0.8147 B( 20-C , 21-N ) :   1.2043 B( 20-C , 27-C ) :   1.4152
B( 21-N , 22-C ) :   0.9385 B( 21-N , 24-C ) :   1.0372 B( 22-C , 23-C ) :   1.1217
B( 22-C , 61-H ) :   0.9481 B( 22-C , 62-H ) :   0.9331 B( 23-C , 63-H ) :   0.9694
B( 23-C , 64-H ) :   0.9668 B( 23-C , 65-H ) :   0.9653 B( 24-C , 25-O ) :   2.1339
B( 24-C , 26-C ) :   0.9790 B( 26-C , 27-C ) :   1.2288 B( 26-C , 33-C ) :   1.3465
B( 27-C , 28-C ) :   0.9373 B( 28-C , 29-O ) :   2.1879 B( 28-C , 30-N ) :   1.0213
B( 30-N , 31-C ) :   0.9391 B( 30-N , 33-C ) :   1.1789 B( 31-C , 32-C ) :   1.1164
B( 31-C , 66-H ) :   0.9212 B( 31-C , 67-H ) :   0.9503 B( 32-C , 68-H ) :   0.9617
B( 32-C , 69-H ) :   0.9674 B( 32-C , 70-H ) :   0.9683 B( 33-C , 34-C ) :   1.1832
B( 34-C , 35-C ) :   1.6181 B( 34-C , 71-H ) :   0.9457 B( 35-C , 36-C ) :   1.1123
B( 35-C , 72-H ) :   0.9634 B( 36-C , 37-S ) :   1.1614 B( 36-C , 42-C ) :   1.4525
B( 37-S , 38-C ) :   1.1180 B( 38-C , 39-C ) :   1.0377 B( 38-C , 41-C ) :   1.4212
B( 39-C , 40-O ) :   2.0886 B( 39-C , 73-H ) :   0.9562 B( 41-C , 42-C ) :   1.3056
B( 41-C , 43-C ) :   1.0059 B( 42-C , 74-H ) :   0.9994 B( 43-C , 44-C ) :   1.8130
B( 43-C , 75-H ) :   0.9415 B( 44-C , 45-C ) :   0.9245 B( 44-C , 52-C ) :   0.9850
B( 45-C , 46-O ) :   2.2885 B( 45-C , 47-C ) :   0.9265 B( 47-C , 48-C ) :   1.4758
B( 47-C , 51-C ) :   1.2249 B( 48-C , 49-S ) :   1.1558 B( 48-C , 58-Cl) :   1.1284
B( 49-S , 50-C ) :   1.1601 B( 50-C , 51-C ) :   1.5475 B( 50-C , 76-H ) :   0.9575
B( 51-C , 52-C ) :   1.0202 B( 52-C , 53-C ) :   1.6913 B( 53-C , 54-C ) :   1.1307
B( 53-C , 56-C ) :   1.1642 B( 54-C , 55-N ) :   3.0083 B( 56-C , 57-N ) :   3.0077

-----------------------------------------------------------------------------
         ABSORPTION SPECTRUM VIA TRANSITION ELECTRIC DIPOLE MOMENTS
-----------------------------------------------------------------------------
State   Energy  Wavelength   fosc         T2         TX        TY        TZ
        (cm-1)    (nm)                  (au**2)     (au)      (au)      (au)
-----------------------------------------------------------------------------
   0   13783.2    725.5   1.238386898  29.57886   4.21099  -3.41424  -0.43521
   1   20105.0    497.4   0.025165284   0.41207   0.45796  -0.12789  -0.43126
   2   21277.9    470.0   0.018095608   0.27997   0.44925  -0.27843   0.02508
   3   22341.2    447.6   0.021103501   0.31097   0.50273   0.12541  -0.20619
   4   25216.9    396.6   0.097701074   1.27551  -0.46568   1.00317  -0.22870
   5   25307.7    395.1   0.218734549   2.84538   0.83220  -1.46065   0.13902
   6   25937.3    385.5   0.030071328   0.38168   0.03501   0.02314  -0.61638
   7   26719.6    374.3   0.030881306   0.38049   0.24385   0.40351   0.39775
   8   26749.3    373.8   0.008078768   0.09943   0.09061   0.13932   0.26797
   9   27616.6    362.1   0.219085237   2.61167   1.19208  -1.08380   0.12652
  10   27807.3    359.6   0.398434779   4.71709   1.40499  -1.65449  -0.07594
  11   28736.8    348.0   0.150971962   1.72955  -0.31795   1.21887  -0.37789
  12   28882.0    346.2   0.043677495   0.49786   0.10832  -0.65014   0.25189
  13   29370.6    340.5   0.068416992   0.76688   0.19429  -0.83796   0.16419
  14   29729.2    336.4   0.018856953   0.20882   0.23895   0.22393   0.31870
  15   30189.3    331.2   0.084447828   0.92090   0.34913  -0.78571   0.42621
  16   30413.3    328.8   0.001110169   0.01202  -0.04755   0.08161  -0.05564
  17   31123.5    321.3   0.128799754   1.36239  -1.14410  -0.19925   0.11715
  18   31330.5    319.2   0.180869376   1.90052   0.05450  -1.37695  -0.03961
  19   31950.5    313.0   0.040561586   0.41794   0.40696   0.17551   0.47065
  20   32707.7    305.7   0.026080128   0.26250   0.28589  -0.42354   0.03722
  21   32831.5    304.6   0.077448528   0.77660  -0.12271   0.86045  -0.14552
  22   33154.9    301.6   0.004664264   0.04631  -0.17552  -0.10469   0.06743
  23   33526.0    298.3   0.154539691   1.51752   0.18400  -1.12438   0.46843
  24   33853.4    295.4   0.024368345   0.23697   0.40665  -0.26247  -0.05214
  25   33988.4    294.2   0.017198328   0.16658   0.37246  -0.03922  -0.16224
  26   34498.2    289.9   0.037321069   0.35615   0.56471  -0.18372  -0.05912
  27   35303.4    283.3   0.021611025   0.20153  -0.15306   0.41524   0.07534
  28   35548.6    281.3   0.020055211   0.18573   0.18958   0.38701  -0.00365
  29   36358.2    275.0   0.047411983   0.42930  -0.50914   0.37472  -0.17222
  30   36469.7    274.2   0.018858918   0.17024  -0.27315   0.10601   0.29050
  31   36955.3    270.6   0.036324080   0.32359   0.12248  -0.55334   0.04904
  32   37355.4    267.7   0.095997868   0.84603  -0.87738   0.27460   0.02876
  33   37473.5    266.9   0.509196622   4.47339  -1.06096  -1.81554   0.22709
  34   37791.3    264.6   0.018110675   0.15777  -0.32361   0.22934   0.02111
  35   38058.6    262.8   0.033923776   0.29345  -0.47768  -0.25207   0.04158
  36   38288.7    261.2   0.034514732   0.29676   0.54283   0.04448  -0.01113
  37   38445.9    260.1   0.566288301   4.84912   0.61664   2.10991  -0.13107
  38   38777.2    257.9   0.001686076   0.01431  -0.05080   0.10755   0.01289
  39   39339.2    254.2   0.284714698   2.38265  -0.19998  -1.44679   0.49946
  40   39538.7    252.9   0.000567696   0.00473   0.03890  -0.03373  -0.04556
  41   39645.2    252.2   0.024052025   0.19973   0.18891   0.19428  -0.35538

FINAL SINGLE POINT ENERGY     -4465.186103900057

DIPOLE MOMENT
-------------
                                X             Y             Z
Electronic contribution:    -21.25938     -17.96990       8.95914
Nuclear contribution   :     20.47708      16.27182      -9.66453
                        -----------------------------------------
Total Dipole Moment    :     -0.78229      -1.69808      -0.70539
                        -----------------------------------------
Magnitude (a.u.)       :      1.99826
Magnitude (Debye)      :      5.07916

Rotational constants in cm-1:     0.003099     0.000255     0.000239
Rotational constants in MHz :    92.903685     7.643469     7.175860

                             ****ORCA TERMINATED NORMALLY****
TOTAL RUN TIME: 0 days 0 hours 6 minutes 16 seconds 775 msec
