                         Program Version 4.2.0 -  RELEASE  -
|  1> # ORCA input file
|  2> # SCF done       -191.673275176459          0.000685426678
|  3> ! CAM-B3LYP def2-SVP def2/J RIJCOSX Grid4 TightSCF
|  4> %maxcore 5000
|  5> %tddft
|  6>     Mode sTDDFT
|  7>     Ethresh 5.0
|  8>     maxcore 5000
|  9> end
| 10>
| 11> %pal
| 12>   nprocs 6
| 13>   end
| 14> * xyz 0 1
| 15>    C        2.07666         1.65056         1.83007
| 16>    C        1.03650         2.48749         2.09490
| 17>    S       -0.46466         1.63850         2.08480
| 18>    C        0.31959         0.12130         1.71366
| 19>   Cl       -0.56724        -1.30902         1.52811
| 20>    C        1.66843         0.29502         1.61013
| 21>    C        2.83456        -0.54692         1.32787
| 22>    O        2.85394        -1.73316         1.10067
| 23>    C        4.00733         0.38332         1.45194
| 24>    C        3.51463         1.73768         1.69811
| 25>    C        4.23922         2.89578         1.73747
| 26>    C        3.61730         4.14271         1.96668
| 27>    N        3.12401         5.16010         2.15819
| 28>    C        5.63126         2.99697         1.53516
| 29>    N        6.75617         3.14319         1.36202
| 30>    C        5.30010        -0.00441         1.53320
| 31>    C        5.82235        -1.32796         1.26641
| 32>    C        6.81511        -1.84004         2.09761
| 33>    C        7.32615        -3.11142         1.89249
| 34>    N        8.36295        -3.54835         2.79058
| 35>    O        8.45708        -2.97498         3.85409
| 36>    O        9.08926        -4.45623         2.43592
| 37>    C        6.88861        -3.91455         0.82078
| 38>    C        5.93222        -3.35695        -0.03757
| 39>    C        5.40730        -2.10321         0.17530
| 40>    C        7.36633        -5.26612         0.62663
| 41>    C        7.54117        -5.81665        -0.59141
| 42>    C        8.02751        -7.11645        -0.91805
| 43>    N        8.67160        -8.03545        -0.13173
| 44>    C        9.06924        -7.93216         1.25344
| 45>    C        7.97682        -8.43942         2.19304
| 46>    C        9.00477        -9.20151        -0.86051
| 47>    O        9.59252       -10.14275        -0.37644
| 48>    C        8.51038        -8.94909        -2.19724
| 49>    C        7.93324        -7.65829        -2.19802
| 50>    C        7.47496        -7.36469        -3.53737
| 51>    O        6.91926        -6.39789        -4.01474
| 52>    N        7.83680        -8.50793        -4.27718
| 53>    C        7.50317        -8.63104        -5.67509
| 54>    C        6.29265        -9.53500        -5.89518
| 55>    C        8.44507        -9.46146        -3.49094
| 56>    C        8.92499       -10.69910        -3.98291
| 57>    C        9.41287       -11.68404        -3.18447
| 58>    C        9.91962       -12.90438        -3.68761
| 59>    C       10.32808       -14.01551        -2.97770
| 60>    C       10.34124       -14.43674        -1.56796
| 61>    O        9.95921       -13.87970        -0.57468
| 62>    N       10.88353       -15.72578        -1.59692
| 63>    C       11.08231       -16.51827        -0.40891
| 64>    C       11.18106       -16.18324        -2.86551
| 65>    O       11.60911       -17.28470        -3.12152
| 66>    C       10.84526       -15.06266        -3.76539
| 67>    C       10.84771       -14.80283        -5.12101
| 68>    S       10.15292       -13.21501        -5.39800
| 69>    C       11.21039       -15.58685        -6.24354
| 70>    C       12.07903       -16.62503        -6.35990
| 71>    C       11.94477       -17.50369        -7.57361
| 72>    O       11.28676       -17.26214        -8.55592
| 73>    C       12.74010       -18.69029        -7.25345
| 74>    C       12.99907       -19.90651        -7.81309
| 75>    S       14.07283       -20.83262        -6.79219
| 76>    C       14.17064       -19.56065        -5.62877
| 77>    C       13.41468       -18.49560        -6.00290
| 78>    C       13.11192       -17.16904        -5.50070
| 79>    C       13.83372       -16.52922        -4.52995
| 80>    C       14.85508       -17.18567        -3.81188
| 81>    N       15.68694       -17.69907        -3.21194
| 82>    C       13.67839       -15.17618        -4.18486
| 83>    N       13.58723       -14.06988        -3.89098
| 84>   Cl       12.41698       -20.52877        -9.27640
| 85>    H        1.04607         3.53954         2.30060
| 86>    H        6.03432         0.71518         1.87567
| 87>    H        7.19061        -1.26096         2.92905
| 88>    H        5.57636        -3.94613        -0.86799
| 89>    H        4.68400        -1.70519        -0.51718
| 90>    H        7.59306        -5.82436         1.51970
| 91>    H        7.30470        -5.23610        -1.47499
| 92>    H        9.35447        -6.90264         1.47781
| 93>    H        9.95040        -8.57141         1.36363
| 94>    H        7.03499        -7.91994         2.02663
| 95>    H        8.28415        -8.29074         3.22427
| 96>    H        7.81519        -9.50181         2.02785
| 97>    H        8.37051        -9.00128        -6.22925
| 98>    H        7.27288        -7.61835        -6.01799
| 99>    H        6.48272       -10.53972        -5.52402
|100>    H        6.06363        -9.59102        -6.95563
|101>    H        5.42823        -9.13110        -5.37395
|102>    H        8.89863       -10.86080        -5.05319
|103>    H        9.43579       -11.57023        -2.10733
|104>    H       10.62079       -15.98871         0.42260
|105>    H       12.14836       -16.65027        -0.21724
|106>    H       10.62242       -17.49829        -0.53755
|107>    H       10.66682       -15.35889        -7.15748
|108>    H       14.76483       -19.69614        -4.74716
|109> *
|110>
|111>                          ****END OF INPUT****

CARTESIAN COORDINATES (ANGSTROEM)
---------------------------------
  C      2.076660    1.650560    1.830070
  C      1.036500    2.487490    2.094900
  S     -0.464660    1.638500    2.084800
  C      0.319590    0.121300    1.713660
  Cl    -0.567240   -1.309020    1.528110
  C      1.668430    0.295020    1.610130
  C      2.834560   -0.546920    1.327870
  O      2.853940   -1.733160    1.100670
  C      4.007330    0.383320    1.451940
  C      3.514630    1.737680    1.698110
  C      4.239220    2.895780    1.737470
  C      3.617300    4.142710    1.966680
  N      3.124010    5.160100    2.158190
  C      5.631260    2.996970    1.535160
  N      6.756170    3.143190    1.362020
  C      5.300100   -0.004410    1.533200
  C      5.822350   -1.327960    1.266410
  C      6.815110   -1.840040    2.097610
  C      7.326150   -3.111420    1.892490
  N      8.362950   -3.548350    2.790580
  O      8.457080   -2.974980    3.854090
  O      9.089260   -4.456230    2.435920
  C      6.888610   -3.914550    0.820780
  C      5.932220   -3.356950   -0.037570
  C      5.407300   -2.103210    0.175300
  C      7.366330   -5.266120    0.626630
  C      7.541170   -5.816650   -0.591410
  C      8.027510   -7.116450   -0.918050
  N      8.671600   -8.035450   -0.131730
  C      9.069240   -7.932160    1.253440
  C      7.976820   -8.439420    2.193040
  C      9.004770   -9.201510   -0.860510
  O      9.592520  -10.142750   -0.376440
  C      8.510380   -8.949090   -2.197240
  C      7.933240   -7.658290   -2.198020
  C      7.474960   -7.364690   -3.537370
  O      6.919260   -6.397890   -4.014740
  N      7.836800   -8.507930   -4.277180
  C      7.503170   -8.631040   -5.675090
  C      6.292650   -9.535000   -5.895180
  C      8.445070   -9.461460   -3.490940
  C      8.924990  -10.699100   -3.982910
  C      9.412870  -11.684040   -3.184470
  C      9.919620  -12.904380   -3.687610
  C     10.328080  -14.015510   -2.977700
  C     10.341240  -14.436740   -1.567960
  O      9.959210  -13.879700   -0.574680
  N     10.883530  -15.725780   -1.596920
  C     11.082310  -16.518270   -0.408910
  C     11.181060  -16.183240   -2.865510
  O     11.609110  -17.284700   -3.121520
  C     10.845260  -15.062660   -3.765390
  C     10.847710  -14.802830   -5.121010
  S     10.152920  -13.215010   -5.398000
  C     11.210390  -15.586850   -6.243540
  C     12.079030  -16.625030   -6.359900
  C     11.944770  -17.503690   -7.573610
  O     11.286760  -17.262140   -8.555920
  C     12.740100  -18.690290   -7.253450
  C     12.999070  -19.906510   -7.813090
  S     14.072830  -20.832620   -6.792190
  C     14.170640  -19.560650   -5.628770
  C     13.414680  -18.495600   -6.002900
  C     13.111920  -17.169040   -5.500700
  C     13.833720  -16.529220   -4.529950
  C     14.855080  -17.185670   -3.811880
  N     15.686940  -17.699070   -3.211940
  C     13.678390  -15.176180   -4.184860
  N     13.587230  -14.069880   -3.890980
  Cl    12.416980  -20.528770   -9.276400
  H      1.046070    3.539540    2.300600
  H      6.034320    0.715180    1.875670
  H      7.190610   -1.260960    2.929050
  H      5.576360   -3.946130   -0.867990
  H      4.684000   -1.705190   -0.517180
  H      7.593060   -5.824360    1.519700
  H      7.304700   -5.236100   -1.474990
  H      9.354470   -6.902640    1.477810
  H      9.950400   -8.571410    1.363630
  H      7.034990   -7.919940    2.026630
  H      8.284150   -8.290740    3.224270
  H      7.815190   -9.501810    2.027850
  H      8.370510   -9.001280   -6.229250
  H      7.272880   -7.618350   -6.017990
  H      6.482720  -10.539720   -5.524020
  H      6.063630   -9.591020   -6.955630
  H      5.428230   -9.131100   -5.373950
  H      8.898630  -10.860800   -5.053190
  H      9.435790  -11.570230   -2.107330
  H     10.620790  -15.988710    0.422600
  H     12.148360  -16.650270   -0.217240
  H     10.622420  -17.498290   -0.537550
  H     10.666820  -15.358890   -7.157480
  H     14.764830  -19.696140   -4.747160

 Total Charge           Charge          ....    0
 Multiplicity           Mult            ....    1
 Number of Electrons    NEL             ....  520
 Basis Dimension        Dim             .... 1120

ORBITAL ENERGIES
----------------

  NO   OCC          E(Eh)            E(eV)
   0   2.0000    -101.626203     -2765.3896
   1   2.0000    -101.616649     -2765.1296
   2   2.0000     -89.003448     -2421.9069
   3   2.0000     -88.991295     -2421.5762
   4   2.0000     -88.985046     -2421.4062
   5   2.0000     -19.255687      -523.9739
   6   2.0000     -19.254404      -523.9390
   7   2.0000     -19.233409      -523.3677
   8   2.0000     -19.222533      -523.0717
   9   2.0000     -19.220317      -523.0114
  10   2.0000     -19.214444      -522.8516
  11   2.0000     -19.195604      -522.3389
  12   2.0000     -19.191695      -522.2326
  13   2.0000     -14.661269      -398.9534
  14   2.0000     -14.461252      -393.5107
  15   2.0000     -14.456557      -393.3829
  16   2.0000     -14.456302      -393.3760
  17   2.0000     -14.429926      -392.6582
  18   2.0000     -14.429310      -392.6415
  19   2.0000     -14.422889      -392.4668
  20   2.0000     -14.418023      -392.3343
  21   2.0000     -10.401677      -283.0440
  22   2.0000     -10.397553      -282.9318
  23   2.0000     -10.390947      -282.7520
  24   2.0000     -10.386060      -282.6191
  25   2.0000     -10.377852      -282.3957
  26   2.0000     -10.376790      -282.3668
  27   2.0000     -10.376405      -282.3563
  28   2.0000     -10.375263      -282.3253
  29   2.0000     -10.359482      -281.8958
  30   2.0000     -10.358694      -281.8744
  31   2.0000     -10.346712      -281.5483
  32   2.0000     -10.345469      -281.5145
  33   2.0000     -10.344850      -281.4977
  34   2.0000     -10.344040      -281.4756
  35   2.0000     -10.343997      -281.4745
  36   2.0000     -10.343049      -281.4487
  37   2.0000     -10.341186      -281.3980
  38   2.0000     -10.339179      -281.3434
  39   2.0000     -10.334586      -281.2184
  40   2.0000     -10.331620      -281.1377
  41   2.0000     -10.330882      -281.1176
  42   2.0000     -10.328625      -281.0562
  43   2.0000     -10.327322      -281.0207
  44   2.0000     -10.325797      -280.9792
  45   2.0000     -10.322916      -280.9008
  46   2.0000     -10.322599      -280.8922
  47   2.0000     -10.320867      -280.8451
  48   2.0000     -10.319834      -280.8170
  49   2.0000     -10.315688      -280.7041
  50   2.0000     -10.315107      -280.6883
  51   2.0000     -10.312692      -280.6226
  52   2.0000     -10.312536      -280.6184
  53   2.0000     -10.310760      -280.5701
  54   2.0000     -10.310103      -280.5522
  55   2.0000     -10.310067      -280.5512
  56   2.0000     -10.309545      -280.5370
  57   2.0000     -10.306656      -280.4584
  58   2.0000     -10.305001      -280.4133
  59   2.0000     -10.304720      -280.4057
  60   2.0000     -10.304042      -280.3872
  61   2.0000     -10.303525      -280.3732
  62   2.0000     -10.302632      -280.3489
  63   2.0000     -10.301513      -280.3184
  64   2.0000     -10.300212      -280.2830
  65   2.0000     -10.299172      -280.2547
  66   2.0000     -10.268678      -279.4249
  67   2.0000     -10.266917      -279.3770
  68   2.0000     -10.264802      -279.3195
  69   2.0000     -10.260149      -279.1929
  70   2.0000      -9.580964      -260.7113
  71   2.0000      -9.571448      -260.4524
  72   2.0000      -8.099134      -220.3887
  73   2.0000      -8.086918      -220.0562
  74   2.0000      -8.080223      -219.8740
  75   2.0000      -7.351619      -200.0477
  76   2.0000      -7.342050      -199.7873
  77   2.0000      -7.341002      -199.7588
  78   2.0000      -7.340434      -199.7434
  79   2.0000      -7.331509      -199.5005
  80   2.0000      -7.330967      -199.4858
  81   2.0000      -6.068513      -165.1326
  82   2.0000      -6.063854      -165.0058
  83   2.0000      -6.061435      -164.9400
  84   2.0000      -6.056309      -164.8005
  85   2.0000      -6.051704      -164.6752
  86   2.0000      -6.049517      -164.6157
  87   2.0000      -6.049198      -164.6070
  88   2.0000      -6.045406      -164.5039
  89   2.0000      -6.042282      -164.4189
  90   2.0000      -1.336224       -36.3605
  91   2.0000      -1.164470       -31.6868
  92   2.0000      -1.154529       -31.4163
  93   2.0000      -1.151198       -31.3257
  94   2.0000      -1.140725       -31.0407
  95   2.0000      -1.139431       -31.0055
  96   2.0000      -1.136874       -30.9359
  97   2.0000      -1.129635       -30.7389
  98   2.0000      -1.066865       -29.0309
  99   2.0000      -1.058109       -28.7926
 100   2.0000      -1.055731       -28.7279
 101   2.0000      -1.048159       -28.5219
 102   2.0000      -1.036799       -28.2127
 103   2.0000      -1.027004       -27.9462
 104   2.0000      -1.019095       -27.7310
 105   2.0000      -1.010451       -27.4958
 106   2.0000      -1.008161       -27.4335
 107   2.0000      -1.005954       -27.3734
 108   2.0000      -0.998493       -27.1704
 109   2.0000      -0.997269       -27.1371
 110   2.0000      -0.987103       -26.8604
 111   2.0000      -0.965294       -26.2670
 112   2.0000      -0.953783       -25.9538
 113   2.0000      -0.938452       -25.5366
 114   2.0000      -0.934115       -25.4186
 115   2.0000      -0.927330       -25.2339
 116   2.0000      -0.917597       -24.9691
 117   2.0000      -0.914762       -24.8919
 118   2.0000      -0.911644       -24.8071
 119   2.0000      -0.901384       -24.5279
 120   2.0000      -0.892059       -24.2742
 121   2.0000      -0.885601       -24.0984
 122   2.0000      -0.874484       -23.7959
 123   2.0000      -0.859479       -23.3876
 124   2.0000      -0.848937       -23.1008
 125   2.0000      -0.842523       -22.9262
 126   2.0000      -0.831004       -22.6128
 127   2.0000      -0.822496       -22.3813
 128   2.0000      -0.819387       -22.2967
 129   2.0000      -0.804276       -21.8855
 130   2.0000      -0.801882       -21.8203
 131   2.0000      -0.800125       -21.7725
 132   2.0000      -0.785484       -21.3741
 133   2.0000      -0.772601       -21.0235
 134   2.0000      -0.764674       -20.8078
 135   2.0000      -0.762338       -20.7443
 136   2.0000      -0.756638       -20.5892
 137   2.0000      -0.743326       -20.2269
 138   2.0000      -0.735385       -20.0108
 139   2.0000      -0.716648       -19.5010
 140   2.0000      -0.712064       -19.3763
 141   2.0000      -0.709712       -19.3122
 142   2.0000      -0.701086       -19.0775
 143   2.0000      -0.695002       -18.9120
 144   2.0000      -0.692371       -18.8404
 145   2.0000      -0.687280       -18.7018
 146   2.0000      -0.686561       -18.6823
 147   2.0000      -0.684855       -18.6359
 148   2.0000      -0.679525       -18.4908
 149   2.0000      -0.674245       -18.3471
 150   2.0000      -0.661785       -18.0081
 151   2.0000      -0.652021       -17.7424
 152   2.0000      -0.645164       -17.5558
 153   2.0000      -0.642003       -17.4698
 154   2.0000      -0.637330       -17.3426
 155   2.0000      -0.625464       -17.0197
 156   2.0000      -0.621274       -16.9057
 157   2.0000      -0.618227       -16.8228
 158   2.0000      -0.615452       -16.7473
 159   2.0000      -0.612413       -16.6646
 160   2.0000      -0.608943       -16.5702
 161   2.0000      -0.604798       -16.4574
 162   2.0000      -0.596959       -16.2441
 163   2.0000      -0.591686       -16.1006
 164   2.0000      -0.590043       -16.0559
 165   2.0000      -0.585896       -15.9430
 166   2.0000      -0.581713       -15.8292
 167   2.0000      -0.573328       -15.6010
 168   2.0000      -0.572527       -15.5792
 169   2.0000      -0.568029       -15.4568
 170   2.0000      -0.563368       -15.3300
 171   2.0000      -0.561374       -15.2758
 172   2.0000      -0.556930       -15.1548
 173   2.0000      -0.552667       -15.0388
 174   2.0000      -0.551399       -15.0043
 175   2.0000      -0.548531       -14.9263
 176   2.0000      -0.546446       -14.8696
 177   2.0000      -0.545272       -14.8376
 178   2.0000      -0.541229       -14.7276
 179   2.0000      -0.540934       -14.7196
 180   2.0000      -0.536445       -14.5974
 181   2.0000      -0.533829       -14.5262
 182   2.0000      -0.532604       -14.4929
 183   2.0000      -0.530971       -14.4485
 184   2.0000      -0.524585       -14.2747
 185   2.0000      -0.523786       -14.2529
 186   2.0000      -0.522813       -14.2265
 187   2.0000      -0.519135       -14.1264
 188   2.0000      -0.517488       -14.0816
 189   2.0000      -0.515675       -14.0322
 190   2.0000      -0.514497       -14.0002
 191   2.0000      -0.509948       -13.8764
 192   2.0000      -0.508372       -13.8335
 193   2.0000      -0.506611       -13.7856
 194   2.0000      -0.504907       -13.7392
 195   2.0000      -0.500157       -13.6100
 196   2.0000      -0.498428       -13.5629
 197   2.0000      -0.496156       -13.5011
 198   2.0000      -0.492822       -13.4104
 199   2.0000      -0.491525       -13.3751
 200   2.0000      -0.489080       -13.3085
 201   2.0000      -0.486106       -13.2276
 202   2.0000      -0.479489       -13.0476
 203   2.0000      -0.477992       -13.0068
 204   2.0000      -0.477644       -12.9974
 205   2.0000      -0.475820       -12.9477
 206   2.0000      -0.473308       -12.8794
 207   2.0000      -0.469284       -12.7699
 208   2.0000      -0.465414       -12.6646
 209   2.0000      -0.463716       -12.6184
 210   2.0000      -0.461352       -12.5540
 211   2.0000      -0.461325       -12.5533
 212   2.0000      -0.458216       -12.4687
 213   2.0000      -0.456254       -12.4153
 214   2.0000      -0.454859       -12.3774
 215   2.0000      -0.454634       -12.3712
 216   2.0000      -0.454525       -12.3682
 217   2.0000      -0.453406       -12.3378
 218   2.0000      -0.452769       -12.3205
 219   2.0000      -0.447770       -12.1844
 220   2.0000      -0.444771       -12.1028
 221   2.0000      -0.442503       -12.0411
 222   2.0000      -0.442354       -12.0371
 223   2.0000      -0.441457       -12.0126
 224   2.0000      -0.440806       -11.9950
 225   2.0000      -0.437263       -11.8985
 226   2.0000      -0.434651       -11.8274
 227   2.0000      -0.431321       -11.7368
 228   2.0000      -0.429436       -11.6855
 229   2.0000      -0.427138       -11.6230
 230   2.0000      -0.423241       -11.5170
 231   2.0000      -0.421117       -11.4592
 232   2.0000      -0.418626       -11.3914
 233   2.0000      -0.412940       -11.2367
 234   2.0000      -0.412245       -11.2178
 235   2.0000      -0.404767       -11.0143
 236   2.0000      -0.402619       -10.9558
 237   2.0000      -0.395590       -10.7646
 238   2.0000      -0.392737       -10.6869
 239   2.0000      -0.389727       -10.6050
 240   2.0000      -0.380560       -10.3556
 241   2.0000      -0.369696       -10.0599
 242   2.0000      -0.365824        -9.9546
 243   2.0000      -0.365000        -9.9322
 244   2.0000      -0.361322        -9.8321
 245   2.0000      -0.352905        -9.6030
 246   2.0000      -0.351583        -9.5671
 247   2.0000      -0.350449        -9.5362
 248   2.0000      -0.346894        -9.4395
 249   2.0000      -0.345113        -9.3910
 250   2.0000      -0.342496        -9.3198
 251   2.0000      -0.337945        -9.1960
 252   2.0000      -0.334423        -9.1001
 253   2.0000      -0.330399        -8.9906
 254   2.0000      -0.326454        -8.8833
 255   2.0000      -0.318958        -8.6793
 256   2.0000      -0.311519        -8.4769
 257   2.0000      -0.310181        -8.4404
 258   2.0000      -0.298138        -8.1127
 259   2.0000      -0.242698        -6.6041
 260   0.0000      -0.112371        -3.0578
 261   0.0000      -0.101950        -2.7742
 262   0.0000      -0.082966        -2.2576
 263   0.0000      -0.063219        -1.7203
 264   0.0000      -0.058707        -1.5975

MULLIKEN ATOMIC CHARGES
-----------------------
   0 C :    0.032320
   1 C :   -0.126209
   2 S :    0.195120
   3 C :   -0.169163
   4 Cl:    0.005026
   5 C :    0.072869
   6 C :    0.144113
   7 O :   -0.124424
   8 C :   -0.090046
   9 C :    0.279877
  10 C :   -0.314088
  11 C :   -0.193822
  12 N :    0.161747
  13 C :   -0.198934
  14 N :    0.172645
  15 C :   -0.029567
  16 C :    0.061338
  17 C :   -0.055802
  18 C :    0.140751
  19 N :    0.252980
  20 O :   -0.225918
  21 O :   -0.238852
  22 C :    0.067415
  23 C :   -0.051686
  24 C :    0.111916
  25 C :    0.011033
  26 C :   -0.036288
  27 C :    0.103506
  28 N :   -0.261881
  29 C :    0.091480
  30 C :    0.002083
  31 C :    0.154587
  32 O :   -0.183108
  33 C :   -0.048845
  34 C :   -0.041675
  35 C :    0.145965
  36 O :   -0.197398
  37 N :   -0.263798
  38 C :    0.097851
  39 C :    0.001329
  40 C :    0.138839
  41 C :   -0.025736
  42 C :    0.010492
  43 C :   -0.108185
  44 C :    0.014448
  45 C :    0.189118
  46 O :   -0.132180
  47 N :   -0.308589
  48 C :    0.139218
  49 C :    0.186143
  50 O :   -0.167703
  51 C :    0.035785
  52 C :   -0.156067
  53 S :    0.156052
  54 C :    0.057210
  55 C :   -0.137543
  56 C :    0.123591
  57 O :   -0.129620
  58 C :    0.099584
  59 C :   -0.171350
  60 S :    0.182703
  61 C :   -0.125075
  62 C :    0.008451
  63 C :    0.332599
  64 C :   -0.305823
  65 C :   -0.184146
  66 N :    0.162474
  67 C :   -0.223813
  68 N :    0.178899
  69 Cl:   -0.001215
  70 H :    0.057133
  71 H :    0.041351
  72 H :    0.012051
  73 H :    0.008011
  74 H :    0.000245
  75 H :    0.014739
  76 H :    0.018371
  77 H :    0.044947
  78 H :    0.042252
  79 H :    0.014124
  80 H :    0.026788
  81 H :    0.032657
  82 H :    0.024701
  83 H :    0.044315
  84 H :    0.014436
  85 H :    0.025964
  86 H :    0.029483
  87 H :   -0.013719
  88 H :    0.046432
  89 H :    0.055235
  90 H :    0.045027
  91 H :    0.038737
  92 H :    0.029360
  93 H :    0.054355
Sum of atomic charges:   -0.0000000

LOEWDIN ATOMIC CHARGES
----------------------
   0 C :   -0.059972
   1 C :   -0.147234
   2 S :    0.483815
   3 C :   -0.270862
   4 Cl:    0.196194
   5 C :   -0.118179
   6 C :    0.081215
   7 O :   -0.122312
   8 C :   -0.079094
   9 C :    0.072925
  10 C :   -0.128527
  11 C :   -0.015539
  12 N :   -0.044191
  13 C :   -0.026125
  14 N :   -0.037564
  15 C :    0.078769
  16 C :   -0.037999
  17 C :    0.025308
  18 C :   -0.032951
  19 N :    0.288224
  20 O :   -0.193542
  21 O :   -0.197115
  22 C :    0.011575
  23 C :   -0.003674
  24 C :    0.047399
  25 C :    0.002187
  26 C :   -0.019233
  27 C :    0.076135
  28 N :    0.001961
  29 C :    0.035184
  30 C :   -0.062663
  31 C :    0.082471
  32 O :   -0.175471
  33 C :   -0.113258
  34 C :   -0.116484
  35 C :    0.077516
  36 O :   -0.201071
  37 N :   -0.005373
  38 C :    0.035997
  39 C :   -0.061306
  40 C :    0.072202
  41 C :   -0.033080
  42 C :    0.010428
  43 C :   -0.118538
  44 C :   -0.077412
  45 C :    0.091928
  46 O :   -0.138787
  47 N :   -0.033315
  48 C :    0.037823
  49 C :    0.084856
  50 O :   -0.160190
  51 C :   -0.065325
  52 C :   -0.144957
  53 S :    0.462254
  54 C :    0.032090
  55 C :   -0.062090
  56 C :    0.082962
  57 O :   -0.131201
  58 C :   -0.119259
  59 C :   -0.271797
  60 S :    0.474066
  61 C :   -0.149727
  62 C :   -0.050472
  63 C :    0.073809
  64 C :   -0.122731
  65 C :   -0.012968
  66 N :   -0.048950
  67 C :   -0.018903
  68 N :   -0.041566
  69 Cl:    0.191361
  70 H :    0.039081
  71 H :    0.049720
  72 H :    0.044497
  73 H :    0.042482
  74 H :    0.038545
  75 H :    0.031078
  76 H :    0.045691
  77 H :    0.029149
  78 H :    0.038273
  79 H :    0.018823
  80 H :    0.032623
  81 H :    0.033877
  82 H :    0.022716
  83 H :    0.038498
  84 H :    0.021451
  85 H :    0.031506
  86 H :    0.032403
  87 H :    0.024071
  88 H :    0.051897
  89 H :    0.039207
  90 H :    0.034677
  91 H :    0.033375
  92 H :    0.048250
  93 H :    0.038461

  Mayer bond orders larger than 0.100000
B(  0-C ,  1-C ) :   1.5409 B(  0-C ,  5-C ) :   1.2184 B(  0-C ,  9-C ) :   1.0092
B(  1-C ,  2-S ) :   1.1661 B(  1-C , 70-H ) :   0.9542 B(  2-S ,  3-C ) :   1.1556
B(  3-C ,  4-Cl) :   1.1332 B(  3-C ,  5-C ) :   1.4724 B(  5-C ,  6-C ) :   0.9554
B(  6-C ,  7-O ) :   2.2429 B(  6-C ,  8-C ) :   0.9194 B(  8-C ,  9-C ) :   1.0362
B(  8-C , 15-C ) :   1.7210 B(  9-C , 10-C ) :   1.6803 B( 10-C , 11-C ) :   1.1414
B( 10-C , 13-C ) :   1.1333 B( 11-C , 12-N ) :   2.9952 B( 13-C , 14-N ) :   2.9918
B( 15-C , 16-C ) :   1.0393 B( 15-C , 71-H ) :   0.9485 B( 16-C , 17-C ) :   1.2958
B( 16-C , 24-C ) :   1.3285 B( 17-C , 18-C ) :   1.3685 B( 17-C , 72-H ) :   0.9985
B( 18-C , 19-N ) :   0.8875 B( 18-C , 22-C ) :   1.3382 B( 19-N , 20-O ) :   1.5638
B( 19-N , 21-O ) :   1.5013 B( 20-O , 21-O ) :   0.2619 B( 22-C , 23-C ) :   1.3445
B( 22-C , 25-C ) :   1.0532 B( 23-C , 24-C ) :   1.4091 B( 23-C , 73-H ) :   0.9930
B( 24-C , 74-H ) :   0.9838 B( 25-C , 26-C ) :   1.6810 B( 25-C , 75-H ) :   0.9429
B( 26-C , 27-C ) :   1.1628 B( 26-C , 76-H ) :   0.9467 B( 27-C , 28-N ) :   1.1912
B( 27-C , 34-C ) :   1.3453 B( 28-N , 29-C ) :   0.9307 B( 28-N , 31-C ) :   1.0443
B( 29-C , 30-C ) :   1.1178 B( 29-C , 77-H ) :   0.9497 B( 29-C , 78-H ) :   0.9268
B( 30-C , 79-H ) :   0.9660 B( 30-C , 80-H ) :   0.9691 B( 30-C , 81-H ) :   0.9602
B( 31-C , 32-O ) :   2.0694 B( 31-C , 33-C ) :   0.9761 B( 33-C , 34-C ) :   1.2408
B( 33-C , 40-C ) :   1.3582 B( 34-C , 35-C ) :   0.9780 B( 35-C , 36-O ) :   2.1306
B( 35-C , 37-N ) :   1.0366 B( 37-N , 38-C ) :   0.9481 B( 37-N , 40-C ) :   1.1584
B( 38-C , 39-C ) :   1.1189 B( 38-C , 82-H ) :   0.9500 B( 38-C , 83-H ) :   0.9276
B( 39-C , 84-H ) :   0.9685 B( 39-C , 85-H ) :   0.9678 B( 39-C , 86-H ) :   0.9642
B( 40-C , 41-C ) :   1.1566 B( 41-C , 42-C ) :   1.5719 B( 41-C , 87-H ) :   0.9594
B( 42-C , 43-C ) :   1.1728 B( 42-C , 88-H ) :   0.9545 B( 43-C , 44-C ) :   1.4834
B( 43-C , 53-S ) :   1.1136 B( 44-C , 45-C ) :   0.8978 B( 44-C , 51-C ) :   1.2789
B( 45-C , 46-O ) :   2.2177 B( 45-C , 47-N ) :   1.0469 B( 47-N , 48-C ) :   0.9390
B( 47-N , 49-C ) :   1.1087 B( 48-C , 89-H ) :   0.9602 B( 48-C , 90-H ) :   0.9780
B( 48-C , 91-H ) :   0.9716 B( 49-C , 50-O ) :   2.1490 B( 49-C , 51-C ) :   0.8825
B( 51-C , 52-C ) :   1.4979 B( 52-C , 53-S ) :   1.1259 B( 52-C , 54-C ) :   1.1077
B( 54-C , 55-C ) :   1.7164 B( 54-C , 92-H ) :   0.9197 B( 55-C , 56-C ) :   0.9310
B( 55-C , 63-C ) :   1.0339 B( 56-C , 57-O ) :   2.2693 B( 56-C , 58-C ) :   0.9317
B( 58-C , 59-C ) :   1.4747 B( 58-C , 62-C ) :   1.2232 B( 59-C , 60-S ) :   1.1536
B( 59-C , 69-Cl) :   1.1278 B( 60-S , 61-C ) :   1.1528 B( 61-C , 62-C ) :   1.5614
B( 61-C , 93-H ) :   0.9536 B( 62-C , 63-C ) :   1.0092 B( 63-C , 64-C ) :   1.6589
B( 64-C , 65-C ) :   1.1367 B( 64-C , 67-C ) :   1.1683 B( 65-C , 66-N ) :   3.0036
B( 67-C , 68-N ) :   2.9985

-----------------------------------------------------------------------------
         ABSORPTION SPECTRUM VIA TRANSITION ELECTRIC DIPOLE MOMENTS
-----------------------------------------------------------------------------
State   Energy  Wavelength   fosc         T2         TX        TY        TZ
        (cm-1)    (nm)                  (au**2)     (au)      (au)      (au)
-----------------------------------------------------------------------------
   0   14012.7    713.6   1.053730078  24.75623   1.62630  -3.98209  -2.50086
   1   18789.4    532.2   0.023036406   0.40362  -0.04257  -0.55089  -0.31358
   2   21347.2    468.4   0.063566272   0.98030   0.83443  -0.35740   0.39535
   3   24132.2    414.4   0.040887079   0.55778   0.31903  -0.41286  -0.53437
   4   25044.6    399.3   0.304780191   4.00635   1.45154  -1.36340  -0.20131
   5   26009.4    384.5   0.006865889   0.08690   0.11805   0.18831   0.19367
   6   26401.5    378.8   0.300696551   3.74952   0.72190  -1.76960  -0.31131
   7   26531.8    376.9   0.192121937   2.38389  -0.55838   1.36002   0.47164
   8   27735.8    360.5   0.000739346   0.00878   0.02739   0.03228   0.08357
   9   28537.5    350.4   0.074811823   0.86304  -0.27840   0.84831  -0.25669
  10   28755.4    347.8   0.005220999   0.05977  -0.15304   0.11996  -0.14819
  11   29473.5    339.3   0.049555766   0.55353   0.38371  -0.24642   0.58785
  12   29555.5    338.3   0.178745154   1.99100  -0.06185  -1.32473  -0.48195
  13   29793.4    335.6   0.058649717   0.64807  -0.55513   0.58298  -0.00531
  14   30237.0    330.7   0.046063898   0.50153  -0.01616  -0.61929   0.34315
  15   30555.8    327.3   0.018633296   0.20076   0.10002   0.23185   0.37013
  16   30830.3    324.4   0.397386403   4.24337   1.16355  -1.61123  -0.54174
  17   31551.9    316.9   0.003745637   0.03908   0.05382  -0.03533  -0.18692
  18   31771.7    314.7   0.073754656   0.76423   0.04624  -0.61924   0.61533
  19   32630.2    306.5   0.024961619   0.25184  -0.05530   0.11827   0.48456
  20   32746.8    305.4   0.077569674   0.77983   0.12299  -0.72847   0.48377
  21   33550.4    298.1   0.042541101   0.41743   0.60092  -0.00219  -0.23732
  22   33674.8    297.0   0.007041554   0.06884   0.04323  -0.24320   0.08845
  23   34485.6    290.0   0.056069539   0.53526  -0.61232  -0.34111  -0.20968
  24   34654.7    288.6   0.056339057   0.53521  -0.51785   0.51672  -0.00634
  25   35014.8    285.6   0.023743359   0.22324   0.34178  -0.32026   0.06208
  26   35173.9    284.3   0.025005981   0.23404   0.20066  -0.35509  -0.26017
  27   35387.7    282.6   0.052438533   0.48784  -0.53479   0.44853  -0.02558
  28   35571.6    281.1   0.029561628   0.27359  -0.50342   0.14104   0.01620
  29   35748.8    279.7   0.025671346   0.23641  -0.36134   0.30726   0.10695
  30   35778.9    279.5   0.110763270   1.01916   0.22887   0.62962   0.75522
  31   36351.1    275.1   0.139685169   1.26505   0.51712  -0.97712  -0.20707
  32   36524.1    273.8   0.084395687   0.76071  -0.66596   0.07000  -0.55884
  33   36560.4    273.5   0.304863273   2.74517  -0.41224   1.57753   0.29432
  34   36988.9    270.4   0.340972177   3.03475  -0.39437  -0.81359  -1.48906
  35   37358.4    267.7   0.445080385   3.92216  -1.65983  -1.01073   0.38154
  36   37641.6    265.7   0.059003901   0.51605  -0.55531  -0.45272   0.05218
  37   37916.5    263.7   0.036294805   0.31513   0.32263   0.10116   0.44812
  38   38093.5    262.5   0.129630932   1.12030   0.37207   0.90589   0.40152
  39   38214.5    261.7   0.145860090   1.25656   1.04306   0.39382   0.11621
  40   38261.5    261.4   0.089590374   0.77086  -0.08580  -0.87370  -0.01173
  41   38362.5    260.7   0.083821730   0.71932  -0.44630  -0.29099  -0.65990
  42   39121.9    255.6   0.009965904   0.08386  -0.00809  -0.20377  -0.20561
  43   39347.4    254.1   0.054036961   0.45212   0.49716   0.21514  -0.39833
  44   39497.5    253.2   0.028023269   0.23357   0.32349  -0.34913   0.08390
  45   40097.7    249.4   0.049329415   0.40501   0.32338  -0.51320  -0.19252
  46   40174.7    248.9   0.011526536   0.09445   0.16341   0.09763  -0.24129
  47   40288.5    248.2   0.099844467   0.81587  -0.79466  -0.11449  -0.41385

FINAL SINGLE POINT ENERGY     -5032.018173114998

DIPOLE MOMENT
-------------
                                X             Y             Z
Electronic contribution:     -4.69587      -9.94358     -17.76964
Nuclear contribution   :      1.62065       9.12439      16.95407
                        -----------------------------------------
Total Dipole Moment    :     -3.07522      -0.81919      -0.81557
                        -----------------------------------------
Magnitude (a.u.)       :      3.28530
Magnitude (Debye)      :      8.35058

Rotational constants in cm-1:     0.002709     0.000197     0.000192
Rotational constants in MHz :    81.209356     5.902275     5.753086

                             ****ORCA TERMINATED NORMALLY****
TOTAL RUN TIME: 0 days 0 hours 9 minutes 36 seconds 430 msec
