                         Program Version 4.2.0 -  RELEASE  -
|  1> # ORCA input file
|  2> # SCF done       -182.234599739777          0.000606827182
|  3> ! CAM-B3LYP def2-SVP def2/J RIJCOSX Grid4 TightSCF
|  4> %maxcore 5000
|  5> %tddft
|  6>     Mode sTDDFT
|  7>     Ethresh 5.0
|  8>     maxcore 5000
|  9> end
| 10>
| 11> %pal
| 12>   nprocs 6
| 13>   end
| 14> * xyz 0 1
| 15>    C        9.96061        -0.19716         4.46852
| 16>    C       10.91157         0.22526         5.34356
| 17>    S       12.47047        -0.37794         4.91002
| 18>    C       11.82973        -1.22299         3.52102
| 19>   Cl       12.82956        -2.13485         2.50271
| 20>    C       10.48429        -1.02631         3.42316
| 21>    C        9.39888        -1.44428         2.53340
| 22>    O        9.47222        -2.17136         1.56335
| 23>    C        8.19036        -0.76555         3.05558
| 24>    C        8.52656        -0.07380         4.29298
| 25>    C        7.67544         0.51820         5.18460
| 26>    C        8.16683         1.16300         6.33988
| 27>    N        8.55742         1.69749         7.27685
| 28>    C        6.26548         0.50587         5.12017
| 29>    N        5.11956         0.49357         5.17696
| 30>    C        6.98721        -0.66711         2.42154
| 31>    C        6.52819        -1.30087         1.24551
| 32>    S        7.32086        -2.62664         0.43805
| 33>    C        5.29914        -1.00760         0.64371
| 34>    C        4.40525         0.09705         1.05781
| 35>    O        4.72780         0.98080         1.83277
| 36>    C        3.10987         0.03477         0.40376
| 37>    C        1.99438         0.81829         0.60561
| 38>    N        1.01613         0.40209        -0.23223
| 39>    C       -0.28190         1.01666        -0.35646
| 40>    C       -0.23770         2.19820        -1.32302
| 41>    C        1.47237        -0.62393        -0.98790
| 42>    C        2.77368        -0.89525        -0.62250
| 43>    C        3.69256        -1.89700        -1.13047
| 44>    O        3.42311        -2.69881        -2.00857
| 45>    C        4.99657        -1.86786        -0.43690
| 46>    C        6.00810        -2.78878        -0.66758
| 47>    C        6.08425        -3.85736        -1.62982
| 48>    N        6.03239        -3.74254        -2.99013
| 49>    C        5.92868        -2.52883        -3.76144
| 50>    C        7.13404        -1.61608        -3.55986
| 51>    C        6.20781        -4.99373        -3.61800
| 52>    O        6.21640        -5.14081        -4.82487
| 53>    C        6.37095        -5.92643        -2.52820
| 54>    C        6.30618        -5.18612        -1.31737
| 55>    C        6.45530        -6.10611        -0.21092
| 56>    O        6.45491        -5.94645         0.98994
| 57>    N        6.63374        -7.35725        -0.83565
| 58>    C        6.78256        -8.56396        -0.05911
| 59>    C        5.48751        -9.37099        -0.00782
| 60>    C        6.58558        -7.26443        -2.20832
| 61>    C        6.78371        -8.36376        -3.08064
| 62>    C        6.73879        -8.23839        -4.43462
| 63>    C        7.00148        -9.30372        -5.27211
| 64>    C        7.27864       -10.25166        -5.99214
| 65>    C        7.62933       -11.28462        -6.76085
| 66>    C        8.00517       -12.27543        -7.37319
| 67>    C        8.40141       -13.32009        -8.17113
| 68>    C        8.61235       -14.62328        -7.82489
| 69>    C        8.82501       -15.61234        -8.92365
| 70>    O        9.00316       -15.35483       -10.09141
| 71>    C        8.72893       -16.92059        -8.26786
| 72>    C        8.76951       -18.23143        -8.63487
| 73>    S        8.55432       -19.26459        -7.24078
| 74>    C        8.41821       -17.90916        -6.17986
| 75>    C        8.52895       -16.73694        -6.86007
| 76>    C        8.54079       -15.31519        -6.55417
| 77>    C        8.57681       -14.81015        -5.28047
| 78>    C        8.44815       -15.65820        -4.15909
| 79>    N        8.32718       -16.32304        -3.23150
| 80>    C        8.83082       -13.48139        -4.89260
| 81>    N        9.09689       -12.45050        -4.46254
| 82>   Cl        8.99352       -18.87841       -10.18482
| 83>    H       10.81129         0.84988         6.20885
| 84>    H        6.25828         0.01512         2.84805
| 85>    H        1.84912         1.62000         1.30201
| 86>    H       -0.60249         1.35490         0.63216
| 87>    H       -0.98862         0.26461        -0.71536
| 88>    H        0.46489         2.94947        -0.97083
| 89>    H       -1.22200         2.65067        -1.40092
| 90>    H        0.07446         1.86878        -2.31112
| 91>    H        0.86191        -1.10448        -1.72660
| 92>    H        5.00062        -2.01364        -3.50530
| 93>    H        5.87313        -2.85165        -4.80501
| 94>    H        7.19305        -1.26348        -2.53245
| 95>    H        7.05083        -0.75405        -4.21591
| 96>    H        8.05320        -2.14647        -3.79861
| 97>    H        7.05255        -8.23913         0.94973
| 98>    H        7.59996        -9.16604        -0.46602
| 99>    H        4.69368        -8.77129         0.43097
|100>    H        5.63156       -10.25788         0.60292
|101>    H        5.17844        -9.67945        -1.00421
|102>    H        7.00670        -9.32969        -2.64917
|103>    H        6.51641        -7.28274        -4.89586
|104>    H        8.51973       -13.09978        -9.23029
|105>    H        8.26148       -18.07866        -5.13329
|106> *
|107>
|108>                          ****END OF INPUT****

CARTESIAN COORDINATES (ANGSTROEM)
---------------------------------
  C      9.960610   -0.197160    4.468520
  C     10.911570    0.225260    5.343560
  S     12.470470   -0.377940    4.910020
  C     11.829730   -1.222990    3.521020
  Cl    12.829560   -2.134850    2.502710
  C     10.484290   -1.026310    3.423160
  C      9.398880   -1.444280    2.533400
  O      9.472220   -2.171360    1.563350
  C      8.190360   -0.765550    3.055580
  C      8.526560   -0.073800    4.292980
  C      7.675440    0.518200    5.184600
  C      8.166830    1.163000    6.339880
  N      8.557420    1.697490    7.276850
  C      6.265480    0.505870    5.120170
  N      5.119560    0.493570    5.176960
  C      6.987210   -0.667110    2.421540
  C      6.528190   -1.300870    1.245510
  S      7.320860   -2.626640    0.438050
  C      5.299140   -1.007600    0.643710
  C      4.405250    0.097050    1.057810
  O      4.727800    0.980800    1.832770
  C      3.109870    0.034770    0.403760
  C      1.994380    0.818290    0.605610
  N      1.016130    0.402090   -0.232230
  C     -0.281900    1.016660   -0.356460
  C     -0.237700    2.198200   -1.323020
  C      1.472370   -0.623930   -0.987900
  C      2.773680   -0.895250   -0.622500
  C      3.692560   -1.897000   -1.130470
  O      3.423110   -2.698810   -2.008570
  C      4.996570   -1.867860   -0.436900
  C      6.008100   -2.788780   -0.667580
  C      6.084250   -3.857360   -1.629820
  N      6.032390   -3.742540   -2.990130
  C      5.928680   -2.528830   -3.761440
  C      7.134040   -1.616080   -3.559860
  C      6.207810   -4.993730   -3.618000
  O      6.216400   -5.140810   -4.824870
  C      6.370950   -5.926430   -2.528200
  C      6.306180   -5.186120   -1.317370
  C      6.455300   -6.106110   -0.210920
  O      6.454910   -5.946450    0.989940
  N      6.633740   -7.357250   -0.835650
  C      6.782560   -8.563960   -0.059110
  C      5.487510   -9.370990   -0.007820
  C      6.585580   -7.264430   -2.208320
  C      6.783710   -8.363760   -3.080640
  C      6.738790   -8.238390   -4.434620
  C      7.001480   -9.303720   -5.272110
  C      7.278640  -10.251660   -5.992140
  C      7.629330  -11.284620   -6.760850
  C      8.005170  -12.275430   -7.373190
  C      8.401410  -13.320090   -8.171130
  C      8.612350  -14.623280   -7.824890
  C      8.825010  -15.612340   -8.923650
  O      9.003160  -15.354830  -10.091410
  C      8.728930  -16.920590   -8.267860
  C      8.769510  -18.231430   -8.634870
  S      8.554320  -19.264590   -7.240780
  C      8.418210  -17.909160   -6.179860
  C      8.528950  -16.736940   -6.860070
  C      8.540790  -15.315190   -6.554170
  C      8.576810  -14.810150   -5.280470
  C      8.448150  -15.658200   -4.159090
  N      8.327180  -16.323040   -3.231500
  C      8.830820  -13.481390   -4.892600
  N      9.096890  -12.450500   -4.462540
  Cl     8.993520  -18.878410  -10.184820
  H     10.811290    0.849880    6.208850
  H      6.258280    0.015120    2.848050
  H      1.849120    1.620000    1.302010
  H     -0.602490    1.354900    0.632160
  H     -0.988620    0.264610   -0.715360
  H      0.464890    2.949470   -0.970830
  H     -1.222000    2.650670   -1.400920
  H      0.074460    1.868780   -2.311120
  H      0.861910   -1.104480   -1.726600
  H      5.000620   -2.013640   -3.505300
  H      5.873130   -2.851650   -4.805010
  H      7.193050   -1.263480   -2.532450
  H      7.050830   -0.754050   -4.215910
  H      8.053200   -2.146470   -3.798610
  H      7.052550   -8.239130    0.949730
  H      7.599960   -9.166040   -0.466020
  H      4.693680   -8.771290    0.430970
  H      5.631560  -10.257880    0.602920
  H      5.178440   -9.679450   -1.004210
  H      7.006700   -9.329690   -2.649170
  H      6.516410   -7.282740   -4.895860
  H      8.519730  -13.099780   -9.230290
  H      8.261480  -18.078660   -5.133290

 Total Charge           Charge          ....    0
 Multiplicity           Mult            ....    1
 Number of Electrons    NEL             ....  502
 Basis Dimension        Dim             .... 1087

ORBITAL ENERGIES
----------------

  NO   OCC          E(Eh)            E(eV)
   0   2.0000    -101.616743     -2765.1321
   1   2.0000    -101.616460     -2765.1244
   2   2.0000     -88.992286     -2421.6032
   3   2.0000     -88.992137     -2421.5992
   4   2.0000     -88.981215     -2421.3020
   5   2.0000     -19.226885      -523.1901
   6   2.0000     -19.220226      -523.0090
   7   2.0000     -19.211232      -522.7642
   8   2.0000     -19.209017      -522.7039
   9   2.0000     -19.194288      -522.3031
  10   2.0000     -19.186872      -522.1013
  11   2.0000     -14.493976      -394.4011
  12   2.0000     -14.453729      -393.3060
  13   2.0000     -14.452352      -393.2685
  14   2.0000     -14.420947      -392.4139
  15   2.0000     -14.416947      -392.3051
  16   2.0000     -14.414366      -392.2348
  17   2.0000     -14.413232      -392.2040
  18   2.0000     -10.380547      -282.4690
  19   2.0000     -10.375640      -282.3355
  20   2.0000     -10.375576      -282.3338
  21   2.0000     -10.375492      -282.3315
  22   2.0000     -10.375424      -282.3296
  23   2.0000     -10.373421      -282.2751
  24   2.0000     -10.370520      -282.1962
  25   2.0000     -10.368103      -282.1304
  26   2.0000     -10.349853      -281.6338
  27   2.0000     -10.348919      -281.6084
  28   2.0000     -10.346752      -281.5494
  29   2.0000     -10.345253      -281.5086
  30   2.0000     -10.344651      -281.4923
  31   2.0000     -10.343195      -281.4526
  32   2.0000     -10.337538      -281.2987
  33   2.0000     -10.332761      -281.1687
  34   2.0000     -10.329531      -281.0808
  35   2.0000     -10.328725      -281.0589
  36   2.0000     -10.327808      -281.0339
  37   2.0000     -10.327781      -281.0332
  38   2.0000     -10.322649      -280.8935
  39   2.0000     -10.320984      -280.8483
  40   2.0000     -10.319395      -280.8050
  41   2.0000     -10.318958      -280.7931
  42   2.0000     -10.318413      -280.7783
  43   2.0000     -10.317126      -280.7433
  44   2.0000     -10.314782      -280.6795
  45   2.0000     -10.313131      -280.6346
  46   2.0000     -10.312511      -280.6177
  47   2.0000     -10.311119      -280.5798
  48   2.0000     -10.311078      -280.5787
  49   2.0000     -10.306373      -280.4507
  50   2.0000     -10.305984      -280.4401
  51   2.0000     -10.305980      -280.4400
  52   2.0000     -10.305455      -280.4257
  53   2.0000     -10.305132      -280.4169
  54   2.0000     -10.302302      -280.3399
  55   2.0000     -10.299776      -280.2712
  56   2.0000     -10.299427      -280.2617
  57   2.0000     -10.299387      -280.2606
  58   2.0000     -10.299097      -280.2527
  59   2.0000     -10.297917      -280.2206
  60   2.0000     -10.296378      -280.1787
  61   2.0000     -10.285629      -279.8862
  62   2.0000     -10.276193      -279.6294
  63   2.0000     -10.275927      -279.6222
  64   2.0000     -10.265149      -279.3289
  65   2.0000     -10.264247      -279.3044
  66   2.0000     -10.261435      -279.2278
  67   2.0000     -10.258859      -279.1577
  68   2.0000      -9.571477      -260.4531
  69   2.0000      -9.571232      -260.4465
  70   2.0000      -8.087936      -220.0839
  71   2.0000      -8.087821      -220.0808
  72   2.0000      -8.074340      -219.7140
  73   2.0000      -7.342075      -199.7880
  74   2.0000      -7.341874      -199.7826
  75   2.0000      -7.331540      -199.5014
  76   2.0000      -7.331262      -199.4938
  77   2.0000      -7.331014      -199.4870
  78   2.0000      -7.330735      -199.4794
  79   2.0000      -6.057338      -164.8285
  80   2.0000      -6.057232      -164.8257
  81   2.0000      -6.052717      -164.7028
  82   2.0000      -6.052593      -164.6994
  83   2.0000      -6.050186      -164.6339
  84   2.0000      -6.050062      -164.6306
  85   2.0000      -6.043525      -164.4527
  86   2.0000      -6.038853      -164.3255
  87   2.0000      -6.037074      -164.2771
  88   2.0000      -1.144050       -31.1312
  89   2.0000      -1.136256       -30.9191
  90   2.0000      -1.134151       -30.8618
  91   2.0000      -1.129490       -30.7350
  92   2.0000      -1.126102       -30.6428
  93   2.0000      -1.124570       -30.6011
  94   2.0000      -1.114112       -30.3165
  95   2.0000      -1.065041       -28.9812
  96   2.0000      -1.056090       -28.7377
  97   2.0000      -1.037286       -28.2260
  98   2.0000      -1.037106       -28.2211
  99   2.0000      -1.016065       -27.6485
 100   2.0000      -1.013493       -27.5785
 101   2.0000      -1.006966       -27.4009
 102   2.0000      -0.995524       -27.0896
 103   2.0000      -0.993150       -27.0250
 104   2.0000      -0.987523       -26.8719
 105   2.0000      -0.986320       -26.8391
 106   2.0000      -0.954467       -25.9724
 107   2.0000      -0.953421       -25.9439
 108   2.0000      -0.943689       -25.6791
 109   2.0000      -0.931604       -25.3502
 110   2.0000      -0.924297       -25.1514
 111   2.0000      -0.917079       -24.9550
 112   2.0000      -0.910771       -24.7833
 113   2.0000      -0.902422       -24.5561
 114   2.0000      -0.899322       -24.4718
 115   2.0000      -0.892932       -24.2979
 116   2.0000      -0.880458       -23.9585
 117   2.0000      -0.869591       -23.6628
 118   2.0000      -0.853620       -23.2282
 119   2.0000      -0.847021       -23.0486
 120   2.0000      -0.841888       -22.9089
 121   2.0000      -0.841118       -22.8880
 122   2.0000      -0.831905       -22.6373
 123   2.0000      -0.831102       -22.6154
 124   2.0000      -0.818329       -22.2679
 125   2.0000      -0.812600       -22.1120
 126   2.0000      -0.801871       -21.8200
 127   2.0000      -0.785965       -21.3872
 128   2.0000      -0.780242       -21.2315
 129   2.0000      -0.771326       -20.9888
 130   2.0000      -0.758746       -20.6465
 131   2.0000      -0.755791       -20.5661
 132   2.0000      -0.754578       -20.5331
 133   2.0000      -0.745843       -20.2954
 134   2.0000      -0.723621       -19.6907
 135   2.0000      -0.712185       -19.3795
 136   2.0000      -0.707094       -19.2410
 137   2.0000      -0.702366       -19.1124
 138   2.0000      -0.698379       -19.0039
 139   2.0000      -0.691717       -18.8226
 140   2.0000      -0.684439       -18.6245
 141   2.0000      -0.677961       -18.4483
 142   2.0000      -0.675888       -18.3918
 143   2.0000      -0.675070       -18.3696
 144   2.0000      -0.674340       -18.3497
 145   2.0000      -0.659893       -17.9566
 146   2.0000      -0.656547       -17.8655
 147   2.0000      -0.647289       -17.6136
 148   2.0000      -0.633417       -17.2362
 149   2.0000      -0.627641       -17.0790
 150   2.0000      -0.619701       -16.8629
 151   2.0000      -0.617397       -16.8002
 152   2.0000      -0.615454       -16.7473
 153   2.0000      -0.613800       -16.7023
 154   2.0000      -0.605117       -16.4661
 155   2.0000      -0.602169       -16.3859
 156   2.0000      -0.589464       -16.0401
 157   2.0000      -0.580198       -15.7880
 158   2.0000      -0.577166       -15.7055
 159   2.0000      -0.573598       -15.6084
 160   2.0000      -0.570612       -15.5271
 161   2.0000      -0.565383       -15.3849
 162   2.0000      -0.560454       -15.2507
 163   2.0000      -0.559364       -15.2211
 164   2.0000      -0.558508       -15.1978
 165   2.0000      -0.556605       -15.1460
 166   2.0000      -0.550449       -14.9785
 167   2.0000      -0.547565       -14.9000
 168   2.0000      -0.545993       -14.8572
 169   2.0000      -0.542028       -14.7493
 170   2.0000      -0.534775       -14.5520
 171   2.0000      -0.533121       -14.5069
 172   2.0000      -0.531712       -14.4686
 173   2.0000      -0.530193       -14.4273
 174   2.0000      -0.528766       -14.3885
 175   2.0000      -0.527198       -14.3458
 176   2.0000      -0.525205       -14.2915
 177   2.0000      -0.524270       -14.2661
 178   2.0000      -0.521843       -14.2001
 179   2.0000      -0.517959       -14.0944
 180   2.0000      -0.514218       -13.9926
 181   2.0000      -0.510528       -13.8922
 182   2.0000      -0.509979       -13.8772
 183   2.0000      -0.505599       -13.7580
 184   2.0000      -0.504763       -13.7353
 185   2.0000      -0.504405       -13.7256
 186   2.0000      -0.502138       -13.6639
 187   2.0000      -0.500918       -13.6307
 188   2.0000      -0.498808       -13.5733
 189   2.0000      -0.494124       -13.4458
 190   2.0000      -0.493829       -13.4378
 191   2.0000      -0.490913       -13.3584
 192   2.0000      -0.489119       -13.3096
 193   2.0000      -0.482895       -13.1402
 194   2.0000      -0.482389       -13.1265
 195   2.0000      -0.481066       -13.0905
 196   2.0000      -0.476409       -12.9637
 197   2.0000      -0.470160       -12.7937
 198   2.0000      -0.467327       -12.7166
 199   2.0000      -0.466165       -12.6850
 200   2.0000      -0.464404       -12.6371
 201   2.0000      -0.459272       -12.4974
 202   2.0000      -0.456031       -12.4092
 203   2.0000      -0.455068       -12.3830
 204   2.0000      -0.453508       -12.3406
 205   2.0000      -0.453224       -12.3328
 206   2.0000      -0.451413       -12.2836
 207   2.0000      -0.450435       -12.2570
 208   2.0000      -0.449676       -12.2363
 209   2.0000      -0.448350       -12.2002
 210   2.0000      -0.446265       -12.1435
 211   2.0000      -0.444525       -12.0961
 212   2.0000      -0.443765       -12.0755
 213   2.0000      -0.441613       -12.0169
 214   2.0000      -0.441044       -12.0014
 215   2.0000      -0.438777       -11.9397
 216   2.0000      -0.436546       -11.8790
 217   2.0000      -0.430474       -11.7138
 218   2.0000      -0.427677       -11.6377
 219   2.0000      -0.426961       -11.6182
 220   2.0000      -0.424556       -11.5528
 221   2.0000      -0.423065       -11.5122
 222   2.0000      -0.421936       -11.4815
 223   2.0000      -0.412904       -11.2357
 224   2.0000      -0.412264       -11.2183
 225   2.0000      -0.408835       -11.1250
 226   2.0000      -0.406063       -11.0495
 227   2.0000      -0.403886       -10.9903
 228   2.0000      -0.402425       -10.9505
 229   2.0000      -0.401538       -10.9264
 230   2.0000      -0.390603       -10.6288
 231   2.0000      -0.373474       -10.1627
 232   2.0000      -0.354498        -9.6464
 233   2.0000      -0.353472        -9.6185
 234   2.0000      -0.348415        -9.4809
 235   2.0000      -0.346090        -9.4176
 236   2.0000      -0.341376        -9.2893
 237   2.0000      -0.340334        -9.2610
 238   2.0000      -0.335997        -9.1429
 239   2.0000      -0.334212        -9.0944
 240   2.0000      -0.333677        -9.0798
 241   2.0000      -0.332271        -9.0415
 242   2.0000      -0.325758        -8.8643
 243   2.0000      -0.317322        -8.6348
 244   2.0000      -0.315920        -8.5966
 245   2.0000      -0.314625        -8.5614
 246   2.0000      -0.313679        -8.5356
 247   2.0000      -0.310013        -8.4359
 248   2.0000      -0.295541        -8.0421
 249   2.0000      -0.292798        -7.9674
 250   2.0000      -0.245115        -6.6699
 251   0.0000      -0.112915        -3.0726
 252   0.0000      -0.099643        -2.7114
 253   0.0000      -0.074144        -2.0176
 254   0.0000      -0.054908        -1.4941
 255   0.0000      -0.051179        -1.3927

MULLIKEN ATOMIC CHARGES
-----------------------
   0 C :    0.031277
   1 C :   -0.131431
   2 S :    0.185356
   3 C :   -0.169115
   4 Cl:    0.000882
   5 C :    0.078036
   6 C :    0.170308
   7 O :   -0.159739
   8 C :   -0.098114
   9 C :    0.288850
  10 C :   -0.313628
  11 C :   -0.196767
  12 N :    0.153357
  13 C :   -0.200594
  14 N :    0.174732
  15 C :   -0.048862
  16 C :   -0.119464
  17 S :    0.302543
  18 C :   -0.003960
  19 C :    0.145275
  20 O :   -0.160399
  21 C :   -0.010574
  22 C :    0.016515
  23 N :   -0.134476
  24 C :    0.089705
  25 C :    0.003573
  26 C :    0.013770
  27 C :   -0.019359
  28 C :    0.120616
  29 O :   -0.164397
  30 C :    0.098868
  31 C :   -0.284621
  32 C :    0.125646
  33 N :   -0.234172
  34 C :    0.110744
  35 C :   -0.009083
  36 C :    0.179735
  37 O :   -0.203237
  38 C :   -0.069428
  39 C :   -0.028343
  40 C :    0.143944
  41 O :   -0.184850
  42 N :   -0.270170
  43 C :    0.095369
  44 C :    0.004277
  45 C :    0.135926
  46 C :   -0.013671
  47 C :   -0.101004
  48 C :    0.073936
  49 C :    0.008227
  50 C :    0.030188
  51 C :    0.052777
  52 C :   -0.063722
  53 C :   -0.130318
  54 C :    0.130290
  55 O :   -0.128143
  56 C :    0.088556
  57 C :   -0.171228
  58 S :    0.184390
  59 C :   -0.131451
  60 C :    0.014306
  61 C :    0.303058
  62 C :   -0.317292
  63 C :   -0.201973
  64 N :    0.152229
  65 C :   -0.197149
  66 N :    0.183700
  67 Cl:   -0.000569
  68 H :    0.054234
  69 H :    0.055923
  70 H :    0.015461
  71 H :    0.037406
  72 H :    0.034983
  73 H :    0.031246
  74 H :    0.032831
  75 H :    0.029135
  76 H :    0.010491
  77 H :    0.034211
  78 H :    0.042040
  79 H :    0.023295
  80 H :    0.021466
  81 H :    0.022926
  82 H :    0.044684
  83 H :    0.029918
  84 H :    0.029260
  85 H :    0.026838
  86 H :    0.015163
  87 H :    0.009935
  88 H :    0.067775
  89 H :    0.057073
  90 H :    0.054045
Sum of atomic charges:   -0.0000000

LOEWDIN ATOMIC CHARGES
----------------------
   0 C :   -0.057166
   1 C :   -0.148993
   2 S :    0.474540
   3 C :   -0.271824
   4 Cl:    0.192646
   5 C :   -0.116484
   6 C :    0.082796
   7 O :   -0.152674
   8 C :   -0.089865
   9 C :    0.073020
  10 C :   -0.128653
  11 C :   -0.013861
  12 N :   -0.052459
  13 C :   -0.028278
  14 N :   -0.034795
  15 C :    0.062336
  16 C :   -0.159805
  17 S :    0.588644
  18 C :   -0.053042
  19 C :    0.083200
  20 O :   -0.149085
  21 C :   -0.101417
  22 C :    0.038083
  23 N :    0.091564
  24 C :    0.044835
  25 C :   -0.056540
  26 C :    0.034793
  27 C :   -0.104160
  28 C :    0.078456
  29 O :   -0.157953
  30 C :   -0.084953
  31 C :   -0.146547
  32 C :    0.056426
  33 N :    0.018282
  34 C :    0.035056
  35 C :   -0.062907
  36 C :    0.086208
  37 O :   -0.189157
  38 C :   -0.112372
  39 C :   -0.116516
  40 C :    0.078759
  41 O :   -0.190407
  42 N :   -0.004921
  43 C :    0.036281
  44 C :   -0.060547
  45 C :    0.075250
  46 C :    0.000489
  47 C :    0.000457
  48 C :    0.038331
  49 C :   -0.042088
  50 C :    0.017430
  51 C :   -0.021801
  52 C :    0.049594
  53 C :   -0.068813
  54 C :    0.078968
  55 O :   -0.132302
  56 C :   -0.118735
  57 C :   -0.271447
  58 S :    0.473752
  59 C :   -0.152538
  60 C :   -0.056399
  61 C :    0.066006
  62 C :   -0.123741
  63 C :   -0.012997
  64 N :   -0.050817
  65 C :   -0.019582
  66 N :   -0.039319
  67 Cl:    0.191429
  68 H :    0.037953
  69 H :    0.053224
  70 H :    0.032978
  71 H :    0.035349
  72 H :    0.034585
  73 H :    0.030838
  74 H :    0.034297
  75 H :    0.030403
  76 H :    0.031143
  77 H :    0.023601
  78 H :    0.036337
  79 H :    0.020317
  80 H :    0.031043
  81 H :    0.028302
  82 H :    0.038516
  83 H :    0.025235
  84 H :    0.032225
  85 H :    0.032199
  86 H :    0.021996
  87 H :    0.042061
  88 H :    0.053601
  89 H :    0.065051
  90 H :    0.037081

  Mayer bond orders larger than 0.100000
B(  0-C ,  1-C ) :   1.5519 B(  0-C ,  5-C ) :   1.2251 B(  0-C ,  9-C ) :   0.9954
B(  1-C ,  2-S ) :   1.1583 B(  1-C , 68-H ) :   0.9540 B(  2-S ,  3-C ) :   1.1512
B(  3-C ,  4-Cl) :   1.1289 B(  3-C ,  5-C ) :   1.4738 B(  5-C ,  6-C ) :   0.9671
B(  6-C ,  7-O ) :   2.1572 B(  6-C ,  8-C ) :   0.9557 B(  8-C ,  9-C ) :   1.0594
B(  8-C , 15-C ) :   1.5791 B(  9-C , 10-C ) :   1.6707 B( 10-C , 11-C ) :   1.1466
B( 10-C , 13-C ) :   1.1296 B( 11-C , 12-N ) :   2.9928 B( 13-C , 14-N ) :   3.0041
B( 15-C , 16-C ) :   1.1970 B( 15-C , 69-H ) :   0.9235 B( 16-C , 17-S ) :   1.1297
B( 16-C , 18-C ) :   1.4331 B( 17-S , 31-C ) :   1.2074 B( 18-C , 19-C ) :   0.9281
B( 18-C , 30-C ) :   1.2381 B( 19-C , 20-O ) :   2.1758 B( 19-C , 21-C ) :   0.9906
B( 21-C , 22-C ) :   1.4275 B( 21-C , 27-C ) :   1.2882 B( 22-C , 23-N ) :   1.2363
B( 22-C , 70-H ) :   0.9934 B( 23-N , 24-C ) :   0.9478 B( 23-N , 26-C ) :   1.2367
B( 24-C , 25-C ) :   1.1120 B( 24-C , 71-H ) :   0.9509 B( 24-C , 72-H ) :   0.9511
B( 25-C , 73-H ) :   0.9675 B( 25-C , 74-H ) :   0.9680 B( 25-C , 75-H ) :   0.9671
B( 26-C , 27-C ) :   1.4216 B( 26-C , 76-H ) :   0.9942 B( 27-C , 28-C ) :   0.9972
B( 28-C , 29-O ) :   2.1966 B( 28-C , 30-C ) :   0.9160 B( 30-C , 31-C ) :   1.4520
B( 31-C , 32-C ) :   1.0038 B( 32-C , 33-N ) :   1.2248 B( 32-C , 39-C ) :   1.4396
B( 33-N , 34-C ) :   0.9397 B( 33-N , 36-C ) :   1.0477 B( 34-C , 35-C ) :   1.1141
B( 34-C , 77-H ) :   0.9424 B( 34-C , 78-H ) :   0.9290 B( 35-C , 79-H ) :   0.9689
B( 35-C , 80-H ) :   0.9661 B( 35-C , 81-H ) :   0.9650 B( 36-C , 37-O ) :   2.0283
B( 36-C , 38-C ) :   0.9907 B( 37-O , 88-H ) :   0.1058 B( 38-C , 39-C ) :   1.2207
B( 38-C , 45-C ) :   1.3620 B( 39-C , 40-C ) :   0.9537 B( 40-C , 41-O ) :   2.1667
B( 40-C , 42-N ) :   1.0270 B( 42-N , 43-C ) :   0.9436 B( 42-N , 45-C ) :   1.1599
B( 43-C , 44-C ) :   1.1215 B( 43-C , 82-H ) :   0.9275 B( 43-C , 83-H ) :   0.9504
B( 44-C , 84-H ) :   0.9639 B( 44-C , 85-H ) :   0.9679 B( 44-C , 86-H ) :   0.9684
B( 45-C , 46-C ) :   1.1512 B( 46-C , 47-C ) :   1.6445 B( 46-C , 87-H ) :   0.9675
B( 47-C , 48-C ) :   1.0150 B( 47-C , 88-H ) :   0.9164 B( 48-C , 49-C ) :   2.0939
B( 48-C , 51-C ) :   0.1741 B( 49-C , 50-C ) :   0.8957 B( 50-C , 51-C ) :   2.0621
B( 51-C , 52-C ) :   0.9448 B( 52-C , 53-C ) :   1.6712 B( 52-C , 89-H ) :   0.9484
B( 53-C , 54-C ) :   0.9400 B( 53-C , 61-C ) :   1.0366 B( 54-C , 55-O ) :   2.2721
B( 54-C , 56-C ) :   0.9304 B( 56-C , 57-C ) :   1.4836 B( 56-C , 60-C ) :   1.2215
B( 57-C , 58-S ) :   1.1496 B( 57-C , 67-Cl) :   1.1284 B( 58-S , 59-C ) :   1.1576
B( 59-C , 60-C ) :   1.5537 B( 59-C , 90-H ) :   0.9525 B( 60-C , 61-C ) :   1.0106
B( 61-C , 62-C ) :   1.6498 B( 62-C , 63-C ) :   1.1374 B( 62-C , 65-C ) :   1.1620
B( 63-C , 64-N ) :   2.9906 B( 65-C , 66-N ) :   2.9955

-----------------------------------------------------------------------------
         ABSORPTION SPECTRUM VIA TRANSITION ELECTRIC DIPOLE MOMENTS
-----------------------------------------------------------------------------
State   Energy  Wavelength   fosc         T2         TX        TY        TZ
        (cm-1)    (nm)                  (au**2)     (au)      (au)      (au)
-----------------------------------------------------------------------------
   0   14218.3    703.3   0.925116692  21.42017   0.45289  -4.20617  -1.87702
   1   17427.9    573.8   0.097922020   1.84974  -0.91838   0.93736  -0.35732
   2   21835.7    458.0   0.004737324   0.07142   0.01740   0.02015   0.26592
   3   22166.7    451.1   0.016733158   0.24851  -0.13561   0.47731   0.04793
   4   23718.9    421.6   0.257922462   3.57990  -0.55466   1.73704   0.50493
   5   24837.1    402.6   0.480789232   6.37278  -1.24027  -0.68037  -2.09084
   6   25428.6    393.3   0.004461688   0.05776   0.11165  -0.19793   0.07825
   7   26314.4    380.0   0.015268148   0.19102  -0.19117   0.02765  -0.39205
   8   26482.2    377.6   0.025441263   0.31627  -0.29000  -0.14247  -0.46030
   9   27329.3    365.9   0.095987246   1.15627   0.05816  -0.97339  -0.45320
  10   27528.4    363.3   0.046836124   0.56011  -0.19126   0.71366   0.11923
  11   27925.7    358.1   0.051766639   0.61027   0.52839   0.23793   0.52389
  12   28519.3    350.6   0.071060582   0.82029  -0.19322  -0.39874  -0.78991
  13   28701.4    348.4   0.004034645   0.04628   0.14825   0.02557   0.15377
  14   28782.6    347.4   0.049355403   0.56452   0.62718  -0.38482  -0.15193
  15   29055.5    344.2   0.011650257   0.13200   0.34570   0.00495   0.11166
  16   29523.1    338.7   0.190176006   2.12065   1.29675   0.07885   0.65794
  17   30626.8    326.5   0.101263276   1.08850  -0.18089   0.32887   0.97346
  18   30679.4    326.0   0.057227678   0.61409   0.06365  -0.40529  -0.66767
  19   30789.6    324.8   0.089919144   0.96144  -0.09853  -0.12654  -0.96733
  20   31465.6    317.8   0.027436524   0.28706  -0.00660  -0.01022  -0.53564
  21   31539.7    317.1   0.201617283   2.10449  -0.10879   0.89527   1.13629
  22   31642.6    316.0   0.038431168   0.39984  -0.11379  -0.35236  -0.51258
  23   32064.1    311.9   0.036628262   0.37607  -0.12946   0.20269   0.56412
  24   32637.5    306.4   0.016697156   0.16842   0.29872   0.09635   0.26439
  25   32864.8    304.3   0.048755620   0.48839   0.56675  -0.36965  -0.17477
  26   32977.1    303.2   0.027334086   0.27288  -0.34808  -0.10319  -0.37559
  27   33234.2    300.9   0.011570795   0.11462   0.03003   0.21526   0.25958
  28   33351.2    299.8   0.001891314   0.01867   0.06135  -0.08413  -0.08847
  29   33917.9    294.8   0.172241508   1.67180  -0.69284   0.53755   0.95017
  30   34069.3    293.5   0.093326995   0.90182  -0.93401   0.10949  -0.13211
  31   34549.6    289.4   0.149311631   1.42274   1.15554  -0.00979   0.29560
  32   34841.1    287.0   0.056702237   0.53578  -0.61005   0.17581   0.36428
  33   34991.4    285.8   0.051106628   0.48083  -0.65280   0.21369  -0.09495
  34   35357.9    282.8   0.008667999   0.08071   0.14534  -0.22749  -0.08848
  35   35518.6    281.5   0.015009223   0.13912   0.03953  -0.23188  -0.28945
  36   35573.7    281.1   0.011485622   0.10629  -0.29533   0.10706   0.08722
  37   35628.8    280.7   0.026733448   0.24702   0.42846  -0.25041  -0.02708
  38   36006.4    277.7   0.028157361   0.25745   0.25103   0.28351   0.33771
  39   36319.7    275.3   0.085979082   0.77934   0.77675  -0.37533  -0.18742
  40   36481.9    274.1   0.002561637   0.02312  -0.10908   0.05353   0.09140
  41   36517.3    273.8   0.013971730   0.12596   0.10684  -0.31027  -0.13518
  42   37404.5    267.3   0.557669262   4.90827   0.00019  -1.35421  -1.75339
  43   37854.6    264.2   0.224284892   1.95055   1.18897  -0.63736  -0.36146
  44   37949.2    263.5   0.148992455   1.29252   1.10585  -0.11023  -0.23973
  45   38058.0    262.8   0.178850889   1.54711  -0.01464  -1.18894   0.36512
  46   38247.9    261.5   0.104827264   0.90228  -0.47228  -0.22004   0.79424
  47   38347.7    260.8   0.098380200   0.84459  -0.61238   0.49204  -0.47695
  48   38413.0    260.3   0.017461235   0.14965   0.08652   0.37421  -0.04612
  49   38547.4    259.4   0.033193902   0.28349  -0.23661   0.43281   0.20046
  50   38835.7    257.5   0.050834752   0.43093  -0.40592   0.51407   0.04352
  51   39069.2    256.0   0.003744902   0.03156  -0.12190   0.12245  -0.04126
  52   39444.4    253.5   0.040485169   0.33790   0.03920  -0.42298  -0.39680
  53   39653.7    252.2   0.061673167   0.51202   0.34351   0.18033   0.60125
  54   39951.7    250.3   0.025085749   0.20671   0.13611  -0.09887  -0.42239

FINAL SINGLE POINT ENERGY     -4864.466437872408

DIPOLE MOMENT
-------------
                                X             Y             Z
Electronic contribution:     60.51131     -58.37549      -7.23591
Nuclear contribution   :    -62.08465      59.22473       6.08730
                        -----------------------------------------
Total Dipole Moment    :     -1.57334       0.84925      -1.14861
                        -----------------------------------------
Magnitude (a.u.)       :      2.12507
Magnitude (Debye)      :      5.40151

Rotational constants in cm-1:     0.001494     0.000266     0.000239
Rotational constants in MHz :    44.774211     7.974004     7.152658

                             ****ORCA TERMINATED NORMALLY****
TOTAL RUN TIME: 0 days 0 hours 8 minutes 38 seconds 59 msec
