                         Program Version 4.2.0 -  RELEASE  -
|  1> # ORCA input file
|  2> # SCF done       -176.978385289221          0.000947655889
|  3> ! CAM-B3LYP def2-SVP def2/J RIJCOSX Grid4 TightSCF
|  4> %maxcore 5000
|  5> %tddft
|  6>     Mode sTDDFT
|  7>     Ethresh 5.0
|  8>     maxcore 5000
|  9> end
| 10>
| 11> %pal
| 12>   nprocs 6
| 13>   end
| 14> * xyz 0 1
| 15>    C       10.48326        -0.89630         5.91904
| 16>    C       11.10412        -0.29864         6.97146
| 17>    S       12.34414         0.77579         6.43522
| 18>    C       12.02497         0.41221         4.75536
| 19>   Cl       12.90410         1.14234         3.50811
| 20>    C       11.00815        -0.48944         4.64965
| 21>    C       10.29689        -1.17570         3.56991
| 22>    O       10.53989        -1.15186         2.38498
| 23>    C        9.27971        -2.02424         4.26578
| 24>    C        9.40941        -1.84479         5.70211
| 25>    C        8.64225        -2.39958         6.69201
| 26>    C        8.88475        -2.11603         8.05265
| 27>    N        9.07377        -1.90143         9.16348
| 28>    C        7.55416        -3.27200         6.49164
| 29>    N        6.65376        -3.97699         6.39221
| 30>    C        8.50389        -2.95615         3.64336
| 31>    C        8.25480        -3.04044         2.25064
| 32>    O        7.94123        -4.24033         1.72588
| 33>    C        7.70760        -4.08958         0.40583
| 34>    C        7.82006        -2.74660         0.06648
| 35>    C        8.16863        -2.06785         1.24264
| 36>    C        8.26125        -0.67344         1.38988
| 37>    N        8.24724         0.46846         1.48637
| 38>    C        7.44377        -5.24906        -0.36958
| 39>    C        7.31417        -5.24151        -1.72080
| 40>    C        7.13670        -6.42732        -2.47670
| 41>    N        7.10395        -6.45864        -3.85142
| 42>    C        7.24216        -5.33609        -4.74728
| 43>    C        8.70020        -4.91258        -4.90866
| 44>    C        6.99302        -7.77062        -4.34806
| 45>    O        6.95702        -8.03766        -5.53059
| 46>    C        6.92907        -8.59614        -3.16125
| 47>    C        7.00801        -7.74220        -2.03235
| 48>    C        6.93363        -8.56571        -0.84630
| 49>    O        6.97074        -8.29530         0.33770
| 50>    N        6.81461        -9.87556        -1.34030
| 51>    C        6.65528       -10.99601        -0.44503
| 52>    C        5.20351       -11.46385        -0.37638
| 53>    C        6.82589        -9.91175        -2.71647
| 54>    C        6.81182       -11.11942        -3.46408
| 55>    C        6.94930       -11.15587        -4.81021
| 56>    C        7.03746       -12.36431        -5.58635
| 57>    C        6.66041       -13.62709        -5.11208
| 58>    C        6.82627       -14.74679        -5.89101
| 59>    F        6.45903       -15.93719        -5.38754
| 60>    C        7.34293       -14.69952        -7.19414
| 61>    C        7.71601       -13.43922        -7.67433
| 62>    C        7.56222       -12.32058        -6.89059
| 63>    F        7.97401       -11.14616        -7.38987
| 64>    C        7.55487       -15.91332        -7.93799
| 65>    C        7.57690       -16.10173        -9.27663
| 66>    C        8.22920       -17.34186        -9.82042
| 67>    O        8.54991       -18.31668        -9.18807
| 68>    C        8.42529       -17.05180       -11.24447
| 69>    C        9.02374       -17.64875       -12.31434
| 70>    S        8.84716       -16.65966       -13.74454
| 71>    C        7.95524       -15.45876       -12.88384
| 72>    C        7.81307       -15.79729       -11.57461
| 73>    C        7.16673       -15.26095       -10.39212
| 74>    C        6.19120       -14.30170       -10.40447
| 75>    C        5.84422       -13.62593       -11.59374
| 76>    N        5.56968       -13.06500       -12.55565
| 77>    C        5.39954       -13.95526        -9.29147
| 78>    N        4.70489       -13.67262        -8.42347
| 79>   Cl        9.84704       -19.12778       -12.36013
| 80>    H       10.92662        -0.41457         8.02226
| 81>    H        8.04416        -3.74517         4.22611
| 82>    H        7.66687        -2.30272        -0.89572
| 83>    H        7.38227        -6.17917         0.18040
| 84>    H        7.37848        -4.30817        -2.26044
| 85>    H        6.62927        -4.50464        -4.38866
| 86>    H        6.85146        -5.67056        -5.71244
| 87>    H        9.13374        -4.62528        -3.95310
| 88>    H        8.76499        -4.06987        -5.59120
| 89>    H        9.28031        -5.73579        -5.31795
| 90>    H        6.97273       -10.64141         0.53958
| 91>    H        7.31592       -11.81165        -0.75274
| 92>    H        4.57130       -10.65784        -0.01240
| 93>    H        5.11976       -12.30507         0.30599
| 94>    H        4.84232       -11.76867        -1.35621
| 95>    H        6.74345       -12.03861        -2.90094
| 96>    H        7.05201       -10.22791        -5.35823
| 97>    H        6.22299       -13.74223        -4.13390
| 98>    H        8.16655       -13.33599        -8.64925
| 99>    H        7.79215       -16.79198        -7.34472
|100>    H        7.60964       -14.58603       -13.40157
|101> *
|102>
|103>                          ****END OF INPUT****

CARTESIAN COORDINATES (ANGSTROEM)
---------------------------------
  C     10.483260   -0.896300    5.919040
  C     11.104120   -0.298640    6.971460
  S     12.344140    0.775790    6.435220
  C     12.024970    0.412210    4.755360
  Cl    12.904100    1.142340    3.508110
  C     11.008150   -0.489440    4.649650
  C     10.296890   -1.175700    3.569910
  O     10.539890   -1.151860    2.384980
  C      9.279710   -2.024240    4.265780
  C      9.409410   -1.844790    5.702110
  C      8.642250   -2.399580    6.692010
  C      8.884750   -2.116030    8.052650
  N      9.073770   -1.901430    9.163480
  C      7.554160   -3.272000    6.491640
  N      6.653760   -3.976990    6.392210
  C      8.503890   -2.956150    3.643360
  C      8.254800   -3.040440    2.250640
  O      7.941230   -4.240330    1.725880
  C      7.707600   -4.089580    0.405830
  C      7.820060   -2.746600    0.066480
  C      8.168630   -2.067850    1.242640
  C      8.261250   -0.673440    1.389880
  N      8.247240    0.468460    1.486370
  C      7.443770   -5.249060   -0.369580
  C      7.314170   -5.241510   -1.720800
  C      7.136700   -6.427320   -2.476700
  N      7.103950   -6.458640   -3.851420
  C      7.242160   -5.336090   -4.747280
  C      8.700200   -4.912580   -4.908660
  C      6.993020   -7.770620   -4.348060
  O      6.957020   -8.037660   -5.530590
  C      6.929070   -8.596140   -3.161250
  C      7.008010   -7.742200   -2.032350
  C      6.933630   -8.565710   -0.846300
  O      6.970740   -8.295300    0.337700
  N      6.814610   -9.875560   -1.340300
  C      6.655280  -10.996010   -0.445030
  C      5.203510  -11.463850   -0.376380
  C      6.825890   -9.911750   -2.716470
  C      6.811820  -11.119420   -3.464080
  C      6.949300  -11.155870   -4.810210
  C      7.037460  -12.364310   -5.586350
  C      6.660410  -13.627090   -5.112080
  C      6.826270  -14.746790   -5.891010
  F      6.459030  -15.937190   -5.387540
  C      7.342930  -14.699520   -7.194140
  C      7.716010  -13.439220   -7.674330
  C      7.562220  -12.320580   -6.890590
  F      7.974010  -11.146160   -7.389870
  C      7.554870  -15.913320   -7.937990
  C      7.576900  -16.101730   -9.276630
  C      8.229200  -17.341860   -9.820420
  O      8.549910  -18.316680   -9.188070
  C      8.425290  -17.051800  -11.244470
  C      9.023740  -17.648750  -12.314340
  S      8.847160  -16.659660  -13.744540
  C      7.955240  -15.458760  -12.883840
  C      7.813070  -15.797290  -11.574610
  C      7.166730  -15.260950  -10.392120
  C      6.191200  -14.301700  -10.404470
  C      5.844220  -13.625930  -11.593740
  N      5.569680  -13.065000  -12.555650
  C      5.399540  -13.955260   -9.291470
  N      4.704890  -13.672620   -8.423470
  Cl     9.847040  -19.127780  -12.360130
  H     10.926620   -0.414570    8.022260
  H      8.044160   -3.745170    4.226110
  H      7.666870   -2.302720   -0.895720
  H      7.382270   -6.179170    0.180400
  H      7.378480   -4.308170   -2.260440
  H      6.629270   -4.504640   -4.388660
  H      6.851460   -5.670560   -5.712440
  H      9.133740   -4.625280   -3.953100
  H      8.764990   -4.069870   -5.591200
  H      9.280310   -5.735790   -5.317950
  H      6.972730  -10.641410    0.539580
  H      7.315920  -11.811650   -0.752740
  H      4.571300  -10.657840   -0.012400
  H      5.119760  -12.305070    0.305990
  H      4.842320  -11.768670   -1.356210
  H      6.743450  -12.038610   -2.900940
  H      7.052010  -10.227910   -5.358230
  H      6.222990  -13.742230   -4.133900
  H      8.166550  -13.335990   -8.649250
  H      7.792150  -16.791980   -7.344720
  H      7.609640  -14.586030  -13.401570

 Total Charge           Charge          ....    0
 Multiplicity           Mult            ....    1
 Number of Electrons    NEL             ....  476
 Basis Dimension        Dim             .... 1031

ORBITAL ENERGIES
----------------

  NO   OCC          E(Eh)            E(eV)
   0   2.0000    -101.622035     -2765.2762
   1   2.0000    -101.616533     -2765.1264
   2   2.0000     -88.998840     -2421.7815
   3   2.0000     -88.993753     -2421.6431
   4   2.0000     -24.799881      -674.8391
   5   2.0000     -24.793447      -674.6640
   6   2.0000     -19.324241      -525.8393
   7   2.0000     -19.225688      -523.1576
   8   2.0000     -19.223769      -523.1054
   9   2.0000     -19.200300      -522.4667
  10   2.0000     -19.197388      -522.3875
  11   2.0000     -14.461557      -393.5190
  12   2.0000     -14.460837      -393.4994
  13   2.0000     -14.426748      -392.5718
  14   2.0000     -14.424850      -392.5201
  15   2.0000     -14.422405      -392.4536
  16   2.0000     -14.421575      -392.4310
  17   2.0000     -14.413071      -392.1996
  18   2.0000     -10.382369      -282.5186
  19   2.0000     -10.382153      -282.5128
  20   2.0000     -10.381615      -282.4981
  21   2.0000     -10.380476      -282.4671
  22   2.0000     -10.379785      -282.4483
  23   2.0000     -10.379259      -282.4340
  24   2.0000     -10.376242      -282.3519
  25   2.0000     -10.374865      -282.3144
  26   2.0000     -10.370219      -282.1880
  27   2.0000     -10.366979      -282.0998
  28   2.0000     -10.356799      -281.8228
  29   2.0000     -10.356191      -281.8063
  30   2.0000     -10.351148      -281.6691
  31   2.0000     -10.350537      -281.6524
  32   2.0000     -10.348056      -281.5849
  33   2.0000     -10.347656      -281.5740
  34   2.0000     -10.334908      -281.2271
  35   2.0000     -10.334754      -281.2229
  36   2.0000     -10.331747      -281.1411
  37   2.0000     -10.330145      -281.0975
  38   2.0000     -10.328620      -281.0560
  39   2.0000     -10.328242      -281.0458
  40   2.0000     -10.325870      -280.9812
  41   2.0000     -10.324236      -280.9367
  42   2.0000     -10.323414      -280.9144
  43   2.0000     -10.319233      -280.8006
  44   2.0000     -10.317205      -280.7454
  45   2.0000     -10.316039      -280.7137
  46   2.0000     -10.315913      -280.7103
  47   2.0000     -10.315712      -280.7048
  48   2.0000     -10.315227      -280.6916
  49   2.0000     -10.315131      -280.6890
  50   2.0000     -10.313867      -280.6546
  51   2.0000     -10.313528      -280.6454
  52   2.0000     -10.310049      -280.5507
  53   2.0000     -10.309483      -280.5353
  54   2.0000     -10.307551      -280.4827
  55   2.0000     -10.306107      -280.4434
  56   2.0000     -10.305856      -280.4366
  57   2.0000     -10.303210      -280.3646
  58   2.0000     -10.302667      -280.3498
  59   2.0000     -10.301549      -280.3194
  60   2.0000     -10.300285      -280.2850
  61   2.0000     -10.270933      -279.4863
  62   2.0000     -10.270891      -279.4851
  63   2.0000     -10.270758      -279.4815
  64   2.0000     -10.269389      -279.4443
  65   2.0000      -9.576802      -260.5980
  66   2.0000      -9.571323      -260.4489
  67   2.0000      -8.094565      -220.2643
  68   2.0000      -8.089486      -220.1261
  69   2.0000      -7.347469      -199.9348
  70   2.0000      -7.341972      -199.7852
  71   2.0000      -7.336827      -199.6452
  72   2.0000      -7.336278      -199.6303
  73   2.0000      -7.331360      -199.4964
  74   2.0000      -7.330794      -199.4810
  75   2.0000      -6.063925      -165.0078
  76   2.0000      -6.059339      -164.8830
  77   2.0000      -6.058843      -164.8695
  78   2.0000      -6.056827      -164.8146
  79   2.0000      -6.054267      -164.7450
  80   2.0000      -6.051741      -164.6763
  81   2.0000      -1.315107       -35.7859
  82   2.0000      -1.309930       -35.6450
  83   2.0000      -1.245445       -33.8903
  84   2.0000      -1.143228       -31.1088
  85   2.0000      -1.142000       -31.0754
  86   2.0000      -1.141613       -31.0649
  87   2.0000      -1.135239       -30.8914
  88   2.0000      -1.072174       -29.1753
  89   2.0000      -1.063844       -28.9487
  90   2.0000      -1.043979       -28.4081
  91   2.0000      -1.039011       -28.2729
  92   2.0000      -1.023343       -27.8466
  93   2.0000      -1.019036       -27.7294
  94   2.0000      -1.004874       -27.3440
  95   2.0000      -1.000463       -27.2240
  96   2.0000      -0.999164       -27.1886
  97   2.0000      -0.995311       -27.0838
  98   2.0000      -0.990166       -26.9438
  99   2.0000      -0.988839       -26.9077
 100   2.0000      -0.960218       -26.1288
 101   2.0000      -0.958193       -26.0738
 102   2.0000      -0.943901       -25.6848
 103   2.0000      -0.939357       -25.5612
 104   2.0000      -0.936715       -25.4893
 105   2.0000      -0.931281       -25.3414
 106   2.0000      -0.913895       -24.8684
 107   2.0000      -0.912166       -24.8213
 108   2.0000      -0.901988       -24.5443
 109   2.0000      -0.896761       -24.4021
 110   2.0000      -0.879746       -23.9391
 111   2.0000      -0.861705       -23.4482
 112   2.0000      -0.859258       -23.3816
 113   2.0000      -0.854762       -23.2592
 114   2.0000      -0.838331       -22.8122
 115   2.0000      -0.833434       -22.6789
 116   2.0000      -0.828106       -22.5339
 117   2.0000      -0.816587       -22.2205
 118   2.0000      -0.808367       -21.9968
 119   2.0000      -0.783204       -21.3121
 120   2.0000      -0.776363       -21.1259
 121   2.0000      -0.768285       -20.9061
 122   2.0000      -0.766049       -20.8453
 123   2.0000      -0.759053       -20.6549
 124   2.0000      -0.755384       -20.5550
 125   2.0000      -0.748469       -20.3669
 126   2.0000      -0.725228       -19.7345
 127   2.0000      -0.718988       -19.5647
 128   2.0000      -0.714006       -19.4291
 129   2.0000      -0.707497       -19.2520
 130   2.0000      -0.701954       -19.1011
 131   2.0000      -0.700566       -19.0634
 132   2.0000      -0.686395       -18.6778
 133   2.0000      -0.681758       -18.5516
 134   2.0000      -0.677918       -18.4471
 135   2.0000      -0.674681       -18.3590
 136   2.0000      -0.669044       -18.2056
 137   2.0000      -0.660178       -17.9644
 138   2.0000      -0.654659       -17.8142
 139   2.0000      -0.643741       -17.5171
 140   2.0000      -0.638056       -17.3624
 141   2.0000      -0.628782       -17.1100
 142   2.0000      -0.625628       -17.0242
 143   2.0000      -0.622937       -16.9510
 144   2.0000      -0.619075       -16.8459
 145   2.0000      -0.614995       -16.7349
 146   2.0000      -0.609837       -16.5945
 147   2.0000      -0.601158       -16.3584
 148   2.0000      -0.596917       -16.2429
 149   2.0000      -0.591445       -16.0940
 150   2.0000      -0.588078       -16.0024
 151   2.0000      -0.580477       -15.7956
 152   2.0000      -0.579922       -15.7805
 153   2.0000      -0.577907       -15.7256
 154   2.0000      -0.570796       -15.5321
 155   2.0000      -0.569260       -15.4903
 156   2.0000      -0.561432       -15.2773
 157   2.0000      -0.559108       -15.2141
 158   2.0000      -0.554824       -15.0975
 159   2.0000      -0.552240       -15.0272
 160   2.0000      -0.548606       -14.9283
 161   2.0000      -0.548150       -14.9159
 162   2.0000      -0.543901       -14.8003
 163   2.0000      -0.541536       -14.7359
 164   2.0000      -0.538690       -14.6585
 165   2.0000      -0.537963       -14.6387
 166   2.0000      -0.537441       -14.6245
 167   2.0000      -0.536152       -14.5894
 168   2.0000      -0.534862       -14.5543
 169   2.0000      -0.531409       -14.4604
 170   2.0000      -0.529662       -14.4128
 171   2.0000      -0.528154       -14.3718
 172   2.0000      -0.524675       -14.2771
 173   2.0000      -0.521789       -14.1986
 174   2.0000      -0.515460       -14.0264
 175   2.0000      -0.514743       -14.0069
 176   2.0000      -0.510180       -13.8827
 177   2.0000      -0.507048       -13.7975
 178   2.0000      -0.506981       -13.7956
 179   2.0000      -0.504576       -13.7302
 180   2.0000      -0.502693       -13.6790
 181   2.0000      -0.498403       -13.5622
 182   2.0000      -0.493997       -13.4423
 183   2.0000      -0.491058       -13.3624
 184   2.0000      -0.490762       -13.3543
 185   2.0000      -0.483581       -13.1589
 186   2.0000      -0.480208       -13.0671
 187   2.0000      -0.475699       -12.9444
 188   2.0000      -0.473909       -12.8957
 189   2.0000      -0.473042       -12.8721
 190   2.0000      -0.468861       -12.7584
 191   2.0000      -0.464334       -12.6352
 192   2.0000      -0.461661       -12.5624
 193   2.0000      -0.461278       -12.5520
 194   2.0000      -0.459067       -12.4919
 195   2.0000      -0.458334       -12.4719
 196   2.0000      -0.456632       -12.4256
 197   2.0000      -0.454527       -12.3683
 198   2.0000      -0.454232       -12.3603
 199   2.0000      -0.452188       -12.3047
 200   2.0000      -0.450242       -12.2517
 201   2.0000      -0.448579       -12.2065
 202   2.0000      -0.448561       -12.2060
 203   2.0000      -0.447931       -12.1888
 204   2.0000      -0.445438       -12.1210
 205   2.0000      -0.444318       -12.0905
 206   2.0000      -0.442149       -12.0315
 207   2.0000      -0.438716       -11.9381
 208   2.0000      -0.436199       -11.8696
 209   2.0000      -0.435567       -11.8524
 210   2.0000      -0.433943       -11.8082
 211   2.0000      -0.433097       -11.7852
 212   2.0000      -0.432510       -11.7692
 213   2.0000      -0.423065       -11.5122
 214   2.0000      -0.421966       -11.4823
 215   2.0000      -0.416560       -11.3352
 216   2.0000      -0.416130       -11.3235
 217   2.0000      -0.410868       -11.1803
 218   2.0000      -0.408171       -11.1069
 219   2.0000      -0.402606       -10.9555
 220   2.0000      -0.398755       -10.8507
 221   2.0000      -0.391642       -10.6571
 222   2.0000      -0.376190       -10.2366
 223   2.0000      -0.361733        -9.8433
 224   2.0000      -0.357134        -9.7181
 225   2.0000      -0.356110        -9.6903
 226   2.0000      -0.350024        -9.5246
 227   2.0000      -0.346398        -9.4260
 228   2.0000      -0.339929        -9.2499
 229   2.0000      -0.339174        -9.2294
 230   2.0000      -0.335757        -9.1364
 231   2.0000      -0.335565        -9.1312
 232   2.0000      -0.323707        -8.8085
 233   2.0000      -0.320561        -8.7229
 234   2.0000      -0.316122        -8.6021
 235   2.0000      -0.305296        -8.3075
 236   2.0000      -0.293860        -7.9963
 237   2.0000      -0.243833        -6.6350
 238   0.0000      -0.116010        -3.1568
 239   0.0000      -0.102552        -2.7906
 240   0.0000      -0.079445        -2.1618
 241   0.0000      -0.056660        -1.5418
 242   0.0000      -0.053139        -1.4460

MULLIKEN ATOMIC CHARGES
-----------------------
   0 C :    0.037275
   1 C :   -0.131321
   2 S :    0.186910
   3 C :   -0.167919
   4 Cl:    0.004684
   5 C :    0.079135
   6 C :    0.151431
   7 O :   -0.132991
   8 C :   -0.094790
   9 C :    0.283580
  10 C :   -0.324328
  11 C :   -0.194530
  12 N :    0.158234
  13 C :   -0.193637
  14 N :    0.171925
  15 C :   -0.060035
  16 C :    0.174681
  17 O :   -0.160731
  18 C :    0.195791
  19 C :   -0.062758
  20 C :   -0.035712
  21 C :   -0.191691
  22 N :    0.163642
  23 C :    0.020401
  24 C :   -0.017766
  25 C :    0.132353
  26 N :   -0.259079
  27 C :    0.098710
  28 C :    0.000719
  29 C :    0.164111
  30 O :   -0.197712
  31 C :   -0.065766
  32 C :   -0.067741
  33 C :    0.167180
  34 O :   -0.204673
  35 N :   -0.259624
  36 C :    0.096855
  37 C :    0.001647
  38 C :    0.133472
  39 C :    0.002836
  40 C :    0.009681
  41 C :    0.030654
  42 C :   -0.079640
  43 C :    0.291754
  44 F :   -0.176416
  45 C :   -0.043569
  46 C :   -0.053252
  47 C :    0.265227
  48 F :   -0.172229
  49 C :    0.042742
  50 C :   -0.125962
  51 C :    0.131138
  52 O :   -0.121419
  53 C :    0.091232
  54 C :   -0.169580
  55 S :    0.189478
  56 C :   -0.127481
  57 C :    0.014189
  58 C :    0.256579
  59 C :   -0.317808
  60 C :   -0.182540
  61 N :    0.160007
  62 C :   -0.188902
  63 N :    0.181968
  64 Cl:    0.003081
  65 H :    0.055229
  66 H :    0.044162
  67 H :    0.002249
  68 H :    0.028835
  69 H :   -0.024561
  70 H :    0.022589
  71 H :    0.046900
  72 H :    0.014528
  73 H :    0.027263
  74 H :    0.033178
  75 H :    0.046843
  76 H :    0.024495
  77 H :    0.032441
  78 H :    0.027619
  79 H :    0.015641
  80 H :   -0.027721
  81 H :    0.026015
  82 H :   -0.006583
  83 H :    0.005502
  84 H :    0.038964
  85 H :    0.054707
Sum of atomic charges:   -0.0000000

LOEWDIN ATOMIC CHARGES
----------------------
   0 C :   -0.058516
   1 C :   -0.148555
   2 S :    0.477313
   3 C :   -0.270729
   4 Cl:    0.196735
   5 C :   -0.113789
   6 C :    0.083045
   7 O :   -0.118550
   8 C :   -0.073275
   9 C :    0.072087
  10 C :   -0.131119
  11 C :   -0.015291
  12 N :   -0.048256
  13 C :   -0.025431
  14 N :   -0.040824
  15 C :    0.045562
  16 C :    0.045725
  17 O :    0.045879
  18 C :    0.049599
  19 C :   -0.022856
  20 C :   -0.060557
  21 C :   -0.028514
  22 N :   -0.039453
  23 C :    0.008785
  24 C :   -0.026555
  25 C :    0.070890
  26 N :   -0.000324
  27 C :    0.036400
  28 C :   -0.061154
  29 C :    0.079666
  30 O :   -0.190869
  31 C :   -0.118540
  32 C :   -0.115425
  33 C :    0.080607
  34 O :   -0.194498
  35 N :    0.000824
  36 C :    0.036000
  37 C :   -0.060666
  38 C :    0.077985
  39 C :   -0.036508
  40 C :    0.036670
  41 C :   -0.031867
  42 C :   -0.024838
  43 C :    0.100994
  44 F :   -0.056746
  45 C :   -0.058933
  46 C :   -0.017575
  47 C :    0.093933
  48 F :   -0.050336
  49 C :    0.078942
  50 C :   -0.078026
  51 C :    0.081683
  52 O :   -0.126111
  53 C :   -0.119135
  54 C :   -0.271302
  55 S :    0.478777
  56 C :   -0.150794
  57 C :   -0.058279
  58 C :    0.063047
  59 C :   -0.128756
  60 C :   -0.016674
  61 N :   -0.044036
  62 C :   -0.020279
  63 N :   -0.034532
  64 Cl:    0.194767
  65 H :    0.038117
  66 H :    0.056380
  67 H :    0.040625
  68 H :    0.047464
  69 H :    0.030008
  70 H :    0.022597
  71 H :    0.039730
  72 H :    0.021076
  73 H :    0.032055
  74 H :    0.033738
  75 H :    0.039051
  76 H :    0.022785
  77 H :    0.033685
  78 H :    0.032230
  79 H :    0.021654
  80 H :    0.027324
  81 H :    0.040523
  82 H :    0.040814
  83 H :    0.042701
  84 H :    0.051693
  85 H :    0.038309

  Mayer bond orders larger than 0.100000
B(  0-C ,  1-C ) :   1.5404 B(  0-C ,  5-C ) :   1.2238 B(  0-C ,  9-C ) :   1.0041
B(  1-C ,  2-S ) :   1.1623 B(  1-C , 65-H ) :   0.9554 B(  2-S ,  3-C ) :   1.1503
B(  3-C ,  4-Cl) :   1.1327 B(  3-C ,  5-C ) :   1.4756 B(  5-C ,  6-C ) :   0.9548
B(  6-C ,  7-O ) :   2.2134 B(  6-C ,  8-C ) :   0.9339 B(  8-C ,  9-C ) :   1.0749
B(  8-C , 15-C ) :   1.6113 B(  9-C , 10-C ) :   1.6612 B( 10-C , 11-C ) :   1.1465
B( 10-C , 13-C ) :   1.1369 B( 11-C , 12-N ) :   2.9914 B( 13-C , 14-N ) :   2.9900
B( 15-C , 16-C ) :   1.1866 B( 15-C , 66-H ) :   0.9286 B( 16-C , 17-O ) :   1.1537
B( 16-C , 20-C ) :   1.3914 B( 17-O , 18-C ) :   1.1537 B( 18-C , 19-C ) :   1.3914
B( 18-C , 23-C ) :   1.1217 B( 19-C , 20-C ) :   1.3113 B( 19-C , 67-H ) :   1.0166
B( 20-C , 21-C ) :   1.1093 B( 21-C , 22-N ) :   3.0344 B( 23-C , 24-C ) :   1.5988
B( 23-C , 68-H ) :   0.9388 B( 24-C , 25-C ) :   1.1673 B( 24-C , 69-H ) :   0.9624
B( 25-C , 26-N ) :   1.1596 B( 25-C , 32-C ) :   1.3433 B( 26-N , 27-C ) :   0.9467
B( 26-N , 29-C ) :   1.0537 B( 27-C , 28-C ) :   1.1188 B( 27-C , 70-H ) :   0.9507
B( 27-C , 71-H ) :   0.9275 B( 28-C , 72-H ) :   0.9686 B( 28-C , 73-H ) :   0.9680
B( 28-C , 74-H ) :   0.9638 B( 29-C , 30-O ) :   2.0474 B( 29-C , 31-C ) :   0.9812
B( 30-O , 81-H ) :   0.1033 B( 31-C , 32-C ) :   1.2562 B( 31-C , 38-C ) :   1.3509
B( 32-C , 33-C ) :   0.9829 B( 33-C , 34-O ) :   2.0367 B( 33-C , 35-N ) :   1.0584
B( 34-O , 68-H ) :   0.1043 B( 35-N , 36-C ) :   0.9445 B( 35-N , 38-C ) :   1.1597
B( 36-C , 37-C ) :   1.1193 B( 36-C , 75-H ) :   0.9272 B( 36-C , 76-H ) :   0.9494
B( 37-C , 77-H ) :   0.9638 B( 37-C , 78-H ) :   0.9683 B( 37-C , 79-H ) :   0.9688
B( 38-C , 39-C ) :   1.1524 B( 39-C , 40-C ) :   1.6205 B( 39-C , 80-H ) :   0.9559
B( 40-C , 41-C ) :   1.0785 B( 40-C , 81-H ) :   0.9618 B( 41-C , 42-C ) :   1.2750
B( 41-C , 47-C ) :   1.2946 B( 42-C , 43-C ) :   1.3830 B( 42-C , 82-H ) :   0.9924
B( 43-C , 44-F ) :   1.1510 B( 43-C , 45-C ) :   1.3146 B( 45-C , 46-C ) :   1.2827
B( 45-C , 49-C ) :   1.0373 B( 46-C , 47-C ) :   1.3997 B( 46-C , 83-H ) :   0.9908
B( 47-C , 48-F ) :   1.1301 B( 49-C , 50-C ) :   1.7347 B( 49-C , 84-H ) :   0.9378
B( 50-C , 51-C ) :   0.9284 B( 50-C , 58-C ) :   1.0144 B( 51-C , 52-O ) :   2.2858
B( 51-C , 53-C ) :   0.9257 B( 53-C , 54-C ) :   1.4800 B( 53-C , 57-C ) :   1.2236
B( 54-C , 55-S ) :   1.1541 B( 54-C , 64-Cl) :   1.1313 B( 55-S , 56-C ) :   1.1613
B( 56-C , 57-C ) :   1.5492 B( 56-C , 85-H ) :   0.9572 B( 57-C , 58-C ) :   1.0100
B( 58-C , 59-C ) :   1.6847 B( 59-C , 60-C ) :   1.1286 B( 59-C , 62-C ) :   1.1558
B( 60-C , 61-N ) :   3.0018 B( 62-C , 63-N ) :   3.0114

-----------------------------------------------------------------------------
         ABSORPTION SPECTRUM VIA TRANSITION ELECTRIC DIPOLE MOMENTS
-----------------------------------------------------------------------------
State   Energy  Wavelength   fosc         T2         TX        TY        TZ
        (cm-1)    (nm)                  (au**2)     (au)      (au)      (au)
-----------------------------------------------------------------------------
   0   13493.0    741.1   1.137097357  27.74375   0.72517   3.98575   3.36626
   1   18242.6    548.2   0.038862018   0.70132   0.43038  -0.71253   0.09162
   2   22096.7    452.6   0.305737131   4.55509   0.28650  -0.85939   1.93248
   3   23145.9    432.0   0.238077189   3.38625   0.40268   0.67650   1.66326
   4   25684.9    389.3   0.342170442   4.38571  -0.19068  -0.72880  -1.95402
   5   26454.0    378.0   0.072362876   0.90053  -0.09146  -0.37627  -0.86636
   6   27010.6    370.2   0.007172238   0.08742   0.11135   0.17356  -0.21188
   7   27380.6    365.2   0.220542840   2.65171  -0.20147  -0.63147  -1.48740
   8   28344.3    352.8   0.049391253   0.57367   0.05926   0.54730   0.52021
   9   28417.7    351.9   0.002726945   0.03159  -0.02360  -0.17081   0.04312
  10   28804.5    347.2   0.092634002   1.05873   0.99208   0.25068   0.10798
  11   29148.4    343.1   0.128962867   1.45655   0.35373   0.82227   0.80951
  12   29599.1    337.8   0.011302151   0.12571   0.20099   0.19184  -0.22024
  13   30373.3    329.2   0.214551014   2.32549  -0.00950  -1.16286  -0.98648
  14   30565.9    327.2   0.043374714   0.46717  -0.29807   0.43222  -0.43762
  15   31070.0    321.9   0.087505082   0.92719   0.46439  -0.62189  -0.56990
  16   31263.9    319.9   0.096069228   1.01162  -0.85109  -0.50887   0.16827
  17   31683.7    315.6   0.043328708   0.45021   0.10047   0.35692   0.55922
  18   31806.9    314.4   0.001741673   0.01803   0.01039   0.00206  -0.13385
  19   33311.0    300.2   0.146160640   1.44450   0.59874  -0.77933  -0.69185
  20   34523.7    289.7   0.069933595   0.66687  -0.66183  -0.46110   0.12744
  21   35122.0    284.7   0.024844593   0.23288   0.04012  -0.30132  -0.37480
  22   35371.6    282.7   0.044221979   0.41158  -0.40229   0.49558   0.06438
  23   35464.4    282.0   0.004255663   0.03950   0.01839   0.18867   0.05976
  24   36148.8    276.6   0.093354311   0.85019  -0.18348   0.54736   0.71898
  25   36306.7    275.4   0.113385764   1.02813  -0.63582   0.77245  -0.16489
  26   36832.3    271.5   0.074570862   0.66653  -0.17680   0.59784   0.52712
  27   36975.8    270.4   0.365697580   3.25597   1.38604   1.13604  -0.21041
  28   37120.8    269.4   0.356676154   3.16324   0.59348  -0.94699  -1.38356
  29   37484.1    266.8   0.055493540   0.48738   0.65142   0.18172  -0.17326
  30   38137.1    262.2   0.215788279   1.86276  -0.33584   0.59272   1.18265
  31   38233.9    261.5   0.057600031   0.49596  -0.17845   0.17367   0.65875
  32   38371.6    260.6   0.094200941   0.80820  -0.72633   0.38258   0.36643
  33   38530.7    259.5   0.090615224   0.77423  -0.59522   0.23856   0.60253
  34   38550.7    259.4   0.142875491   1.22012   0.68737  -0.86357   0.04349
  35   39204.0    255.1   0.084279870   0.70773   0.19330   0.79070  -0.21250
  36   39359.4    254.1   0.066880283   0.55940  -0.58995  -0.11153   0.44601
  37   39917.2    250.5   0.097316610   0.80261   0.16371  -0.69286  -0.54383

FINAL SINGLE POINT ENERGY     -4475.428408985679

DIPOLE MOMENT
-------------
                                X             Y             Z
Electronic contribution:     25.66785     -10.42381     -13.39387
Nuclear contribution   :    -23.64425       9.46661      11.64247
                        -----------------------------------------
Total Dipole Moment    :      2.02361      -0.95720      -1.75140
                        -----------------------------------------
Magnitude (a.u.)       :      2.84229
Magnitude (Debye)      :      7.22453

Rotational constants in cm-1:     0.002761     0.000220     0.000215
Rotational constants in MHz :    82.770410     6.607235     6.460019

                             ****ORCA TERMINATED NORMALLY****
TOTAL RUN TIME: 0 days 0 hours 7 minutes 44 seconds 11 msec
