                         Program Version 4.2.0 -  RELEASE  -
|  1> # ORCA input file
|  2> # SCF done       -197.295402798094          0.000654925722
|  3> ! CAM-B3LYP def2-SVP def2/J RIJCOSX Grid4 TightSCF
|  4> %maxcore 5000
|  5> %tddft
|  6>     Mode sTDDFT
|  7>     Ethresh 5.0
|  8>     maxcore 5000
|  9> end
| 10>
| 11> %pal
| 12>   nprocs 6
| 13>   end
| 14> * xyz 0 1
| 15>    C        0.40968         1.05654        -3.99808
| 16>    C       -0.76040         1.75053        -4.00266
| 17>    S       -2.04753         0.80694        -3.34513
| 18>    C       -0.98801        -0.55358        -3.05649
| 19>   Cl       -1.56531        -1.99112        -2.37044
| 20>    C        0.28123        -0.26341        -3.45834
| 21>    C        1.57852        -0.95008        -3.48637
| 22>    O        1.82627        -2.06456        -3.08872
| 23>    C        2.52920         0.06417        -4.04350
| 24>    C        1.78589         1.26866        -4.39462
| 25>    C        2.24884         2.38645        -5.03554
| 26>    C        1.39444         3.47206        -5.32238
| 27>    N        0.71264         4.36377        -5.55945
| 28>    C        3.56543         2.58503        -5.49722
| 29>    N        4.61323         2.80275        -5.91303
| 30>    C        3.88449        -0.03045        -4.03129
| 31>    C        4.68375        -1.19195        -3.74539
| 32>    C        5.91365        -1.01363        -3.10381
| 33>    C        6.69602        -2.09743        -2.75836
| 34>    N        7.99159        -1.80013        -2.19991
| 35>    O        8.05434        -0.89921        -1.39036
| 36>    O        8.94061        -2.43103        -2.61232
| 37>    C        6.28997        -3.41887        -3.03453
| 38>    C        5.11777        -3.56687        -3.79378
| 39>    C        4.32991        -2.49436        -4.13301
| 40>    C        6.93773        -4.59996        -2.53789
| 41>    C        7.61675        -4.68931        -1.36977
| 42>    C        8.16070        -5.91326        -0.90220
| 43>    N        8.88269        -6.03430         0.25967
| 44>    C        9.26167        -4.96740         1.15554
| 45>    C       10.41196        -4.13265         0.60010
| 46>    C        9.30244        -7.35656         0.48463
| 47>    O        9.92335        -7.71118         1.46805
| 48>    C        8.78302        -8.09159        -0.64519
| 49>    C        8.07249        -7.18455        -1.47018
| 50>    C        7.54814        -7.92525        -2.59397
| 51>    O        6.87799        -7.59303        -3.55572
| 52>    N        7.98937        -9.23895        -2.38325
| 53>    C        7.62920       -10.30420        -3.28351
| 54>    C        6.60262       -11.24992        -2.66601
| 55>    C        8.75264        -9.35329        -1.23884
| 56>    C        9.48542       -10.51092        -0.90796
| 57>    C       10.28792       -10.58577         0.19115
| 58>    C       11.23823       -11.60842         0.42118
| 59>    S       11.57174       -12.00003         2.07845
| 60>    C       12.51311       -13.34112         1.64608
| 61>    C       12.64680       -13.49971         0.27557
| 62>    C       11.95219       -12.45378        -0.44639
| 63>    C       12.07865       -12.36057        -1.86360
| 64>    C       12.66280       -13.43160        -2.51560
| 65>    C       13.25139       -14.49080        -1.83405
| 66>    C       13.31834       -14.52557        -0.45496
| 67>    O       14.03268       -15.57146         0.03119
| 68>    C       14.31267       -15.75078         1.39606
| 69>    C       11.70493       -11.20911        -2.66125
| 70>    C       11.81895        -9.93219        -2.25706
| 71>    C       11.33879        -8.78629        -2.98040
| 72>    C       11.40838        -7.51818        -2.42289
| 73>    F       12.04095        -7.35100        -1.24381
| 74>    C       10.82126        -6.38026        -2.99430
| 75>    F       10.94527        -5.22934        -2.30765
| 76>    C       10.11080        -6.39137        -4.18245
| 77>    C       10.07366        -7.65888        -4.81019
| 78>    C       10.66271        -8.82307        -4.22373
| 79>    N       10.43879        -9.84598        -5.06264
| 80>    N        9.78614        -9.31075        -6.05974
| 81>    C        9.36850       -10.08214        -7.19632
| 82>    C        7.88122       -10.41168        -7.11867
| 83>    N        9.53551        -8.03640        -5.97716
| 84>    C        9.45718        -5.19754        -4.67297
| 85>    C        8.68779        -5.15531        -5.75708
| 86>    H       -0.95920         2.74852        -4.33929
| 87>    H        4.45117         0.87731        -4.20366
| 88>    H        6.26208        -0.02051        -2.85778
| 89>    H        4.82060        -4.56455        -4.07776
| 90>    H        3.43921        -2.65194        -4.71770
| 91>    H        6.77805        -5.49999        -3.11660
| 92>    H        7.73655        -3.82855        -0.72735
| 93>    H        9.57540        -5.45602         2.08264
| 94>    H        8.38928        -4.34126         1.36726
| 95>    H       10.67456        -3.35317         1.31004
| 96>    H       10.14664        -3.67099        -0.34756
| 97>    H       11.28075        -4.76420         0.43496
| 98>    H        8.52857       -10.85034        -3.58678
| 99>    H        7.19723        -9.81153        -4.15979
|100>    H        6.99796       -11.71709        -1.76708
|101>    H        6.33951       -12.02768        -3.37805
|102>    H        5.70223       -10.70029        -2.40268
|103>    H        9.45457       -11.33971        -1.59906
|104>    H       10.20474        -9.82022         0.95302
|105>    H       12.88993       -13.94971         2.44030
|106>    H       12.72169       -13.41411        -3.59367
|107>    H       13.72997       -15.28916        -2.37820
|108>    H       14.99583       -16.59954         1.43563
|109>    H       13.41115       -15.99778         1.96476
|110>    H       14.80695       -14.87625         1.82783
|111>    H       11.36001       -11.40817        -3.66704
|112>    H       12.25257        -9.71135        -1.29164
|113>    H        9.97070       -10.99214        -7.20804
|114>    H        9.57272        -9.48877        -8.09049
|115>    H        7.67865       -11.07095        -6.27858
|116>    H        7.56683       -10.90572        -8.03355
|117>    H        7.30582        -9.49722        -6.99740
|118>    H        9.61254        -4.31154        -4.07190
|119>    H        8.51563        -6.03145        -6.35659
|120>    H        8.20962        -4.24006        -6.06147
|121> *
|122>
|123>                          ****END OF INPUT****

CARTESIAN COORDINATES (ANGSTROEM)
---------------------------------
  C      0.409680    1.056540   -3.998080
  C     -0.760400    1.750530   -4.002660
  S     -2.047530    0.806940   -3.345130
  C     -0.988010   -0.553580   -3.056490
  Cl    -1.565310   -1.991120   -2.370440
  C      0.281230   -0.263410   -3.458340
  C      1.578520   -0.950080   -3.486370
  O      1.826270   -2.064560   -3.088720
  C      2.529200    0.064170   -4.043500
  C      1.785890    1.268660   -4.394620
  C      2.248840    2.386450   -5.035540
  C      1.394440    3.472060   -5.322380
  N      0.712640    4.363770   -5.559450
  C      3.565430    2.585030   -5.497220
  N      4.613230    2.802750   -5.913030
  C      3.884490   -0.030450   -4.031290
  C      4.683750   -1.191950   -3.745390
  C      5.913650   -1.013630   -3.103810
  C      6.696020   -2.097430   -2.758360
  N      7.991590   -1.800130   -2.199910
  O      8.054340   -0.899210   -1.390360
  O      8.940610   -2.431030   -2.612320
  C      6.289970   -3.418870   -3.034530
  C      5.117770   -3.566870   -3.793780
  C      4.329910   -2.494360   -4.133010
  C      6.937730   -4.599960   -2.537890
  C      7.616750   -4.689310   -1.369770
  C      8.160700   -5.913260   -0.902200
  N      8.882690   -6.034300    0.259670
  C      9.261670   -4.967400    1.155540
  C     10.411960   -4.132650    0.600100
  C      9.302440   -7.356560    0.484630
  O      9.923350   -7.711180    1.468050
  C      8.783020   -8.091590   -0.645190
  C      8.072490   -7.184550   -1.470180
  C      7.548140   -7.925250   -2.593970
  O      6.877990   -7.593030   -3.555720
  N      7.989370   -9.238950   -2.383250
  C      7.629200  -10.304200   -3.283510
  C      6.602620  -11.249920   -2.666010
  C      8.752640   -9.353290   -1.238840
  C      9.485420  -10.510920   -0.907960
  C     10.287920  -10.585770    0.191150
  C     11.238230  -11.608420    0.421180
  S     11.571740  -12.000030    2.078450
  C     12.513110  -13.341120    1.646080
  C     12.646800  -13.499710    0.275570
  C     11.952190  -12.453780   -0.446390
  C     12.078650  -12.360570   -1.863600
  C     12.662800  -13.431600   -2.515600
  C     13.251390  -14.490800   -1.834050
  C     13.318340  -14.525570   -0.454960
  O     14.032680  -15.571460    0.031190
  C     14.312670  -15.750780    1.396060
  C     11.704930  -11.209110   -2.661250
  C     11.818950   -9.932190   -2.257060
  C     11.338790   -8.786290   -2.980400
  C     11.408380   -7.518180   -2.422890
  F     12.040950   -7.351000   -1.243810
  C     10.821260   -6.380260   -2.994300
  F     10.945270   -5.229340   -2.307650
  C     10.110800   -6.391370   -4.182450
  C     10.073660   -7.658880   -4.810190
  C     10.662710   -8.823070   -4.223730
  N     10.438790   -9.845980   -5.062640
  N      9.786140   -9.310750   -6.059740
  C      9.368500  -10.082140   -7.196320
  C      7.881220  -10.411680   -7.118670
  N      9.535510   -8.036400   -5.977160
  C      9.457180   -5.197540   -4.672970
  C      8.687790   -5.155310   -5.757080
  H     -0.959200    2.748520   -4.339290
  H      4.451170    0.877310   -4.203660
  H      6.262080   -0.020510   -2.857780
  H      4.820600   -4.564550   -4.077760
  H      3.439210   -2.651940   -4.717700
  H      6.778050   -5.499990   -3.116600
  H      7.736550   -3.828550   -0.727350
  H      9.575400   -5.456020    2.082640
  H      8.389280   -4.341260    1.367260
  H     10.674560   -3.353170    1.310040
  H     10.146640   -3.670990   -0.347560
  H     11.280750   -4.764200    0.434960
  H      8.528570  -10.850340   -3.586780
  H      7.197230   -9.811530   -4.159790
  H      6.997960  -11.717090   -1.767080
  H      6.339510  -12.027680   -3.378050
  H      5.702230  -10.700290   -2.402680
  H      9.454570  -11.339710   -1.599060
  H     10.204740   -9.820220    0.953020
  H     12.889930  -13.949710    2.440300
  H     12.721690  -13.414110   -3.593670
  H     13.729970  -15.289160   -2.378200
  H     14.995830  -16.599540    1.435630
  H     13.411150  -15.997780    1.964760
  H     14.806950  -14.876250    1.827830
  H     11.360010  -11.408170   -3.667040
  H     12.252570   -9.711350   -1.291640
  H      9.970700  -10.992140   -7.208040
  H      9.572720   -9.488770   -8.090490
  H      7.678650  -11.070950   -6.278580
  H      7.566830  -10.905720   -8.033550
  H      7.305820   -9.497220   -6.997400
  H      9.612540   -4.311540   -4.071900
  H      8.515630   -6.031450   -6.356590
  H      8.209620   -4.240060   -6.061470

 Total Charge           Charge          ....    0
 Multiplicity           Mult            ....    1
 Number of Electrons    NEL             ....  518
 Basis Dimension        Dim             .... 1181

ORBITAL ENERGIES
----------------

  NO   OCC          E(Eh)            E(eV)
   0   2.0000    -101.619565     -2765.2089
   1   2.0000     -88.996292     -2421.7122
   2   2.0000     -88.969685     -2420.9882
   3   2.0000     -24.780702      -674.3172
   4   2.0000     -24.779957      -674.2969
   5   2.0000     -19.252424      -523.8851
   6   2.0000     -19.249074      -523.7939
   7   2.0000     -19.248652      -523.7825
   8   2.0000     -19.224808      -523.1336
   9   2.0000     -19.185106      -522.0533
  10   2.0000     -19.174659      -521.7690
  11   2.0000     -14.652403      -398.7122
  12   2.0000     -14.532814      -395.4580
  13   2.0000     -14.444166      -393.0457
  14   2.0000     -14.440027      -392.9331
  15   2.0000     -14.439433      -392.9170
  16   2.0000     -14.437191      -392.8559
  17   2.0000     -14.422676      -392.4610
  18   2.0000     -14.422086      -392.4449
  19   2.0000     -10.382677      -282.5270
  20   2.0000     -10.378812      -282.4218
  21   2.0000     -10.366249      -282.0800
  22   2.0000     -10.357867      -281.8519
  23   2.0000     -10.355455      -281.7863
  24   2.0000     -10.354264      -281.7538
  25   2.0000     -10.351346      -281.6744
  26   2.0000     -10.350537      -281.6524
  27   2.0000     -10.343616      -281.4641
  28   2.0000     -10.333629      -281.1924
  29   2.0000     -10.332252      -281.1549
  30   2.0000     -10.331633      -281.1380
  31   2.0000     -10.327173      -281.0167
  32   2.0000     -10.327130      -281.0155
  33   2.0000     -10.324714      -280.9498
  34   2.0000     -10.324389      -280.9409
  35   2.0000     -10.324044      -280.9315
  36   2.0000     -10.321326      -280.8576
  37   2.0000     -10.315220      -280.6914
  38   2.0000     -10.314248      -280.6650
  39   2.0000     -10.311467      -280.5893
  40   2.0000     -10.308303      -280.5032
  41   2.0000     -10.307854      -280.4910
  42   2.0000     -10.305746      -280.4336
  43   2.0000     -10.302602      -280.3480
  44   2.0000     -10.299649      -280.2677
  45   2.0000     -10.299611      -280.2667
  46   2.0000     -10.299210      -280.2557
  47   2.0000     -10.298261      -280.2299
  48   2.0000     -10.297968      -280.2219
  49   2.0000     -10.293667      -280.1049
  50   2.0000     -10.292801      -280.0814
  51   2.0000     -10.290072      -280.0071
  52   2.0000     -10.287935      -279.9489
  53   2.0000     -10.287283      -279.9312
  54   2.0000     -10.287143      -279.9274
  55   2.0000     -10.283699      -279.8337
  56   2.0000     -10.281491      -279.7736
  57   2.0000     -10.280305      -279.7413
  58   2.0000     -10.273664      -279.5606
  59   2.0000     -10.273371      -279.5526
  60   2.0000     -10.272389      -279.5259
  61   2.0000     -10.271912      -279.5129
  62   2.0000     -10.263864      -279.2940
  63   2.0000     -10.260450      -279.2010
  64   2.0000     -10.260395      -279.1996
  65   2.0000     -10.258887      -279.1585
  66   2.0000     -10.256993      -279.1070
  67   2.0000     -10.251898      -278.9683
  68   2.0000     -10.246751      -278.8283
  69   2.0000     -10.246401      -278.8188
  70   2.0000     -10.241259      -278.6788
  71   2.0000      -9.574344      -260.5311
  72   2.0000      -8.091995      -220.1944
  73   2.0000      -8.065396      -219.4706
  74   2.0000      -7.344966      -199.8667
  75   2.0000      -7.334390      -199.5789
  76   2.0000      -7.333848      -199.5642
  77   2.0000      -6.061357      -164.9379
  78   2.0000      -6.056764      -164.8129
  79   2.0000      -6.054262      -164.7448
  80   2.0000      -6.034168      -164.1981
  81   2.0000      -6.029925      -164.0826
  82   2.0000      -6.028648      -164.0479
  83   2.0000      -1.328811       -36.1588
  84   2.0000      -1.301307       -35.4104
  85   2.0000      -1.283681       -34.9307
  86   2.0000      -1.214178       -33.0395
  87   2.0000      -1.155957       -31.4552
  88   2.0000      -1.147502       -31.2251
  89   2.0000      -1.142348       -31.0849
  90   2.0000      -1.123864       -30.5819
  91   2.0000      -1.113516       -30.3003
  92   2.0000      -1.052778       -28.6475
  93   2.0000      -1.043473       -28.3943
  94   2.0000      -1.040827       -28.3223
  95   2.0000      -1.019765       -27.7492
  96   2.0000      -1.000861       -27.2348
  97   2.0000      -0.996603       -27.1189
  98   2.0000      -0.996083       -27.1048
  99   2.0000      -0.989463       -26.9247
 100   2.0000      -0.987459       -26.8701
 101   2.0000      -0.979412       -26.6512
 102   2.0000      -0.957722       -26.0609
 103   2.0000      -0.933699       -25.4072
 104   2.0000      -0.928805       -25.2741
 105   2.0000      -0.926408       -25.2089
 106   2.0000      -0.917126       -24.9563
 107   2.0000      -0.908463       -24.7205
 108   2.0000      -0.907119       -24.6840
 109   2.0000      -0.901611       -24.5341
 110   2.0000      -0.888714       -24.1831
 111   2.0000      -0.883677       -24.0461
 112   2.0000      -0.871814       -23.7233
 113   2.0000      -0.860951       -23.4277
 114   2.0000      -0.850458       -23.1421
 115   2.0000      -0.843597       -22.9554
 116   2.0000      -0.836710       -22.7680
 117   2.0000      -0.835245       -22.7282
 118   2.0000      -0.833498       -22.6806
 119   2.0000      -0.824840       -22.4450
 120   2.0000      -0.808299       -21.9949
 121   2.0000      -0.806240       -21.9389
 122   2.0000      -0.805543       -21.9199
 123   2.0000      -0.792233       -21.5578
 124   2.0000      -0.780820       -21.2472
 125   2.0000      -0.766952       -20.8698
 126   2.0000      -0.760679       -20.6991
 127   2.0000      -0.757124       -20.6024
 128   2.0000      -0.750866       -20.4321
 129   2.0000      -0.748519       -20.3682
 130   2.0000      -0.728144       -19.8138
 131   2.0000      -0.722989       -19.6735
 132   2.0000      -0.719406       -19.5760
 133   2.0000      -0.710066       -19.3219
 134   2.0000      -0.702890       -19.1266
 135   2.0000      -0.698044       -18.9947
 136   2.0000      -0.696312       -18.9476
 137   2.0000      -0.686777       -18.6881
 138   2.0000      -0.683502       -18.5990
 139   2.0000      -0.680576       -18.5194
 140   2.0000      -0.679349       -18.4860
 141   2.0000      -0.670832       -18.2543
 142   2.0000      -0.661693       -18.0056
 143   2.0000      -0.655391       -17.8341
 144   2.0000      -0.649767       -17.6811
 145   2.0000      -0.640641       -17.4327
 146   2.0000      -0.636532       -17.3209
 147   2.0000      -0.636326       -17.3153
 148   2.0000      -0.631527       -17.1847
 149   2.0000      -0.626177       -17.0391
 150   2.0000      -0.624091       -16.9824
 151   2.0000      -0.616665       -16.7803
 152   2.0000      -0.615215       -16.7409
 153   2.0000      -0.609788       -16.5932
 154   2.0000      -0.607425       -16.5289
 155   2.0000      -0.605492       -16.4763
 156   2.0000      -0.598122       -16.2757
 157   2.0000      -0.593550       -16.1513
 158   2.0000      -0.590610       -16.0713
 159   2.0000      -0.587086       -15.9754
 160   2.0000      -0.579150       -15.7595
 161   2.0000      -0.577075       -15.7030
 162   2.0000      -0.574211       -15.6251
 163   2.0000      -0.573017       -15.5926
 164   2.0000      -0.566131       -15.4052
 165   2.0000      -0.565049       -15.3758
 166   2.0000      -0.562627       -15.3098
 167   2.0000      -0.561018       -15.2661
 168   2.0000      -0.558405       -15.1950
 169   2.0000      -0.556727       -15.1493
 170   2.0000      -0.552325       -15.0295
 171   2.0000      -0.550887       -14.9904
 172   2.0000      -0.546708       -14.8767
 173   2.0000      -0.540451       -14.7064
 174   2.0000      -0.536968       -14.6116
 175   2.0000      -0.532898       -14.5009
 176   2.0000      -0.531994       -14.4763
 177   2.0000      -0.531541       -14.4640
 178   2.0000      -0.529183       -14.3998
 179   2.0000      -0.526735       -14.3332
 180   2.0000      -0.524920       -14.2838
 181   2.0000      -0.523727       -14.2513
 182   2.0000      -0.521590       -14.1932
 183   2.0000      -0.517210       -14.0740
 184   2.0000      -0.516248       -14.0478
 185   2.0000      -0.512979       -13.9589
 186   2.0000      -0.511445       -13.9171
 187   2.0000      -0.510051       -13.8792
 188   2.0000      -0.507464       -13.8088
 189   2.0000      -0.498918       -13.5763
 190   2.0000      -0.498836       -13.5740
 191   2.0000      -0.498300       -13.5594
 192   2.0000      -0.494616       -13.4592
 193   2.0000      -0.491974       -13.3873
 194   2.0000      -0.489610       -13.3230
 195   2.0000      -0.486248       -13.2315
 196   2.0000      -0.483887       -13.1672
 197   2.0000      -0.483231       -13.1494
 198   2.0000      -0.477627       -12.9969
 199   2.0000      -0.476003       -12.9527
 200   2.0000      -0.475217       -12.9313
 201   2.0000      -0.468090       -12.7374
 202   2.0000      -0.465888       -12.6775
 203   2.0000      -0.462753       -12.5921
 204   2.0000      -0.461140       -12.5483
 205   2.0000      -0.457337       -12.4448
 206   2.0000      -0.455808       -12.4032
 207   2.0000      -0.454965       -12.3802
 208   2.0000      -0.454481       -12.3671
 209   2.0000      -0.452405       -12.3106
 210   2.0000      -0.449526       -12.2322
 211   2.0000      -0.449210       -12.2236
 212   2.0000      -0.448281       -12.1984
 213   2.0000      -0.446643       -12.1538
 214   2.0000      -0.444805       -12.1038
 215   2.0000      -0.443584       -12.0705
 216   2.0000      -0.441363       -12.0101
 217   2.0000      -0.439166       -11.9503
 218   2.0000      -0.438453       -11.9309
 219   2.0000      -0.435244       -11.8436
 220   2.0000      -0.434722       -11.8294
 221   2.0000      -0.433328       -11.7915
 222   2.0000      -0.430888       -11.7250
 223   2.0000      -0.428048       -11.6478
 224   2.0000      -0.426316       -11.6007
 225   2.0000      -0.423178       -11.5152
 226   2.0000      -0.421115       -11.4591
 227   2.0000      -0.419457       -11.4140
 228   2.0000      -0.416991       -11.3469
 229   2.0000      -0.414016       -11.2659
 230   2.0000      -0.407962       -11.1012
 231   2.0000      -0.405598       -11.0369
 232   2.0000      -0.404522       -11.0076
 233   2.0000      -0.401179       -10.9166
 234   2.0000      -0.396861       -10.7991
 235   2.0000      -0.392272       -10.6743
 236   2.0000      -0.389888       -10.6094
 237   2.0000      -0.385645       -10.4939
 238   2.0000      -0.378655       -10.3037
 239   2.0000      -0.375401       -10.2152
 240   2.0000      -0.369083       -10.0433
 241   2.0000      -0.364900        -9.9294
 242   2.0000      -0.353731        -9.6255
 243   2.0000      -0.350170        -9.5286
 244   2.0000      -0.349782        -9.5181
 245   2.0000      -0.339872        -9.2484
 246   2.0000      -0.338239        -9.2040
 247   2.0000      -0.337027        -9.1710
 248   2.0000      -0.331554        -9.0220
 249   2.0000      -0.320279        -8.7152
 250   2.0000      -0.317668        -8.6442
 251   2.0000      -0.317517        -8.6401
 252   2.0000      -0.315047        -8.5729
 253   2.0000      -0.299986        -8.1630
 254   2.0000      -0.298369        -8.1190
 255   2.0000      -0.289651        -7.8818
 256   2.0000      -0.271990        -7.4012
 257   2.0000      -0.234411        -6.3786
 258   2.0000      -0.219801        -5.9811
 259   0.0000      -0.101878        -2.7723
 260   0.0000      -0.073558        -2.0016
 261   0.0000      -0.054864        -1.4929
 262   0.0000      -0.047633        -1.2962
 263   0.0000      -0.042116        -1.1460

MULLIKEN ATOMIC CHARGES
-----------------------
   0 C :    0.029742
   1 C :   -0.126038
   2 S :    0.189463
   3 C :   -0.173096
   4 Cl:    0.001501
   5 C :    0.077274
   6 C :    0.142922
   7 O :   -0.126403
   8 C :   -0.095480
   9 C :    0.284898
  10 C :   -0.324906
  11 C :   -0.191484
  12 N :    0.155119
  13 C :   -0.197678
  14 N :    0.169030
  15 C :   -0.027933
  16 C :    0.055742
  17 C :   -0.025080
  18 C :    0.093251
  19 N :    0.230164
  20 O :   -0.229048
  21 O :   -0.207456
  22 C :    0.109646
  23 C :   -0.044507
  24 C :    0.105866
  25 C :   -0.007992
  26 C :    0.007977
  27 C :    0.100530
  28 N :   -0.253298
  29 C :    0.098341
  30 C :    0.002335
  31 C :    0.150999
  32 O :   -0.212751
  33 C :   -0.065443
  34 C :   -0.066162
  35 C :    0.172177
  36 O :   -0.220650
  37 N :   -0.271983
  38 C :    0.079546
  39 C :    0.015139
  40 C :    0.101722
  41 C :    0.028569
  42 C :    0.011178
  43 C :   -0.224759
  44 S :    0.195003
  45 C :   -0.167360
  46 C :    0.034891
  47 C :    0.150022
  48 C :    0.075747
  49 C :   -0.021244
  50 C :   -0.041448
  51 C :    0.191655
  52 O :   -0.300299
  53 C :    0.170379
  54 C :   -0.081527
  55 C :    0.014803
  56 C :   -0.024724
  57 C :    0.164479
  58 F :   -0.178342
  59 C :    0.173500
  60 F :   -0.174191
  61 C :   -0.028024
  62 C :   -0.000487
  63 C :   -0.025209
  64 N :   -0.076167
  65 N :   -0.077228
  66 C :    0.148241
  67 C :   -0.022741
  68 N :   -0.053382
  69 C :   -0.038948
  70 C :    0.014212
  71 H :    0.054820
  72 H :    0.035054
  73 H :    0.003860
  74 H :    0.005789
  75 H :   -0.003289
  76 H :    0.029746
  77 H :   -0.017065
  78 H :    0.037288
  79 H :    0.018485
  80 H :    0.016456
  81 H :    0.021786
  82 H :    0.025309
  83 H :    0.035428
  84 H :    0.035589
  85 H :    0.018679
  86 H :    0.014461
  87 H :    0.023005
  88 H :   -0.012018
  89 H :    0.022664
  90 H :    0.017444
  91 H :   -0.018882
  92 H :   -0.020525
  93 H :    0.039357
  94 H :    0.031476
  95 H :    0.033560
  96 H :    0.006511
  97 H :   -0.007314
  98 H :    0.034295
  99 H :    0.037631
 100 H :    0.028580
 101 H :    0.026319
 102 H :    0.051149
 103 H :   -0.006138
 104 H :    0.026010
 105 H :    0.011883
Sum of atomic charges:   -0.0000000

LOEWDIN ATOMIC CHARGES
----------------------
   0 C :   -0.060067
   1 C :   -0.147965
   2 S :    0.477767
   3 C :   -0.271840
   4 Cl:    0.192613
   5 C :   -0.116948
   6 C :    0.080154
   7 O :   -0.124663
   8 C :   -0.086523
   9 C :    0.074186
  10 C :   -0.134098
  11 C :   -0.015063
  12 N :   -0.049498
  13 C :   -0.026618
  14 N :   -0.041936
  15 C :    0.081059
  16 C :   -0.043464
  17 C :    0.024785
  18 C :   -0.032110
  19 N :    0.282969
  20 O :   -0.197086
  21 O :   -0.185240
  22 C :    0.013353
  23 C :   -0.001435
  24 C :    0.041472
  25 C :    0.012936
  26 C :   -0.019966
  27 C :    0.062927
  28 N :    0.006068
  29 C :    0.036029
  30 C :   -0.063153
  31 C :    0.073094
  32 O :   -0.207585
  33 C :   -0.128960
  34 C :   -0.115809
  35 C :    0.080283
  36 O :   -0.205242
  37 N :    0.005297
  38 C :    0.028563
  39 C :   -0.059923
  40 C :    0.079685
  41 C :   -0.045074
  42 C :   -0.003311
  43 C :   -0.193168
  44 S :    0.516586
  45 C :   -0.192515
  46 C :   -0.075074
  47 C :   -0.031753
  48 C :   -0.049505
  49 C :    0.005138
  50 C :   -0.068468
  51 C :    0.072679
  52 O :   -0.093026
  53 C :    0.077205
  54 C :   -0.023090
  55 C :   -0.015381
  56 C :   -0.056077
  57 C :    0.064750
  58 F :   -0.051969
  59 C :    0.062630
  60 F :   -0.044917
  61 C :   -0.049457
  62 C :   -0.042038
  63 C :   -0.048390
  64 N :   -0.092941
  65 N :    0.154820
  66 C :    0.038465
  67 C :   -0.057072
  68 N :   -0.076485
  69 C :   -0.026301
  70 C :   -0.025240
  71 H :    0.038092
  72 H :    0.048181
  73 H :    0.043073
  74 H :    0.043800
  75 H :    0.036664
  76 H :    0.040007
  77 H :    0.025997
  78 H :    0.035439
  79 H :    0.020464
  80 H :    0.028070
  81 H :    0.020303
  82 H :    0.029534
  83 H :    0.018129
  84 H :    0.031322
  85 H :    0.023794
  86 H :    0.027479
  87 H :    0.029718
  88 H :    0.031197
  89 H :    0.035730
  90 H :    0.019459
  91 H :    0.031776
  92 H :    0.032420
  93 H :    0.031590
  94 H :    0.015804
  95 H :    0.017616
  96 H :    0.024582
  97 H :    0.031155
  98 H :    0.035648
  99 H :    0.037254
 100 H :    0.027494
 101 H :    0.032829
 102 H :    0.035716
 103 H :    0.029148
 104 H :    0.020342
 105 H :    0.021108

  Mayer bond orders larger than 0.100000
B(  0-C ,  1-C ) :   1.5456 B(  0-C ,  5-C ) :   1.2192 B(  0-C ,  9-C ) :   1.0021
B(  1-C ,  2-S ) :   1.1636 B(  1-C , 71-H ) :   0.9531 B(  2-S ,  3-C ) :   1.1524
B(  3-C ,  4-Cl) :   1.1295 B(  3-C ,  5-C ) :   1.4766 B(  5-C ,  6-C ) :   0.9527
B(  6-C ,  7-O ) :   2.2415 B(  6-C ,  8-C ) :   0.9260 B(  8-C ,  9-C ) :   1.0512
B(  8-C , 15-C ) :   1.6634 B(  9-C , 10-C ) :   1.6677 B( 10-C , 11-C ) :   1.1435
B( 10-C , 13-C ) :   1.1351 B( 11-C , 12-N ) :   2.9917 B( 13-C , 14-N ) :   2.9893
B( 15-C , 16-C ) :   1.0779 B( 15-C , 72-H ) :   0.9516 B( 16-C , 17-C ) :   1.2794
B( 16-C , 24-C ) :   1.3223 B( 17-C , 18-C ) :   1.4102 B( 17-C , 73-H ) :   0.9979
B( 18-C , 19-N ) :   0.8612 B( 18-C , 22-C ) :   1.3168 B( 19-N , 20-O ) :   1.5319
B( 19-N , 21-O ) :   1.5262 B( 20-O , 21-O ) :   0.2691 B( 22-C , 23-C ) :   1.3227
B( 22-C , 25-C ) :   1.0895 B( 23-C , 24-C ) :   1.4130 B( 23-C , 74-H ) :   0.9982
B( 24-C , 75-H ) :   0.9821 B( 25-C , 26-C ) :   1.6379 B( 25-C , 76-H ) :   0.9291
B( 26-C , 27-C ) :   1.1894 B( 26-C , 77-H ) :   0.9484 B( 27-C , 28-N ) :   1.1611
B( 27-C , 34-C ) :   1.3297 B( 28-N , 29-C ) :   0.9438 B( 28-N , 31-C ) :   1.0614
B( 29-C , 30-C ) :   1.1219 B( 29-C , 78-H ) :   0.9266 B( 29-C , 79-H ) :   0.9500
B( 30-C , 80-H ) :   0.9647 B( 30-C , 81-H ) :   0.9630 B( 30-C , 82-H ) :   0.9600
B( 31-C , 32-O ) :   2.0333 B( 31-C , 33-C ) :   0.9888 B( 32-O , 89-H ) :   0.1059
B( 33-C , 34-C ) :   1.2649 B( 33-C , 40-C ) :   1.3277 B( 34-C , 35-C ) :   0.9896
B( 35-C , 36-O ) :   1.9975 B( 35-C , 37-N ) :   1.0708 B( 36-O , 76-H ) :   0.1123
B( 37-N , 38-C ) :   0.9455 B( 37-N , 40-C ) :   1.1378 B( 38-C , 39-C ) :   1.1207
B( 38-C , 83-H ) :   0.9372 B( 38-C , 84-H ) :   0.9236 B( 39-C , 85-H ) :   0.9679
B( 39-C , 86-H ) :   0.9670 B( 39-C , 87-H ) :   0.9630 B( 40-C , 41-C ) :   1.2323
B( 41-C , 42-C ) :   1.5965 B( 41-C , 88-H ) :   0.9380 B( 42-C , 43-C ) :   1.1475
B( 42-C , 89-H ) :   0.9278 B( 43-C , 44-S ) :   1.1613 B( 43-C , 45-C ) :   0.1010
B( 43-C , 47-C ) :   1.3321 B( 44-S , 45-C ) :   1.2409 B( 45-C , 46-C ) :   1.3879
B( 45-C , 90-H ) :   0.9632 B( 46-C , 47-C ) :   1.2042 B( 46-C , 51-C ) :   1.1086
B( 47-C , 48-C ) :   1.1881 B( 48-C , 49-C ) :   1.4495 B( 48-C , 54-C ) :   1.0535
B( 49-C , 50-C ) :   1.2363 B( 49-C , 91-H ) :   0.9947 B( 50-C , 51-C ) :   1.4915
B( 50-C , 92-H ) :   0.9889 B( 51-C , 52-O ) :   1.1886 B( 52-O , 53-C ) :   0.9558
B( 53-C , 93-H ) :   0.9747 B( 53-C , 94-H ) :   0.9678 B( 53-C , 95-H ) :   0.9677
B( 54-C , 55-C ) :   1.6922 B( 54-C , 96-H ) :   0.9466 B( 55-C , 56-C ) :   1.1683
B( 55-C , 97-H ) :   0.9598 B( 56-C , 57-C ) :   1.3936 B( 56-C , 61-C ) :   0.1308
B( 56-C , 63-C ) :   1.1541 B( 57-C , 58-F ) :   1.1248 B( 57-C , 59-C ) :   1.1669
B( 59-C , 60-F ) :   1.1182 B( 59-C , 61-C ) :   1.4100 B( 61-C , 62-C ) :   1.1449
B( 61-C , 69-C ) :   1.1318 B( 62-C , 63-C ) :   1.2299 B( 62-C , 68-N ) :   1.4685
B( 63-C , 64-N ) :   1.4418 B( 64-N , 65-N ) :   1.2088 B( 64-N , 68-N ) :   0.1619
B( 65-N , 66-C ) :   0.9333 B( 65-N , 68-N ) :   1.2233 B( 66-C , 67-C ) :   1.1158
B( 66-C , 98-H ) :   0.9451 B( 66-C , 99-H ) :   0.9463 B( 67-C ,100-H ) :   0.9645
B( 67-C ,101-H ) :   0.9651 B( 67-C ,102-H ) :   0.9667 B( 69-C , 70-C ) :   1.9177
B( 69-C ,103-H ) :   0.9482 B( 70-C ,104-H ) :   0.9259 B( 70-C ,105-H ) :   0.9454

-----------------------------------------------------------------------------
         ABSORPTION SPECTRUM VIA TRANSITION ELECTRIC DIPOLE MOMENTS
-----------------------------------------------------------------------------
State   Energy  Wavelength   fosc         T2         TX        TY        TZ
        (cm-1)    (nm)                  (au**2)     (au)      (au)      (au)
-----------------------------------------------------------------------------
   0   12666.7    789.5   0.820033603  21.31290   2.35739  -3.90222   0.72684
   1   16083.9    621.7   0.070263092   1.43817   0.76211  -0.91812   0.12008
   2   18223.5    548.7   0.028299800   0.51124  -0.03623  -0.63178  -0.33284
   3   20200.4    495.0   0.013792130   0.22477   0.01291  -0.26690  -0.39163
   4   21517.4    464.7   0.005088528   0.07785   0.05968   0.21044  -0.17322
   5   21737.7    460.0   0.087987812   1.33255   0.87538  -0.75242   0.01096
   6   24071.5    415.4   0.010838047   0.14823   0.25554   0.28741   0.01791
   7   24771.6    403.7   0.600223631   7.97691  -1.06656   2.36335  -1.11980
   8   25083.2    398.7   0.132299202   1.73640   0.53590  -1.09158   0.50760
   9   25308.2    395.1   0.041299239   0.53722  -0.73067   0.04239   0.03934
  10   25638.0    390.0   0.310355396   3.98521   0.88717  -1.55779   0.87831
  11   26536.0    376.8   0.120585927   1.49602   0.77778  -0.40219   0.85400
  12   27112.4    368.8   0.091227028   1.10772  -0.15312   0.95222  -0.42138
  13   28740.3    347.9   0.242411952   2.77676  -1.02637   1.11648  -0.69051
  14   28872.1    346.4   0.048257506   0.55025  -0.52360   0.34616  -0.39531
  15   29157.3    343.0   0.003753040   0.04238   0.17482  -0.05597   0.09316
  16   29514.3    338.8   0.019633253   0.21900   0.05170   0.42470  -0.18961
  17   29901.5    334.4   0.040197256   0.44257  -0.65656   0.10720  -0.00193
  18   30115.3    332.1   0.167496670   1.83103  -0.97419   0.89945  -0.27011
  19   30907.8    323.5   0.007341803   0.07820  -0.09635  -0.11480  -0.23609
  20   31353.4    318.9   0.002669063   0.02803  -0.06620   0.03471  -0.14979
  21   31697.4    315.5   0.003544991   0.03682  -0.12861   0.09111  -0.10944
  22   32330.0    309.3   0.068139633   0.69386   0.36386  -0.69705   0.27492
  23   32518.6    307.5   0.056628080   0.57329  -0.34348   0.61113  -0.28607
  24   32679.2    306.0   0.019113950   0.19255   0.30456  -0.22898   0.21764
  25   32844.0    304.5   0.080601497   0.80791  -0.56618   0.51770  -0.46833
  26   33268.5    300.6   0.040795130   0.40369   0.62974  -0.08428   0.00397
  27   33619.1    297.4   0.036327620   0.35573  -0.24026  -0.54367   0.04934
  28   34282.1    291.7   0.101692653   0.97656  -0.92979  -0.30576   0.13622
  29   34486.3    290.0   0.017853673   0.17043   0.13876  -0.19719  -0.33511
  30   34883.8    286.7   0.044107317   0.41626  -0.27804  -0.50422   0.29105
  31   34988.5    285.8   0.027620752   0.25989  -0.32771   0.19662  -0.33740
  32   35068.2    285.2   0.049859172   0.46807  -0.11640  -0.31277  -0.59724
  33   35517.2    281.6   0.067585877   0.62646   0.43261  -0.37017   0.54980
  34   36279.7    275.6   0.060610181   0.54999  -0.41837   0.23042   0.56733
  35   36539.0    273.7   0.193117101   1.73996  -1.22374  -0.44808  -0.20408
  36   36821.1    271.6   0.195009797   1.74355   0.36839  -1.00753   0.76989
  37   37051.6    269.9   0.074282656   0.66002   0.35287   0.17638  -0.71021
  38   37341.1    267.8   0.088250016   0.77804  -0.84883   0.18111   0.15724
  39   37519.8    266.5   0.176791106   1.55123  -1.22899   0.10408   0.17315
  40   37768.3    264.8   0.006639158   0.05787  -0.21529   0.09533   0.04934
  41   37874.6    264.0   0.050037298   0.43493   0.61996  -0.04726  -0.21988
  42   37917.5    263.7   0.067161397   0.58312  -0.14008  -0.54938   0.51155
  43   38273.8    261.3   0.118277615   1.01736   0.62906   0.62429  -0.48157
  44   38283.9    261.2   0.064634929   0.55581   0.59944   0.37218  -0.24077
  45   38466.2    260.0   0.179650704   1.53753  -0.82797  -0.71385   0.58516
  46   38901.2    257.1   0.123300452   1.04346   0.72308  -0.53417   0.48506
  47   39093.4    255.8   0.062703322   0.52804  -0.55016  -0.35499   0.31518
  48   39371.3    254.0   0.024743350   0.20690   0.38834  -0.00366   0.23680
  49   39524.5    253.0   0.047572246   0.39624   0.34222   0.02607   0.52769
  50   39659.3    252.1   0.124325329   1.03203  -0.01762   0.94701  -0.36727
  51   39991.7    250.1   0.041756411   0.34374  -0.08485  -0.10544   0.57046

FINAL SINGLE POINT ENERGY     -4343.819777532638

DIPOLE MOMENT
-------------
                                X             Y             Z
Electronic contribution:    -53.33178      75.44168       5.00681
Nuclear contribution   :     52.27011     -79.22281      -4.76134
                        -----------------------------------------
Total Dipole Moment    :     -1.06167      -3.78113       0.24547
                        -----------------------------------------
Magnitude (a.u.)       :      3.93502
Magnitude (Debye)      :     10.00202

Rotational constants in cm-1:     0.002217     0.000353     0.000351
Rotational constants in MHz :    66.460573    10.574002    10.534663

                             ****ORCA TERMINATED NORMALLY****
TOTAL RUN TIME: 0 days 0 hours 13 minutes 14 seconds 562 msec
