                         Program Version 4.2.0 -  RELEASE  -
|  1> # ORCA input file
|  2> # SCF done       -131.806379709657          0.000393251396
|  3> ! CAM-B3LYP def2-SVP def2/J RIJCOSX Grid4 TightSCF
|  4> %maxcore 5000
|  5> %tddft
|  6>     Mode sTDDFT
|  7>     Ethresh 5.0
|  8>     maxcore 5000
|  9> end
| 10>
| 11> %pal
| 12>   nprocs 6
| 13>   end
| 14> * xyz 0 1
| 15>    C        0.84103         0.65467        -0.59225
| 16>    C       -0.29273         1.35262        -0.87056
| 17>    S       -1.63034         0.29345        -1.12976
| 18>    C       -0.64160        -1.12363        -0.85673
| 19>   Cl       -1.29716        -2.68371        -0.94441
| 20>    C        0.64329        -0.76523        -0.58384
| 21>    C        1.91140        -1.43971        -0.27356
| 22>    O        2.13496        -2.62479        -0.18170
| 23>    C        2.88830        -0.32940        -0.08577
| 24>    C        2.23030         0.94558        -0.29207
| 25>    C        2.77172         2.20304        -0.22935
| 26>    C        1.98840         3.35368        -0.45569
| 27>    N        1.36389         4.29901        -0.63635
| 28>    C        4.12054         2.49172         0.05422
| 29>    N        5.21023         2.77462         0.27981
| 30>    C        4.19174        -0.55802         0.25117
| 31>    C        4.70378        -1.82228         0.43226
| 32>    C        5.20702        -2.92228         0.61444
| 33>    C        5.68420        -4.15281         0.81072
| 34>    C        6.10107        -5.28521         0.99752
| 35>    C        6.48320        -6.59885         1.19873
| 36>    O        7.68623        -6.90542         1.74186
| 37>    C        7.74908        -8.25188         1.83179
| 38>    C        6.58346        -8.82774         1.33630
| 39>    C        5.76329        -7.75881         0.92670
| 40>    C        4.40763        -7.82962         0.32543
| 41>    C        6.27092       -10.27647         1.25359
| 42>    C        8.91787        -8.83812         2.39261
| 43>    S        9.06331       -10.53791         2.65799
| 44>    C       10.66565       -10.35438         3.30042
| 45>    C       11.31836       -11.52438         3.81877
| 46>    O       12.44119       -11.58418         4.27490
| 47>    C       11.05388        -9.01098         3.30420
| 48>    C       10.04608        -8.16661         2.81676
| 49>    C       12.30426        -8.49096         3.80562
| 50>    C       13.54595        -8.98718         3.65926
| 51>    C       14.64443        -8.49148         4.55739
| 52>    O       14.62897        -7.48097         5.21451
| 53>    C       15.66595        -9.53893         4.47726
| 54>    C       16.84394        -9.83743         5.09573
| 55>    S       17.50228       -11.32983         4.46914
| 56>    C       16.18606       -11.52911         3.37263
| 57>    C       15.29266       -10.51126         3.48982
| 58>    C       14.04809       -10.10771         2.87164
| 59>    C       13.57391       -10.57170         1.67793
| 60>    C       14.20358       -11.63870         1.00194
| 61>    N       14.69667       -12.51056         0.44332
| 62>    C       12.46850       -10.03785         0.98809
| 63>    N       11.59954        -9.62204         0.36330
| 64>   Cl       17.64059        -8.96111         6.30596
| 65>    H       -0.44011         2.41200        -0.94167
| 66>    H        4.87941         0.26639         0.39670
| 67>    H        3.72685        -8.36510         0.98594
| 68>    H        4.44197        -8.36095        -0.62522
| 69>    H        4.01943        -6.82883         0.15464
| 70>    H        7.04241       -10.80032         0.69015
| 71>    H        5.31256       -10.42813         0.76562
| 72>    H        6.23356       -10.71743         2.24961
| 73>    H       10.67987       -12.42705         3.76807
| 74>    H       10.14659        -7.09919         2.73794
| 75>    H       12.22308        -7.59297         4.41102
| 76>    H       16.15527       -12.38897         2.73339
| 77> *
| 78>
| 79>                          ****END OF INPUT****

CARTESIAN COORDINATES (ANGSTROEM)
---------------------------------
  C      0.841030    0.654670   -0.592250
  C     -0.292730    1.352620   -0.870560
  S     -1.630340    0.293450   -1.129760
  C     -0.641600   -1.123630   -0.856730
  Cl    -1.297160   -2.683710   -0.944410
  C      0.643290   -0.765230   -0.583840
  C      1.911400   -1.439710   -0.273560
  O      2.134960   -2.624790   -0.181700
  C      2.888300   -0.329400   -0.085770
  C      2.230300    0.945580   -0.292070
  C      2.771720    2.203040   -0.229350
  C      1.988400    3.353680   -0.455690
  N      1.363890    4.299010   -0.636350
  C      4.120540    2.491720    0.054220
  N      5.210230    2.774620    0.279810
  C      4.191740   -0.558020    0.251170
  C      4.703780   -1.822280    0.432260
  C      5.207020   -2.922280    0.614440
  C      5.684200   -4.152810    0.810720
  C      6.101070   -5.285210    0.997520
  C      6.483200   -6.598850    1.198730
  O      7.686230   -6.905420    1.741860
  C      7.749080   -8.251880    1.831790
  C      6.583460   -8.827740    1.336300
  C      5.763290   -7.758810    0.926700
  C      4.407630   -7.829620    0.325430
  C      6.270920  -10.276470    1.253590
  C      8.917870   -8.838120    2.392610
  S      9.063310  -10.537910    2.657990
  C     10.665650  -10.354380    3.300420
  C     11.318360  -11.524380    3.818770
  O     12.441190  -11.584180    4.274900
  C     11.053880   -9.010980    3.304200
  C     10.046080   -8.166610    2.816760
  C     12.304260   -8.490960    3.805620
  C     13.545950   -8.987180    3.659260
  C     14.644430   -8.491480    4.557390
  O     14.628970   -7.480970    5.214510
  C     15.665950   -9.538930    4.477260
  C     16.843940   -9.837430    5.095730
  S     17.502280  -11.329830    4.469140
  C     16.186060  -11.529110    3.372630
  C     15.292660  -10.511260    3.489820
  C     14.048090  -10.107710    2.871640
  C     13.573910  -10.571700    1.677930
  C     14.203580  -11.638700    1.001940
  N     14.696670  -12.510560    0.443320
  C     12.468500  -10.037850    0.988090
  N     11.599540   -9.622040    0.363300
  Cl    17.640590   -8.961110    6.305960
  H     -0.440110    2.412000   -0.941670
  H      4.879410    0.266390    0.396700
  H      3.726850   -8.365100    0.985940
  H      4.441970   -8.360950   -0.625220
  H      4.019430   -6.828830    0.154640
  H      7.042410  -10.800320    0.690150
  H      5.312560  -10.428130    0.765620
  H      6.233560  -10.717430    2.249610
  H     10.679870  -12.427050    3.768070
  H     10.146590   -7.099190    2.737940
  H     12.223080   -7.592970    4.411020
  H     16.155270  -12.388970    2.733390

 Total Charge           Charge          ....    0
 Multiplicity           Mult            ....    1
 Number of Electrons    NEL             ....  376
 Basis Dimension        Dim             ....  780

ORBITAL ENERGIES
----------------

  NO   OCC          E(Eh)            E(eV)
   0   2.0000    -101.618240     -2765.1729
   1   2.0000    -101.615502     -2765.0984
   2   2.0000     -88.994282     -2421.6575
   3   2.0000     -88.991613     -2421.5849
   4   2.0000     -88.988889     -2421.5108
   5   2.0000     -19.309383      -525.4350
   6   2.0000     -19.224597      -523.1279
   7   2.0000     -19.221025      -523.0307
   8   2.0000     -19.220372      -523.0129
   9   2.0000     -14.423540      -392.4845
  10   2.0000     -14.421645      -392.4329
  11   2.0000     -14.419153      -392.3651
  12   2.0000     -14.418419      -392.3451
  13   2.0000     -10.376677      -282.3637
  14   2.0000     -10.376559      -282.3605
  15   2.0000     -10.376340      -282.3546
  16   2.0000     -10.374196      -282.2962
  17   2.0000     -10.374187      -282.2960
  18   2.0000     -10.357368      -281.8383
  19   2.0000     -10.356620      -281.8179
  20   2.0000     -10.351277      -281.6726
  21   2.0000     -10.350260      -281.6449
  22   2.0000     -10.348448      -281.5956
  23   2.0000     -10.345932      -281.5271
  24   2.0000     -10.339080      -281.3407
  25   2.0000     -10.336422      -281.2683
  26   2.0000     -10.330815      -281.1158
  27   2.0000     -10.326299      -280.9929
  28   2.0000     -10.325280      -280.9651
  29   2.0000     -10.323686      -280.9218
  30   2.0000     -10.321120      -280.8520
  31   2.0000     -10.321021      -280.8493
  32   2.0000     -10.319745      -280.8145
  33   2.0000     -10.319561      -280.8095
  34   2.0000     -10.318963      -280.7932
  35   2.0000     -10.314076      -280.6603
  36   2.0000     -10.312833      -280.6265
  37   2.0000     -10.312499      -280.6174
  38   2.0000     -10.309965      -280.5484
  39   2.0000     -10.309470      -280.5349
  40   2.0000     -10.308270      -280.5023
  41   2.0000     -10.307064      -280.4695
  42   2.0000     -10.305357      -280.4230
  43   2.0000     -10.303558      -280.3741
  44   2.0000     -10.300820      -280.2996
  45   2.0000     -10.299758      -280.2707
  46   2.0000     -10.298782      -280.2441
  47   2.0000     -10.298769      -280.2438
  48   2.0000     -10.289010      -279.9782
  49   2.0000     -10.283558      -279.8298
  50   2.0000      -9.573030      -260.4954
  51   2.0000      -9.570311      -260.4214
  52   2.0000      -8.089990      -220.1398
  53   2.0000      -8.087310      -220.0669
  54   2.0000      -8.083738      -219.9697
  55   2.0000      -7.343676      -199.8316
  56   2.0000      -7.340940      -199.7571
  57   2.0000      -7.333048      -199.5424
  58   2.0000      -7.332541      -199.5286
  59   2.0000      -7.330338      -199.4686
  60   2.0000      -7.329820      -199.4545
  61   2.0000      -6.059395      -164.8845
  62   2.0000      -6.056662      -164.8101
  63   2.0000      -6.054766      -164.7586
  64   2.0000      -6.052969      -164.7097
  65   2.0000      -6.052217      -164.6892
  66   2.0000      -6.052076      -164.6854
  67   2.0000      -6.049612      -164.6183
  68   2.0000      -6.048746      -164.5948
  69   2.0000      -6.046127      -164.5235
  70   2.0000      -1.228336       -33.4247
  71   2.0000      -1.137796       -30.9610
  72   2.0000      -1.136957       -30.9382
  73   2.0000      -1.136464       -30.9248
  74   2.0000      -1.039171       -28.2773
  75   2.0000      -1.036251       -28.1978
  76   2.0000      -1.019424       -27.7399
  77   2.0000      -1.019004       -27.7285
  78   2.0000      -1.012033       -27.5388
  79   2.0000      -1.001065       -27.2404
  80   2.0000      -0.996813       -27.1247
  81   2.0000      -0.990166       -26.9438
  82   2.0000      -0.986530       -26.8449
  83   2.0000      -0.957225       -26.0474
  84   2.0000      -0.953266       -25.9397
  85   2.0000      -0.943267       -25.6676
  86   2.0000      -0.927741       -25.2451
  87   2.0000      -0.921295       -25.0697
  88   2.0000      -0.909797       -24.7568
  89   2.0000      -0.904506       -24.6129
  90   2.0000      -0.896801       -24.4032
  91   2.0000      -0.884280       -24.0625
  92   2.0000      -0.862879       -23.4801
  93   2.0000      -0.846186       -23.0259
  94   2.0000      -0.836325       -22.7576
  95   2.0000      -0.833778       -22.6883
  96   2.0000      -0.830537       -22.6001
  97   2.0000      -0.817425       -22.2433
  98   2.0000      -0.803558       -21.8659
  99   2.0000      -0.793612       -21.5953
 100   2.0000      -0.782157       -21.2836
 101   2.0000      -0.759242       -20.6600
 102   2.0000      -0.755464       -20.5572
 103   2.0000      -0.752202       -20.4685
 104   2.0000      -0.723129       -19.6773
 105   2.0000      -0.708998       -19.2928
 106   2.0000      -0.697371       -18.9764
 107   2.0000      -0.689458       -18.7611
 108   2.0000      -0.679353       -18.4861
 109   2.0000      -0.677335       -18.4312
 110   2.0000      -0.674572       -18.3560
 111   2.0000      -0.674318       -18.3491
 112   2.0000      -0.670297       -18.2397
 113   2.0000      -0.643074       -17.4989
 114   2.0000      -0.626729       -17.0542
 115   2.0000      -0.622577       -16.9412
 116   2.0000      -0.619603       -16.8603
 117   2.0000      -0.615502       -16.7487
 118   2.0000      -0.612047       -16.6547
 119   2.0000      -0.605832       -16.4855
 120   2.0000      -0.589657       -16.0454
 121   2.0000      -0.586667       -15.9640
 122   2.0000      -0.583067       -15.8661
 123   2.0000      -0.572028       -15.5657
 124   2.0000      -0.559477       -15.2241
 125   2.0000      -0.551982       -15.0202
 126   2.0000      -0.551263       -15.0006
 127   2.0000      -0.547693       -14.9035
 128   2.0000      -0.546642       -14.8749
 129   2.0000      -0.533818       -14.5259
 130   2.0000      -0.533097       -14.5063
 131   2.0000      -0.531966       -14.4755
 132   2.0000      -0.529511       -14.4087
 133   2.0000      -0.528127       -14.3711
 134   2.0000      -0.522483       -14.2175
 135   2.0000      -0.516773       -14.0621
 136   2.0000      -0.516756       -14.0616
 137   2.0000      -0.515590       -14.0299
 138   2.0000      -0.508928       -13.8486
 139   2.0000      -0.507546       -13.8110
 140   2.0000      -0.507118       -13.7994
 141   2.0000      -0.500890       -13.6299
 142   2.0000      -0.498094       -13.5538
 143   2.0000      -0.496213       -13.5026
 144   2.0000      -0.492836       -13.4108
 145   2.0000      -0.492062       -13.3897
 146   2.0000      -0.485108       -13.2005
 147   2.0000      -0.483066       -13.1449
 148   2.0000      -0.477479       -12.9929
 149   2.0000      -0.475888       -12.9496
 150   2.0000      -0.472824       -12.8662
 151   2.0000      -0.461693       -12.5633
 152   2.0000      -0.457612       -12.4523
 153   2.0000      -0.455964       -12.4074
 154   2.0000      -0.455171       -12.3858
 155   2.0000      -0.454284       -12.3617
 156   2.0000      -0.453035       -12.3277
 157   2.0000      -0.449883       -12.2420
 158   2.0000      -0.445903       -12.1336
 159   2.0000      -0.445801       -12.1309
 160   2.0000      -0.442570       -12.0429
 161   2.0000      -0.440271       -11.9804
 162   2.0000      -0.436478       -11.8772
 163   2.0000      -0.434923       -11.8349
 164   2.0000      -0.434139       -11.8135
 165   2.0000      -0.432987       -11.7822
 166   2.0000      -0.429779       -11.6949
 167   2.0000      -0.423043       -11.5116
 168   2.0000      -0.419872       -11.4253
 169   2.0000      -0.418221       -11.3804
 170   2.0000      -0.409292       -11.1374
 171   2.0000      -0.404450       -11.0057
 172   2.0000      -0.401664       -10.9298
 173   2.0000      -0.394791       -10.7428
 174   2.0000      -0.373162       -10.1543
 175   2.0000      -0.365548        -9.9471
 176   2.0000      -0.357277        -9.7220
 177   2.0000      -0.353662        -9.6236
 178   2.0000      -0.350158        -9.5283
 179   2.0000      -0.341269        -9.2864
 180   2.0000      -0.337805        -9.1922
 181   2.0000      -0.332438        -9.0461
 182   2.0000      -0.325590        -8.8597
 183   2.0000      -0.321258        -8.7419
 184   2.0000      -0.319174        -8.6852
 185   2.0000      -0.308080        -8.3833
 186   2.0000      -0.305910        -8.3242
 187   2.0000      -0.265204        -7.2166
 188   0.0000      -0.109862        -2.9895
 189   0.0000      -0.095479        -2.5981
 190   0.0000      -0.060271        -1.6401
 191   0.0000      -0.049257        -1.3404
 192   0.0000      -0.044030        -1.1981

MULLIKEN ATOMIC CHARGES
-----------------------
   0 C :    0.028386
   1 C :   -0.131353
   2 S :    0.185728
   3 C :   -0.172920
   4 Cl:   -0.004189
   5 C :    0.073711
   6 C :    0.147472
   7 O :   -0.117048
   8 C :   -0.115396
   9 C :    0.306324
  10 C :   -0.327357
  11 C :   -0.195166
  12 N :    0.157540
  13 C :   -0.189324
  14 N :    0.168184
  15 C :   -0.116643
  16 C :    0.056239
  17 C :    0.044387
  18 C :   -0.098381
  19 C :    0.104332
  20 C :    0.058804
  21 O :   -0.191092
  22 C :    0.205157
  23 C :   -0.190732
  24 C :   -0.133657
  25 C :    0.118023
  26 C :    0.121742
  27 C :   -0.107974
  28 S :    0.148957
  29 C :   -0.172188
  30 C :    0.200205
  31 O :   -0.201494
  32 C :    0.103565
  33 C :   -0.002529
  34 C :    0.001567
  35 C :   -0.107418
  36 C :    0.130893
  37 O :   -0.123323
  38 C :    0.095977
  39 C :   -0.173609
  40 S :    0.185399
  41 C :   -0.121700
  42 C :    0.019380
  43 C :    0.314349
  44 C :   -0.333259
  45 C :   -0.191247
  46 N :    0.161899
  47 C :   -0.196915
  48 N :    0.175458
  49 Cl:   -0.000934
  50 H :    0.054970
  51 H :    0.060130
  52 H :    0.033246
  53 H :    0.036937
  54 H :    0.037217
  55 H :    0.044187
  56 H :    0.016655
  57 H :    0.036912
  58 H :   -0.011250
  59 H :    0.006085
  60 H :    0.033255
  61 H :    0.053827
Sum of atomic charges:   -0.0000000

LOEWDIN ATOMIC CHARGES
----------------------
   0 C :   -0.058844
   1 C :   -0.148709
   2 S :    0.474321
   3 C :   -0.273286
   4 Cl:    0.188830
   5 C :   -0.115921
   6 C :    0.077355
   7 O :   -0.121028
   8 C :   -0.071470
   9 C :    0.071320
  10 C :   -0.133787
  11 C :   -0.015816
  12 N :   -0.049528
  13 C :   -0.021923
  14 N :   -0.042728
  15 C :    0.047898
  16 C :    0.005731
  17 C :    0.005226
  18 C :   -0.032570
  19 C :    0.005050
  20 C :   -0.003158
  21 O :    0.027027
  22 C :    0.024317
  23 C :   -0.055238
  24 C :   -0.019612
  25 C :   -0.042639
  26 C :   -0.055125
  27 C :   -0.151677
  28 S :    0.498581
  29 C :   -0.232926
  30 C :    0.083155
  31 O :   -0.144742
  32 C :   -0.025858
  33 C :   -0.027279
  34 C :    0.060153
  35 C :   -0.055100
  36 C :    0.084814
  37 O :   -0.127375
  38 C :   -0.115269
  39 C :   -0.272590
  40 S :    0.478207
  41 C :   -0.147353
  42 C :   -0.048339
  43 C :    0.082449
  44 C :   -0.132300
  45 C :   -0.015391
  46 N :   -0.049959
  47 C :   -0.021018
  48 N :   -0.050847
  49 Cl:    0.191696
  50 H :    0.038000
  51 H :    0.063242
  52 H :    0.041356
  53 H :    0.042985
  54 H :    0.045036
  55 H :    0.038911
  56 H :    0.038015
  57 H :    0.036119
  58 H :   -0.001455
  59 H :    0.041051
  60 H :    0.051579
  61 H :    0.038433

  Mayer bond orders larger than 0.100000
B(  0-C ,  1-C ) :   1.5449 B(  0-C ,  5-C ) :   1.2270 B(  0-C ,  9-C ) :   1.0011
B(  1-C ,  2-S ) :   1.1633 B(  1-C , 50-H ) :   0.9543 B(  2-S ,  3-C ) :   1.1463
B(  3-C ,  4-Cl) :   1.1251 B(  3-C ,  5-C ) :   1.4869 B(  5-C ,  6-C ) :   0.9377
B(  6-C ,  7-O ) :   2.2721 B(  6-C ,  8-C ) :   0.9303 B(  8-C ,  9-C ) :   1.0578
B(  8-C , 15-C ) :   1.6292 B(  9-C , 10-C ) :   1.6562 B( 10-C , 11-C ) :   1.1450
B( 10-C , 13-C ) :   1.1468 B( 11-C , 12-N ) :   2.9894 B( 13-C , 14-N ) :   2.9734
B( 15-C , 16-C ) :   1.0449 B( 15-C , 51-H ) :   0.9351 B( 16-C , 17-C ) :   2.0173
B( 16-C , 19-C ) :   0.1693 B( 17-C , 18-C ) :   0.9298 B( 18-C , 19-C ) :   2.1318
B( 19-C , 20-C ) :   0.8374 B( 20-C , 21-O ) :   1.1343 B( 20-C , 22-C ) :   0.1192
B( 20-C , 24-C ) :   1.4642 B( 21-O , 22-C ) :   1.1900 B( 22-C , 23-C ) :   1.4394
B( 22-C , 27-C ) :   1.1149 B( 23-C , 24-C ) :   1.2993 B( 23-C , 26-C ) :   1.1154
B( 24-C , 25-C ) :   1.1197 B( 25-C , 52-H ) :   0.9411 B( 25-C , 53-H ) :   0.9410
B( 25-C , 54-H ) :   0.9359 B( 26-C , 55-H ) :   0.9373 B( 26-C , 56-H ) :   0.9350
B( 26-C , 57-H ) :   0.9374 B( 27-C , 28-S ) :   1.1670 B( 27-C , 33-C ) :   1.4338
B( 28-S , 29-C ) :   1.0927 B( 29-C , 30-C ) :   1.0457 B( 29-C , 32-C ) :   1.4224
B( 30-C , 31-O ) :   2.0799 B( 30-C , 58-H ) :   0.9555 B( 32-C , 33-C ) :   1.2725
B( 32-C , 34-C ) :   1.0079 B( 33-C , 59-H ) :   1.0186 B( 34-C , 35-C ) :   1.8087
B( 34-C , 60-H ) :   0.9415 B( 35-C , 36-C ) :   0.9281 B( 35-C , 43-C ) :   0.9846
B( 36-C , 37-O ) :   2.2873 B( 36-C , 38-C ) :   0.9250 B( 38-C , 39-C ) :   1.4776
B( 38-C , 42-C ) :   1.2255 B( 39-C , 40-S ) :   1.1558 B( 39-C , 49-Cl) :   1.1268
B( 40-S , 41-C ) :   1.1584 B( 41-C , 42-C ) :   1.5525 B( 41-C , 61-H ) :   0.9557
B( 42-C , 43-C ) :   1.0188 B( 43-C , 44-C ) :   1.6909 B( 44-C , 45-C ) :   1.1330
B( 44-C , 47-C ) :   1.1654 B( 45-C , 46-N ) :   3.0088 B( 47-C , 48-N ) :   3.0087

-----------------------------------------------------------------------------
         ABSORPTION SPECTRUM VIA TRANSITION ELECTRIC DIPOLE MOMENTS
-----------------------------------------------------------------------------
State   Energy  Wavelength   fosc         T2         TX        TY        TZ
        (cm-1)    (nm)                  (au**2)     (au)      (au)      (au)
-----------------------------------------------------------------------------
   0   18798.6    532.0   1.648628623  28.87169   3.09397  -4.22684   1.19703
   1   22008.3    454.4   0.007180654   0.10741  -0.24423   0.17501   0.13090
   2   22842.1    437.8   0.048892496   0.70466   0.51184  -0.64713   0.15462
   3   26390.2    378.9   0.047801640   0.59632   0.75883  -0.14187   0.01900
   4   27027.6    370.0   0.055824357   0.67997   0.34932   0.02373  -0.74658
   5   27686.1    361.2   0.033454059   0.39780   0.58567   0.12143   0.20010
   6   28947.6    345.5   0.120306899   1.36821   1.09802  -0.12882   0.38205
   7   29666.9    337.1   0.325393041   3.61086  -1.74957   0.55523  -0.49150
   8   29963.2    333.7   0.012846225   0.14114   0.20167  -0.30935   0.06911
   9   30586.2    326.9   0.028611294   0.30796  -0.23436   0.31097   0.39538
  10   30952.8    323.1   0.050294933   0.53493  -0.55192  -0.47550  -0.06497
  11   31426.2    318.2   0.121757178   1.27549   0.58522  -0.68329   0.68274
  12   32728.2    305.5   0.012677189   0.12752   0.15668   0.32021   0.02087
  13   32900.2    303.9   0.083204983   0.83258  -0.43990  -0.78244   0.16389
  14   33155.7    301.6   0.015127028   0.15020   0.20747   0.32734   0.00221
  15   33647.5    297.2   0.010240452   0.10019   0.21770   0.06435  -0.22059
  16   33776.7    296.1   0.043872862   0.42762   0.46388   0.13678   0.44014
  17   34685.1    288.3   0.124827618   1.18480  -1.02284   0.25546  -0.27081
  18   34725.5    288.0   0.061449097   0.58256   0.66539  -0.31138   0.20701
  19   35790.7    279.4   0.052754880   0.48525  -0.42197  -0.33433  -0.44206
  20   36236.9    276.0   0.036705419   0.33347   0.10719  -0.50842   0.25197
  21   37417.5    267.3   0.021597521   0.19002  -0.25418  -0.35411  -0.00490
  22   37832.0    264.3   0.280051570   2.43699   1.24669   0.91797   0.20023
  23   38124.7    262.3   0.054494243   0.47056   0.31730  -0.59478   0.12695
  24   38251.8    261.4   0.014059216   0.12100   0.09411  -0.05397   0.33050
  25   38376.8    260.6   0.360241990   3.09031  -1.37147  -0.38569  -1.02986
  26   38436.2    260.2   0.141281447   1.21010   0.48446  -0.10316   0.98222
  27   39034.6    256.2   0.633772637   5.34514   2.06550   0.67993   0.78521
  28   39994.8    250.0   0.045740159   0.37650  -0.44769   0.06898  -0.41391
  29   40029.2    249.8   0.139430334   1.14671  -0.89562  -0.25969  -0.52644
  30   40322.9    248.0   0.013811512   0.11276  -0.17227  -0.28173   0.06096

FINAL SINGLE POINT ENERGY     -4048.711025365140

DIPOLE MOMENT
-------------
                                X             Y             Z
Electronic contribution:     10.17176      17.31933       6.06806
Nuclear contribution   :    -11.89054     -19.67735      -5.47396
                        -----------------------------------------
Total Dipole Moment    :     -1.71877      -2.35803       0.59410
                        -----------------------------------------
Magnitude (a.u.)       :      2.97782
Magnitude (Debye)      :      7.56902

Rotational constants in cm-1:     0.003598     0.000376     0.000349
Rotational constants in MHz :   107.866294    11.273206    10.460800

                             ****ORCA TERMINATED NORMALLY****
TOTAL RUN TIME: 0 days 0 hours 4 minutes 25 seconds 231 msec
