                         Program Version 4.2.0 -  RELEASE  -
|  1> # ORCA input file
|  2> # SCF done       -182.093813354728          0.000692160243
|  3> ! CAM-B3LYP def2-SVP def2/J RIJCOSX Grid4 TightSCF
|  4> %maxcore 5000
|  5> %tddft
|  6>     Mode sTDDFT
|  7>     Ethresh 5.0
|  8>     maxcore 5000
|  9> end
| 10>
| 11> %pal
| 12>   nprocs 6
| 13>   end
| 14> * xyz 0 1
| 15>    C        2.45529         1.46253        -1.33209
| 16>    C        1.54309         0.91570        -0.47539
| 17>    C        1.89441         0.13891         0.64858
| 18>    N        2.13367        -0.49668         1.57334
| 19>    C        0.14770         0.97206        -0.67967
| 20>    N       -0.98639         0.92598        -0.84904
| 21>    C        3.89068         1.21179        -1.32926
| 22>    C        4.41234         1.52421        -2.62044
| 23>    C        5.73338         1.34946        -2.92124
| 24>    C        6.60735         0.85737        -1.92669
| 25>    C        6.09504         0.55881        -0.63006
| 26>    C        4.72231         0.74243        -0.34789
| 27>    C        6.98097         0.07670         0.35511
| 28>    C        8.30791        -0.10450         0.07508
| 29>    C        8.81097         0.18838        -1.20170
| 30>    C        7.97899         0.65823        -2.18119
| 31>    C        3.33318         2.04643        -3.47388
| 32>    O        3.37546         2.35658        -4.64005
| 33>    C        2.15551         2.18322        -2.55867
| 34>    C        1.13951         3.00888        -2.89015
| 35>    C        0.15629         3.53969        -2.00551
| 36>    S       -1.36613         4.19603        -2.58198
| 37>    C       -1.69670         4.55724        -0.89797
| 38>    N       -0.71955         4.21274        -0.11181
| 39>    N        0.28879         3.65319        -0.71531
| 40>    C       -2.93085         5.15225        -0.47979
| 41>    C       -3.18462         5.40720         0.80774
| 42>    C       -4.39829         6.03712         1.38380
| 43>    S       -3.92843         7.75764         1.94767
| 44>    C       -5.26836         8.55046         1.00941
| 45>    C       -6.35949         7.48816         0.85205
| 46>    C       -5.60609         6.20523         0.46685
| 47>    C       -7.29387         7.84566        -0.32765
| 48>    O       -6.93861         8.55839        -1.23483
| 49>    N       -8.48789         7.22681        -0.28660
| 50>    N       -7.11295         7.28263         2.06990
| 51>    C       -7.96017         8.24283         2.54853
| 52>    C       -8.39845         8.29152         3.81946
| 53>    C       -9.39392         9.19759         4.32872
| 54>    C      -10.07455        10.11943         3.53101
| 55>    C      -11.04664        10.94893         4.05940
| 56>    N      -11.65378        11.87845         3.14379
| 57>    O      -11.65682        11.57495         1.96758
| 58>    O      -12.11324        12.91149         3.58453
| 59>    C      -11.40961        10.90255         5.42097
| 60>    C      -10.70769         9.98059         6.21277
| 61>    C       -9.73602         9.16257         5.69087
| 62>    C      -12.50886        11.65993         5.95787
| 63>    C      -12.66427        11.98646         7.26053
| 64>    C      -13.77787        12.70297         7.78297
| 65>    C      -15.06459        12.68493         7.33012
| 66>    C      -16.14455        13.51381         7.84069
| 67>    C      -16.01118        14.64444         8.60363
| 68>    C      -17.09641        15.42769         9.04965
| 69>    N      -17.93526        16.10079         9.45145
| 70>    C      -14.78917        15.20001         9.03838
| 71>    N      -13.84251        15.72448         9.42277
| 72>    C      -17.40181        12.97992         7.33257
| 73>    C      -17.11220        11.86997         6.49038
| 74>    C      -15.65579        11.66043         6.42433
| 75>    O      -15.08987        10.78473         5.80471
| 76>    C      -18.09594        11.16301         5.86105
| 77>    C      -19.44318        11.54514         6.04513
| 78>    C      -19.74309        12.65252         6.89002
| 79>    C      -18.70240        13.36199         7.53220
| 80>    C      -21.09137        13.02466         7.06722
| 81>    C      -22.09536        12.33925         6.43921
| 82>    C      -21.79855        11.24953         5.60693
| 83>    C      -20.50069        10.86104         5.41407
| 84>    H        6.10765         1.58585        -3.90624
| 85>    H        4.36030         0.51975         0.64375
| 86>    H        6.58859        -0.15005         1.33543
| 87>    H        8.97809        -0.47501         0.83614
| 88>    H        9.86097         0.04022        -1.40473
| 89>    H        8.36050         0.88553        -3.16581
| 90>    H        1.11115         3.36345        -3.91413
| 91>    H       -3.63488         5.35511        -1.27275
| 92>    H       -2.41154         5.17509         1.52749
| 93>    H       -4.66697         5.50453         2.30105
| 94>    H       -4.90418         8.87113         0.03337
| 95>    H       -5.61143         9.41570         1.57385
| 96>    H       -5.27875         6.32467        -0.56538
| 97>    H       -6.25791         5.33303         0.52661
| 98>    H       -8.77302         6.68085         0.50745
| 99>    H       -9.15259         7.41114        -1.02029
|100>    H       -6.62724         6.75176         2.78101
|101>    H       -8.30898         8.93995         1.80046
|102>    H       -7.99532         7.58514         4.53350
|103>    H       -9.85786        10.21387         2.47841
|104>    H      -10.96973         9.89012         7.25515
|105>    H       -9.22765         8.46308         6.33844
|106>    H      -13.24162        12.01785         5.25151
|107>    H      -11.86580        11.79131         7.96524
|108>    H      -13.56685        13.29335         8.66712
|109>    H      -17.84748        10.32566         5.22584
|110>    H      -18.96336        14.19107         8.17046
|111>    H      -21.31500        13.86534         7.70750
|112>    H      -23.12466        12.63356         6.57968
|113>    H      -22.60332        10.71984         5.11934
|114>    H      -20.26542        10.02318         4.77402
|115> *
|116>
|117>                          ****END OF INPUT****

CARTESIAN COORDINATES (ANGSTROEM)
---------------------------------
  C      2.455290    1.462530   -1.332090
  C      1.543090    0.915700   -0.475390
  C      1.894410    0.138910    0.648580
  N      2.133670   -0.496680    1.573340
  C      0.147700    0.972060   -0.679670
  N     -0.986390    0.925980   -0.849040
  C      3.890680    1.211790   -1.329260
  C      4.412340    1.524210   -2.620440
  C      5.733380    1.349460   -2.921240
  C      6.607350    0.857370   -1.926690
  C      6.095040    0.558810   -0.630060
  C      4.722310    0.742430   -0.347890
  C      6.980970    0.076700    0.355110
  C      8.307910   -0.104500    0.075080
  C      8.810970    0.188380   -1.201700
  C      7.978990    0.658230   -2.181190
  C      3.333180    2.046430   -3.473880
  O      3.375460    2.356580   -4.640050
  C      2.155510    2.183220   -2.558670
  C      1.139510    3.008880   -2.890150
  C      0.156290    3.539690   -2.005510
  S     -1.366130    4.196030   -2.581980
  C     -1.696700    4.557240   -0.897970
  N     -0.719550    4.212740   -0.111810
  N      0.288790    3.653190   -0.715310
  C     -2.930850    5.152250   -0.479790
  C     -3.184620    5.407200    0.807740
  C     -4.398290    6.037120    1.383800
  S     -3.928430    7.757640    1.947670
  C     -5.268360    8.550460    1.009410
  C     -6.359490    7.488160    0.852050
  C     -5.606090    6.205230    0.466850
  C     -7.293870    7.845660   -0.327650
  O     -6.938610    8.558390   -1.234830
  N     -8.487890    7.226810   -0.286600
  N     -7.112950    7.282630    2.069900
  C     -7.960170    8.242830    2.548530
  C     -8.398450    8.291520    3.819460
  C     -9.393920    9.197590    4.328720
  C    -10.074550   10.119430    3.531010
  C    -11.046640   10.948930    4.059400
  N    -11.653780   11.878450    3.143790
  O    -11.656820   11.574950    1.967580
  O    -12.113240   12.911490    3.584530
  C    -11.409610   10.902550    5.420970
  C    -10.707690    9.980590    6.212770
  C     -9.736020    9.162570    5.690870
  C    -12.508860   11.659930    5.957870
  C    -12.664270   11.986460    7.260530
  C    -13.777870   12.702970    7.782970
  C    -15.064590   12.684930    7.330120
  C    -16.144550   13.513810    7.840690
  C    -16.011180   14.644440    8.603630
  C    -17.096410   15.427690    9.049650
  N    -17.935260   16.100790    9.451450
  C    -14.789170   15.200010    9.038380
  N    -13.842510   15.724480    9.422770
  C    -17.401810   12.979920    7.332570
  C    -17.112200   11.869970    6.490380
  C    -15.655790   11.660430    6.424330
  O    -15.089870   10.784730    5.804710
  C    -18.095940   11.163010    5.861050
  C    -19.443180   11.545140    6.045130
  C    -19.743090   12.652520    6.890020
  C    -18.702400   13.361990    7.532200
  C    -21.091370   13.024660    7.067220
  C    -22.095360   12.339250    6.439210
  C    -21.798550   11.249530    5.606930
  C    -20.500690   10.861040    5.414070
  H      6.107650    1.585850   -3.906240
  H      4.360300    0.519750    0.643750
  H      6.588590   -0.150050    1.335430
  H      8.978090   -0.475010    0.836140
  H      9.860970    0.040220   -1.404730
  H      8.360500    0.885530   -3.165810
  H      1.111150    3.363450   -3.914130
  H     -3.634880    5.355110   -1.272750
  H     -2.411540    5.175090    1.527490
  H     -4.666970    5.504530    2.301050
  H     -4.904180    8.871130    0.033370
  H     -5.611430    9.415700    1.573850
  H     -5.278750    6.324670   -0.565380
  H     -6.257910    5.333030    0.526610
  H     -8.773020    6.680850    0.507450
  H     -9.152590    7.411140   -1.020290
  H     -6.627240    6.751760    2.781010
  H     -8.308980    8.939950    1.800460
  H     -7.995320    7.585140    4.533500
  H     -9.857860   10.213870    2.478410
  H    -10.969730    9.890120    7.255150
  H     -9.227650    8.463080    6.338440
  H    -13.241620   12.017850    5.251510
  H    -11.865800   11.791310    7.965240
  H    -13.566850   13.293350    8.667120
  H    -17.847480   10.325660    5.225840
  H    -18.963360   14.191070    8.170460
  H    -21.315000   13.865340    7.707500
  H    -23.124660   12.633560    6.579680
  H    -22.603320   10.719840    5.119340
  H    -20.265420   10.023180    4.774020

 Total Charge           Charge          ....    0
 Multiplicity           Mult            ....    1
 Number of Electrons    NEL             ....  484
 Basis Dimension        Dim             .... 1129

ORBITAL ENERGIES
----------------

  NO   OCC          E(Eh)            E(eV)
   0   2.0000     -88.982262     -2421.3305
   1   2.0000     -88.923741     -2419.7380
   2   2.0000     -19.246066      -523.7121
   3   2.0000     -19.243569      -523.6441
   4   2.0000     -19.221041      -523.0311
   5   2.0000     -19.210754      -522.7512
   6   2.0000     -19.197835      -522.3996
   7   2.0000     -14.649784      -398.6409
   8   2.0000     -14.453052      -393.2875
   9   2.0000     -14.450318      -393.2131
  10   2.0000     -14.446979      -393.1223
  11   2.0000     -14.442220      -392.9928
  12   2.0000     -14.416767      -392.3002
  13   2.0000     -14.413852      -392.2209
  14   2.0000     -14.408752      -392.0821
  15   2.0000     -14.408664      -392.0797
  16   2.0000     -10.388854      -282.6951
  17   2.0000     -10.371865      -282.2328
  18   2.0000     -10.362942      -281.9900
  19   2.0000     -10.352173      -281.6969
  20   2.0000     -10.350294      -281.6458
  21   2.0000     -10.345381      -281.5121
  22   2.0000     -10.344790      -281.4961
  23   2.0000     -10.340917      -281.3907
  24   2.0000     -10.335250      -281.2364
  25   2.0000     -10.335101      -281.2324
  26   2.0000     -10.333847      -281.1983
  27   2.0000     -10.332577      -281.1637
  28   2.0000     -10.325717      -280.9770
  29   2.0000     -10.325482      -280.9706
  30   2.0000     -10.318537      -280.7817
  31   2.0000     -10.316510      -280.7265
  32   2.0000     -10.311806      -280.5985
  33   2.0000     -10.311655      -280.5944
  34   2.0000     -10.311257      -280.5836
  35   2.0000     -10.309731      -280.5420
  36   2.0000     -10.306582      -280.4564
  37   2.0000     -10.305957      -280.4393
  38   2.0000     -10.305734      -280.4333
  39   2.0000     -10.302821      -280.3540
  40   2.0000     -10.302748      -280.3520
  41   2.0000     -10.301500      -280.3181
  42   2.0000     -10.300327      -280.2862
  43   2.0000     -10.300164      -280.2817
  44   2.0000     -10.299679      -280.2685
  45   2.0000     -10.298279      -280.2304
  46   2.0000     -10.297645      -280.2132
  47   2.0000     -10.297635      -280.2129
  48   2.0000     -10.297590      -280.2117
  49   2.0000     -10.295925      -280.1664
  50   2.0000     -10.295144      -280.1451
  51   2.0000     -10.293767      -280.1076
  52   2.0000     -10.293471      -280.0996
  53   2.0000     -10.292738      -280.0796
  54   2.0000     -10.292288      -280.0674
  55   2.0000     -10.292162      -280.0640
  56   2.0000     -10.291982      -280.0591
  57   2.0000     -10.291977      -280.0589
  58   2.0000     -10.288455      -279.9631
  59   2.0000     -10.287967      -279.9498
  60   2.0000     -10.287685      -279.9421
  61   2.0000     -10.287064      -279.9253
  62   2.0000     -10.283679      -279.8331
  63   2.0000     -10.283357      -279.8244
  64   2.0000     -10.282819      -279.8097
  65   2.0000     -10.282776      -279.8086
  66   2.0000     -10.282406      -279.7985
  67   2.0000     -10.281846      -279.7833
  68   2.0000     -10.276845      -279.6472
  69   2.0000      -8.078619      -219.8304
  70   2.0000      -8.019733      -218.2280
  71   2.0000      -6.047235      -164.5536
  72   2.0000      -6.043853      -164.4616
  73   2.0000      -6.041106      -164.3868
  74   2.0000      -5.990557      -163.0113
  75   2.0000      -5.986341      -162.8966
  76   2.0000      -5.978607      -162.6862
  77   2.0000      -1.325303       -36.0633
  78   2.0000      -1.151905       -31.3449
  79   2.0000      -1.143451       -31.1149
  80   2.0000      -1.140487       -31.0342
  81   2.0000      -1.136522       -30.9263
  82   2.0000      -1.126054       -30.6415
  83   2.0000      -1.064032       -28.9538
  84   2.0000      -1.019364       -27.7383
  85   2.0000      -1.011816       -27.5329
  86   2.0000      -1.003136       -27.2967
  87   2.0000      -0.999957       -27.2102
  88   2.0000      -0.993888       -27.0451
  89   2.0000      -0.992966       -27.0200
  90   2.0000      -0.991370       -26.9765
  91   2.0000      -0.987253       -26.8645
  92   2.0000      -0.975462       -26.5437
  93   2.0000      -0.966799       -26.3079
  94   2.0000      -0.965527       -26.2733
  95   2.0000      -0.950708       -25.8701
  96   2.0000      -0.934299       -25.4236
  97   2.0000      -0.928059       -25.2538
  98   2.0000      -0.922040       -25.0900
  99   2.0000      -0.918276       -24.9876
 100   2.0000      -0.909511       -24.7491
 101   2.0000      -0.897628       -24.4257
 102   2.0000      -0.893015       -24.3002
 103   2.0000      -0.887906       -24.1611
 104   2.0000      -0.883202       -24.0331
 105   2.0000      -0.877575       -23.8800
 106   2.0000      -0.874085       -23.7851
 107   2.0000      -0.861634       -23.4463
 108   2.0000      -0.852105       -23.1870
 109   2.0000      -0.837364       -22.7858
 110   2.0000      -0.830433       -22.5972
 111   2.0000      -0.828412       -22.5422
 112   2.0000      -0.823962       -22.4212
 113   2.0000      -0.812697       -22.1146
 114   2.0000      -0.800552       -21.7841
 115   2.0000      -0.796501       -21.6739
 116   2.0000      -0.774945       -21.0873
 117   2.0000      -0.763516       -20.7763
 118   2.0000      -0.756193       -20.5771
 119   2.0000      -0.753543       -20.5050
 120   2.0000      -0.745835       -20.2952
 121   2.0000      -0.733169       -19.9506
 122   2.0000      -0.721534       -19.6339
 123   2.0000      -0.711565       -19.3627
 124   2.0000      -0.710258       -19.3271
 125   2.0000      -0.703578       -19.1453
 126   2.0000      -0.701263       -19.0823
 127   2.0000      -0.699316       -19.0294
 128   2.0000      -0.693200       -18.8629
 129   2.0000      -0.693082       -18.8597
 130   2.0000      -0.679234       -18.4829
 131   2.0000      -0.676788       -18.4163
 132   2.0000      -0.672336       -18.2952
 133   2.0000      -0.667909       -18.1747
 134   2.0000      -0.662885       -18.0380
 135   2.0000      -0.658213       -17.9109
 136   2.0000      -0.648818       -17.6552
 137   2.0000      -0.642617       -17.4865
 138   2.0000      -0.635763       -17.3000
 139   2.0000      -0.634472       -17.2649
 140   2.0000      -0.632524       -17.2119
 141   2.0000      -0.626467       -17.0470
 142   2.0000      -0.613874       -16.7044
 143   2.0000      -0.611847       -16.6492
 144   2.0000      -0.609594       -16.5879
 145   2.0000      -0.606386       -16.5006
 146   2.0000      -0.604870       -16.4594
 147   2.0000      -0.602195       -16.3865
 148   2.0000      -0.601099       -16.3567
 149   2.0000      -0.590667       -16.0729
 150   2.0000      -0.587300       -15.9812
 151   2.0000      -0.581013       -15.8102
 152   2.0000      -0.579510       -15.7693
 153   2.0000      -0.571498       -15.5513
 154   2.0000      -0.563585       -15.3359
 155   2.0000      -0.559473       -15.2240
 156   2.0000      -0.556563       -15.1448
 157   2.0000      -0.554793       -15.0967
 158   2.0000      -0.549833       -14.9617
 159   2.0000      -0.547932       -14.9100
 160   2.0000      -0.542536       -14.7631
 161   2.0000      -0.541607       -14.7379
 162   2.0000      -0.540549       -14.7091
 163   2.0000      -0.539469       -14.6797
 164   2.0000      -0.536467       -14.5980
 165   2.0000      -0.534013       -14.5312
 166   2.0000      -0.530805       -14.4439
 167   2.0000      -0.528762       -14.3883
 168   2.0000      -0.527196       -14.3457
 169   2.0000      -0.523320       -14.2403
 170   2.0000      -0.521371       -14.1872
 171   2.0000      -0.519393       -14.1334
 172   2.0000      -0.515476       -14.0268
 173   2.0000      -0.514283       -13.9943
 174   2.0000      -0.513371       -13.9695
 175   2.0000      -0.508788       -13.8448
 176   2.0000      -0.506342       -13.7783
 177   2.0000      -0.506041       -13.7701
 178   2.0000      -0.499070       -13.5804
 179   2.0000      -0.497705       -13.5432
 180   2.0000      -0.496072       -13.4988
 181   2.0000      -0.492295       -13.3960
 182   2.0000      -0.490580       -13.3494
 183   2.0000      -0.490069       -13.3354
 184   2.0000      -0.487579       -13.2677
 185   2.0000      -0.486467       -13.2375
 186   2.0000      -0.485760       -13.2182
 187   2.0000      -0.479363       -13.0441
 188   2.0000      -0.471428       -12.8282
 189   2.0000      -0.467775       -12.7288
 190   2.0000      -0.466195       -12.6858
 191   2.0000      -0.463786       -12.6203
 192   2.0000      -0.461726       -12.5642
 193   2.0000      -0.460241       -12.5238
 194   2.0000      -0.451469       -12.2851
 195   2.0000      -0.450711       -12.2645
 196   2.0000      -0.447824       -12.1859
 197   2.0000      -0.445261       -12.1162
 198   2.0000      -0.444906       -12.1065
 199   2.0000      -0.442096       -12.0300
 200   2.0000      -0.441834       -12.0229
 201   2.0000      -0.438649       -11.9362
 202   2.0000      -0.438415       -11.9299
 203   2.0000      -0.436368       -11.8742
 204   2.0000      -0.433833       -11.8052
 205   2.0000      -0.433308       -11.7909
 206   2.0000      -0.430480       -11.7140
 207   2.0000      -0.429059       -11.6753
 208   2.0000      -0.427454       -11.6316
 209   2.0000      -0.426646       -11.6096
 210   2.0000      -0.420815       -11.4510
 211   2.0000      -0.418760       -11.3950
 212   2.0000      -0.414608       -11.2821
 213   2.0000      -0.412558       -11.2263
 214   2.0000      -0.408167       -11.1068
 215   2.0000      -0.401789       -10.9332
 216   2.0000      -0.399994       -10.8844
 217   2.0000      -0.396438       -10.7876
 218   2.0000      -0.393224       -10.7002
 219   2.0000      -0.389851       -10.6084
 220   2.0000      -0.385713       -10.4958
 221   2.0000      -0.383379       -10.4323
 222   2.0000      -0.381675       -10.3859
 223   2.0000      -0.375075       -10.2063
 224   2.0000      -0.374363       -10.1869
 225   2.0000      -0.370636       -10.0855
 226   2.0000      -0.361817        -9.8455
 227   2.0000      -0.357548        -9.7294
 228   2.0000      -0.351983        -9.5779
 229   2.0000      -0.346352        -9.4247
 230   2.0000      -0.346222        -9.4212
 231   2.0000      -0.340038        -9.2529
 232   2.0000      -0.334507        -9.1024
 233   2.0000      -0.333313        -9.0699
 234   2.0000      -0.317663        -8.6440
 235   2.0000      -0.314394        -8.5551
 236   2.0000      -0.307857        -8.3772
 237   2.0000      -0.302242        -8.2244
 238   2.0000      -0.296608        -8.0711
 239   2.0000      -0.290300        -7.8995
 240   2.0000      -0.288561        -7.8521
 241   2.0000      -0.263431        -7.1683
 242   0.0000      -0.097763        -2.6603
 243   0.0000      -0.091000        -2.4762
 244   0.0000      -0.058301        -1.5864
 245   0.0000      -0.055512        -1.5106
 246   0.0000      -0.045212        -1.2303

MULLIKEN ATOMIC CHARGES
-----------------------
   0 C :    0.274778
   1 C :   -0.286047
   2 C :   -0.185568
   3 N :    0.153205
   4 C :   -0.185522
   5 N :    0.160107
   6 C :    0.042559
   7 C :    0.008799
   8 C :   -0.078343
   9 C :    0.093436
  10 C :    0.095354
  11 C :   -0.080082
  12 C :   -0.016408
  13 C :    0.038015
  14 C :    0.035590
  15 C :   -0.014156
  16 C :    0.135308
  17 O :   -0.134153
  18 C :   -0.106666
  19 C :    0.098526
  20 C :   -0.119215
  21 S :    0.130037
  22 C :   -0.089996
  23 N :   -0.048593
  24 N :   -0.044346
  25 C :    0.063479
  26 C :    0.051550
  27 C :   -0.132508
  28 S :   -0.062449
  29 C :    0.071115
  30 C :   -0.247862
  31 C :    0.172087
  32 C :    0.038010
  33 O :   -0.194726
  34 N :   -0.056913
  35 N :   -0.130319
  36 C :    0.069810
  37 C :   -0.035586
  38 C :    0.133427
  39 C :   -0.074809
  40 C :    0.152050
  41 N :    0.243906
  42 O :   -0.234247
  43 O :   -0.227645
  44 C :    0.022785
  45 C :   -0.016727
  46 C :   -0.003848
  47 C :    0.100538
  48 C :   -0.031493
  49 C :    0.003832
  50 C :   -0.095083
  51 C :    0.304442
  52 C :   -0.344353
  53 C :   -0.183150
  54 N :    0.143987
  55 C :   -0.205376
  56 N :    0.160656
  57 C :    0.051778
  58 C :   -0.004279
  59 C :    0.146806
  60 O :   -0.153080
  61 C :   -0.080304
  62 C :    0.097483
  63 C :    0.095437
  64 C :   -0.083177
  65 C :   -0.017817
  66 C :    0.035089
  67 C :    0.036715
  68 C :   -0.017708
  69 H :   -0.011076
  70 H :   -0.002968
  71 H :   -0.010470
  72 H :   -0.003256
  73 H :   -0.004077
  74 H :   -0.017283
  75 H :    0.025683
  76 H :   -0.013350
  77 H :    0.038495
  78 H :    0.047557
  79 H :    0.072198
  80 H :    0.050059
  81 H :    0.035059
  82 H :    0.023306
  83 H :    0.133765
  84 H :    0.137390
  85 H :    0.120010
  86 H :    0.025578
  87 H :   -0.032097
  88 H :   -0.012007
  89 H :   -0.009165
  90 H :   -0.017415
  91 H :    0.023340
  92 H :    0.000182
  93 H :    0.028252
  94 H :   -0.015716
  95 H :   -0.009477
  96 H :   -0.008914
  97 H :   -0.006083
  98 H :   -0.006428
  99 H :   -0.019233
Sum of atomic charges:   -0.0000000

LOEWDIN ATOMIC CHARGES
----------------------
   0 C :    0.070410
   1 C :   -0.111762
   2 C :   -0.015775
   3 N :   -0.047390
   4 C :   -0.015335
   5 N :   -0.052991
   6 C :   -0.019935
   7 C :   -0.059403
   8 C :    0.035090
   9 C :   -0.009120
  10 C :   -0.003553
  11 C :    0.017628
  12 C :   -0.005736
  13 C :   -0.011368
  14 C :   -0.012600
  15 C :   -0.008409
  16 C :    0.084678
  17 O :   -0.135051
  18 C :   -0.052059
  19 C :    0.028420
  20 C :   -0.163234
  21 S :    0.415845
  22 C :   -0.127347
  23 N :   -0.074234
  24 N :   -0.051860
  25 C :   -0.072254
  26 C :    0.020611
  27 C :   -0.119656
  28 S :    0.221282
  29 C :   -0.120049
  30 C :   -0.041622
  31 C :   -0.019923
  32 C :    0.052384
  33 O :   -0.197521
  34 N :    0.009379
  35 N :   -0.015673
  36 C :    0.043963
  37 C :   -0.106646
  38 C :   -0.000309
  39 C :   -0.006902
  40 C :   -0.011143
  41 N :    0.286539
  42 O :   -0.203073
  43 O :   -0.188828
  44 C :   -0.027329
  45 C :    0.008666
  46 C :   -0.008857
  47 C :    0.066444
  48 C :   -0.054163
  49 C :    0.074891
  50 C :   -0.095102
  51 C :    0.076176
  52 C :   -0.140164
  53 C :   -0.016558
  54 N :   -0.056783
  55 C :   -0.024563
  56 N :   -0.052027
  57 C :   -0.025590
  58 C :   -0.054272
  59 C :    0.083245
  60 O :   -0.143132
  61 C :    0.030756
  62 C :   -0.008672
  63 C :   -0.006482
  64 C :    0.018752
  65 C :   -0.005462
  66 C :   -0.014567
  67 C :   -0.013355
  68 C :   -0.010467
  69 H :    0.039710
  70 H :    0.039659
  71 H :    0.034665
  72 H :    0.033733
  73 H :    0.033136
  74 H :    0.032018
  75 H :    0.048994
  76 H :    0.028528
  77 H :    0.040498
  78 H :    0.025911
  79 H :    0.028880
  80 H :    0.028510
  81 H :    0.038199
  82 H :    0.032674
  83 H :    0.076497
  84 H :    0.086009
  85 H :    0.075667
  86 H :    0.028124
  87 H :    0.024789
  88 H :    0.033002
  89 H :    0.035158
  90 H :    0.031666
  91 H :    0.033057
  92 H :    0.030954
  93 H :    0.045892
  94 H :    0.037836
  95 H :    0.038691
  96 H :    0.034693
  97 H :    0.032636
  98 H :    0.032197
  99 H :    0.031166

  Mayer bond orders larger than 0.100000
B(  0-C ,  1-C ) :   1.7022 B(  0-C ,  6-C ) :   1.0022 B(  0-C , 18-C ) :   1.0099
B(  1-C ,  2-C ) :   1.1366 B(  1-C ,  4-C ) :   1.1485 B(  2-C ,  3-N ) :   2.9874
B(  4-C ,  5-N ) :   3.0114 B(  6-C ,  7-C ) :   1.2112 B(  6-C , 11-C ) :   1.4568
B(  7-C ,  8-C ) :   1.4681 B(  7-C , 16-C ) :   0.9224 B(  8-C ,  9-C ) :   1.1919
B(  8-C , 69-H ) :   1.0154 B(  9-C , 10-C ) :   1.2546 B(  9-C , 15-C ) :   1.2426
B( 10-C , 11-C ) :   1.2079 B( 10-C , 12-C ) :   1.2409 B( 11-C , 70-H ) :   0.9930
B( 12-C , 13-C ) :   1.4923 B( 12-C , 71-H ) :   0.9969 B( 13-C , 14-C ) :   1.2584
B( 13-C , 72-H ) :   0.9877 B( 14-C , 15-C ) :   1.4930 B( 14-C , 73-H ) :   0.9886
B( 15-C , 74-H ) :   0.9972 B( 16-C , 17-O ) :   2.2837 B( 16-C , 18-C ) :   0.9207
B( 18-C , 19-C ) :   1.7517 B( 19-C , 20-C ) :   1.0613 B( 19-C , 75-H ) :   0.9342
B( 20-C , 21-S ) :   1.0907 B( 20-C , 24-N ) :   1.6362 B( 21-S , 22-C ) :   1.1219
B( 21-S , 24-N ) :   0.1062 B( 22-C , 23-N ) :   1.6751 B( 22-C , 25-C ) :   1.0883
B( 23-N , 24-N ) :   1.2459 B( 25-C , 26-C ) :   1.8492 B( 25-C , 76-H ) :   0.9342
B( 26-C , 27-C ) :   0.9810 B( 26-C , 77-H ) :   0.9634 B( 27-C , 28-S ) :   0.9841
B( 27-C , 31-C ) :   1.0193 B( 27-C , 78-H ) :   0.9109 B( 28-S , 29-C ) :   0.9916
B( 29-C , 30-C ) :   0.9985 B( 29-C , 79-H ) :   0.9330 B( 29-C , 80-H ) :   0.9376
B( 30-C , 31-C ) :   1.0305 B( 30-C , 32-C ) :   0.8560 B( 30-C , 35-N ) :   0.9762
B( 31-C , 81-H ) :   0.9174 B( 31-C , 82-H ) :   0.9247 B( 32-C , 33-O ) :   2.1713
B( 32-C , 34-N ) :   1.2940 B( 34-N , 83-H ) :   0.9287 B( 34-N , 84-H ) :   0.9387
B( 35-N , 36-C ) :   1.1582 B( 35-N , 85-H ) :   0.9299 B( 36-C , 37-C ) :   1.6659
B( 36-C , 86-H ) :   0.9549 B( 37-C , 38-C ) :   1.1086 B( 37-C , 87-H ) :   0.9777
B( 38-C , 39-C ) :   1.2874 B( 38-C , 46-C ) :   1.3095 B( 39-C , 40-C ) :   1.4102
B( 39-C , 88-H ) :   0.9810 B( 40-C , 41-N ) :   0.8780 B( 40-C , 44-C ) :   1.3237
B( 41-N , 42-O ) :   1.5465 B( 41-N , 43-O ) :   1.5228 B( 42-O , 43-O ) :   0.2657
B( 44-C , 45-C ) :   1.3339 B( 44-C , 47-C ) :   1.1103 B( 45-C , 46-C ) :   1.4104
B( 45-C , 89-H ) :   0.9842 B( 46-C , 90-H ) :   0.9982 B( 47-C , 48-C ) :   1.6757
B( 47-C , 91-H ) :   0.9328 B( 48-C , 49-C ) :   1.1719 B( 48-C , 92-H ) :   0.9577
B( 49-C , 50-C ) :   1.6067 B( 49-C , 93-H ) :   0.9442 B( 50-C , 51-C ) :   1.0641
B( 50-C , 59-C ) :   0.9379 B( 51-C , 52-C ) :   1.6386 B( 51-C , 57-C ) :   0.9908
B( 52-C , 53-C ) :   1.1457 B( 52-C , 55-C ) :   1.1372 B( 53-C , 54-N ) :   2.9642
B( 55-C , 56-N ) :   2.9958 B( 57-C , 58-C ) :   1.2137 B( 57-C , 64-C ) :   1.4484
B( 58-C , 59-C ) :   0.9493 B( 58-C , 61-C ) :   1.4708 B( 59-C , 60-O ) :   2.2087
B( 61-C , 62-C ) :   1.1803 B( 61-C , 94-H ) :   1.0160 B( 62-C , 63-C ) :   1.2569
B( 62-C , 68-C ) :   1.2427 B( 63-C , 64-C ) :   1.2053 B( 63-C , 65-C ) :   1.2405
B( 64-C , 95-H ) :   0.9905 B( 65-C , 66-C ) :   1.4882 B( 65-C , 96-H ) :   0.9975
B( 66-C , 67-C ) :   1.2593 B( 66-C , 97-H ) :   0.9892 B( 67-C , 68-C ) :   1.4898
B( 67-C , 98-H ) :   0.9889 B( 68-C , 99-H ) :   0.9978

-----------------------------------------------------------------------------
         ABSORPTION SPECTRUM VIA TRANSITION ELECTRIC DIPOLE MOMENTS
-----------------------------------------------------------------------------
State   Energy  Wavelength   fosc         T2         TX        TY        TZ
        (cm-1)    (nm)                  (au**2)     (au)      (au)      (au)
-----------------------------------------------------------------------------
   0   21185.0    472.0   1.028164251  15.97751   3.06525  -1.80205  -1.82603
   1   24308.4    411.4   0.140488850   1.90266  -0.70045   1.18148   0.12698
   2   26001.3    384.6   0.405841691   5.13851   1.86020  -1.24065  -0.37275
   3   26495.3    377.4   0.107614810   1.33715   0.98633  -0.21478  -0.56406
   4   26819.7    372.9   0.030644985   0.37617   0.59419  -0.09839   0.11589
   5   26963.2    370.9   0.034939967   0.42661  -0.37314  -0.31881  -0.43097
   6   27868.8    358.8   0.057547485   0.67980   0.34022  -0.75001   0.03924
   7   28060.0    356.4   0.015405825   0.18075  -0.36609  -0.08682   0.19795
   8   28222.7    354.3   0.000859927   0.01003   0.04639  -0.08592   0.02227
   9   29047.8    344.3   0.080073735   0.90751   0.93712  -0.17076  -0.01298
  10   29396.8    340.2   0.015327932   0.17166  -0.40471  -0.03249  -0.08254
  11   29542.5    338.5   0.065957708   0.73501   0.62483   0.50003   0.30753
  12   31082.0    321.7   0.019399391   0.20547   0.06076   0.13095  -0.42969
  13   32783.9    305.0   0.223983452   2.24922  -1.43867   0.41107   0.10233
  14   33514.5    298.4   1.143488468  11.23245  -3.32395  -0.32364  -0.28114
  15   33570.7    297.9   0.515792590   5.05813  -1.87220   0.72774   1.01162
  16   33773.0    296.1   0.209528268   2.04243  -1.30270  -0.57846  -0.10392
  17   34222.7    292.2   0.223191236   2.14703  -1.26725  -0.64483  -0.35398
  18   34691.9    288.3   0.185656746   1.76181   0.98028  -0.75903  -0.47406
  19   35018.7    285.6   0.001570673   0.01477  -0.10975   0.01807   0.04892
  20   35284.1    283.4   0.049513108   0.46197   0.04523   0.25186   0.62968
  21   35512.7    281.6   0.213369568   1.97799   0.03373   0.94462   1.04141
  22   36438.0    274.4   0.006315915   0.05706  -0.20158   0.10575  -0.07242
  23   36811.7    271.7   0.103522029   0.92581   0.82338  -0.49662   0.03496
  24   36885.1    271.1   0.139914007   1.24878   0.77258  -0.66900  -0.45204
  25   37445.6    267.1   0.001598610   0.01405  -0.09581   0.06966  -0.00475
  26   37644.6    265.6   0.118445999   1.03584  -0.81447   0.51466  -0.32804
  27   38429.1    260.2   0.138672314   1.18797   0.21821   0.65173   0.84593
  28   38529.4    259.5   0.203039627   1.73486   0.17008  -1.18724  -0.54443
  29   38762.2    258.0   0.001912822   0.01625   0.10006  -0.01575  -0.07737
  30   38844.0    257.4   0.015824176   0.13411   0.06556   0.35739   0.04569
  31   38909.1    257.0   0.016988728   0.14374  -0.14509  -0.33249   0.11018
  32   39417.0    253.7   0.050765420   0.42399  -0.50550   0.18832   0.36469
  33   39558.4    252.8   0.123672583   1.02922   0.16316   0.36947  -0.93064
  34   40206.2    248.7   0.186161414   1.52431  -0.54112   0.92221   0.61727
  35   40316.8    248.0   0.091382959   0.74620   0.43696  -0.40430   0.62594

FINAL SINGLE POINT ENERGY     -3699.485738174463

DIPOLE MOMENT
-------------
                                X             Y             Z
Electronic contribution:     12.99522      -0.10668      -5.53919
Nuclear contribution   :    -11.90137      -3.22106       4.34602
                        -----------------------------------------
Total Dipole Moment    :      1.09385      -3.32773      -1.19317
                        -----------------------------------------
Magnitude (a.u.)       :      3.70054
Magnitude (Debye)      :      9.40602

Rotational constants in cm-1:     0.003451     0.000163     0.000161
Rotational constants in MHz :   103.473128     4.887907     4.821706

                             ****ORCA TERMINATED NORMALLY****
TOTAL RUN TIME: 0 days 0 hours 9 minutes 13 seconds 454 msec
