                         Program Version 4.2.0 -  RELEASE  -
|  1> # ORCA input file
|  2> # SCF done       -194.073069442876          0.000751824191
|  3> ! CAM-B3LYP def2-SVP def2/J RIJCOSX Grid4 TightSCF
|  4> %maxcore 5000
|  5> %tddft
|  6>     Mode sTDDFT
|  7>     Ethresh 5.0
|  8>     maxcore 5000
|  9> end
| 10>
| 11> %pal
| 12>   nprocs 6
| 13>   end
| 14> * xyz 0 1
| 15>    C        5.14620        -0.49632         8.43794
| 16>    C        4.36894        -1.45702         9.10512
| 17>    N        3.74480        -1.33637        10.27834
| 18>    S        3.00968        -2.72183        10.61518
| 19>    N        3.41708        -3.54329         9.29797
| 20>    C        4.17643        -2.76102         8.53240
| 21>    C        4.76328        -3.09003         7.28890
| 22>    C        5.51940        -2.11931         6.67206
| 23>    C        5.70590        -0.84520         7.23934
| 24>    C        4.62255        -4.44436         6.76941
| 25>    C        5.13510        -5.56360         7.37315
| 26>    N        5.93053        -5.61053         8.53440
| 27>    O        6.22475        -6.71171         8.96445
| 28>    O        6.29550        -4.56050         9.03579
| 29>    C        4.81018        -6.73930         6.58852
| 30>    C        4.05346        -6.34937         5.54393
| 31>    C        3.84231        -4.91639         5.61807
| 32>    C        3.01228        -4.15722         4.82685
| 33>    C        3.02814        -2.73081         4.67757
| 34>    C        2.28499        -2.40144         3.59239
| 35>    C        1.70346        -3.58972         3.02865
| 36>    N        0.85451        -3.48038         1.91664
| 37>    O        0.42936        -2.36796         1.65184
| 38>    O        0.59917        -4.47262         1.24686
| 39>    C        2.06064        -4.68831         3.81780
| 40>    C        1.52596        -5.98659         3.93309
| 41>    C        0.82307        -6.69308         2.99265
| 42>    C        0.30580        -7.97325         3.25822
| 43>    N       -0.37764        -8.72382         2.32976
| 44>    C       -0.66168        -8.34451         0.96498
| 45>    C        0.54372        -8.56208         0.05456
| 46>    C       -0.75753        -9.97778         2.83400
| 47>    O       -1.35859       -10.82161         2.20346
| 48>    C       -0.26734        -9.96461         4.19703
| 49>    C        0.37325        -8.73865         4.43615
| 50>    C        0.83583        -8.75686         5.80944
| 51>    O        1.42656        -7.93528         6.47933
| 52>    N        0.44033       -10.01890         6.30653
| 53>    C        0.73944       -10.38150         7.67095
| 54>    C        2.04283       -11.17056         7.77452
| 55>    C       -0.21540       -10.75185         5.35230
| 56>    C       -0.80372       -12.03623         5.39219
| 57>    C       -0.74016       -13.00797         6.33893
| 58>    C       -1.40661       -14.26082         6.25085
| 59>    S       -0.76756       -15.59098         7.16676
| 60>    C       -1.97481       -16.68052         6.57330
| 61>    C       -2.83777       -16.02371         5.70402
| 62>    C       -2.52699       -14.66289         5.53145
| 63>    C       -3.41247       -13.73473         4.75660
| 64>    N       -3.73767       -12.52826         5.57659
| 65>    O       -3.93558       -11.50195         4.98106
| 66>    O       -3.83286       -12.68081         6.76889
| 67>    C       -4.75203       -14.40176         4.42207
| 68>    C       -4.48048       -15.77809         3.83127
| 69>    C       -3.92928       -16.69577         4.92967
| 70>    N       -3.40607       -17.90887         4.22894
| 71>    O       -4.19500       -18.79604         4.02851
| 72>    O       -2.25831       -17.88731         3.86560
| 73>    C       -1.91447       -18.03721         7.01634
| 74>    C       -2.92367       -18.93088         7.01605
| 75>    C       -2.83588       -20.30465         7.43567
| 76>    C       -4.03695       -21.06193         7.47455
| 77>    N       -5.26604       -20.63058         7.19591
| 78>    S       -6.29163       -21.85721         7.36696
| 79>    N       -5.24503       -22.98751         7.81040
| 80>    C       -4.02228       -22.45204         7.84062
| 81>    C       -2.81433       -23.08326         8.17536
| 82>    C       -1.66819       -22.33177         8.13528
| 83>    C       -1.67413       -20.97697         7.77244
| 84>    H        5.29658         0.47358         8.88296
| 85>    H        6.01250        -2.35309         5.73924
| 86>    H        6.32095        -0.13419         6.70837
| 87>    H        5.15765        -7.72444         6.83158
| 88>    H        3.71167        -6.97419         4.74386
| 89>    H        3.59506        -2.05362         5.28260
| 90>    H        2.12605        -1.42253         3.18037
| 91>    H        1.67950        -6.45384         4.89709
| 92>    H        0.67155        -6.27876         2.00852
| 93>    H       -0.98190        -7.30065         0.93491
| 94>    H       -1.48850        -8.98172         0.63985
| 95>    H        1.38283        -7.94544         0.36705
| 96>    H        0.28095        -8.29717        -0.96521
| 97>    H        0.84703        -9.60623         0.07710
| 98>    H       -0.10416       -10.93708         8.08686
| 99>    H        0.84756        -9.44148         8.22013
|100>    H        2.01409       -12.06668         7.15807
|101>    H        2.21822       -11.45766         8.80736
|102>    H        2.87244       -10.55154         7.44279
|103>    H       -1.32978       -12.23761         4.47022
|104>    H       -0.10267       -12.89800         7.20291
|105>    H       -2.94697       -13.38009         3.83085
|106>    H       -5.29963       -13.78146         3.71198
|107>    H       -5.35005       -14.50376         5.33127
|108>    H       -3.74789       -15.68901         3.02511
|109>    H       -5.39523       -16.20833         3.42255
|110>    H       -4.75049       -17.02660         5.57388
|111>    H       -0.95467       -18.32458         7.42369
|112>    H       -3.92107       -18.64868         6.71557
|113>    H       -2.81069       -24.12572         8.44815
|114>    H       -0.72363       -22.79182         8.38450
|115>    H       -0.73114       -20.45354         7.74552
|116> *
|117>
|118>                          ****END OF INPUT****

CARTESIAN COORDINATES (ANGSTROEM)
---------------------------------
  C      5.146200   -0.496320    8.437940
  C      4.368940   -1.457020    9.105120
  N      3.744800   -1.336370   10.278340
  S      3.009680   -2.721830   10.615180
  N      3.417080   -3.543290    9.297970
  C      4.176430   -2.761020    8.532400
  C      4.763280   -3.090030    7.288900
  C      5.519400   -2.119310    6.672060
  C      5.705900   -0.845200    7.239340
  C      4.622550   -4.444360    6.769410
  C      5.135100   -5.563600    7.373150
  N      5.930530   -5.610530    8.534400
  O      6.224750   -6.711710    8.964450
  O      6.295500   -4.560500    9.035790
  C      4.810180   -6.739300    6.588520
  C      4.053460   -6.349370    5.543930
  C      3.842310   -4.916390    5.618070
  C      3.012280   -4.157220    4.826850
  C      3.028140   -2.730810    4.677570
  C      2.284990   -2.401440    3.592390
  C      1.703460   -3.589720    3.028650
  N      0.854510   -3.480380    1.916640
  O      0.429360   -2.367960    1.651840
  O      0.599170   -4.472620    1.246860
  C      2.060640   -4.688310    3.817800
  C      1.525960   -5.986590    3.933090
  C      0.823070   -6.693080    2.992650
  C      0.305800   -7.973250    3.258220
  N     -0.377640   -8.723820    2.329760
  C     -0.661680   -8.344510    0.964980
  C      0.543720   -8.562080    0.054560
  C     -0.757530   -9.977780    2.834000
  O     -1.358590  -10.821610    2.203460
  C     -0.267340   -9.964610    4.197030
  C      0.373250   -8.738650    4.436150
  C      0.835830   -8.756860    5.809440
  O      1.426560   -7.935280    6.479330
  N      0.440330  -10.018900    6.306530
  C      0.739440  -10.381500    7.670950
  C      2.042830  -11.170560    7.774520
  C     -0.215400  -10.751850    5.352300
  C     -0.803720  -12.036230    5.392190
  C     -0.740160  -13.007970    6.338930
  C     -1.406610  -14.260820    6.250850
  S     -0.767560  -15.590980    7.166760
  C     -1.974810  -16.680520    6.573300
  C     -2.837770  -16.023710    5.704020
  C     -2.526990  -14.662890    5.531450
  C     -3.412470  -13.734730    4.756600
  N     -3.737670  -12.528260    5.576590
  O     -3.935580  -11.501950    4.981060
  O     -3.832860  -12.680810    6.768890
  C     -4.752030  -14.401760    4.422070
  C     -4.480480  -15.778090    3.831270
  C     -3.929280  -16.695770    4.929670
  N     -3.406070  -17.908870    4.228940
  O     -4.195000  -18.796040    4.028510
  O     -2.258310  -17.887310    3.865600
  C     -1.914470  -18.037210    7.016340
  C     -2.923670  -18.930880    7.016050
  C     -2.835880  -20.304650    7.435670
  C     -4.036950  -21.061930    7.474550
  N     -5.266040  -20.630580    7.195910
  S     -6.291630  -21.857210    7.366960
  N     -5.245030  -22.987510    7.810400
  C     -4.022280  -22.452040    7.840620
  C     -2.814330  -23.083260    8.175360
  C     -1.668190  -22.331770    8.135280
  C     -1.674130  -20.976970    7.772440
  H      5.296580    0.473580    8.882960
  H      6.012500   -2.353090    5.739240
  H      6.320950   -0.134190    6.708370
  H      5.157650   -7.724440    6.831580
  H      3.711670   -6.974190    4.743860
  H      3.595060   -2.053620    5.282600
  H      2.126050   -1.422530    3.180370
  H      1.679500   -6.453840    4.897090
  H      0.671550   -6.278760    2.008520
  H     -0.981900   -7.300650    0.934910
  H     -1.488500   -8.981720    0.639850
  H      1.382830   -7.945440    0.367050
  H      0.280950   -8.297170   -0.965210
  H      0.847030   -9.606230    0.077100
  H     -0.104160  -10.937080    8.086860
  H      0.847560   -9.441480    8.220130
  H      2.014090  -12.066680    7.158070
  H      2.218220  -11.457660    8.807360
  H      2.872440  -10.551540    7.442790
  H     -1.329780  -12.237610    4.470220
  H     -0.102670  -12.898000    7.202910
  H     -2.946970  -13.380090    3.830850
  H     -5.299630  -13.781460    3.711980
  H     -5.350050  -14.503760    5.331270
  H     -3.747890  -15.689010    3.025110
  H     -5.395230  -16.208330    3.422550
  H     -4.750490  -17.026600    5.573880
  H     -0.954670  -18.324580    7.423690
  H     -3.921070  -18.648680    6.715570
  H     -2.810690  -24.125720    8.448150
  H     -0.723630  -22.791820    8.384500
  H     -0.731140  -20.453540    7.745520

 Total Charge           Charge          ....    0
 Multiplicity           Mult            ....    1
 Number of Electrons    NEL             ....  506
 Basis Dimension        Dim             .... 1138

ORBITAL ENERGIES
----------------

  NO   OCC          E(Eh)            E(eV)
   0   2.0000     -89.021882     -2422.4086
   1   2.0000     -89.016136     -2422.2522
   2   2.0000     -88.975493     -2421.1462
   3   2.0000     -19.251243      -523.8529
   4   2.0000     -19.250327      -523.8280
   5   2.0000     -19.249778      -523.8131
   6   2.0000     -19.249703      -523.8111
   7   2.0000     -19.239133      -523.5234
   8   2.0000     -19.236528      -523.4525
   9   2.0000     -19.233121      -523.3598
  10   2.0000     -19.231660      -523.3201
  11   2.0000     -19.204949      -522.5932
  12   2.0000     -19.192287      -522.2487
  13   2.0000     -14.648787      -398.6138
  14   2.0000     -14.648128      -398.5958
  15   2.0000     -14.646310      -398.5463
  16   2.0000     -14.640286      -398.3824
  17   2.0000     -14.463630      -393.5754
  18   2.0000     -14.456230      -393.3740
  19   2.0000     -14.436344      -392.8329
  20   2.0000     -14.434355      -392.7788
  21   2.0000     -14.429204      -392.6386
  22   2.0000     -14.429047      -392.6343
  23   2.0000     -10.385545      -282.6050
  24   2.0000     -10.376388      -282.3559
  25   2.0000     -10.347647      -281.5738
  26   2.0000     -10.346591      -281.5451
  27   2.0000     -10.346534      -281.5435
  28   2.0000     -10.343718      -281.4669
  29   2.0000     -10.329762      -281.0871
  30   2.0000     -10.324935      -280.9558
  31   2.0000     -10.324647      -280.9479
  32   2.0000     -10.323943      -280.9288
  33   2.0000     -10.322396      -280.8867
  34   2.0000     -10.322066      -280.8777
  35   2.0000     -10.321863      -280.8722
  36   2.0000     -10.319962      -280.8204
  37   2.0000     -10.318862      -280.7905
  38   2.0000     -10.315368      -280.6954
  39   2.0000     -10.314442      -280.6702
  40   2.0000     -10.313975      -280.6575
  41   2.0000     -10.313759      -280.6517
  42   2.0000     -10.312161      -280.6082
  43   2.0000     -10.308095      -280.4975
  44   2.0000     -10.306444      -280.4526
  45   2.0000     -10.306265      -280.4477
  46   2.0000     -10.306162      -280.4449
  47   2.0000     -10.304781      -280.4073
  48   2.0000     -10.300833      -280.2999
  49   2.0000     -10.299785      -280.2714
  50   2.0000     -10.298147      -280.2268
  51   2.0000     -10.297841      -280.2185
  52   2.0000     -10.297253      -280.2025
  53   2.0000     -10.296222      -280.1744
  54   2.0000     -10.295144      -280.1451
  55   2.0000     -10.291611      -280.0490
  56   2.0000     -10.290058      -280.0067
  57   2.0000     -10.289352      -279.9875
  58   2.0000     -10.288866      -279.9743
  59   2.0000     -10.286880      -279.9202
  60   2.0000     -10.286763      -279.9171
  61   2.0000     -10.286294      -279.9043
  62   2.0000     -10.284764      -279.8627
  63   2.0000     -10.280521      -279.7472
  64   2.0000     -10.278261      -279.6857
  65   2.0000     -10.273096      -279.5451
  66   2.0000     -10.270063      -279.4626
  67   2.0000     -10.267411      -279.3904
  68   2.0000     -10.261124      -279.2194
  69   2.0000      -8.113833      -220.7886
  70   2.0000      -8.108078      -220.6320
  71   2.0000      -8.071557      -219.6382
  72   2.0000      -6.084953      -165.5800
  73   2.0000      -6.079157      -165.4223
  74   2.0000      -6.077271      -165.3710
  75   2.0000      -6.076325      -165.3452
  76   2.0000      -6.071481      -165.2134
  77   2.0000      -6.070644      -165.1906
  78   2.0000      -6.040577      -164.3725
  79   2.0000      -6.036684      -164.2665
  80   2.0000      -6.033842      -164.1892
  81   2.0000      -1.332677       -36.2640
  82   2.0000      -1.332052       -36.2470
  83   2.0000      -1.315951       -35.8088
  84   2.0000      -1.311351       -35.6837
  85   2.0000      -1.153227       -31.3809
  86   2.0000      -1.153107       -31.3776
  87   2.0000      -1.143439       -31.1146
  88   2.0000      -1.132217       -30.8092
  89   2.0000      -1.131104       -30.7789
  90   2.0000      -1.128690       -30.7132
  91   2.0000      -1.121622       -30.5209
  92   2.0000      -1.115977       -30.3673
  93   2.0000      -1.071410       -29.1545
  94   2.0000      -1.060845       -28.8671
  95   2.0000      -1.019865       -27.7519
  96   2.0000      -1.012929       -27.5632
  97   2.0000      -0.993696       -27.0398
  98   2.0000      -0.976903       -26.5829
  99   2.0000      -0.968402       -26.3515
 100   2.0000      -0.968154       -26.3448
 101   2.0000      -0.961667       -26.1683
 102   2.0000      -0.955294       -25.9949
 103   2.0000      -0.944138       -25.6913
 104   2.0000      -0.935163       -25.4471
 105   2.0000      -0.917233       -24.9592
 106   2.0000      -0.912771       -24.8378
 107   2.0000      -0.907050       -24.6821
 108   2.0000      -0.899994       -24.4901
 109   2.0000      -0.878914       -23.9165
 110   2.0000      -0.876727       -23.8569
 111   2.0000      -0.865468       -23.5506
 112   2.0000      -0.859742       -23.3948
 113   2.0000      -0.857224       -23.3262
 114   2.0000      -0.856384       -23.3034
 115   2.0000      -0.852815       -23.2063
 116   2.0000      -0.844907       -22.9911
 117   2.0000      -0.834740       -22.7144
 118   2.0000      -0.825091       -22.4519
 119   2.0000      -0.821225       -22.3467
 120   2.0000      -0.816152       -22.2086
 121   2.0000      -0.787910       -21.4401
 122   2.0000      -0.781826       -21.2746
 123   2.0000      -0.764557       -20.8047
 124   2.0000      -0.761461       -20.7204
 125   2.0000      -0.749193       -20.3866
 126   2.0000      -0.738490       -20.0953
 127   2.0000      -0.733498       -19.9595
 128   2.0000      -0.725744       -19.7485
 129   2.0000      -0.723557       -19.6890
 130   2.0000      -0.721354       -19.6291
 131   2.0000      -0.713031       -19.4026
 132   2.0000      -0.708303       -19.2739
 133   2.0000      -0.703809       -19.1516
 134   2.0000      -0.700129       -19.0515
 135   2.0000      -0.698839       -19.0164
 136   2.0000      -0.689436       -18.7605
 137   2.0000      -0.683546       -18.6002
 138   2.0000      -0.677023       -18.4227
 139   2.0000      -0.666575       -18.1384
 140   2.0000      -0.662215       -18.0198
 141   2.0000      -0.656924       -17.8758
 142   2.0000      -0.656128       -17.8542
 143   2.0000      -0.650791       -17.7089
 144   2.0000      -0.643964       -17.5231
 145   2.0000      -0.634476       -17.2650
 146   2.0000      -0.633618       -17.2416
 147   2.0000      -0.628891       -17.1130
 148   2.0000      -0.626751       -17.0548
 149   2.0000      -0.623648       -16.9703
 150   2.0000      -0.622392       -16.9361
 151   2.0000      -0.618093       -16.8192
 152   2.0000      -0.617089       -16.7918
 153   2.0000      -0.613738       -16.7007
 154   2.0000      -0.608487       -16.5578
 155   2.0000      -0.603153       -16.4126
 156   2.0000      -0.600681       -16.3454
 157   2.0000      -0.594424       -16.1751
 158   2.0000      -0.592917       -16.1341
 159   2.0000      -0.590970       -16.0811
 160   2.0000      -0.590235       -16.0611
 161   2.0000      -0.588604       -16.0167
 162   2.0000      -0.583117       -15.8674
 163   2.0000      -0.581212       -15.8156
 164   2.0000      -0.579284       -15.7631
 165   2.0000      -0.574602       -15.6357
 166   2.0000      -0.572420       -15.5763
 167   2.0000      -0.570760       -15.5312
 168   2.0000      -0.568520       -15.4702
 169   2.0000      -0.558950       -15.2098
 170   2.0000      -0.555749       -15.1227
 171   2.0000      -0.551594       -15.0096
 172   2.0000      -0.547736       -14.9046
 173   2.0000      -0.545178       -14.8351
 174   2.0000      -0.544280       -14.8106
 175   2.0000      -0.543796       -14.7974
 176   2.0000      -0.538310       -14.6482
 177   2.0000      -0.537966       -14.6388
 178   2.0000      -0.535708       -14.5774
 179   2.0000      -0.531945       -14.4750
 180   2.0000      -0.525342       -14.2953
 181   2.0000      -0.524553       -14.2738
 182   2.0000      -0.522019       -14.2049
 183   2.0000      -0.518268       -14.1028
 184   2.0000      -0.513321       -13.9682
 185   2.0000      -0.512521       -13.9464
 186   2.0000      -0.506615       -13.7857
 187   2.0000      -0.502317       -13.6687
 188   2.0000      -0.497621       -13.5410
 189   2.0000      -0.495562       -13.4849
 190   2.0000      -0.489116       -13.3095
 191   2.0000      -0.485913       -13.2224
 192   2.0000      -0.484092       -13.1728
 193   2.0000      -0.482633       -13.1331
 194   2.0000      -0.480718       -13.0810
 195   2.0000      -0.479233       -13.0406
 196   2.0000      -0.474661       -12.9162
 197   2.0000      -0.474206       -12.9038
 198   2.0000      -0.471991       -12.8435
 199   2.0000      -0.469773       -12.7832
 200   2.0000      -0.466646       -12.6981
 201   2.0000      -0.465205       -12.6589
 202   2.0000      -0.461889       -12.5686
 203   2.0000      -0.461038       -12.5455
 204   2.0000      -0.459974       -12.5165
 205   2.0000      -0.458204       -12.4684
 206   2.0000      -0.456328       -12.4173
 207   2.0000      -0.455320       -12.3899
 208   2.0000      -0.452073       -12.3015
 209   2.0000      -0.447134       -12.1671
 210   2.0000      -0.446571       -12.1518
 211   2.0000      -0.445257       -12.1161
 212   2.0000      -0.439607       -11.9623
 213   2.0000      -0.437666       -11.9095
 214   2.0000      -0.435607       -11.8535
 215   2.0000      -0.434030       -11.8105
 216   2.0000      -0.430685       -11.7195
 217   2.0000      -0.429998       -11.7008
 218   2.0000      -0.422672       -11.5015
 219   2.0000      -0.418824       -11.3968
 220   2.0000      -0.403860       -10.9896
 221   2.0000      -0.401288       -10.9196
 222   2.0000      -0.394787       -10.7427
 223   2.0000      -0.391288       -10.6475
 224   2.0000      -0.389594       -10.6014
 225   2.0000      -0.387167       -10.5353
 226   2.0000      -0.386236       -10.5100
 227   2.0000      -0.386021       -10.5042
 228   2.0000      -0.381265       -10.3747
 229   2.0000      -0.379746       -10.3334
 230   2.0000      -0.378088       -10.2883
 231   2.0000      -0.376008       -10.2317
 232   2.0000      -0.374880       -10.2010
 233   2.0000      -0.371373       -10.1056
 234   2.0000      -0.370791       -10.0897
 235   2.0000      -0.366912        -9.9842
 236   2.0000      -0.364596        -9.9212
 237   2.0000      -0.362803        -9.8724
 238   2.0000      -0.361406        -9.8343
 239   2.0000      -0.357569        -9.7299
 240   2.0000      -0.356261        -9.6944
 241   2.0000      -0.339260        -9.2317
 242   2.0000      -0.337531        -9.1847
 243   2.0000      -0.335771        -9.1368
 244   2.0000      -0.332309        -9.0426
 245   2.0000      -0.325388        -8.8542
 246   2.0000      -0.323120        -8.7925
 247   2.0000      -0.316460        -8.6113
 248   2.0000      -0.314098        -8.5471
 249   2.0000      -0.300519        -8.1775
 250   2.0000      -0.292426        -7.9573
 251   2.0000      -0.272506        -7.4153
 252   2.0000      -0.235750        -6.4151
 253   0.0000      -0.132192        -3.5971
 254   0.0000      -0.088062        -2.3963
 255   0.0000      -0.067234        -1.8295
 256   0.0000      -0.052841        -1.4379
 257   0.0000      -0.043069        -1.1720

MULLIKEN ATOMIC CHARGES
-----------------------
   0 C :   -0.021157
   1 C :    0.056723
   2 N :   -0.268547
   3 S :    0.506726
   4 N :   -0.260449
   5 C :    0.026435
   6 C :   -0.026666
   7 C :   -0.004614
   8 C :    0.029396
   9 C :    0.022946
  10 C :    0.094040
  11 N :    0.263574
  12 O :   -0.246899
  13 O :   -0.237886
  14 C :    0.022198
  15 C :    0.018867
  16 C :    0.062626
  17 C :    0.027429
  18 C :    0.006379
  19 C :    0.026416
  20 C :    0.064940
  21 N :    0.280269
  22 O :   -0.247827
  23 O :   -0.260184
  24 C :    0.071614
  25 C :   -0.088232
  26 C :   -0.017646
  27 C :    0.133207
  28 N :   -0.258509
  29 C :    0.097098
  30 C :    0.008595
  31 C :    0.155729
  32 O :   -0.200794
  33 C :   -0.046024
  34 C :   -0.043794
  35 C :    0.155470
  36 O :   -0.193209
  37 N :   -0.256085
  38 C :    0.101396
  39 C :    0.002775
  40 C :    0.116697
  41 C :   -0.046985
  42 C :    0.050237
  43 C :   -0.128581
  44 S :    0.156077
  45 C :   -0.110377
  46 C :   -0.013897
  47 C :   -0.000915
  48 C :    0.074201
  49 N :    0.186907
  50 O :   -0.217963
  51 O :   -0.216210
  52 C :    0.081831
  53 C :    0.082915
  54 C :    0.076547
  55 N :    0.191122
  56 O :   -0.223166
  57 O :   -0.211148
  58 C :    0.055874
  59 C :   -0.025720
  60 C :    0.085341
  61 C :   -0.004709
  62 N :   -0.286963
  63 S :    0.504912
  64 N :   -0.268434
  65 C :    0.065909
  66 C :   -0.026872
  67 C :    0.046418
  68 C :   -0.044683
  69 H :   -0.015538
  70 H :   -0.014663
  71 H :   -0.002663
  72 H :   -0.007250
  73 H :   -0.006402
  74 H :   -0.012520
  75 H :    0.004490
  76 H :    0.043647
  77 H :    0.006816
  78 H :    0.039442
  79 H :    0.040294
  80 H :    0.017795
  81 H :    0.026097
  82 H :    0.024871
  83 H :    0.033250
  84 H :    0.045469
  85 H :    0.017022
  86 H :    0.027137
  87 H :    0.028877
  88 H :    0.003569
  89 H :   -0.012310
  90 H :    0.069050
  91 H :    0.038089
  92 H :    0.028131
  93 H :    0.031805
  94 H :    0.034181
  95 H :    0.055123
  96 H :   -0.013615
  97 H :    0.002332
  98 H :   -0.015072
  99 H :   -0.004946
 100 H :   -0.017194
Sum of atomic charges:   -0.0000000

LOEWDIN ATOMIC CHARGES
----------------------
   0 C :   -0.008772
   1 C :   -0.052006
   2 N :   -0.286512
   3 S :    0.649355
   4 N :   -0.289949
   5 C :   -0.045588
   6 C :   -0.032276
   7 C :   -0.008304
   8 C :   -0.019629
   9 C :    0.019733
  10 C :   -0.020211
  11 N :    0.286529
  12 O :   -0.210045
  13 O :   -0.204337
  14 C :    0.010931
  15 C :   -0.028402
  16 C :    0.040083
  17 C :    0.046956
  18 C :   -0.039764
  19 C :    0.016610
  20 C :   -0.046251
  21 N :    0.287539
  22 O :   -0.211444
  23 O :   -0.220753
  24 C :    0.011015
  25 C :    0.003574
  26 C :   -0.008576
  27 C :    0.068871
  28 N :    0.002463
  29 C :    0.038455
  30 C :   -0.059254
  31 C :    0.078156
  32 O :   -0.201473
  33 C :   -0.109317
  34 C :   -0.108600
  35 C :    0.084303
  36 O :   -0.181439
  37 N :    0.001832
  38 C :    0.036961
  39 C :   -0.062337
  40 C :    0.078618
  41 C :   -0.040484
  42 C :   -0.019602
  43 C :   -0.168080
  44 S :    0.473918
  45 C :   -0.149519
  46 C :   -0.069165
  47 C :   -0.055754
  48 C :    0.013121
  49 N :    0.272137
  50 O :   -0.186770
  51 O :   -0.196472
  52 C :   -0.014178
  53 C :   -0.014406
  54 C :    0.013983
  55 N :    0.272558
  56 O :   -0.192684
  57 O :   -0.190515
  58 C :   -0.042084
  59 C :   -0.005552
  60 C :   -0.029076
  61 C :   -0.044650
  62 N :   -0.291864
  63 S :    0.644861
  64 N :   -0.286781
  65 C :   -0.053979
  66 C :   -0.014966
  67 C :   -0.014184
  68 C :   -0.005753
  69 H :    0.038635
  70 H :    0.032957
  71 H :    0.034130
  72 H :    0.035290
  73 H :    0.029941
  74 H :    0.031461
  75 H :    0.037601
  76 H :    0.041903
  77 H :    0.028743
  78 H :    0.030090
  79 H :    0.037307
  80 H :    0.023372
  81 H :    0.032591
  82 H :    0.029962
  83 H :    0.026339
  84 H :    0.039167
  85 H :    0.020304
  86 H :    0.032549
  87 H :    0.032976
  88 H :    0.042543
  89 H :    0.030725
  90 H :    0.048020
  91 H :    0.041015
  92 H :    0.033684
  93 H :    0.035558
  94 H :    0.039696
  95 H :    0.043775
  96 H :    0.027596
  97 H :    0.029206
  98 H :    0.038268
  99 H :    0.033982
 100 H :    0.029811

  Mayer bond orders larger than 0.100000
B(  0-C ,  1-C ) :   1.1985 B(  0-C ,  6-C ) :   0.1111 B(  0-C ,  8-C ) :   1.5003
B(  0-C , 69-H ) :   1.0230 B(  1-C ,  2-N ) :   1.5067 B(  1-C ,  5-C ) :   1.1744
B(  2-N ,  3-S ) :   1.2855 B(  2-N ,  4-N ) :   0.1514 B(  3-S ,  4-N ) :   1.2683
B(  4-N ,  5-C ) :   1.5531 B(  5-C ,  6-C ) :   1.2323 B(  6-C ,  7-C ) :   1.5674
B(  6-C ,  9-C ) :   0.9324 B(  7-C ,  8-C ) :   1.1764 B(  7-C , 70-H ) :   0.9985
B(  8-C , 71-H ) :   0.9894 B(  9-C , 10-C ) :   1.6782 B(  9-C , 16-C ) :   1.0865
B( 10-C , 11-N ) :   0.9290 B( 10-C , 14-C ) :   1.0955 B( 11-N , 12-O ) :   1.5289
B( 11-N , 13-O ) :   1.5266 B( 12-O , 13-O ) :   0.2689 B( 14-C , 15-C ) :   1.6363
B( 14-C , 72-H ) :   1.0138 B( 15-C , 16-C ) :   1.0774 B( 15-C , 73-H ) :   0.9971
B( 16-C , 17-C ) :   1.5471 B( 17-C , 18-C ) :   1.1085 B( 17-C , 24-C ) :   1.0037
B( 18-C , 19-C ) :   1.5744 B( 18-C , 74-H ) :   1.0109 B( 19-C , 20-C ) :   1.1367
B( 19-C , 75-H ) :   1.0081 B( 20-C , 21-N ) :   0.9649 B( 20-C , 24-C ) :   1.4690
B( 21-N , 22-O ) :   1.5355 B( 21-N , 23-O ) :   1.4569 B( 22-O , 23-O ) :   0.2491
B( 23-O , 77-H ) :   0.1035 B( 24-C , 25-C ) :   1.1867 B( 25-C , 26-C ) :   1.5326
B( 25-C , 76-H ) :   0.9395 B( 26-C , 27-C ) :   1.1760 B( 26-C , 77-H ) :   0.9453
B( 27-C , 28-N ) :   1.1668 B( 27-C , 34-C ) :   1.2831 B( 28-N , 29-C ) :   0.9369
B( 28-N , 31-C ) :   1.0516 B( 29-C , 30-C ) :   1.1240 B( 29-C , 78-H ) :   0.9483
B( 29-C , 79-H ) :   0.9288 B( 30-C , 80-H ) :   0.9677 B( 30-C , 81-H ) :   0.9677
B( 30-C , 82-H ) :   0.9637 B( 31-C , 32-O ) :   2.1115 B( 31-C , 33-C ) :   0.9785
B( 33-C , 34-C ) :   1.2805 B( 33-C , 40-C ) :   1.3121 B( 34-C , 35-C ) :   0.9779
B( 35-C , 36-O ) :   2.0311 B( 35-C , 37-N ) :   1.0542 B( 36-O , 76-H ) :   0.1018
B( 37-N , 38-C ) :   0.9385 B( 37-N , 40-C ) :   1.1794 B( 38-C , 39-C ) :   1.1187
B( 38-C , 83-H ) :   0.9502 B( 38-C , 84-H ) :   0.9274 B( 39-C , 85-H ) :   0.9667
B( 39-C , 86-H ) :   0.9686 B( 39-C , 87-H ) :   0.9612 B( 40-C , 41-C ) :   1.2202
B( 41-C , 42-C ) :   1.5787 B( 41-C , 88-H ) :   0.9324 B( 42-C , 43-C ) :   1.1284
B( 42-C , 89-H ) :   0.9521 B( 43-C , 44-S ) :   1.1300 B( 43-C , 47-C ) :   1.4909
B( 44-S , 45-C ) :   1.1547 B( 45-C , 46-C ) :   1.4967 B( 45-C , 58-C ) :   1.1075
B( 46-C , 47-C ) :   1.3582 B( 46-C , 54-C ) :   0.9621 B( 47-C , 48-C ) :   0.9587
B( 48-C , 49-N ) :   0.8350 B( 48-C , 52-C ) :   1.0740 B( 48-C , 90-H ) :   0.8940
B( 49-N , 50-O ) :   1.5512 B( 49-N , 51-O ) :   1.5844 B( 50-O , 51-O ) :   0.2724
B( 52-C , 53-C ) :   1.0978 B( 52-C , 91-H ) :   0.9255 B( 52-C , 92-H ) :   0.9231
B( 53-C , 54-C ) :   1.0741 B( 53-C , 93-H ) :   0.9221 B( 53-C , 94-H ) :   0.9248
B( 54-C , 55-N ) :   0.8379 B( 54-C , 95-H ) :   0.8957 B( 55-N , 56-O ) :   1.5429
B( 55-N , 57-O ) :   1.5930 B( 56-O , 57-O ) :   0.2731 B( 58-C , 59-C ) :   1.6785
B( 58-C , 96-H ) :   0.9431 B( 59-C , 60-C ) :   1.1218 B( 59-C , 97-H ) :   0.9703
B( 60-C , 61-C ) :   1.1676 B( 60-C , 66-C ) :   0.1077 B( 60-C , 68-C ) :   1.4819
B( 61-C , 62-N ) :   1.5332 B( 61-C , 65-C ) :   1.1687 B( 62-N , 63-S ) :   1.2620
B( 62-N , 64-N ) :   0.1533 B( 63-S , 64-N ) :   1.2836 B( 64-N , 65-C ) :   1.5044
B( 65-C , 66-C ) :   1.2094 B( 66-C , 67-C ) :   1.4870 B( 66-C , 98-H ) :   1.0195
B( 67-C , 68-C ) :   1.2266 B( 67-C , 99-H ) :   0.9834 B( 68-C ,100-H ) :   0.9911

-----------------------------------------------------------------------------
         ABSORPTION SPECTRUM VIA TRANSITION ELECTRIC DIPOLE MOMENTS
-----------------------------------------------------------------------------
State   Energy  Wavelength   fosc         T2         TX        TY        TZ
        (cm-1)    (nm)                  (au**2)     (au)      (au)      (au)
-----------------------------------------------------------------------------
   0    7399.7   1351.4   0.340377921  15.14333   1.64985   3.49246  -0.47331
   1   15904.7    628.7   0.009557743   0.19784   0.00732  -0.07634  -0.43813
   2   17064.6    586.0   0.695371528  13.41518  -0.43307  -3.10252   1.89789
   3   18184.7    549.9   0.009596630   0.17374   0.27624   0.29545   0.10066
   4   20053.7    498.7   0.170752172   2.80315   0.52162   1.58398   0.14861
   5   20403.3    490.1   0.060886573   0.98242  -0.45990  -0.87762  -0.02633
   6   23111.6    432.7   0.050628508   0.72117   0.16345   0.81460  -0.17575
   7   23850.3    419.3   0.204967398   2.82921  -0.38831  -1.61972   0.23438
   8   24821.1    402.9   0.038265500   0.50753  -0.39407   0.07738  -0.58843
   9   24901.5    401.6   0.000699782   0.00925   0.01487  -0.04248  -0.08501
  10   26269.1    380.7   0.133710173   1.67570  -0.85887  -0.12239  -0.96076
  11   26503.7    377.3   0.208671538   2.59198  -0.09832  -1.54057   0.45711
  12   27222.4    367.3   0.035076349   0.42419   0.17190   0.60432  -0.17158
  13   27565.7    362.8   0.020674754   0.24691   0.26945   0.41173   0.06923
  14   27859.9    358.9   0.017507480   0.20688   0.29512   0.06567   0.33981
  15   28007.8    357.0   0.008070357   0.09486   0.07959   0.16685   0.24635
  16   28731.7    348.0   0.266500841   3.05361  -1.21873  -0.60481  -1.09659
  17   29167.1    342.9   0.014592501   0.16471   0.22154   0.03467   0.33827
  18   29464.7    339.4   0.023492627   0.26249   0.16290   0.33036   0.35610
  19   29615.5    337.7   0.053441318   0.59407   0.42197   0.64250   0.05663
  20   30066.2    332.6   0.008269378   0.09055  -0.11694  -0.27680  -0.01595
  21   30732.3    325.4   0.055556108   0.59513   0.11564   0.76205  -0.03230
  22   30926.3    323.3   0.488289110   5.19786  -0.53199   1.89808  -1.14549
  23   31592.4    316.5   0.016813610   0.17521  -0.17003  -0.38164  -0.02549
  24   32098.5    311.5   0.023439475   0.24040  -0.05656   0.44249  -0.20348
  25   32335.7    309.3   0.047455770   0.48315  -0.20580  -0.64751   0.14673
  26   32548.0    307.2   0.007606888   0.07694  -0.04116  -0.22318  -0.15950
  27   32594.1    306.8   0.027153045   0.27426   0.21282   0.02628   0.47778
  28   32828.5    304.6   0.091444479   0.91703   0.09462   0.91683   0.25979
  29   33314.7    300.2   0.007021036   0.06938   0.01478   0.26035  -0.03713
  30   33419.6    299.2   0.076107792   0.74973  -0.64371   0.21148  -0.53911
  31   33726.7    296.5   0.021463149   0.20951   0.31069  -0.16808   0.29107
  32   33893.3    295.0   0.031669418   0.30761  -0.38428   0.34921  -0.19491
  33   34181.7    292.6   0.008280629   0.07975  -0.17929   0.18436  -0.11671
  34   34528.4    289.6   0.002037043   0.01942  -0.08510  -0.07730  -0.07877
  35   34917.9    286.4   0.103811961   0.97876   0.19022   0.95836  -0.15533
  36   35297.8    283.3   0.005027079   0.04689  -0.20130  -0.07903  -0.01082
  37   36096.9    277.0   0.032907137   0.30012  -0.26665  -0.46421  -0.11628
  38   36482.9    274.1   0.036414509   0.32859   0.54400   0.18019  -0.01354
  39   36531.2    273.7   0.047531665   0.42835  -0.03416   0.64874  -0.07945
  40   36976.8    270.4   0.007883927   0.07019  -0.11707   0.18789   0.14555
  41   37286.3    268.2   0.040762706   0.35991   0.14814   0.36648   0.45128
  42   37503.6    266.6   0.000730068   0.00641   0.06945   0.00676  -0.03924
  43   37518.5    266.5   0.030694413   0.26933   0.12606  -0.33314   0.37744
  44   37781.1    264.7   0.044384325   0.38675   0.17698   0.58832  -0.09646
  45   38152.7    262.1   0.104842445   0.90466  -0.54292   0.39563  -0.67334
  46   38221.9    261.6   0.029726134   0.25604   0.01670  -0.01921   0.50536
  47   38540.0    259.5   0.007664866   0.06547  -0.25294  -0.03847   0.00393
  48   38773.1    257.9   0.054554314   0.46321  -0.44887  -0.14020  -0.49200
  49   39179.0    255.2   0.160563759   1.34918   0.56813  -0.56330   0.84208
  50   39223.9    254.9   0.007421305   0.06229  -0.16404   0.00769  -0.18793
  51   39562.5    252.8   0.004543518   0.03781  -0.11094   0.14899  -0.05746
  52   39597.6    252.5   0.055112162   0.45820   0.60296  -0.23058   0.20363
  53   39900.4    250.6   0.026881385   0.22179   0.15395  -0.02349   0.44446
  54   40099.9    249.4   0.021657092   0.17780  -0.16585   0.38397  -0.05348

FINAL SINGLE POINT ENERGY     -4261.889707164291

DIPOLE MOMENT
-------------
                                X             Y             Z
Electronic contribution:     -2.30702       6.52949      23.91420
Nuclear contribution   :      2.26796      -8.04127     -23.88911
                        -----------------------------------------
Total Dipole Moment    :     -0.03906      -1.51178       0.02510
                        -----------------------------------------
Magnitude (a.u.)       :      1.51249
Magnitude (Debye)      :      3.84445

Rotational constants in cm-1:     0.002024     0.000311     0.000283
Rotational constants in MHz :    60.668010     9.318011     8.494146

                             ****ORCA TERMINATED NORMALLY****
TOTAL RUN TIME: 0 days 0 hours 11 minutes 23 seconds 896 msec
