                         Program Version 4.2.0 -  RELEASE  -
|  1> # ORCA input file
|  2> # SCF done       -169.417387940747          0.000634294936
|  3> ! CAM-B3LYP def2-SVP def2/J RIJCOSX Grid4 TightSCF
|  4> %maxcore 5000
|  5> %tddft
|  6>     Mode sTDDFT
|  7>     Ethresh 5.0
|  8>     maxcore 5000
|  9> end
| 10>
| 11> %pal
| 12>   nprocs 6
| 13>   end
| 14> * xyz 0 1
| 15>    C       -1.74403         1.48505        -1.65896
| 16>    C       -1.45014         0.77937        -2.81203
| 17>    F       -1.30475         1.44030        -3.96404
| 18>    C       -1.30871        -0.60340        -2.78607
| 19>    F       -1.04738        -1.25558        -3.92404
| 20>    C       -1.46564        -1.32299        -1.60007
| 21>    C       -1.76763        -0.59847        -0.44586
| 22>    C       -1.90037         0.78438        -0.47671
| 23>    F       -2.18210         1.44940         0.64849
| 24>    F       -1.90798        -1.24187         0.72186
| 25>    C       -1.31574        -2.78781        -1.56670
| 26>    C       -0.22835        -3.39957        -2.17545
| 27>    C       -0.08068        -4.77703        -2.11996
| 28>    N        1.13684        -5.33543        -2.65425
| 29>    O        1.75496        -4.66480        -3.45163
| 30>    O        1.48762        -6.42065        -2.24218
| 31>    C       -1.03046        -5.59856        -1.49085
| 32>    C       -2.11488        -4.95670        -0.88149
| 33>    C       -2.25337        -3.58683        -0.90719
| 34>    C       -0.94819        -7.04230        -1.51777
| 35>    C       -1.27799        -7.82446        -0.47014
| 36>    C       -1.21716        -9.24635        -0.53907
| 37>    N       -1.41089       -10.07822         0.54007
| 38>    C       -1.74300        -9.68394         1.88634
| 39>    C       -3.22565        -9.34835         2.03360
| 40>    C       -1.26798       -11.43790         0.19097
| 41>    O       -1.39272       -12.35136         0.98188
| 42>    C       -0.96402       -11.40426        -1.21846
| 43>    C       -0.94578       -10.05021        -1.63808
| 44>    C       -0.65501       -10.04258        -3.05285
| 45>    O       -0.57618        -9.13685        -3.85884
| 46>    N       -0.49392       -11.40193        -3.39436
| 47>    C       -0.13406       -11.75273        -4.74816
| 48>    C        1.36557       -11.99950        -4.89141
| 49>    C       -0.67154       -12.22229        -2.30464
| 50>    C       -0.61205       -13.64113        -2.19250
| 51>    C       -0.28229       -14.55910        -3.12555
| 52>    C       -0.25687       -15.97904        -2.89372
| 53>    C       -0.55899       -16.60930        -1.71338
| 54>    S       -0.41441       -18.31253        -1.80318
| 55>    C        0.06279       -18.22735        -3.43761
| 56>    C        0.10871       -16.94044        -3.90494
| 57>    C        0.49123       -16.61253        -5.27891
| 58>    O        0.49927       -15.52023        -5.78751
| 59>    O        0.85610       -17.73924        -5.96030
| 60>    C        1.27528       -17.60079        -7.24629
| 61>    C        1.59876       -18.69198        -7.94681
| 62>    C        2.07061       -18.73939        -9.31501
| 63>    C        2.40506       -17.62523       -10.09535
| 64>    F        2.30403       -16.38827        -9.58985
| 65>    C        2.85958       -17.76422       -11.40053
| 66>    F        3.17039       -16.67262       -12.10845
| 67>    C        3.00010       -19.00987       -11.98528
| 68>    C        2.67751       -20.12433       -11.23144
| 69>    C        2.22533       -19.99287        -9.92694
| 70>    F        1.92272       -21.09861        -9.23000
| 71>    F        2.80466       -21.34158       -11.77186
| 72>    H       -1.84920         2.55704        -1.68170
| 73>    H        0.53559        -2.82121        -2.67336
| 74>    H       -2.87259        -5.55927        -0.40533
| 75>    H       -3.10619        -3.12907        -0.43053
| 76>    H       -0.60651        -7.50580        -2.43486
| 77>    H       -1.54762        -7.37732         0.47665
| 78>    H       -1.11924        -8.83668         2.18552
| 79>    H       -1.49954       -10.54147         2.52018
| 80>    H       -3.50930        -8.52989         1.37553
| 81>    H       -3.43897        -9.06314         3.06015
| 82>    H       -3.82805       -10.21741         1.78135
| 83>    H       -0.41677       -10.89297        -5.36323
| 84>    H       -0.71395       -12.61878        -5.07305
| 85>    H        1.91248       -11.08308        -4.68379
| 86>    H        1.58687       -12.32026        -5.90513
| 87>    H        1.70457       -12.76863        -4.20146
| 88>    H       -0.86730       -13.96868        -1.19290
| 89>    H       -0.00369       -14.27030        -4.12391
| 90>    H       -0.85940       -16.16214        -0.78747
| 91>    H        0.28380       -19.12371        -3.98161
| 92>    H        1.30973       -16.58179        -7.60828
| 93>    H        1.49603       -19.65219        -7.46022
| 94>    H        3.35278       -19.10864       -12.99809
| 95> *
| 96>
| 97>                          ****END OF INPUT****

CARTESIAN COORDINATES (ANGSTROEM)
---------------------------------
  C     -1.744030    1.485050   -1.658960
  C     -1.450140    0.779370   -2.812030
  F     -1.304750    1.440300   -3.964040
  C     -1.308710   -0.603400   -2.786070
  F     -1.047380   -1.255580   -3.924040
  C     -1.465640   -1.322990   -1.600070
  C     -1.767630   -0.598470   -0.445860
  C     -1.900370    0.784380   -0.476710
  F     -2.182100    1.449400    0.648490
  F     -1.907980   -1.241870    0.721860
  C     -1.315740   -2.787810   -1.566700
  C     -0.228350   -3.399570   -2.175450
  C     -0.080680   -4.777030   -2.119960
  N      1.136840   -5.335430   -2.654250
  O      1.754960   -4.664800   -3.451630
  O      1.487620   -6.420650   -2.242180
  C     -1.030460   -5.598560   -1.490850
  C     -2.114880   -4.956700   -0.881490
  C     -2.253370   -3.586830   -0.907190
  C     -0.948190   -7.042300   -1.517770
  C     -1.277990   -7.824460   -0.470140
  C     -1.217160   -9.246350   -0.539070
  N     -1.410890  -10.078220    0.540070
  C     -1.743000   -9.683940    1.886340
  C     -3.225650   -9.348350    2.033600
  C     -1.267980  -11.437900    0.190970
  O     -1.392720  -12.351360    0.981880
  C     -0.964020  -11.404260   -1.218460
  C     -0.945780  -10.050210   -1.638080
  C     -0.655010  -10.042580   -3.052850
  O     -0.576180   -9.136850   -3.858840
  N     -0.493920  -11.401930   -3.394360
  C     -0.134060  -11.752730   -4.748160
  C      1.365570  -11.999500   -4.891410
  C     -0.671540  -12.222290   -2.304640
  C     -0.612050  -13.641130   -2.192500
  C     -0.282290  -14.559100   -3.125550
  C     -0.256870  -15.979040   -2.893720
  C     -0.558990  -16.609300   -1.713380
  S     -0.414410  -18.312530   -1.803180
  C      0.062790  -18.227350   -3.437610
  C      0.108710  -16.940440   -3.904940
  C      0.491230  -16.612530   -5.278910
  O      0.499270  -15.520230   -5.787510
  O      0.856100  -17.739240   -5.960300
  C      1.275280  -17.600790   -7.246290
  C      1.598760  -18.691980   -7.946810
  C      2.070610  -18.739390   -9.315010
  C      2.405060  -17.625230  -10.095350
  F      2.304030  -16.388270   -9.589850
  C      2.859580  -17.764220  -11.400530
  F      3.170390  -16.672620  -12.108450
  C      3.000100  -19.009870  -11.985280
  C      2.677510  -20.124330  -11.231440
  C      2.225330  -19.992870   -9.926940
  F      1.922720  -21.098610   -9.230000
  F      2.804660  -21.341580  -11.771860
  H     -1.849200    2.557040   -1.681700
  H      0.535590   -2.821210   -2.673360
  H     -2.872590   -5.559270   -0.405330
  H     -3.106190   -3.129070   -0.430530
  H     -0.606510   -7.505800   -2.434860
  H     -1.547620   -7.377320    0.476650
  H     -1.119240   -8.836680    2.185520
  H     -1.499540  -10.541470    2.520180
  H     -3.509300   -8.529890    1.375530
  H     -3.438970   -9.063140    3.060150
  H     -3.828050  -10.217410    1.781350
  H     -0.416770  -10.892970   -5.363230
  H     -0.713950  -12.618780   -5.073050
  H      1.912480  -11.083080   -4.683790
  H      1.586870  -12.320260   -5.905130
  H      1.704570  -12.768630   -4.201460
  H     -0.867300  -13.968680   -1.192900
  H     -0.003690  -14.270300   -4.123910
  H     -0.859400  -16.162140   -0.787470
  H      0.283800  -19.123710   -3.981610
  H      1.309730  -16.581790   -7.608280
  H      1.496030  -19.652190   -7.460220
  H      3.352780  -19.108640  -12.998090

 Total Charge           Charge          ....    0
 Multiplicity           Mult            ....    1
 Number of Electrons    NEL             ....  414
 Basis Dimension        Dim             ....  917

ORBITAL ENERGIES
----------------

  NO   OCC          E(Eh)            E(eV)
   0   2.0000     -88.977120     -2421.1905
   1   2.0000     -24.806389      -675.0162
   2   2.0000     -24.804226      -674.9573
   3   2.0000     -24.801634      -674.8868
   4   2.0000     -24.801040      -674.8706
   5   2.0000     -24.800049      -674.8436
   6   2.0000     -24.798197      -674.7933
   7   2.0000     -24.794187      -674.6841
   8   2.0000     -24.793609      -674.6684
   9   2.0000     -19.288852      -524.8763
  10   2.0000     -19.241839      -523.5971
  11   2.0000     -19.239822      -523.5422
  12   2.0000     -19.227390      -523.2039
  13   2.0000     -19.182398      -521.9796
  14   2.0000     -19.181395      -521.9523
  15   2.0000     -14.646456      -398.5503
  16   2.0000     -14.446098      -393.0983
  17   2.0000     -14.444221      -393.0472
  18   2.0000     -10.425074      -283.6807
  19   2.0000     -10.384452      -282.5753
  20   2.0000     -10.384006      -282.5632
  21   2.0000     -10.383940      -282.5614
  22   2.0000     -10.383536      -282.5504
  23   2.0000     -10.376635      -282.3626
  24   2.0000     -10.376578      -282.3610
  25   2.0000     -10.375968      -282.3444
  26   2.0000     -10.374777      -282.3120
  27   2.0000     -10.365283      -282.0537
  28   2.0000     -10.364652      -282.0365
  29   2.0000     -10.344148      -281.4786
  30   2.0000     -10.333340      -281.1845
  31   2.0000     -10.332616      -281.1648
  32   2.0000     -10.329265      -281.0736
  33   2.0000     -10.322056      -280.8774
  34   2.0000     -10.317564      -280.7552
  35   2.0000     -10.317172      -280.7445
  36   2.0000     -10.313651      -280.6487
  37   2.0000     -10.312669      -280.6220
  38   2.0000     -10.308401      -280.5059
  39   2.0000     -10.305016      -280.4137
  40   2.0000     -10.304825      -280.4085
  41   2.0000     -10.303394      -280.3696
  42   2.0000     -10.301470      -280.3172
  43   2.0000     -10.299946      -280.2758
  44   2.0000     -10.299275      -280.2575
  45   2.0000     -10.297531      -280.2101
  46   2.0000     -10.296614      -280.1851
  47   2.0000     -10.293876      -280.1106
  48   2.0000     -10.290286      -280.0129
  49   2.0000     -10.288316      -279.9593
  50   2.0000     -10.287677      -279.9419
  51   2.0000     -10.283278      -279.8222
  52   2.0000     -10.282348      -279.7969
  53   2.0000     -10.262905      -279.2678
  54   2.0000     -10.250786      -278.9381
  55   2.0000     -10.250500      -278.9303
  56   2.0000     -10.248291      -278.8702
  57   2.0000      -8.073412      -219.6887
  58   2.0000      -6.042431      -164.4229
  59   2.0000      -6.037962      -164.3013
  60   2.0000      -6.036291      -164.2558
  61   2.0000      -1.327705       -36.1287
  62   2.0000      -1.326457       -36.0947
  63   2.0000      -1.322443       -35.9855
  64   2.0000      -1.322226       -35.9796
  65   2.0000      -1.319683       -35.9104
  66   2.0000      -1.311889       -35.6983
  67   2.0000      -1.310962       -35.6731
  68   2.0000      -1.305027       -35.5116
  69   2.0000      -1.304082       -35.4859
  70   2.0000      -1.219446       -33.1828
  71   2.0000      -1.141454       -31.0605
  72   2.0000      -1.125901       -30.6373
  73   2.0000      -1.124275       -30.5931
  74   2.0000      -1.117607       -30.4116
  75   2.0000      -1.054484       -28.6940
  76   2.0000      -1.045404       -28.4469
  77   2.0000      -1.001891       -27.2628
  78   2.0000      -1.001559       -27.2538
  79   2.0000      -0.986404       -26.8414
  80   2.0000      -0.985688       -26.8219
  81   2.0000      -0.926254       -25.2047
  82   2.0000      -0.919584       -25.0231
  83   2.0000      -0.912788       -24.8382
  84   2.0000      -0.906129       -24.6570
  85   2.0000      -0.902942       -24.5703
  86   2.0000      -0.884064       -24.0566
  87   2.0000      -0.877120       -23.8676
  88   2.0000      -0.866949       -23.5909
  89   2.0000      -0.857293       -23.3281
  90   2.0000      -0.849754       -23.1230
  91   2.0000      -0.849544       -23.1173
  92   2.0000      -0.844420       -22.9778
  93   2.0000      -0.832367       -22.6499
  94   2.0000      -0.812119       -22.0989
  95   2.0000      -0.804290       -21.8858
  96   2.0000      -0.784025       -21.3344
  97   2.0000      -0.775678       -21.1073
  98   2.0000      -0.771399       -20.9908
  99   2.0000      -0.752541       -20.4777
 100   2.0000      -0.749976       -20.4079
 101   2.0000      -0.735506       -20.0141
 102   2.0000      -0.729605       -19.8536
 103   2.0000      -0.724907       -19.7257
 104   2.0000      -0.720365       -19.6021
 105   2.0000      -0.704232       -19.1631
 106   2.0000      -0.696760       -18.9598
 107   2.0000      -0.689539       -18.7633
 108   2.0000      -0.686359       -18.6768
 109   2.0000      -0.682665       -18.5763
 110   2.0000      -0.675180       -18.3726
 111   2.0000      -0.667820       -18.1723
 112   2.0000      -0.662744       -18.0342
 113   2.0000      -0.662303       -18.0222
 114   2.0000      -0.657276       -17.8854
 115   2.0000      -0.653553       -17.7841
 116   2.0000      -0.649369       -17.6702
 117   2.0000      -0.644884       -17.5482
 118   2.0000      -0.641615       -17.4592
 119   2.0000      -0.636478       -17.3195
 120   2.0000      -0.631339       -17.1796
 121   2.0000      -0.622704       -16.9446
 122   2.0000      -0.621706       -16.9175
 123   2.0000      -0.615499       -16.7486
 124   2.0000      -0.614502       -16.7214
 125   2.0000      -0.604601       -16.4520
 126   2.0000      -0.596125       -16.2214
 127   2.0000      -0.594635       -16.1808
 128   2.0000      -0.593623       -16.1533
 129   2.0000      -0.587999       -16.0003
 130   2.0000      -0.585366       -15.9286
 131   2.0000      -0.582326       -15.8459
 132   2.0000      -0.579344       -15.7648
 133   2.0000      -0.577171       -15.7056
 134   2.0000      -0.574307       -15.6277
 135   2.0000      -0.573429       -15.6038
 136   2.0000      -0.571894       -15.5620
 137   2.0000      -0.566551       -15.4166
 138   2.0000      -0.560877       -15.2622
 139   2.0000      -0.560311       -15.2468
 140   2.0000      -0.559263       -15.2183
 141   2.0000      -0.555886       -15.1264
 142   2.0000      -0.554556       -15.0902
 143   2.0000      -0.551800       -15.0153
 144   2.0000      -0.551069       -14.9954
 145   2.0000      -0.549634       -14.9563
 146   2.0000      -0.548818       -14.9341
 147   2.0000      -0.544465       -14.8156
 148   2.0000      -0.542252       -14.7554
 149   2.0000      -0.533873       -14.5274
 150   2.0000      -0.529746       -14.4151
 151   2.0000      -0.524678       -14.2772
 152   2.0000      -0.521413       -14.1884
 153   2.0000      -0.520439       -14.1619
 154   2.0000      -0.519785       -14.1441
 155   2.0000      -0.517207       -14.0739
 156   2.0000      -0.508897       -13.8478
 157   2.0000      -0.505911       -13.7665
 158   2.0000      -0.504965       -13.7408
 159   2.0000      -0.497374       -13.5342
 160   2.0000      -0.495349       -13.4791
 161   2.0000      -0.493108       -13.4182
 162   2.0000      -0.492252       -13.3949
 163   2.0000      -0.491058       -13.3624
 164   2.0000      -0.488924       -13.3043
 165   2.0000      -0.480485       -13.0747
 166   2.0000      -0.478924       -13.0322
 167   2.0000      -0.473098       -12.8736
 168   2.0000      -0.471014       -12.8169
 169   2.0000      -0.468389       -12.7455
 170   2.0000      -0.464684       -12.6447
 171   2.0000      -0.463883       -12.6229
 172   2.0000      -0.462227       -12.5778
 173   2.0000      -0.457833       -12.4583
 174   2.0000      -0.457701       -12.4547
 175   2.0000      -0.456839       -12.4312
 176   2.0000      -0.452236       -12.3060
 177   2.0000      -0.446671       -12.1545
 178   2.0000      -0.441703       -12.0194
 179   2.0000      -0.440842       -11.9959
 180   2.0000      -0.440419       -11.9844
 181   2.0000      -0.439096       -11.9484
 182   2.0000      -0.438484       -11.9318
 183   2.0000      -0.431683       -11.7467
 184   2.0000      -0.430264       -11.7081
 185   2.0000      -0.427018       -11.6197
 186   2.0000      -0.419241       -11.4081
 187   2.0000      -0.409735       -11.1494
 188   2.0000      -0.393557       -10.7092
 189   2.0000      -0.381165       -10.3720
 190   2.0000      -0.380109       -10.3433
 191   2.0000      -0.378204       -10.2915
 192   2.0000      -0.377060       -10.2603
 193   2.0000      -0.373744       -10.1701
 194   2.0000      -0.364986        -9.9318
 195   2.0000      -0.350566        -9.5394
 196   2.0000      -0.343633        -9.3507
 197   2.0000      -0.339230        -9.2309
 198   2.0000      -0.336221        -9.1490
 199   2.0000      -0.323296        -8.7973
 200   2.0000      -0.322106        -8.7650
 201   2.0000      -0.315368        -8.5816
 202   2.0000      -0.312668        -8.5081
 203   2.0000      -0.306685        -8.3453
 204   2.0000      -0.303660        -8.2630
 205   2.0000      -0.296444        -8.0666
 206   2.0000      -0.231696        -6.3048
 207   0.0000      -0.076937        -2.0936
 208   0.0000      -0.045974        -1.2510
 209   0.0000      -0.034455        -0.9376
 210   0.0000      -0.027789        -0.7562
 211   0.0000      -0.009462        -0.2575

MULLIKEN ATOMIC CHARGES
-----------------------
   0 C :   -0.149686
   1 C :    0.246021
   2 F :   -0.170634
   3 C :    0.185658
   4 F :   -0.161485
   5 C :   -0.081895
   6 C :    0.182964
   7 C :    0.246649
   8 F :   -0.172535
   9 F :   -0.169051
  10 C :    0.050697
  11 C :   -0.030172
  12 C :    0.138350
  13 N :    0.243194
  14 O :   -0.230253
  15 O :   -0.220052
  16 C :    0.051368
  17 C :   -0.036178
  18 C :    0.046655
  19 C :    0.031560
  20 C :   -0.038875
  21 C :    0.130816
  22 N :   -0.267066
  23 C :    0.101373
  24 C :    0.003965
  25 C :    0.147047
  26 O :   -0.204474
  27 C :   -0.049932
  28 C :   -0.057943
  29 C :    0.164978
  30 O :   -0.209369
  31 N :   -0.265017
  32 C :    0.100009
  33 C :    0.010313
  34 C :    0.115720
  35 C :   -0.018315
  36 C :   -0.007867
  37 C :    0.111079
  38 C :   -0.148100
  39 S :    0.160976
  40 C :   -0.083141
  41 C :   -0.028572
  42 C :    0.236709
  43 O :   -0.191987
  44 O :   -0.252992
  45 C :    0.164028
  46 C :   -0.026257
  47 C :   -0.042385
  48 C :    0.173088
  49 F :   -0.173372
  50 C :    0.250147
  51 F :   -0.174298
  52 C :   -0.154417
  53 C :    0.249708
  54 C :    0.169342
  55 F :   -0.175341
  56 F :   -0.175357
  57 H :    0.021474
  58 H :    0.011590
  59 H :   -0.009159
  60 H :   -0.003368
  61 H :    0.043326
  62 H :   -0.025261
  63 H :    0.022800
  64 H :    0.041943
  65 H :    0.008822
  66 H :    0.021343
  67 H :    0.030276
  68 H :    0.038521
  69 H :    0.030747
  70 H :    0.026584
  71 H :    0.023696
  72 H :    0.017767
  73 H :   -0.009041
  74 H :    0.006840
  75 H :    0.047264
  76 H :    0.039555
  77 H :    0.045320
  78 H :    0.008408
  79 H :    0.015158
Sum of atomic charges:   -0.0000000

LOEWDIN ATOMIC CHARGES
----------------------
   0 C :   -0.058628
   1 C :    0.058450
   2 F :   -0.046730
   3 C :    0.056684
   4 F :   -0.040219
   5 C :   -0.061484
   6 C :    0.055654
   7 C :    0.057442
   8 F :   -0.048724
   9 F :   -0.046564
  10 C :   -0.021518
  11 C :    0.019014
  12 C :   -0.022557
  13 N :    0.285135
  14 O :   -0.197839
  15 O :   -0.180767
  16 C :   -0.000212
  17 C :   -0.007873
  18 C :    0.016258
  19 C :    0.038197
  20 C :   -0.047333
  21 C :    0.079377
  22 N :   -0.005549
  23 C :    0.035795
  24 C :   -0.061874
  25 C :    0.078011
  26 O :   -0.207504
  27 C :   -0.119149
  28 C :   -0.124574
  29 C :    0.084040
  30 O :   -0.196999
  31 N :   -0.000414
  32 C :    0.035722
  33 C :   -0.060809
  34 C :    0.074514
  35 C :   -0.025667
  36 C :   -0.005780
  37 C :   -0.045735
  38 C :   -0.173492
  39 S :    0.489229
  40 C :   -0.148106
  41 C :   -0.111683
  42 C :    0.117913
  43 O :   -0.157405
  44 O :   -0.046441
  45 C :    0.081231
  46 C :   -0.065488
  47 C :   -0.057435
  48 C :    0.054027
  49 F :   -0.042997
  50 C :    0.058458
  51 F :   -0.050152
  52 C :   -0.065390
  53 C :    0.057105
  54 C :    0.053311
  55 F :   -0.051017
  56 F :   -0.050840
  57 H :    0.055465
  58 H :    0.042727
  59 H :    0.035136
  60 H :    0.035743
  61 H :    0.038965
  62 H :    0.026903
  63 H :    0.022836
  64 H :    0.037301
  65 H :    0.018994
  66 H :    0.029506
  67 H :    0.032519
  68 H :    0.035874
  69 H :    0.024985
  70 H :    0.031219
  71 H :    0.032390
  72 H :    0.021556
  73 H :    0.039895
  74 H :    0.030492
  75 H :    0.030245
  76 H :    0.030755
  77 H :    0.023434
  78 H :    0.038990
  79 H :    0.053455

  Mayer bond orders larger than 0.100000
B(  0-C ,  1-C ) :   1.3234 B(  0-C ,  5-C ) :   0.1246 B(  0-C ,  7-C ) :   1.3220
B(  0-C , 57-H ) :   1.0181 B(  1-C ,  2-F ) :   1.1271 B(  1-C ,  3-C ) :   1.2933
B(  3-C ,  4-F ) :   1.1668 B(  3-C ,  5-C ) :   1.3325 B(  5-C ,  6-C ) :   1.3338
B(  5-C , 10-C ) :   0.9448 B(  6-C ,  7-C ) :   1.2961 B(  6-C ,  9-F ) :   1.1582
B(  7-C ,  8-F ) :   1.1254 B( 10-C , 11-C ) :   1.3435 B( 10-C , 18-C ) :   1.3684
B( 11-C , 12-C ) :   1.3916 B( 11-C , 58-H ) :   0.9902 B( 12-C , 13-N ) :   0.8796
B( 12-C , 16-C ) :   1.3490 B( 13-N , 14-O ) :   1.5590 B( 13-N , 15-O ) :   1.5364
B( 14-O , 15-O ) :   0.2678 B( 16-C , 17-C ) :   1.3572 B( 16-C , 19-C ) :   1.0353
B( 17-C , 18-C ) :   1.3914 B( 17-C , 59-H ) :   0.9930 B( 18-C , 60-H ) :   0.9937
B( 19-C , 20-C ) :   1.7018 B( 19-C , 61-H ) :   0.9131 B( 20-C , 21-C ) :   1.1364
B( 20-C , 62-H ) :   0.9643 B( 21-C , 22-N ) :   1.1608 B( 21-C , 28-C ) :   1.3642
B( 22-N , 23-C ) :   0.9493 B( 22-N , 25-C ) :   1.0342 B( 23-C , 24-C ) :   1.1182
B( 23-C , 63-H ) :   0.9510 B( 23-C , 64-H ) :   0.9284 B( 24-C , 65-H ) :   0.9691
B( 24-C , 66-H ) :   0.9682 B( 24-C , 67-H ) :   0.9640 B( 25-C , 26-O ) :   2.1159
B( 25-C , 27-C ) :   0.9864 B( 27-C , 28-C ) :   1.2300 B( 27-C , 34-C ) :   1.3501
B( 28-C , 29-C ) :   0.9843 B( 29-C , 30-O ) :   2.0281 B( 29-C , 31-N ) :   1.0583
B( 30-O , 61-H ) :   0.1065 B( 31-N , 32-C ) :   0.9393 B( 31-N , 34-C ) :   1.1708
B( 32-C , 33-C ) :   1.1192 B( 32-C , 68-H ) :   0.9241 B( 32-C , 69-H ) :   0.9509
B( 33-C , 70-H ) :   0.9614 B( 33-C , 71-H ) :   0.9681 B( 33-C , 72-H ) :   0.9670
B( 34-C , 35-C ) :   1.1640 B( 35-C , 36-C ) :   1.6135 B( 35-C , 73-H ) :   0.9478
B( 36-C , 37-C ) :   1.0931 B( 36-C , 74-H ) :   0.9638 B( 37-C , 38-C ) :   1.5399
B( 37-C , 41-C ) :   1.2144 B( 38-C , 39-S ) :   1.1741 B( 38-C , 75-H ) :   0.9512
B( 39-S , 40-C ) :   1.2205 B( 40-C , 41-C ) :   1.5166 B( 40-C , 76-H ) :   0.9614
B( 41-C , 42-C ) :   0.9715 B( 42-C , 43-O ) :   2.0589 B( 42-C , 44-O ) :   1.1336
B( 44-O , 45-C ) :   1.0234 B( 45-C , 46-C ) :   1.7213 B( 45-C , 77-H ) :   0.9649
B( 46-C , 47-C ) :   1.1018 B( 46-C , 78-H ) :   0.9729 B( 47-C , 48-C ) :   1.2770
B( 47-C , 52-C ) :   0.1218 B( 47-C , 54-C ) :   1.3018 B( 48-C , 49-F ) :   1.1258
B( 48-C , 50-C ) :   1.3173 B( 50-C , 51-F ) :   1.1215 B( 50-C , 52-C ) :   1.3243
B( 52-C , 53-C ) :   1.3151 B( 52-C , 79-H ) :   1.0170 B( 53-C , 54-C ) :   1.3073
B( 53-C , 56-F ) :   1.1241 B( 54-C , 55-F ) :   1.1477

-----------------------------------------------------------------------------
         ABSORPTION SPECTRUM VIA TRANSITION ELECTRIC DIPOLE MOMENTS
-----------------------------------------------------------------------------
State   Energy  Wavelength   fosc         T2         TX        TY        TZ
        (cm-1)    (nm)                  (au**2)     (au)      (au)      (au)
-----------------------------------------------------------------------------
   0   17537.9    570.2   0.647904983  12.16211  -0.34408   3.18503   1.37816
   1   23807.1    420.0   0.116987995   1.61774   0.47726  -0.64569  -0.98643
   2   27310.7    366.2   0.000508729   0.00613  -0.04282  -0.05144  -0.04066
   3   29002.4    344.8   0.024671567   0.28005  -0.11054   0.11605   0.50435
   4   29520.6    338.7   0.035758360   0.39877   0.15773  -0.60702  -0.07362
   5   29636.8    337.4   0.004380422   0.04866  -0.00525   0.19572  -0.10162
   6   32373.7    308.9   0.350275325   3.56199   0.09043  -1.87849  -0.15842
   7   33264.0    300.6   0.006114570   0.06052   0.11166  -0.02345  -0.21794
   8   34498.9    289.9   0.691423409   6.59803  -0.13465  -2.45887   0.73065
   9   35135.8    284.6   0.089620809   0.83972  -0.31166   0.86081   0.04000
  10   36322.4    275.3   0.026005276   0.23570  -0.38366  -0.12004   0.27221
  11   36681.0    272.6   0.097343478   0.87366   0.29147  -0.25476  -0.85077
  12   37067.0    269.8   0.030255283   0.26871   0.17938  -0.20583  -0.44065
  13   38362.5    260.7   0.033265087   0.28547  -0.08006   0.50967  -0.13893
  14   39897.0    250.6   0.015832150   0.13064  -0.01047   0.23584   0.27370

FINAL SINGLE POINT ENERGY     -3308.875435833856

DIPOLE MOMENT
-------------
                                X             Y             Z
Electronic contribution:     14.34216      14.31260     -42.61399
Nuclear contribution   :    -15.57031     -14.54579      43.65140
                        -----------------------------------------
Total Dipole Moment    :     -1.22814      -0.23319       1.03742
                        -----------------------------------------
Magnitude (a.u.)       :      1.62448
Magnitude (Debye)      :      4.12911

Rotational constants in cm-1:     0.002355     0.000353     0.000311
Rotational constants in MHz :    70.595580    10.588886     9.309831

                             ****ORCA TERMINATED NORMALLY****
TOTAL RUN TIME: 0 days 0 hours 5 minutes 17 seconds 518 msec
