                         Program Version 4.2.0 -  RELEASE  -
|  1> # ORCA input file
|  2> # SCF done       -196.002584456248          0.000408753733
|  3> ! CAM-B3LYP def2-SVP def2/J RIJCOSX Grid4 TightSCF
|  4> %maxcore 5000
|  5> %tddft
|  6>     Mode sTDDFT
|  7>     Ethresh 5.0
|  8>     maxcore 5000
|  9> end
| 10>
| 11> %pal
| 12>   nprocs 6
| 13>   end
| 14> * xyz 0 1
| 15>    C        0.02418        -1.57119         0.64903
| 16>    O       -0.51933        -1.99373         1.63741
| 17>    C        0.97541        -0.43428         0.59472
| 18>    C        1.31544        -0.15363        -0.73902
| 19>    C        2.18712         0.88750        -1.01875
| 20>    C        2.70657         1.62346         0.03927
| 21>    C        2.36415         1.33407         1.36224
| 22>    C        1.48529         0.29733         1.64678
| 23>   Br        3.09044         2.34887         2.78043
| 24>   Br        3.89687         3.04181        -0.34258
| 25>    C        0.62744        -1.09994        -1.61382
| 26>    C        0.77600        -1.16857        -2.97381
| 27>    C        1.59048        -0.29341        -3.72553
| 28>    N        2.23085         0.38600        -4.39253
| 29>    C        0.16432        -2.11423        -3.82525
| 30>    N       -0.28059        -2.84957        -4.58668
| 31>    C       -0.16849        -1.97677        -0.77188
| 32>    C       -1.02278        -2.93789        -1.22199
| 33>    C       -1.68885        -3.92127        -0.45738
| 34>    S       -2.97078        -4.90350        -1.21491
| 35>    C       -3.01590        -5.77300         0.30916
| 36>    N       -2.14650        -5.30401         1.17656
| 37>    N       -1.43838        -4.31273         0.75567
| 38>    C       -3.84577        -6.88358         0.58251
| 39>    C       -4.65264        -7.43846        -0.35299
| 40>    N       -5.49110        -8.49471        -0.19853
| 41>    C       -5.71249        -9.06950         1.12125
| 42>    C       -6.39481        -8.10248         2.08545
| 43>    C       -5.75018        -9.26875        -1.33582
| 44>    C       -4.84759        -9.37524        -2.36016
| 45>    S       -5.37203       -10.39852        -3.62448
| 46>    C       -6.82864       -10.71601        -2.79728
| 47>    C       -6.91412       -10.06483        -1.59814
| 48>    N       -8.07599       -10.17846        -0.81232
| 49>    C       -8.77805        -8.93940        -0.50930
| 50>    C       -9.59643        -9.03023         0.77079
| 51>    C       -8.62906       -11.40755        -0.64900
| 52>    C      -10.02115       -11.68007        -0.75652
| 53>    C      -10.96320       -10.82444        -1.48128
| 54>    O      -10.72000        -9.92314        -2.23258
| 55>    S      -12.64291       -11.43130        -1.22104
| 56>    C      -12.06850       -12.89954        -0.40659
| 57>    O      -12.81479       -13.75700        -0.02091
| 58>    C      -10.59280       -12.87402        -0.31199
| 59>    C       -9.82989       -13.95531         0.15980
| 60>    C       -8.44604       -13.75733         0.06735
| 61>    C       -7.86362       -12.54676        -0.29971
| 62>    C       -6.40047       -12.72367        -0.16801
| 63>    O       -5.51232       -11.92864        -0.24617
| 64>    O       -6.16747       -14.03917         0.13575
| 65>    C       -7.34392       -14.72768         0.28827
| 66>    O       -7.37329       -15.89383         0.52621
| 67>    C      -10.46026       -15.13483         0.70953
| 68>    C      -10.02088       -15.79498         1.79169
| 69>    C      -10.72996       -16.89574         2.38039
| 70>    C      -12.06227       -17.02273         2.55692
| 71>    C      -12.63370       -18.36384         2.89536
| 72>    O      -12.02389       -19.33283         3.27114
| 73>    C      -14.07825       -18.24192         2.61440
| 74>    C      -14.38357       -16.90787         2.28387
| 75>    C      -13.17566       -16.09453         2.39540
| 76>    C      -13.16491       -14.73892         2.54771
| 77>    C      -12.02850       -13.94299         2.80001
| 78>    N      -11.17104       -13.20826         3.00692
| 79>    C      -14.33015       -13.93692         2.51915
| 80>    N      -15.23789       -13.23697         2.52213
| 81>    C      -15.67800       -16.56449         1.92942
| 82>    C      -16.65217       -17.55541         1.92997
| 83>    C      -16.34576       -18.87393         2.28239
| 84>    C      -15.04652       -19.22589         2.62329
| 85>   Br      -17.69362       -20.19638         2.28958
| 86>   Br      -18.41605       -17.09386         1.43867
| 87>    H        2.47190         1.14478        -2.02591
| 88>    H        1.20879         0.06333         2.66316
| 89>    H       -1.22312        -2.99586        -2.28387
| 90>    H       -3.73405        -7.28776         1.57495
| 91>    H       -4.65810        -7.01061        -1.34880
| 92>    H       -4.75105        -9.39190         1.53655
| 93>    H       -6.32568        -9.95990         0.99143
| 94>    H       -6.62512        -8.62741         3.00870
| 95>    H       -7.31930        -7.71578         1.66867
| 96>    H       -5.75815        -7.25722         2.32505
| 97>    H       -3.87572        -8.92850        -2.41683
| 98>    H       -7.57294       -11.35244        -3.23378
| 99>    H       -9.42529        -8.64161        -1.34442
|100>    H       -8.00310        -8.17759        -0.40830
|101>    H      -10.52223        -9.58182         0.62335
|102>    H       -9.86202        -8.02849         1.09773
|103>    H       -9.03311        -9.52124         1.56113
|104>    H      -11.39591       -15.42918         0.25368
|105>    H       -9.07835       -15.53800         2.25340
|106>    H      -10.12777       -17.74168         2.69831
|107>    H      -15.94253       -15.56017         1.64011
|108>    H      -14.79768       -20.24210         2.88714
|109> *
|110>
|111>                          ****END OF INPUT****

CARTESIAN COORDINATES (ANGSTROEM)
---------------------------------
  C      0.024180   -1.571190    0.649030
  O     -0.519330   -1.993730    1.637410
  C      0.975410   -0.434280    0.594720
  C      1.315440   -0.153630   -0.739020
  C      2.187120    0.887500   -1.018750
  C      2.706570    1.623460    0.039270
  C      2.364150    1.334070    1.362240
  C      1.485290    0.297330    1.646780
  Br     3.090440    2.348870    2.780430
  Br     3.896870    3.041810   -0.342580
  C      0.627440   -1.099940   -1.613820
  C      0.776000   -1.168570   -2.973810
  C      1.590480   -0.293410   -3.725530
  N      2.230850    0.386000   -4.392530
  C      0.164320   -2.114230   -3.825250
  N     -0.280590   -2.849570   -4.586680
  C     -0.168490   -1.976770   -0.771880
  C     -1.022780   -2.937890   -1.221990
  C     -1.688850   -3.921270   -0.457380
  S     -2.970780   -4.903500   -1.214910
  C     -3.015900   -5.773000    0.309160
  N     -2.146500   -5.304010    1.176560
  N     -1.438380   -4.312730    0.755670
  C     -3.845770   -6.883580    0.582510
  C     -4.652640   -7.438460   -0.352990
  N     -5.491100   -8.494710   -0.198530
  C     -5.712490   -9.069500    1.121250
  C     -6.394810   -8.102480    2.085450
  C     -5.750180   -9.268750   -1.335820
  C     -4.847590   -9.375240   -2.360160
  S     -5.372030  -10.398520   -3.624480
  C     -6.828640  -10.716010   -2.797280
  C     -6.914120  -10.064830   -1.598140
  N     -8.075990  -10.178460   -0.812320
  C     -8.778050   -8.939400   -0.509300
  C     -9.596430   -9.030230    0.770790
  C     -8.629060  -11.407550   -0.649000
  C    -10.021150  -11.680070   -0.756520
  C    -10.963200  -10.824440   -1.481280
  O    -10.720000   -9.923140   -2.232580
  S    -12.642910  -11.431300   -1.221040
  C    -12.068500  -12.899540   -0.406590
  O    -12.814790  -13.757000   -0.020910
  C    -10.592800  -12.874020   -0.311990
  C     -9.829890  -13.955310    0.159800
  C     -8.446040  -13.757330    0.067350
  C     -7.863620  -12.546760   -0.299710
  C     -6.400470  -12.723670   -0.168010
  O     -5.512320  -11.928640   -0.246170
  O     -6.167470  -14.039170    0.135750
  C     -7.343920  -14.727680    0.288270
  O     -7.373290  -15.893830    0.526210
  C    -10.460260  -15.134830    0.709530
  C    -10.020880  -15.794980    1.791690
  C    -10.729960  -16.895740    2.380390
  C    -12.062270  -17.022730    2.556920
  C    -12.633700  -18.363840    2.895360
  O    -12.023890  -19.332830    3.271140
  C    -14.078250  -18.241920    2.614400
  C    -14.383570  -16.907870    2.283870
  C    -13.175660  -16.094530    2.395400
  C    -13.164910  -14.738920    2.547710
  C    -12.028500  -13.942990    2.800010
  N    -11.171040  -13.208260    3.006920
  C    -14.330150  -13.936920    2.519150
  N    -15.237890  -13.236970    2.522130
  C    -15.678000  -16.564490    1.929420
  C    -16.652170  -17.555410    1.929970
  C    -16.345760  -18.873930    2.282390
  C    -15.046520  -19.225890    2.623290
  Br   -17.693620  -20.196380    2.289580
  Br   -18.416050  -17.093860    1.438670
  H      2.471900    1.144780   -2.025910
  H      1.208790    0.063330    2.663160
  H     -1.223120   -2.995860   -2.283870
  H     -3.734050   -7.287760    1.574950
  H     -4.658100   -7.010610   -1.348800
  H     -4.751050   -9.391900    1.536550
  H     -6.325680   -9.959900    0.991430
  H     -6.625120   -8.627410    3.008700
  H     -7.319300   -7.715780    1.668670
  H     -5.758150   -7.257220    2.325050
  H     -3.875720   -8.928500   -2.416830
  H     -7.572940  -11.352440   -3.233780
  H     -9.425290   -8.641610   -1.344420
  H     -8.003100   -8.177590   -0.408300
  H    -10.522230   -9.581820    0.623350
  H     -9.862020   -8.028490    1.097730
  H     -9.033110   -9.521240    1.561130
  H    -11.395910  -15.429180    0.253680
  H     -9.078350  -15.538000    2.253400
  H    -10.127770  -17.741680    2.698310
  H    -15.942530  -15.560170    1.640110
  H    -14.797680  -20.242100    2.887140

 Total Charge           Charge          ....    0
 Multiplicity           Mult            ....    1
 Number of Electrons    NEL             ....  622
 Basis Dimension        Dim             .... 1202

ORBITAL ENERGIES
----------------

  NO   OCC          E(Eh)            E(eV)
   0   2.0000    -482.883423    -13139.9260
   1   2.0000    -482.882451    -13139.8995
   2   2.0000    -482.875326    -13139.7056
   3   2.0000    -482.873642    -13139.6598
   4   2.0000     -88.975076     -2421.1349
   5   2.0000     -88.972663     -2421.0692
   6   2.0000     -88.970431     -2421.0085
   7   2.0000     -62.561008     -1702.3716
   8   2.0000     -62.560037     -1702.3452
   9   2.0000     -62.552926     -1702.1517
  10   2.0000     -62.551223     -1702.1053
  11   2.0000     -56.394962     -1534.5849
  12   2.0000     -56.394002     -1534.5588
  13   2.0000     -56.392304     -1534.5126
  14   2.0000     -56.392208     -1534.5100
  15   2.0000     -56.391334     -1534.4862
  16   2.0000     -56.391229     -1534.4834
  17   2.0000     -56.386872     -1534.3648
  18   2.0000     -56.385186     -1534.3189
  19   2.0000     -56.384232     -1534.2930
  20   2.0000     -56.384128     -1534.2901
  21   2.0000     -56.382517     -1534.2463
  22   2.0000     -56.382426     -1534.2438
  23   2.0000     -19.308966      -525.4237
  24   2.0000     -19.262547      -524.1605
  25   2.0000     -19.260698      -524.1102
  26   2.0000     -19.255638      -523.9725
  27   2.0000     -19.255460      -523.9677
  28   2.0000     -19.232714      -523.3488
  29   2.0000     -19.215067      -522.8685
  30   2.0000     -14.483405      -394.1135
  31   2.0000     -14.474339      -393.8668
  32   2.0000     -14.444458      -393.0537
  33   2.0000     -14.433675      -392.7603
  34   2.0000     -14.432686      -392.7333
  35   2.0000     -14.426899      -392.5759
  36   2.0000     -14.423668      -392.4879
  37   2.0000     -14.419856      -392.3842
  38   2.0000     -10.450782      -284.3802
  39   2.0000     -10.450042      -284.3601
  40   2.0000     -10.425407      -283.6898
  41   2.0000     -10.423192      -283.6295
  42   2.0000     -10.387564      -282.6600
  43   2.0000     -10.383396      -282.5466
  44   2.0000     -10.368374      -282.1378
  45   2.0000     -10.361897      -281.9616
  46   2.0000     -10.361078      -281.9393
  47   2.0000     -10.360632      -281.9271
  48   2.0000     -10.356061      -281.8027
  49   2.0000     -10.352254      -281.6991
  50   2.0000     -10.351483      -281.6782
  51   2.0000     -10.351101      -281.6678
  52   2.0000     -10.350701      -281.6569
  53   2.0000     -10.348615      -281.6001
  54   2.0000     -10.346184      -281.5340
  55   2.0000     -10.345689      -281.5205
  56   2.0000     -10.345262      -281.5089
  57   2.0000     -10.342882      -281.4441
  58   2.0000     -10.341582      -281.4088
  59   2.0000     -10.340963      -281.3919
  60   2.0000     -10.339826      -281.3610
  61   2.0000     -10.337054      -281.2856
  62   2.0000     -10.335855      -281.2529
  63   2.0000     -10.335488      -281.2429
  64   2.0000     -10.328697      -281.0581
  65   2.0000     -10.328407      -281.0502
  66   2.0000     -10.327576      -281.0276
  67   2.0000     -10.327201      -281.0174
  68   2.0000     -10.325943      -280.9832
  69   2.0000     -10.323793      -280.9247
  70   2.0000     -10.322851      -280.8990
  71   2.0000     -10.322190      -280.8811
  72   2.0000     -10.320048      -280.8228
  73   2.0000     -10.319216      -280.8001
  74   2.0000     -10.316565      -280.7280
  75   2.0000     -10.316179      -280.7175
  76   2.0000     -10.312739      -280.6239
  77   2.0000     -10.312012      -280.6041
  78   2.0000     -10.311743      -280.5968
  79   2.0000     -10.311103      -280.5794
  80   2.0000     -10.309943      -280.5478
  81   2.0000     -10.308548      -280.5098
  82   2.0000     -10.308293      -280.5029
  83   2.0000     -10.307542      -280.4825
  84   2.0000     -10.300742      -280.2974
  85   2.0000     -10.285455      -279.8815
  86   2.0000     -10.284246      -279.8486
  87   2.0000     -10.276336      -279.6333
  88   2.0000      -8.790331      -239.1971
  89   2.0000      -8.789344      -239.1702
  90   2.0000      -8.782240      -238.9769
  91   2.0000      -8.780512      -238.9299
  92   2.0000      -8.071329      -219.6320
  93   2.0000      -8.069494      -219.5821
  94   2.0000      -8.068957      -219.5675
  95   2.0000      -6.626442      -180.3146
  96   2.0000      -6.625504      -180.2891
  97   2.0000      -6.618359      -180.0947
  98   2.0000      -6.616675      -180.0489
  99   2.0000      -6.612465      -179.9343
 100   2.0000      -6.611664      -179.9125
 101   2.0000      -6.611460      -179.9070
 102   2.0000      -6.610646      -179.8848
 103   2.0000      -6.604394      -179.7147
 104   2.0000      -6.603557      -179.6919
 105   2.0000      -6.602603      -179.6659
 106   2.0000      -6.601854      -179.6456
 107   2.0000      -6.040582      -164.3726
 108   2.0000      -6.038386      -164.3128
 109   2.0000      -6.037547      -164.2900
 110   2.0000      -6.036280      -164.2555
 111   2.0000      -6.035139      -164.2245
 112   2.0000      -6.034528      -164.2079
 113   2.0000      -6.033574      -164.1819
 114   2.0000      -6.031142      -164.1157
 115   2.0000      -6.030465      -164.0973
 116   2.0000      -2.742401       -74.6245
 117   2.0000      -2.741450       -74.5987
 118   2.0000      -2.738582       -74.5206
 119   2.0000      -2.737962       -74.5037
 120   2.0000      -2.737612       -74.4942
 121   2.0000      -2.736996       -74.4775
 122   2.0000      -2.734244       -74.4026
 123   2.0000      -2.732559       -74.3567
 124   2.0000      -2.730517       -74.3011
 125   2.0000      -2.729917       -74.2848
 126   2.0000      -2.728784       -74.2540
 127   2.0000      -2.728214       -74.2385
 128   2.0000      -2.726831       -74.2008
 129   2.0000      -2.726824       -74.2007
 130   2.0000      -2.725818       -74.1733
 131   2.0000      -2.725807       -74.1730
 132   2.0000      -2.718775       -73.9816
 133   2.0000      -2.718759       -73.9812
 134   2.0000      -2.717022       -73.9339
 135   2.0000      -2.716992       -73.9331
 136   2.0000      -1.260482       -34.2995
 137   2.0000      -1.187064       -32.3017
 138   2.0000      -1.184358       -32.2280
 139   2.0000      -1.182526       -32.1782
 140   2.0000      -1.149209       -31.2716
 141   2.0000      -1.147101       -31.2142
 142   2.0000      -1.146326       -31.1931
 143   2.0000      -1.132134       -30.8069
 144   2.0000      -1.105996       -30.0957
 145   2.0000      -1.084094       -29.4997
 146   2.0000      -1.035762       -28.1845
 147   2.0000      -1.026409       -27.9300
 148   2.0000      -1.025747       -27.9120
 149   2.0000      -1.019698       -27.7474
 150   2.0000      -1.010044       -27.4847
 151   2.0000      -1.007603       -27.4183
 152   2.0000      -0.999901       -27.2087
 153   2.0000      -0.993429       -27.0326
 154   2.0000      -0.987312       -26.8661
 155   2.0000      -0.978418       -26.6241
 156   2.0000      -0.970999       -26.4222
 157   2.0000      -0.946850       -25.7651
 158   2.0000      -0.946324       -25.7508
 159   2.0000      -0.931352       -25.3434
 160   2.0000      -0.929611       -25.2960
 161   2.0000      -0.920689       -25.0532
 162   2.0000      -0.919971       -25.0337
 163   2.0000      -0.915178       -24.9033
 164   2.0000      -0.910656       -24.7802
 165   2.0000      -0.898247       -24.4425
 166   2.0000      -0.888994       -24.1908
 167   2.0000      -0.887419       -24.1479
 168   2.0000      -0.880818       -23.9683
 169   2.0000      -0.878308       -23.9000
 170   2.0000      -0.868921       -23.6445
 171   2.0000      -0.861386       -23.4395
 172   2.0000      -0.852183       -23.1891
 173   2.0000      -0.848498       -23.0888
 174   2.0000      -0.845957       -23.0196
 175   2.0000      -0.824111       -22.4252
 176   2.0000      -0.816966       -22.2308
 177   2.0000      -0.814080       -22.1522
 178   2.0000      -0.797070       -21.6894
 179   2.0000      -0.787142       -21.4192
 180   2.0000      -0.786582       -21.4040
 181   2.0000      -0.780458       -21.2373
 182   2.0000      -0.772399       -21.0180
 183   2.0000      -0.766763       -20.8647
 184   2.0000      -0.761684       -20.7265
 185   2.0000      -0.749286       -20.3891
 186   2.0000      -0.736330       -20.0366
 187   2.0000      -0.729926       -19.8623
 188   2.0000      -0.720780       -19.6134
 189   2.0000      -0.716212       -19.4891
 190   2.0000      -0.711066       -19.3491
 191   2.0000      -0.697156       -18.9706
 192   2.0000      -0.696738       -18.9592
 193   2.0000      -0.693366       -18.8675
 194   2.0000      -0.690034       -18.7768
 195   2.0000      -0.684191       -18.6178
 196   2.0000      -0.674000       -18.3405
 197   2.0000      -0.668400       -18.1881
 198   2.0000      -0.657947       -17.9037
 199   2.0000      -0.656388       -17.8612
 200   2.0000      -0.650650       -17.7051
 201   2.0000      -0.648617       -17.6498
 202   2.0000      -0.640764       -17.4361
 203   2.0000      -0.639233       -17.3944
 204   2.0000      -0.629358       -17.1257
 205   2.0000      -0.622604       -16.9419
 206   2.0000      -0.617150       -16.7935
 207   2.0000      -0.615210       -16.7407
 208   2.0000      -0.613903       -16.7052
 209   2.0000      -0.604884       -16.4597
 210   2.0000      -0.603083       -16.4107
 211   2.0000      -0.599381       -16.3100
 212   2.0000      -0.593984       -16.1631
 213   2.0000      -0.592738       -16.1292
 214   2.0000      -0.587645       -15.9906
 215   2.0000      -0.577384       -15.7114
 216   2.0000      -0.576899       -15.6982
 217   2.0000      -0.575232       -15.6528
 218   2.0000      -0.571372       -15.5478
 219   2.0000      -0.567365       -15.4388
 220   2.0000      -0.563309       -15.3284
 221   2.0000      -0.559863       -15.2347
 222   2.0000      -0.558316       -15.1925
 223   2.0000      -0.555908       -15.1270
 224   2.0000      -0.552380       -15.0310
 225   2.0000      -0.550740       -14.9864
 226   2.0000      -0.550404       -14.9773
 227   2.0000      -0.549095       -14.9416
 228   2.0000      -0.546296       -14.8655
 229   2.0000      -0.543670       -14.7940
 230   2.0000      -0.540443       -14.7062
 231   2.0000      -0.537647       -14.6301
 232   2.0000      -0.537074       -14.6145
 233   2.0000      -0.535698       -14.5771
 234   2.0000      -0.531605       -14.4657
 235   2.0000      -0.528779       -14.3888
 236   2.0000      -0.527107       -14.3433
 237   2.0000      -0.521307       -14.1855
 238   2.0000      -0.519787       -14.1441
 239   2.0000      -0.519066       -14.1245
 240   2.0000      -0.516247       -14.0478
 241   2.0000      -0.509825       -13.8731
 242   2.0000      -0.506162       -13.7734
 243   2.0000      -0.503538       -13.7020
 244   2.0000      -0.502577       -13.6758
 245   2.0000      -0.501276       -13.6404
 246   2.0000      -0.499290       -13.5864
 247   2.0000      -0.498044       -13.5525
 248   2.0000      -0.496401       -13.5078
 249   2.0000      -0.495174       -13.4744
 250   2.0000      -0.493422       -13.4267
 251   2.0000      -0.491001       -13.3608
 252   2.0000      -0.485327       -13.2064
 253   2.0000      -0.479995       -13.0613
 254   2.0000      -0.477550       -12.9948
 255   2.0000      -0.477021       -12.9804
 256   2.0000      -0.472401       -12.8547
 257   2.0000      -0.471696       -12.8355
 258   2.0000      -0.468970       -12.7613
 259   2.0000      -0.467825       -12.7302
 260   2.0000      -0.465951       -12.6792
 261   2.0000      -0.461866       -12.5680
 262   2.0000      -0.461455       -12.5568
 263   2.0000      -0.460176       -12.5220
 264   2.0000      -0.457585       -12.4515
 265   2.0000      -0.454791       -12.3755
 266   2.0000      -0.451713       -12.2917
 267   2.0000      -0.450943       -12.2708
 268   2.0000      -0.448120       -12.1940
 269   2.0000      -0.442878       -12.0513
 270   2.0000      -0.442581       -12.0433
 271   2.0000      -0.436902       -11.8887
 272   2.0000      -0.436479       -11.8772
 273   2.0000      -0.433510       -11.7964
 274   2.0000      -0.431357       -11.7378
 275   2.0000      -0.430158       -11.7052
 276   2.0000      -0.428699       -11.6655
 277   2.0000      -0.427743       -11.6395
 278   2.0000      -0.418416       -11.3857
 279   2.0000      -0.414765       -11.2863
 280   2.0000      -0.413255       -11.2452
 281   2.0000      -0.410239       -11.1632
 282   2.0000      -0.407497       -11.0886
 283   2.0000      -0.405240       -11.0272
 284   2.0000      -0.397882       -10.8269
 285   2.0000      -0.396638       -10.7931
 286   2.0000      -0.393927       -10.7193
 287   2.0000      -0.392821       -10.6892
 288   2.0000      -0.390365       -10.6224
 289   2.0000      -0.388044       -10.5592
 290   2.0000      -0.387967       -10.5571
 291   2.0000      -0.384642       -10.4666
 292   2.0000      -0.375745       -10.2245
 293   2.0000      -0.373118       -10.1531
 294   2.0000      -0.366121        -9.9627
 295   2.0000      -0.362538        -9.8652
 296   2.0000      -0.355840        -9.6829
 297   2.0000      -0.354694        -9.6517
 298   2.0000      -0.350045        -9.5252
 299   2.0000      -0.346506        -9.4289
 300   2.0000      -0.345877        -9.4118
 301   2.0000      -0.342800        -9.3281
 302   2.0000      -0.338777        -9.2186
 303   2.0000      -0.334182        -9.0935
 304   2.0000      -0.326261        -8.8780
 305   2.0000      -0.318081        -8.6554
 306   2.0000      -0.317538        -8.6407
 307   2.0000      -0.313244        -8.5238
 308   2.0000      -0.307107        -8.3568
 309   2.0000      -0.293072        -7.9749
 310   2.0000      -0.266815        -7.2604
 311   0.0000      -0.113799        -3.0966
 312   0.0000      -0.100867        -2.7447
 313   0.0000      -0.100241        -2.7277
 314   0.0000      -0.077464        -2.1079
 315   0.0000      -0.066160        -1.8003

MULLIKEN ATOMIC CHARGES
-----------------------
   0 C :    0.140520
   1 O :   -0.087063
   2 C :   -0.024684
   3 C :    0.037008
   4 C :   -0.008576
   5 C :   -0.024518
   6 C :   -0.014089
   7 C :   -0.018936
   8 Br:    0.015124
   9 Br:    0.019667
  10 C :    0.306910
  11 C :   -0.344987
  12 C :   -0.185421
  13 N :    0.159761
  14 C :   -0.186906
  15 N :    0.155914
  16 C :   -0.073701
  17 C :    0.058270
  18 C :   -0.142599
  19 S :    0.066243
  20 C :   -0.054441
  21 N :   -0.065747
  22 N :    0.018739
  23 C :   -0.009420
  24 C :    0.085312
  25 N :   -0.211190
  26 C :    0.105840
  27 C :    0.007635
  28 C :    0.193539
  29 C :   -0.184909
  30 S :    0.160062
  31 C :   -0.136701
  32 C :    0.086873
  33 N :   -0.201421
  34 C :    0.093778
  35 C :    0.000551
  36 C :    0.090457
  37 C :   -0.044109
  38 C :    0.003113
  39 O :   -0.136822
  40 S :    0.058608
  41 C :    0.051813
  42 O :   -0.153454
  43 C :    0.076533
  44 C :    0.023624
  45 C :   -0.098646
  46 C :   -0.056978
  47 C :    0.229991
  48 O :   -0.105992
  49 O :   -0.216242
  50 C :    0.221572
  51 O :   -0.092762
  52 C :   -0.023423
  53 C :    0.045440
  54 C :    0.013058
  55 C :   -0.110479
  56 C :    0.136070
  57 O :   -0.123549
  58 C :   -0.001980
  59 C :    0.017567
  60 C :    0.275482
  61 C :   -0.303025
  62 C :   -0.195769
  63 N :    0.161373
  64 C :   -0.193554
  65 N :    0.173652
  66 C :   -0.005770
  67 C :   -0.023918
  68 C :   -0.017248
  69 C :   -0.019135
  70 Br:    0.019745
  71 Br:    0.026328
  72 H :    0.006108
  73 H :    0.007845
  74 H :    0.015954
  75 H :    0.013474
  76 H :    0.029212
  77 H :    0.030697
  78 H :    0.021560
  79 H :    0.028726
  80 H :    0.009956
  81 H :    0.030699
  82 H :    0.028138
  83 H :    0.019425
  84 H :    0.055042
  85 H :    0.026654
  86 H :    0.029513
  87 H :    0.041044
  88 H :    0.030783
  89 H :    0.042107
  90 H :    0.026163
  91 H :    0.041935
  92 H :    0.016566
  93 H :    0.010389
Sum of atomic charges:   -0.0000000

LOEWDIN ATOMIC CHARGES
----------------------
   0 C :    0.074102
   1 O :   -0.096507
   2 C :   -0.038412
   3 C :   -0.015600
   4 C :   -0.007037
   5 C :   -0.120283
   6 C :   -0.121006
   7 C :    0.006263
   8 Br:    0.138562
   9 Br:    0.139508
  10 C :    0.074020
  11 C :   -0.132141
  12 C :   -0.019403
  13 N :   -0.043535
  14 C :   -0.021328
  15 N :   -0.046459
  16 C :   -0.073761
  17 C :    0.037113
  18 C :   -0.171237
  19 S :    0.365692
  20 C :   -0.115540
  21 N :   -0.091345
  22 N :   -0.014295
  23 C :   -0.128332
  24 C :    0.060608
  25 N :    0.004052
  26 C :    0.043760
  27 C :   -0.060606
  28 C :   -0.020130
  29 C :   -0.207190
  30 S :    0.475492
  31 C :   -0.201450
  32 C :   -0.033604
  33 N :    0.003734
  34 C :    0.034762
  35 C :   -0.060393
  36 C :    0.069586
  37 C :   -0.093888
  38 C :   -0.045884
  39 O :   -0.114647
  40 S :    0.329189
  41 C :   -0.039550
  42 O :   -0.120902
  43 C :   -0.034649
  44 C :    0.011358
  45 C :   -0.035326
  46 C :   -0.067253
  47 C :    0.107082
  48 O :   -0.094238
  49 O :   -0.048091
  50 C :    0.105201
  51 O :   -0.092043
  52 C :   -0.000761
  53 C :    0.006845
  54 C :    0.067898
  55 C :   -0.074732
  56 C :    0.084730
  57 O :   -0.124546
  58 C :   -0.046383
  59 C :   -0.007761
  60 C :    0.063923
  61 C :   -0.114706
  62 C :   -0.010859
  63 N :   -0.057148
  64 C :   -0.020165
  65 N :   -0.039150
  66 C :   -0.006106
  67 C :   -0.116873
  68 C :   -0.122908
  69 C :    0.008665
  70 Br:    0.142088
  71 Br:    0.146369
  72 H :    0.043975
  73 H :    0.046812
  74 H :    0.045245
  75 H :    0.041184
  76 H :    0.026001
  77 H :    0.028163
  78 H :    0.023058
  79 H :    0.034804
  80 H :    0.024632
  81 H :    0.029409
  82 H :    0.027575
  83 H :    0.025518
  84 H :    0.025645
  85 H :    0.026661
  86 H :    0.026179
  87 H :    0.040018
  88 H :    0.030111
  89 H :    0.036559
  90 H :    0.038908
  91 H :    0.052927
  92 H :    0.046574
  93 H :    0.047606

  Mayer bond orders larger than 0.100000
B(  0-C ,  1-O ) :   2.3042 B(  0-C ,  2-C ) :   0.9288 B(  0-C , 16-C ) :   0.9152
B(  2-C ,  3-C ) :   1.3317 B(  2-C ,  7-C ) :   1.3744 B(  3-C ,  4-C ) :   1.3579
B(  3-C , 10-C ) :   0.9943 B(  4-C ,  5-C ) :   1.3780 B(  4-C , 72-H ) :   0.9793
B(  5-C ,  6-C ) :   1.4165 B(  5-C ,  9-Br) :   1.0559 B(  6-C ,  7-C ) :   1.3542
B(  6-C ,  8-Br) :   1.0345 B(  7-C , 73-H ) :   1.0082 B( 10-C , 11-C ) :   1.6398
B( 10-C , 16-C ) :   1.0780 B( 11-C , 12-C ) :   1.1398 B( 11-C , 14-C ) :   1.1411
B( 12-C , 13-N ) :   2.9713 B( 14-C , 15-N ) :   2.9708 B( 16-C , 17-C ) :   1.6467
B( 17-C , 18-C ) :   1.1625 B( 17-C , 74-H ) :   0.9142 B( 18-C , 19-S ) :   1.0385
B( 18-C , 22-N ) :   1.6491 B( 19-S , 20-C ) :   1.1184 B( 19-S , 22-N ) :   0.1126
B( 20-C , 21-N ) :   1.5849 B( 20-C , 23-C ) :   1.1684 B( 21-N , 22-N ) :   1.2724
B( 23-C , 24-C ) :   1.5687 B( 23-C , 75-H ) :   0.9646 B( 24-C , 25-N ) :   1.1906
B( 24-C , 76-H ) :   0.9596 B( 25-N , 26-C ) :   0.9472 B( 25-N , 28-C ) :   1.0440
B( 26-C , 27-C ) :   1.1059 B( 26-C , 77-H ) :   0.9387 B( 26-C , 78-H ) :   0.9437
B( 27-C , 79-H ) :   0.9616 B( 27-C , 80-H ) :   0.9605 B( 27-C , 81-H ) :   0.9606
B( 28-C , 29-C ) :   1.5259 B( 28-C , 32-C ) :   1.2733 B( 29-C , 30-S ) :   1.1681
B( 29-C , 82-H ) :   0.9635 B( 30-S , 31-C ) :   1.1836 B( 31-C , 32-C ) :   1.5539
B( 31-C , 83-H ) :   0.9596 B( 32-C , 33-N ) :   0.9934 B( 33-N , 34-C ) :   0.9353
B( 33-N , 36-C ) :   1.2323 B( 34-C , 35-C ) :   1.1190 B( 34-C , 84-H ) :   0.9131
B( 34-C , 85-H ) :   0.9394 B( 35-C , 86-H ) :   0.9509 B( 35-C , 87-H ) :   0.9573
B( 35-C , 88-H ) :   0.9583 B( 36-C , 37-C ) :   1.2948 B( 36-C , 46-C ) :   1.3055
B( 37-C , 38-C ) :   0.8612 B( 37-C , 43-C ) :   1.3149 B( 38-C , 39-O ) :   2.1449
B( 38-C , 40-S ) :   1.0076 B( 40-S , 41-C ) :   1.0631 B( 40-S , 42-O ) :   0.1085
B( 41-C , 42-O ) :   2.0812 B( 41-C , 43-C ) :   0.8528 B( 43-C , 44-C ) :   1.3902
B( 44-C , 45-C ) :   1.3137 B( 44-C , 52-C ) :   1.0901 B( 45-C , 46-C ) :   1.3787
B( 45-C , 50-C ) :   0.8966 B( 46-C , 47-C ) :   0.9043 B( 47-C , 48-O ) :   2.2019
B( 47-C , 49-O ) :   1.0675 B( 49-O , 50-C ) :   1.0533 B( 50-C , 51-O ) :   2.2685
B( 52-C , 53-C ) :   1.7764 B( 52-C , 89-H ) :   0.9379 B( 53-C , 54-C ) :   1.0811
B( 53-C , 90-H ) :   0.9397 B( 54-C , 55-C ) :   1.7708 B( 54-C , 91-H ) :   0.9293
B( 55-C , 56-C ) :   0.9266 B( 55-C , 60-C ) :   1.0039 B( 56-C , 57-O ) :   2.2882
B( 56-C , 58-C ) :   0.9210 B( 58-C , 59-C ) :   1.3232 B( 58-C , 69-C ) :   1.3668
B( 59-C , 60-C ) :   1.0075 B( 59-C , 66-C ) :   1.3662 B( 60-C , 61-C ) :   1.7016
B( 61-C , 62-C ) :   1.1678 B( 61-C , 64-C ) :   1.1172 B( 62-C , 63-N ) :   2.9697
B( 64-C , 65-N ) :   3.0054 B( 66-C , 67-C ) :   1.3761 B( 66-C , 92-H ) :   0.9822
B( 67-C , 68-C ) :   1.4103 B( 67-C , 71-Br) :   1.0561 B( 68-C , 69-C ) :   1.3628
B( 68-C , 70-Br) :   1.0388 B( 69-C , 93-H ) :   1.0079

-----------------------------------------------------------------------------
         ABSORPTION SPECTRUM VIA TRANSITION ELECTRIC DIPOLE MOMENTS
-----------------------------------------------------------------------------
State   Energy  Wavelength   fosc         T2         TX        TY        TZ
        (cm-1)    (nm)                  (au**2)     (au)      (au)      (au)
-----------------------------------------------------------------------------
   0   18844.1    530.7   0.062431005   1.09069   1.01460  -0.00108   0.24754
   1   19868.5    503.3   0.172566964   2.85936  -1.35795  -0.99841   0.13605
   2   20107.5    497.3   0.743459310  12.17237  -1.98608  -2.75633   0.79403
   3   21617.0    462.6   0.208126667   3.16963  -0.99200  -1.47487   0.10159
   4   24349.2    410.7   0.217285932   2.93780  -1.34353  -0.67181   0.82547
   5   25878.9    386.4   0.004180390   0.05318   0.04812   0.11248   0.19548
   6   26408.5    378.7   0.046396274   0.57838  -0.62996  -0.34284   0.25297
   7   26781.3    373.4   0.007812894   0.09604  -0.04239  -0.19024  -0.24094
   8   27763.5    360.2   0.099350397   1.17807   0.60307   0.88326   0.18500
   9   27903.1    358.4   0.047585967   0.56144  -0.51286  -0.53816   0.09377
  10   28768.8    347.6   0.157979636   1.80782  -0.29880  -0.57204  -1.17954
  11   28893.6    346.1   0.018920829   0.21558  -0.03591  -0.22707  -0.40340
  12   29636.8    337.4   0.251146619   2.78979  -0.84826  -1.29975  -0.61716
  13   29905.2    334.4   0.116657810   1.28423  -0.51296  -0.66725   0.75887
  14   30398.2    329.0   0.021021698   0.22766  -0.00809  -0.44696   0.16681
  15   30644.2    326.3   0.237511361   2.55160  -0.81680  -1.33566   0.31695
  16   30876.9    323.9   0.020068647   0.21397   0.09048  -0.44099   0.10638
  17   31313.4    319.4   0.032512000   0.34181  -0.46415   0.34646  -0.07963
  18   31368.1    318.8   0.008554642   0.08978  -0.05610   0.12078  -0.26841
  19   31563.3    316.8   0.041230618   0.43004   0.43033   0.43462  -0.23656
  20   31878.5    313.7   0.104316404   1.07728   0.65617   0.60563  -0.52909
  21   32092.3    311.6   0.112315678   1.15217  -0.71555  -0.53594   0.59406
  22   32711.1    305.7   0.058295316   0.58670   0.37059   0.63550  -0.21330
  23   33145.2    301.7   0.047283493   0.46964  -0.22930  -0.64429   0.04414
  24   33644.2    297.2   0.004887326   0.04782   0.18549   0.03853   0.10923
  25   33724.5    296.5   0.311407138   3.03989   1.01230   1.31262   0.54053
  26   33837.3    295.5   0.029208917   0.28418  -0.05797  -0.51117   0.13973
  27   33991.3    294.2   0.029096415   0.28180  -0.21026  -0.46864   0.13407
  28   34240.1    292.1   0.089946453   0.86482   0.68266   0.63089   0.02791
  29   34383.3    290.8   0.207918559   1.99077  -0.89763  -1.08827   0.02642
  30   35025.0    285.5   0.060258236   0.56639   0.45004  -0.58854  -0.13218
  31   35412.6    282.4   0.226236455   2.10320  -0.58138  -1.31842  -0.16418
  32   35479.1    281.9   0.468962718   4.35152   0.01714  -0.28913  -2.06583
  33   35978.1    277.9   0.040857452   0.37386   0.32913   0.49919  -0.12784
  34   36234.5    276.0   0.055833832   0.50728   0.02025  -0.71039   0.04709
  35   36275.2    275.7   0.111324652   1.01032  -0.46369  -0.53153  -0.71609
  36   36505.4    273.9   0.020741431   0.18705   0.01885   0.42186  -0.09341
  37   36813.4    271.6   0.001866267   0.01669   0.12536   0.03117  -0.00186
  38   37122.5    269.4   0.003780836   0.03353  -0.09228  -0.13192  -0.08725
  39   37146.6    269.2   0.038003828   0.33681  -0.39504  -0.41196  -0.10509
  40   37333.8    267.9   0.023524121   0.20744  -0.30837  -0.33169  -0.04825
  41   37700.6    265.2   0.003556195   0.03105  -0.01997  -0.17495  -0.00682
  42   38012.9    263.1   0.012417277   0.10754  -0.10614   0.27478  -0.14412
  43   38095.4    262.5   0.241878603   2.09026   0.85369   1.15426   0.17075
  44   38453.0    260.1   0.000395880   0.00339  -0.00216   0.05562   0.01704
  45   38658.3    258.7   0.001282589   0.01092  -0.08556  -0.03156  -0.05104
  46   38906.0    257.0   0.028772955   0.24347  -0.35625  -0.34053   0.02444
  47   38989.1    256.5   0.062123954   0.52456  -0.57617  -0.43727  -0.03708
  48   39126.7    255.6   0.051450161   0.43290  -0.43411  -0.48337  -0.10397
  49   39181.8    255.2   0.035792627   0.30074  -0.51839  -0.12742  -0.12557
  50   39397.5    253.8   0.000939752   0.00785  -0.07832  -0.02457   0.03339
  51   39816.3    251.2   0.007288555   0.06026  -0.22429  -0.01044  -0.09924
  52   40070.8    249.6   0.050418160   0.41422   0.39941   0.41094  -0.29296

FINAL SINGLE POINT ENERGY    -14369.505280733798

DIPOLE MOMENT
-------------
                                X             Y             Z
Electronic contribution:    -10.97999      48.76987      37.81157
Nuclear contribution   :      8.67932     -50.69456     -37.65116
                        -----------------------------------------
Total Dipole Moment    :     -2.30067      -1.92470       0.16041
                        -----------------------------------------
Magnitude (a.u.)       :      3.00388
Magnitude (Debye)      :      7.63526

Rotational constants in cm-1:     0.002327     0.000124     0.000123
Rotational constants in MHz :    69.774897     3.725461     3.696381

                             ****ORCA TERMINATED NORMALLY****
TOTAL RUN TIME: 0 days 0 hours 13 minutes 36 seconds 955 msec
