                         Program Version 4.2.0 -  RELEASE  -
|  1> # ORCA input file
|  2> # SCF done       -214.757580206498          0.000606742836
|  3> ! CAM-B3LYP def2-SVP def2/J RIJCOSX Grid4 TightSCF
|  4> %maxcore 5000
|  5> %tddft
|  6>     Mode sTDDFT
|  7>     Ethresh 5.0
|  8>     maxcore 5000
|  9> end
| 10>
| 11> %pal
| 12>   nprocs 6
| 13>   end
| 14> * xyz 0 1
| 15>    C        2.03215         1.31430        -0.80433
| 16>    C        3.26750         1.90042        -0.74103
| 17>    C        4.48348         1.18463        -0.78623
| 18>    N        5.50640         0.66479        -0.80872
| 19>    C        3.51500         3.28470        -0.62027
| 20>    N        3.79895         4.39199        -0.51252
| 21>    C        1.77157        -0.10990        -0.96345
| 22>    C        0.36457        -0.31182        -1.05247
| 23>    C       -0.18044        -1.55351        -1.21084
| 24>    C        0.67475        -2.67428        -1.29175
| 25>    C        2.08403        -2.48284        -1.20093
| 26>    C        2.61837        -1.18484        -1.03510
| 27>    C        2.92825        -3.60920        -1.28007
| 28>    C        2.40766        -4.86432        -1.44191
| 29>    C        1.02012        -5.05137        -1.53177
| 30>    C        0.17213        -3.97961        -1.45893
| 31>    C       -0.32284         0.97924        -0.95310
| 32>    O       -1.52227         1.17339        -0.92230
| 33>    C        0.74767         1.99932        -0.79652
| 34>    C        0.54279         3.32217        -0.55328
| 35>    C       -0.66875         4.05885        -0.67673
| 36>    S       -0.90366         5.38001         0.43456
| 37>    C       -2.41794         5.80265        -0.29093
| 38>    C       -2.70491         4.95981        -1.36112
| 39>    C       -1.71268         3.99439        -1.59020
| 40>    C       -1.77555         3.14519        -2.81997
| 41>    N       -0.41805         2.88120        -3.34652
| 42>    O       -0.14181         1.73920        -3.62596
| 43>    O        0.31562         3.82869        -3.48585
| 44>    C       -2.55865         3.89751        -3.90133
| 45>    C       -3.97288         4.16552        -3.40445
| 46>    C       -3.97831         5.02763        -2.13743
| 47>    N       -5.14099         4.60543        -1.26050
| 48>    O       -6.09545         4.14640        -1.82905
| 49>    O       -5.03959         4.77086        -0.07446
| 50>    C       -3.22912         6.87452         0.14015
| 51>    C       -3.07189         7.62506         1.25933
| 52>    C       -4.02810         8.62484         1.56688
| 53>    N       -3.99612         9.42395         2.67873
| 54>    C       -2.95012         9.47333         3.67105
| 55>    C       -1.72314        10.22688         3.16400
| 56>    C       -5.12120        10.27759         2.75337
| 57>    O       -5.30269        11.06507         3.65252
| 58>    C       -5.88834         9.94726         1.56858
| 59>    C       -5.19117         8.94392         0.85719
| 60>    C       -5.97887         8.61396        -0.30431
| 61>    O       -5.78023         7.83544        -1.22704
| 62>    N       -7.12332         9.41519        -0.20757
| 63>    C       -8.09390         9.39276        -1.27630
| 64>    C       -8.04870        10.66453        -2.11860
| 65>    C       -7.08676        10.22247         0.91464
| 66>    C       -8.04947        11.13960         1.40829
| 67>    C       -9.32400        11.35032         0.99529
| 68>    C      -10.17300        12.29640         1.62768
| 69>    S      -11.86304        12.47449         1.16123
| 70>    C      -11.93349        13.72734         2.40212
| 71>    N      -10.78630        13.89085         3.00135
| 72>    N       -9.83488        13.11773         2.58551
| 73>    C      -13.12907        14.43874         2.67791
| 74>    C      -13.20945        15.43977         3.59010
| 75>    C      -14.43728        16.10643         3.82834
| 76>    C      -14.61708        17.14237         4.69582
| 77>    C      -15.86272        17.83998         4.96942
| 78>    C      -17.10317        17.53760         4.46986
| 79>    C      -18.27945        18.25108         4.78496
| 80>    N      -19.27443        18.78367         4.99553
| 81>    C      -17.40406        16.48071         3.58526
| 82>    N      -17.73872        15.64583         2.87088
| 83>    C      -15.56985        18.92482         5.89896
| 84>    C      -14.18372        18.88817         6.22369
| 85>    C      -13.53749        17.77622         5.50569
| 86>    O      -12.37027        17.45853         5.56209
| 87>    C      -13.61721        19.79071         7.07698
| 88>    C      -14.42627        20.79345         7.65613
| 89>    C      -15.81415        20.83855         7.33608
| 90>    C      -16.37249        19.88973         6.44978
| 91>    C      -16.61287        21.84438         7.91789
| 92>    C      -16.06851        22.76231         8.77410
| 93>    C      -14.70175        22.71720         9.08805
| 94>    C      -13.89821        21.75365         8.54136
| 95>    H       -1.25095        -1.67821        -1.27737
| 96>    H        3.68891        -1.07489        -0.96730
| 97>    H        3.99582        -3.46028        -1.21156
| 98>    H        3.06257        -5.72056        -1.50191
| 99>    H        0.62668        -6.04880        -1.65897
|100>    H       -0.89700        -4.11752        -1.52768
|101>    H        1.37332         3.90529        -0.17493
|102>    H       -2.23296         2.17045        -2.60719
|103>    H       -2.60093         3.29762        -4.81180
|104>    H       -2.04347         4.83489        -4.12496
|105>    H       -4.45906         3.21086        -3.19053
|106>    H       -4.55199         4.65407        -4.18729
|107>    H       -4.21710         6.07184        -2.37673
|108>    H       -4.07604         7.09896        -0.49171
|109>    H       -2.25191         7.44373         1.93898
|110>    H       -2.68464         8.45634         3.97316
|111>    H       -3.37520         9.99809         4.53113
|112>    H       -1.30475         9.74473         2.28319
|113>    H       -0.96380        10.25668         3.94022
|114>    H       -1.99480        11.24719         2.90498
|115>    H       -9.09291         9.21379        -0.87153
|116>    H       -7.82226         8.53332        -1.89722
|117>    H       -8.25154        11.54578        -1.51472
|118>    H       -8.78811        10.60520        -2.91255
|119>    H       -7.06499        10.77565        -2.56842
|120>    H       -7.70343        11.71181         2.26018
|121>    H       -9.77445        10.80067         0.18517
|122>    H      -14.00467        14.14349         2.11354
|123>    H      -12.32950        15.73464         4.14209
|124>    H      -15.28817        15.74927         3.26125
|125>    H      -12.56305        19.73953         7.30573
|126>    H      -17.42563        19.95392         6.22728
|127>    H      -17.66452        21.87475         7.67319
|128>    H      -16.68832        23.52888         9.21451
|129>    H      -14.28898        23.44989         9.76529
|130>    H      -12.84534        21.71383         8.77933
|131> *
|132>
|133>                          ****END OF INPUT****

CARTESIAN COORDINATES (ANGSTROEM)
---------------------------------
  C      2.032150    1.314300   -0.804330
  C      3.267500    1.900420   -0.741030
  C      4.483480    1.184630   -0.786230
  N      5.506400    0.664790   -0.808720
  C      3.515000    3.284700   -0.620270
  N      3.798950    4.391990   -0.512520
  C      1.771570   -0.109900   -0.963450
  C      0.364570   -0.311820   -1.052470
  C     -0.180440   -1.553510   -1.210840
  C      0.674750   -2.674280   -1.291750
  C      2.084030   -2.482840   -1.200930
  C      2.618370   -1.184840   -1.035100
  C      2.928250   -3.609200   -1.280070
  C      2.407660   -4.864320   -1.441910
  C      1.020120   -5.051370   -1.531770
  C      0.172130   -3.979610   -1.458930
  C     -0.322840    0.979240   -0.953100
  O     -1.522270    1.173390   -0.922300
  C      0.747670    1.999320   -0.796520
  C      0.542790    3.322170   -0.553280
  C     -0.668750    4.058850   -0.676730
  S     -0.903660    5.380010    0.434560
  C     -2.417940    5.802650   -0.290930
  C     -2.704910    4.959810   -1.361120
  C     -1.712680    3.994390   -1.590200
  C     -1.775550    3.145190   -2.819970
  N     -0.418050    2.881200   -3.346520
  O     -0.141810    1.739200   -3.625960
  O      0.315620    3.828690   -3.485850
  C     -2.558650    3.897510   -3.901330
  C     -3.972880    4.165520   -3.404450
  C     -3.978310    5.027630   -2.137430
  N     -5.140990    4.605430   -1.260500
  O     -6.095450    4.146400   -1.829050
  O     -5.039590    4.770860   -0.074460
  C     -3.229120    6.874520    0.140150
  C     -3.071890    7.625060    1.259330
  C     -4.028100    8.624840    1.566880
  N     -3.996120    9.423950    2.678730
  C     -2.950120    9.473330    3.671050
  C     -1.723140   10.226880    3.164000
  C     -5.121200   10.277590    2.753370
  O     -5.302690   11.065070    3.652520
  C     -5.888340    9.947260    1.568580
  C     -5.191170    8.943920    0.857190
  C     -5.978870    8.613960   -0.304310
  O     -5.780230    7.835440   -1.227040
  N     -7.123320    9.415190   -0.207570
  C     -8.093900    9.392760   -1.276300
  C     -8.048700   10.664530   -2.118600
  C     -7.086760   10.222470    0.914640
  C     -8.049470   11.139600    1.408290
  C     -9.324000   11.350320    0.995290
  C    -10.173000   12.296400    1.627680
  S    -11.863040   12.474490    1.161230
  C    -11.933490   13.727340    2.402120
  N    -10.786300   13.890850    3.001350
  N     -9.834880   13.117730    2.585510
  C    -13.129070   14.438740    2.677910
  C    -13.209450   15.439770    3.590100
  C    -14.437280   16.106430    3.828340
  C    -14.617080   17.142370    4.695820
  C    -15.862720   17.839980    4.969420
  C    -17.103170   17.537600    4.469860
  C    -18.279450   18.251080    4.784960
  N    -19.274430   18.783670    4.995530
  C    -17.404060   16.480710    3.585260
  N    -17.738720   15.645830    2.870880
  C    -15.569850   18.924820    5.898960
  C    -14.183720   18.888170    6.223690
  C    -13.537490   17.776220    5.505690
  O    -12.370270   17.458530    5.562090
  C    -13.617210   19.790710    7.076980
  C    -14.426270   20.793450    7.656130
  C    -15.814150   20.838550    7.336080
  C    -16.372490   19.889730    6.449780
  C    -16.612870   21.844380    7.917890
  C    -16.068510   22.762310    8.774100
  C    -14.701750   22.717200    9.088050
  C    -13.898210   21.753650    8.541360
  H     -1.250950   -1.678210   -1.277370
  H      3.688910   -1.074890   -0.967300
  H      3.995820   -3.460280   -1.211560
  H      3.062570   -5.720560   -1.501910
  H      0.626680   -6.048800   -1.658970
  H     -0.897000   -4.117520   -1.527680
  H      1.373320    3.905290   -0.174930
  H     -2.232960    2.170450   -2.607190
  H     -2.600930    3.297620   -4.811800
  H     -2.043470    4.834890   -4.124960
  H     -4.459060    3.210860   -3.190530
  H     -4.551990    4.654070   -4.187290
  H     -4.217100    6.071840   -2.376730
  H     -4.076040    7.098960   -0.491710
  H     -2.251910    7.443730    1.938980
  H     -2.684640    8.456340    3.973160
  H     -3.375200    9.998090    4.531130
  H     -1.304750    9.744730    2.283190
  H     -0.963800   10.256680    3.940220
  H     -1.994800   11.247190    2.904980
  H     -9.092910    9.213790   -0.871530
  H     -7.822260    8.533320   -1.897220
  H     -8.251540   11.545780   -1.514720
  H     -8.788110   10.605200   -2.912550
  H     -7.064990   10.775650   -2.568420
  H     -7.703430   11.711810    2.260180
  H     -9.774450   10.800670    0.185170
  H    -14.004670   14.143490    2.113540
  H    -12.329500   15.734640    4.142090
  H    -15.288170   15.749270    3.261250
  H    -12.563050   19.739530    7.305730
  H    -17.425630   19.953920    6.227280
  H    -17.664520   21.874750    7.673190
  H    -16.688320   23.528880    9.214510
  H    -14.288980   23.449890    9.765290
  H    -12.845340   21.713830    8.779330

 Total Charge           Charge          ....    0
 Multiplicity           Mult            ....    1
 Number of Electrons    NEL             ....  562
 Basis Dimension        Dim             .... 1308

ORBITAL ENERGIES
----------------

  NO   OCC          E(Eh)            E(eV)
   0   2.0000     -88.983568     -2421.3660
   1   2.0000     -88.978553     -2421.2295
   2   2.0000     -19.259532      -524.0785
   3   2.0000     -19.258301      -524.0450
   4   2.0000     -19.251109      -523.8493
   5   2.0000     -19.250695      -523.8380
   6   2.0000     -19.223047      -523.0857
   7   2.0000     -19.214701      -522.8586
   8   2.0000     -19.201255      -522.4927
   9   2.0000     -19.198921      -522.4292
  10   2.0000     -14.655254      -398.7897
  11   2.0000     -14.648482      -398.6055
  12   2.0000     -14.462655      -393.5488
  13   2.0000     -14.460958      -393.5027
  14   2.0000     -14.445291      -393.0763
  15   2.0000     -14.441690      -392.9784
  16   2.0000     -14.419831      -392.3836
  17   2.0000     -14.418305      -392.3420
  18   2.0000     -14.417398      -392.3173
  19   2.0000     -14.414519      -392.2390
  20   2.0000     -10.383980      -282.5625
  21   2.0000     -10.381334      -282.4905
  22   2.0000     -10.374482      -282.3040
  23   2.0000     -10.365485      -282.0592
  24   2.0000     -10.354905      -281.7713
  25   2.0000     -10.349187      -281.6157
  26   2.0000     -10.347652      -281.5739
  27   2.0000     -10.346388      -281.5395
  28   2.0000     -10.345491      -281.5151
  29   2.0000     -10.344558      -281.4897
  30   2.0000     -10.342562      -281.4354
  31   2.0000     -10.342431      -281.4319
  32   2.0000     -10.340523      -281.3799
  33   2.0000     -10.340268      -281.3730
  34   2.0000     -10.333391      -281.1859
  35   2.0000     -10.331199      -281.1262
  36   2.0000     -10.329927      -281.0916
  37   2.0000     -10.322053      -280.8773
  38   2.0000     -10.320660      -280.8394
  39   2.0000     -10.320194      -280.8268
  40   2.0000     -10.318652      -280.7848
  41   2.0000     -10.317430      -280.7515
  42   2.0000     -10.314961      -280.6844
  43   2.0000     -10.314481      -280.6713
  44   2.0000     -10.312885      -280.6279
  45   2.0000     -10.311553      -280.5916
  46   2.0000     -10.311209      -280.5822
  47   2.0000     -10.310284      -280.5571
  48   2.0000     -10.308137      -280.4987
  49   2.0000     -10.305279      -280.4209
  50   2.0000     -10.303527      -280.3732
  51   2.0000     -10.303391      -280.3695
  52   2.0000     -10.302052      -280.3331
  53   2.0000     -10.301970      -280.3308
  54   2.0000     -10.301870      -280.3281
  55   2.0000     -10.300091      -280.2797
  56   2.0000     -10.299922      -280.2751
  57   2.0000     -10.299688      -280.2688
  58   2.0000     -10.299261      -280.2571
  59   2.0000     -10.298921      -280.2479
  60   2.0000     -10.298047      -280.2241
  61   2.0000     -10.296845      -280.1914
  62   2.0000     -10.296595      -280.1846
  63   2.0000     -10.295858      -280.1645
  64   2.0000     -10.295074      -280.1432
  65   2.0000     -10.291269      -280.0397
  66   2.0000     -10.290843      -280.0281
  67   2.0000     -10.288586      -279.9667
  68   2.0000     -10.288070      -279.9526
  69   2.0000     -10.287825      -279.9460
  70   2.0000     -10.287307      -279.9318
  71   2.0000     -10.286995      -279.9234
  72   2.0000     -10.285822      -279.8914
  73   2.0000     -10.285190      -279.8743
  74   2.0000     -10.285026      -279.8698
  75   2.0000     -10.284585      -279.8578
  76   2.0000     -10.273161      -279.5469
  77   2.0000     -10.269542      -279.4485
  78   2.0000     -10.268982      -279.4332
  79   2.0000     -10.267574      -279.3949
  80   2.0000      -8.079044      -219.8420
  81   2.0000      -8.074899      -219.7292
  82   2.0000      -6.048127      -164.5779
  83   2.0000      -6.044192      -164.4708
  84   2.0000      -6.043464      -164.4510
  85   2.0000      -6.041333      -164.3930
  86   2.0000      -6.040256      -164.3637
  87   2.0000      -6.037340      -164.2844
  88   2.0000      -1.339235       -36.4424
  89   2.0000      -1.333232       -36.2791
  90   2.0000      -1.159228       -31.5442
  91   2.0000      -1.155586       -31.4451
  92   2.0000      -1.148959       -31.2648
  93   2.0000      -1.142304       -31.0837
  94   2.0000      -1.138203       -30.9721
  95   2.0000      -1.134755       -30.8783
  96   2.0000      -1.129767       -30.7425
  97   2.0000      -1.072529       -29.1850
  98   2.0000      -1.061609       -28.8879
  99   2.0000      -1.026873       -27.9426
 100   2.0000      -1.021556       -27.7980
 101   2.0000      -1.018208       -27.7069
 102   2.0000      -1.001839       -27.2614
 103   2.0000      -0.998142       -27.1608
 104   2.0000      -0.997225       -27.1359
 105   2.0000      -0.993960       -27.0470
 106   2.0000      -0.975428       -26.5428
 107   2.0000      -0.970970       -26.4214
 108   2.0000      -0.967806       -26.3353
 109   2.0000      -0.955593       -26.0030
 110   2.0000      -0.946629       -25.7591
 111   2.0000      -0.937412       -25.5083
 112   2.0000      -0.936082       -25.4721
 113   2.0000      -0.927102       -25.2277
 114   2.0000      -0.923667       -25.1343
 115   2.0000      -0.920282       -25.0421
 116   2.0000      -0.908217       -24.7138
 117   2.0000      -0.906076       -24.6556
 118   2.0000      -0.891662       -24.2634
 119   2.0000      -0.884580       -24.0707
 120   2.0000      -0.883473       -24.0405
 121   2.0000      -0.880310       -23.9544
 122   2.0000      -0.879109       -23.9218
 123   2.0000      -0.875408       -23.8211
 124   2.0000      -0.859952       -23.4005
 125   2.0000      -0.846058       -23.0224
 126   2.0000      -0.843256       -22.9462
 127   2.0000      -0.834676       -22.7127
 128   2.0000      -0.830824       -22.6079
 129   2.0000      -0.827523       -22.5181
 130   2.0000      -0.827291       -22.5117
 131   2.0000      -0.812728       -22.1155
 132   2.0000      -0.802515       -21.8375
 133   2.0000      -0.793027       -21.5793
 134   2.0000      -0.773574       -21.0500
 135   2.0000      -0.767367       -20.8811
 136   2.0000      -0.766269       -20.8512
 137   2.0000      -0.761067       -20.7097
 138   2.0000      -0.739662       -20.1272
 139   2.0000      -0.738215       -20.0878
 140   2.0000      -0.735360       -20.0102
 141   2.0000      -0.727075       -19.7847
 142   2.0000      -0.718735       -19.5578
 143   2.0000      -0.710703       -19.3392
 144   2.0000      -0.707288       -19.2463
 145   2.0000      -0.704827       -19.1793
 146   2.0000      -0.702980       -19.1291
 147   2.0000      -0.702254       -19.1093
 148   2.0000      -0.701398       -19.0860
 149   2.0000      -0.695393       -18.9226
 150   2.0000      -0.691892       -18.8273
 151   2.0000      -0.684386       -18.6231
 152   2.0000      -0.683507       -18.5992
 153   2.0000      -0.674058       -18.3420
 154   2.0000      -0.670103       -18.2344
 155   2.0000      -0.658829       -17.9277
 156   2.0000      -0.656752       -17.8711
 157   2.0000      -0.651940       -17.7402
 158   2.0000      -0.645900       -17.5758
 159   2.0000      -0.640280       -17.4229
 160   2.0000      -0.639954       -17.4140
 161   2.0000      -0.636549       -17.3214
 162   2.0000      -0.634628       -17.2691
 163   2.0000      -0.631261       -17.1775
 164   2.0000      -0.624222       -16.9859
 165   2.0000      -0.617353       -16.7990
 166   2.0000      -0.616553       -16.7773
 167   2.0000      -0.609402       -16.5827
 168   2.0000      -0.605818       -16.4851
 169   2.0000      -0.604021       -16.4363
 170   2.0000      -0.600773       -16.3479
 171   2.0000      -0.596153       -16.2222
 172   2.0000      -0.593528       -16.1507
 173   2.0000      -0.590937       -16.0802
 174   2.0000      -0.589411       -16.0387
 175   2.0000      -0.587206       -15.9787
 176   2.0000      -0.582063       -15.8387
 177   2.0000      -0.580690       -15.8014
 178   2.0000      -0.565862       -15.3979
 179   2.0000      -0.560663       -15.2564
 180   2.0000      -0.558350       -15.1935
 181   2.0000      -0.556313       -15.1380
 182   2.0000      -0.554102       -15.0779
 183   2.0000      -0.550304       -14.9745
 184   2.0000      -0.547834       -14.9073
 185   2.0000      -0.547209       -14.8903
 186   2.0000      -0.546406       -14.8685
 187   2.0000      -0.545208       -14.8359
 188   2.0000      -0.543751       -14.7962
 189   2.0000      -0.540928       -14.7194
 190   2.0000      -0.538493       -14.6531
 191   2.0000      -0.537148       -14.6165
 192   2.0000      -0.536019       -14.5858
 193   2.0000      -0.534902       -14.5554
 194   2.0000      -0.532782       -14.4977
 195   2.0000      -0.526974       -14.3397
 196   2.0000      -0.523911       -14.2563
 197   2.0000      -0.522226       -14.2105
 198   2.0000      -0.521168       -14.1817
 199   2.0000      -0.518848       -14.1186
 200   2.0000      -0.516507       -14.0549
 201   2.0000      -0.514937       -14.0122
 202   2.0000      -0.513027       -13.9602
 203   2.0000      -0.512840       -13.9551
 204   2.0000      -0.510096       -13.8804
 205   2.0000      -0.508321       -13.8321
 206   2.0000      -0.504865       -13.7381
 207   2.0000      -0.503805       -13.7092
 208   2.0000      -0.501768       -13.6538
 209   2.0000      -0.499638       -13.5958
 210   2.0000      -0.498646       -13.5689
 211   2.0000      -0.496624       -13.5138
 212   2.0000      -0.493113       -13.4183
 213   2.0000      -0.485892       -13.2218
 214   2.0000      -0.484633       -13.1875
 215   2.0000      -0.482835       -13.1386
 216   2.0000      -0.481617       -13.1055
 217   2.0000      -0.475102       -12.9282
 218   2.0000      -0.474864       -12.9217
 219   2.0000      -0.472582       -12.8596
 220   2.0000      -0.471896       -12.8409
 221   2.0000      -0.470266       -12.7966
 222   2.0000      -0.467910       -12.7325
 223   2.0000      -0.462773       -12.5927
 224   2.0000      -0.461271       -12.5518
 225   2.0000      -0.459937       -12.5155
 226   2.0000      -0.456590       -12.4244
 227   2.0000      -0.454296       -12.3620
 228   2.0000      -0.452510       -12.3134
 229   2.0000      -0.451277       -12.2799
 230   2.0000      -0.449629       -12.2350
 231   2.0000      -0.447411       -12.1747
 232   2.0000      -0.444565       -12.0972
 233   2.0000      -0.444162       -12.0863
 234   2.0000      -0.442683       -12.0460
 235   2.0000      -0.439805       -11.9677
 236   2.0000      -0.439409       -11.9569
 237   2.0000      -0.437673       -11.9097
 238   2.0000      -0.436548       -11.8791
 239   2.0000      -0.436083       -11.8664
 240   2.0000      -0.433522       -11.7967
 241   2.0000      -0.433264       -11.7897
 242   2.0000      -0.431887       -11.7523
 243   2.0000      -0.431555       -11.7432
 244   2.0000      -0.429247       -11.6804
 245   2.0000      -0.426975       -11.6186
 246   2.0000      -0.424864       -11.5611
 247   2.0000      -0.422449       -11.4954
 248   2.0000      -0.419246       -11.4083
 249   2.0000      -0.412447       -11.2233
 250   2.0000      -0.410326       -11.1655
 251   2.0000      -0.406572       -11.0634
 252   2.0000      -0.405747       -11.0409
 253   2.0000      -0.398680       -10.8486
 254   2.0000      -0.395551       -10.7635
 255   2.0000      -0.393574       -10.7097
 256   2.0000      -0.391735       -10.6596
 257   2.0000      -0.388179       -10.5629
 258   2.0000      -0.387462       -10.5434
 259   2.0000      -0.385768       -10.4973
 260   2.0000      -0.381669       -10.3857
 261   2.0000      -0.378526       -10.3002
 262   2.0000      -0.377549       -10.2736
 263   2.0000      -0.369772       -10.0620
 264   2.0000      -0.366776        -9.9805
 265   2.0000      -0.356711        -9.7066
 266   2.0000      -0.350051        -9.5254
 267   2.0000      -0.345535        -9.4025
 268   2.0000      -0.341268        -9.2864
 269   2.0000      -0.339514        -9.2386
 270   2.0000      -0.337655        -9.1880
 271   2.0000      -0.333937        -9.0869
 272   2.0000      -0.325559        -8.8589
 273   2.0000      -0.323927        -8.8145
 274   2.0000      -0.319420        -8.6919
 275   2.0000      -0.316377        -8.6091
 276   2.0000      -0.301341        -8.1999
 277   2.0000      -0.297412        -8.0930
 278   2.0000      -0.291827        -7.9410
 279   2.0000      -0.286127        -7.7859
 280   2.0000      -0.243505        -6.6261
 281   0.0000      -0.114165        -3.1066
 282   0.0000      -0.101252        -2.7552
 283   0.0000      -0.081425        -2.2157
 284   0.0000      -0.061496        -1.6734
 285   0.0000      -0.056930        -1.5491

MULLIKEN ATOMIC CHARGES
-----------------------
   0 C :    0.325569
   1 C :   -0.332738
   2 C :   -0.188131
   3 N :    0.153927
   4 C :   -0.194330
   5 N :    0.162472
   6 C :    0.057004
   7 C :    0.005868
   8 C :   -0.077328
   9 C :    0.097545
  10 C :    0.098329
  11 C :   -0.084595
  12 C :   -0.020345
  13 C :    0.035917
  14 C :    0.037347
  15 C :   -0.016827
  16 C :    0.155478
  17 O :   -0.170863
  18 C :   -0.079851
  19 C :   -0.031974
  20 C :   -0.129623
  21 S :    0.171894
  22 C :   -0.048830
  23 C :   -0.086199
  24 C :    0.068699
  25 C :    0.105008
  26 N :    0.177392
  27 O :   -0.221866
  28 O :   -0.205669
  29 C :    0.072016
  30 C :    0.096357
  31 C :    0.084782
  32 N :    0.208821
  33 O :   -0.218088
  34 O :   -0.210549
  35 C :    0.046894
  36 C :   -0.036964
  37 C :    0.150437
  38 N :   -0.263836
  39 C :    0.096009
  40 C :   -0.000762
  41 C :    0.153957
  42 O :   -0.166608
  43 C :   -0.025600
  44 C :   -0.082147
  45 C :    0.187868
  46 O :   -0.258125
  47 N :   -0.260546
  48 C :    0.098275
  49 C :   -0.002374
  50 C :    0.108733
  51 C :   -0.021435
  52 C :    0.066358
  53 C :   -0.110758
  54 S :    0.101680
  55 C :   -0.105045
  56 N :   -0.022162
  57 N :   -0.034624
  58 C :    0.085661
  59 C :    0.014442
  60 C :   -0.051624
  61 C :   -0.054987
  62 C :    0.337805
  63 C :   -0.351371
  64 C :   -0.181770
  65 N :    0.149396
  66 C :   -0.190540
  67 N :    0.143584
  68 C :    0.044313
  69 C :   -0.006507
  70 C :    0.146161
  71 O :   -0.137013
  72 C :   -0.077583
  73 C :    0.098047
  74 C :    0.095340
  75 C :   -0.083080
  76 C :   -0.019349
  77 C :    0.035493
  78 C :    0.036805
  79 C :   -0.015800
  80 H :   -0.014196
  81 H :   -0.007082
  82 H :   -0.007338
  83 H :   -0.003045
  84 H :   -0.004899
  85 H :   -0.015775
  86 H :    0.028318
  87 H :    0.062799
  88 H :    0.029023
  89 H :    0.032461
  90 H :    0.029997
  91 H :    0.027696
  92 H :    0.077972
  93 H :    0.009816
  94 H :   -0.021768
  95 H :    0.026322
  96 H :    0.049128
  97 H :    0.016110
  98 H :    0.029292
  99 H :    0.032453
 100 H :    0.027646
 101 H :    0.046276
 102 H :    0.025791
 103 H :    0.024196
 104 H :    0.024228
 105 H :    0.040079
 106 H :   -0.021118
 107 H :    0.010470
 108 H :    0.054203
 109 H :    0.011367
 110 H :   -0.010930
 111 H :   -0.008668
 112 H :   -0.008621
 113 H :   -0.004647
 114 H :   -0.004757
 115 H :   -0.016066
Sum of atomic charges:   -0.0000000

LOEWDIN ATOMIC CHARGES
----------------------
   0 C :    0.077551
   1 C :   -0.127587
   2 C :   -0.016060
   3 N :   -0.047884
   4 C :   -0.020863
   5 N :   -0.044703
   6 C :   -0.022703
   7 C :   -0.051301
   8 C :    0.035666
   9 C :   -0.007233
  10 C :   -0.004898
  11 C :    0.021603
  12 C :   -0.004788
  13 C :   -0.012290
  14 C :   -0.011163
  15 C :   -0.009184
  16 C :    0.082062
  17 O :   -0.149456
  18 C :   -0.082412
  19 C :    0.035364
  20 C :   -0.162318
  21 S :    0.479751
  22 C :   -0.150802
  23 C :   -0.058961
  24 C :   -0.026698
  25 C :    0.009828
  26 N :    0.277321
  27 O :   -0.187847
  28 O :   -0.185956
  29 C :   -0.017630
  30 C :   -0.024615
  31 C :    0.017245
  32 N :    0.275647
  33 O :   -0.186403
  34 O :   -0.176486
  35 C :    0.027654
  36 C :   -0.050221
  37 C :    0.096069
  38 N :   -0.002164
  39 C :    0.036751
  40 C :   -0.060613
  41 C :    0.085749
  42 O :   -0.170343
  43 C :   -0.093456
  44 C :   -0.133463
  45 C :    0.084285
  46 O :   -0.230205
  47 N :    0.002574
  48 C :    0.035466
  49 C :   -0.062746
  50 C :    0.053888
  51 C :    0.014914
  52 C :   -0.057625
  53 C :   -0.140313
  54 S :    0.387670
  55 C :   -0.156518
  56 N :   -0.051674
  57 N :   -0.068324
  58 C :   -0.010423
  59 C :    0.008169
  60 C :    0.062627
  61 C :   -0.081865
  62 C :    0.075664
  63 C :   -0.137039
  64 C :   -0.016862
  65 N :   -0.052898
  66 C :   -0.019731
  67 N :   -0.053774
  68 C :   -0.026430
  69 C :   -0.055532
  70 C :    0.083230
  71 O :   -0.132965
  72 C :    0.032991
  73 C :   -0.007569
  74 C :   -0.006201
  75 C :    0.019520
  76 C :   -0.005410
  77 C :   -0.013555
  78 C :   -0.011788
  79 C :   -0.009315
  80 H :    0.038858
  81 H :    0.039368
  82 H :    0.035268
  83 H :    0.033750
  84 H :    0.033051
  85 H :    0.032194
  86 H :    0.046604
  87 H :    0.045172
  88 H :    0.037277
  89 H :    0.032534
  90 H :    0.036166
  91 H :    0.041700
  92 H :    0.058463
  93 H :    0.035567
  94 H :    0.026415
  95 H :    0.024363
  96 H :    0.039681
  97 H :    0.021965
  98 H :    0.032966
  99 H :    0.033252
 100 H :    0.020480
 101 H :    0.037920
 102 H :    0.023357
 103 H :    0.031362
 104 H :    0.031305
 105 H :    0.056467
 106 H :    0.028333
 107 H :    0.038011
 108 H :    0.044633
 109 H :    0.041465
 110 H :    0.039801
 111 H :    0.038892
 112 H :    0.034823
 113 H :    0.033246
 114 H :    0.032935
 115 H :    0.032362

  Mayer bond orders larger than 0.100000
B(  0-C ,  1-C ) :   1.6506 B(  0-C ,  6-C ) :   0.9980 B(  0-C , 18-C ) :   1.0479
B(  1-C ,  2-C ) :   1.1436 B(  1-C ,  4-C ) :   1.1430 B(  2-C ,  3-N ) :   2.9650
B(  4-C ,  5-N ) :   2.9726 B(  6-C ,  7-C ) :   1.2151 B(  6-C , 11-C ) :   1.4424
B(  7-C ,  8-C ) :   1.4696 B(  7-C , 16-C ) :   0.9414 B(  8-C ,  9-C ) :   1.1800
B(  8-C , 80-H ) :   1.0168 B(  9-C , 10-C ) :   1.2544 B(  9-C , 15-C ) :   1.2436
B( 10-C , 11-C ) :   1.2096 B( 10-C , 12-C ) :   1.2380 B( 11-C , 81-H ) :   0.9891
B( 12-C , 13-C ) :   1.4902 B( 12-C , 82-H ) :   0.9975 B( 13-C , 14-C ) :   1.2593
B( 13-C , 83-H ) :   0.9887 B( 14-C , 15-C ) :   1.4880 B( 14-C , 84-H ) :   0.9894
B( 15-C , 85-H ) :   0.9979 B( 16-C , 17-O ) :   2.1538 B( 16-C , 18-C ) :   0.9491
B( 18-C , 19-C ) :   1.6493 B( 19-C , 20-C ) :   1.1113 B( 19-C , 86-H ) :   0.9228
B( 20-C , 21-S ) :   1.1309 B( 20-C , 24-C ) :   1.4999 B( 21-S , 22-C ) :   1.1319
B( 22-C , 23-C ) :   1.4428 B( 22-C , 35-C ) :   1.1646 B( 23-C , 24-C ) :   1.3742
B( 23-C , 31-C ) :   1.0293 B( 24-C , 25-C ) :   0.9731 B( 25-C , 26-N ) :   0.8293
B( 25-C , 29-C ) :   1.0489 B( 25-C , 87-H ) :   0.8724 B( 26-N , 27-O ) :   1.5311
B( 26-N , 28-O ) :   1.5754 B( 27-O , 28-O ) :   0.2655 B( 29-C , 30-C ) :   1.1142
B( 29-C , 88-H ) :   0.9303 B( 29-C , 89-H ) :   0.9201 B( 30-C , 31-C ) :   1.0703
B( 30-C , 90-H ) :   0.9071 B( 30-C , 91-H ) :   0.9138 B( 31-C , 32-N ) :   0.8274
B( 31-C , 92-H ) :   0.8554 B( 32-N , 33-O ) :   1.5886 B( 32-N , 34-O ) :   1.6035
B( 33-O , 34-O ) :   0.2640 B( 35-C , 36-C ) :   1.5848 B( 35-C , 93-H ) :   0.9182
B( 36-C , 37-C ) :   1.1666 B( 36-C , 94-H ) :   0.9776 B( 37-C , 38-N ) :   1.1823
B( 37-C , 44-C ) :   1.3028 B( 38-N , 39-C ) :   0.9415 B( 38-N , 41-C ) :   1.0165
B( 39-C , 40-C ) :   1.1200 B( 39-C , 95-H ) :   0.9503 B( 39-C , 96-H ) :   0.9291
B( 40-C , 97-H ) :   0.9688 B( 40-C , 98-H ) :   0.9681 B( 40-C , 99-H ) :   0.9643
B( 41-C , 42-O ) :   2.1636 B( 41-C , 43-C ) :   0.9609 B( 43-C , 44-C ) :   1.2556
B( 43-C , 50-C ) :   1.3723 B( 44-C , 45-C ) :   1.0204 B( 45-C , 46-O ) :   1.9238
B( 45-C , 47-N ) :   1.0960 B( 46-O , 93-H ) :   0.1327 B( 47-N , 48-C ) :   0.9426
B( 47-N , 50-C ) :   1.1424 B( 48-C , 49-C ) :   1.1165 B( 48-C ,100-H ) :   0.9496
B( 48-C ,101-H ) :   0.9233 B( 49-C ,102-H ) :   0.9676 B( 49-C ,103-H ) :   0.9676
B( 49-C ,104-H ) :   0.9620 B( 50-C , 51-C ) :   1.1595 B( 51-C , 52-C ) :   1.6186
B( 51-C ,105-H ) :   0.9548 B( 52-C , 53-C ) :   1.1162 B( 52-C ,106-H ) :   0.9474
B( 53-C , 54-S ) :   1.1041 B( 53-C , 57-N ) :   1.6536 B( 54-S , 55-C ) :   1.0823
B( 55-C , 56-N ) :   1.6646 B( 55-C , 58-C ) :   1.0898 B( 56-N , 57-N ) :   1.2494
B( 58-C , 59-C ) :   1.6278 B( 58-C ,107-H ) :   0.9576 B( 59-C , 60-C ) :   1.1265
B( 59-C ,108-H ) :   0.9868 B( 60-C , 61-C ) :   1.5645 B( 60-C ,109-H ) :   0.9596
B( 61-C , 62-C ) :   1.0589 B( 61-C , 70-C ) :   0.9316 B( 62-C , 63-C ) :   1.6278
B( 62-C , 68-C ) :   0.9914 B( 63-C , 64-C ) :   1.1448 B( 63-C , 66-C ) :   1.1463
B( 64-C , 65-N ) :   2.9623 B( 66-C , 67-N ) :   2.9599 B( 68-C , 69-C ) :   1.2139
B( 68-C , 75-C ) :   1.4462 B( 69-C , 70-C ) :   0.9403 B( 69-C , 72-C ) :   1.4738
B( 70-C , 71-O ) :   2.2257 B( 72-C , 73-C ) :   1.1808 B( 72-C ,110-H ) :   1.0151
B( 73-C , 74-C ) :   1.2534 B( 73-C , 79-C ) :   1.2440 B( 74-C , 75-C ) :   1.2104
B( 74-C , 76-C ) :   1.2392 B( 75-C ,111-H ) :   0.9880 B( 76-C , 77-C ) :   1.4909
B( 76-C ,112-H ) :   0.9967 B( 77-C , 78-C ) :   1.2580 B( 77-C ,113-H ) :   0.9884
B( 78-C , 79-C ) :   1.4897 B( 78-C ,114-H ) :   0.9890 B( 79-C ,115-H ) :   0.9974

-----------------------------------------------------------------------------
         ABSORPTION SPECTRUM VIA TRANSITION ELECTRIC DIPOLE MOMENTS
-----------------------------------------------------------------------------
State   Energy  Wavelength   fosc         T2         TX        TY        TZ
        (cm-1)    (nm)                  (au**2)     (au)      (au)      (au)
-----------------------------------------------------------------------------
   0   13985.2    715.0   1.589290627  37.41199  -4.64500   3.91058   0.73712
   1   19108.9    523.3   0.113935762   1.96290  -1.05848   0.64089   0.65711
   2   22606.3    442.4   0.247824206   3.60903  -0.82644   1.35163   1.04840
   3   23720.5    421.6   0.207633612   2.88171  -1.14225   1.23745   0.21373
   4   24577.0    406.9   0.346936687   4.64727   1.68133  -1.18351  -0.64785
   5   25410.0    393.5   0.000937509   0.01215   0.02170  -0.09306  -0.05491
   6   25492.4    392.3   0.147419462   1.90379  -0.45442   1.28612   0.20781
   7   25883.6    386.3   0.609010931   7.74596   1.33885  -2.05980  -1.30792
   8   26488.7    377.5   0.007403825   0.09202   0.17207  -0.20232  -0.14654
   9   26507.9    377.2   0.009286226   0.11533   0.28522  -0.10477  -0.15166
  10   27714.8    360.8   0.022018960   0.26155  -0.48964  -0.12370  -0.08066
  11   28427.8    351.8   0.040859596   0.47318  -0.09536   0.56793   0.37622
  12   28614.4    349.5   0.023592647   0.27144   0.37733  -0.17726  -0.31247
  13   28869.5    346.4   0.021309654   0.24300  -0.21876  -0.42056  -0.13518
  14   29203.3    342.4   0.036948466   0.41652  -0.21506   0.60129   0.09338
  15   29232.1    342.1   0.171467575   1.93107  -0.30661  -1.19076  -0.64741
  16   29571.0    338.2   0.131060588   1.45909  -0.33897   1.08763   0.40157
  17   30529.8    327.5   0.146535424   1.58014  -0.19093   0.97699   0.76758
  18   30729.1    325.4   0.027562271   0.29528   0.14682   0.40442   0.33192
  19   30880.1    323.8   0.127886607   1.36339  -0.49398  -0.73716  -0.75893
  20   31804.9    314.4   0.002656507   0.02750  -0.10252   0.13000  -0.00930
  21   32368.7    308.9   0.005086768   0.05174  -0.06206  -0.15060   0.15875
  22   32428.1    308.4   0.008900287   0.09036  -0.10106   0.27434  -0.06987
  23   32767.2    305.2   0.484863696   4.87142   0.52286   2.14163  -0.10704
  24   32976.0    303.3   0.077787759   0.77659  -0.22094  -0.66594  -0.53319
  25   33087.1    302.2   0.668229285   6.64878   0.59298   1.97011   1.55429
  26   33513.8    298.4   0.148750245   1.46120   0.71343   0.74598   0.62907
  27   33784.8    296.0   0.001619689   0.01578  -0.09421  -0.08039  -0.02109
  28   34022.7    293.9   0.003344816   0.03237   0.16684   0.06716   0.00455
  29   34798.7    287.4   0.019334856   0.18292  -0.24653   0.27044  -0.22136
  30   34980.4    285.9   0.030616818   0.28815   0.09799   0.44105   0.28985
  31   35355.4    282.8   0.118357476   1.10209  -0.32127   0.73226   0.68020
  32   35438.5    282.2   0.007918782   0.07356  -0.21639  -0.10860  -0.12225
  33   35729.0    279.9   0.253204452   2.33306   0.93830   0.97621   0.70688
  34   36543.1    273.6   0.030625369   0.27590  -0.38059  -0.25629   0.25567
  35   36612.3    273.1   0.075999615   0.68338  -0.43405   0.68233  -0.17146
  36   36933.5    270.8   0.096025933   0.85594  -0.14931   0.18074   0.89498
  37   37657.1    265.6   0.025129040   0.21969   0.44983   0.11311  -0.06744
  38   37855.3    264.2   0.010589387   0.09209  -0.14974   0.21094   0.15866
  39   37980.0    263.3   0.277621255   2.40643   1.27631   0.81882   0.32711
  40   38226.1    261.6   0.096575659   0.83173   0.89343   0.12621   0.13262
  41   38575.1    259.2   0.020250496   0.17282   0.05694   0.38818   0.13746
  42   38631.4    258.9   0.098593858   0.84021   0.80028  -0.42460  -0.13954
  43   38853.3    257.4   0.057215107   0.48480   0.36075   0.55288   0.22130
  44   39134.0    255.5   0.009102975   0.07658  -0.27574   0.02336  -0.00126
  45   39404.7    253.8   0.005218854   0.04360   0.19053   0.06454   0.05599
  46   39671.8    252.1   0.030552541   0.25354  -0.43408  -0.15809  -0.20030
  47   39762.4    251.5   0.027763190   0.22986   0.11702  -0.45798  -0.08017
  48   39870.2    250.8   0.002970859   0.02453   0.06553   0.12900   0.05996
  49   40033.0    249.8   0.136919030   1.12596  -0.71335   0.78526  -0.02139
  50   40086.5    249.5   0.001952511   0.01604  -0.10697   0.06546   0.01753

FINAL SINGLE POINT ENERGY     -4248.953911181757

DIPOLE MOMENT
-------------
                                X             Y             Z
Electronic contribution:     -3.03905      -4.73103       4.30686
Nuclear contribution   :      3.14898       3.70030      -4.70896
                        -----------------------------------------
Total Dipole Moment    :      0.10993      -1.03073      -0.40210
                        -----------------------------------------
Magnitude (a.u.)       :      1.11183
Magnitude (Debye)      :      2.82605

Rotational constants in cm-1:     0.002452     0.000147     0.000143
Rotational constants in MHz :    73.506324     4.418556     4.289247

                             ****ORCA TERMINATED NORMALLY****
TOTAL RUN TIME: 0 days 0 hours 22 minutes 21 seconds 415 msec
